nqpoint: 300    
npath: 3      
segment_nqpoint:
- 100
- 100
- 100
labels:
- [ 'G', 'M' ]
- [ 'M', 'K' ]
- [ 'K', 'G' ]
reciprocal_lattice:
- [   0.29578195,   0.17076979,   0.00000000 ] # a*
- [   0.00000000,   0.34153958,   0.00000000 ] # b*
- [   0.00000000,   0.00000000,   0.03898179 ] # c*
natom: 7      
lattice:
- [     3.380868905591410,     0.000000000000000,     0.000000000000000 ] # a
- [    -1.690434452795705,     2.927918359103399,     0.000000000000000 ] # b
- [     0.000000000000000,     0.000000000000000,    25.653004594654817 ] # c
points:
- symbol: C # 1
  coordinates: [  0.000000000000000,  0.000000000000000,  0.448519065982679 ]
  mass: 12.010700
- symbol: C # 2
  coordinates: [  0.333332985432215,  0.666666983183674,  0.602187114271683 ]
  mass: 12.010700
- symbol: F # 3
  coordinates: [  0.666666984744047,  0.333332985985145,  0.350836096675993 ]
  mass: 18.998403
- symbol: N # 4
  coordinates: [  0.333332985432215,  0.666666983183674,  0.553587834309707 ]
  mass: 14.006700
- symbol: O # 5
  coordinates: [  0.333332985432215,  0.666666983183674,  0.649163903324007 ]
  mass: 15.999400
- symbol: Zr # 6
  coordinates: [  0.333332985432215,  0.666666983183674,  0.401804835221813 ]
  mass: 91.224000
- symbol: Zr # 7
  coordinates: [  0.666666984744047,  0.333332985985145,  0.497133855815685 ]
  mass: 91.224000

phonon:
- q-position: [    0.0000000,    0.0000000,    0.0000000 ]
  distance:    0.0000000
  band:
  - # 1
    frequency:   -1.0078676400
  - # 2
    frequency:   -1.0078676400
  - # 3
    frequency:   -0.0000019483
  - # 4
    frequency:   -0.0000001618
  - # 5
    frequency:    0.0000018275
  - # 6
    frequency:    4.6018854385
  - # 7
    frequency:    4.6018854385
  - # 8
    frequency:    5.1977078455
  - # 9
    frequency:    5.1977078455
  - # 10
    frequency:    6.1388760468
  - # 11
    frequency:    6.3708407286
  - # 12
    frequency:    6.3708407286
  - # 13
    frequency:    9.0977835344
  - # 14
    frequency:   11.6873610691
  - # 15
    frequency:   16.2379820211
  - # 16
    frequency:   17.1559713358
  - # 17
    frequency:   17.1559713358
  - # 18
    frequency:   17.2794312865
  - # 19
    frequency:   17.2794312865
  - # 20
    frequency:   38.3563923299
  - # 21
    frequency:   69.0825671014

- q-position: [    0.0050505,    0.0000000,    0.0000000 ]
  distance:    0.0017249
  band:
  - # 1
    frequency:   -1.0072799863
  - # 2
    frequency:   -1.0058954882
  - # 3
    frequency:   -0.1215036592
  - # 4
    frequency:    0.0671053256
  - # 5
    frequency:    0.1554497802
  - # 6
    frequency:    4.6024343756
  - # 7
    frequency:    4.6029244774
  - # 8
    frequency:    5.1989047275
  - # 9
    frequency:    5.1991161482
  - # 10
    frequency:    6.1382008067
  - # 11
    frequency:    6.3709238354
  - # 12
    frequency:    6.3723178613
  - # 13
    frequency:    9.0972850857
  - # 14
    frequency:   11.6866469517
  - # 15
    frequency:   16.2378847322
  - # 16
    frequency:   17.1569791458
  - # 17
    frequency:   17.1574312219
  - # 18
    frequency:   17.2796388639
  - # 19
    frequency:   17.2798338922
  - # 20
    frequency:   38.3564006747
  - # 21
    frequency:   69.0810706455

- q-position: [    0.0101010,    0.0000000,    0.0000000 ]
  distance:    0.0034499
  band:
  - # 1
    frequency:   -1.0055246847
  - # 2
    frequency:   -0.9999942967
  - # 3
    frequency:   -0.1535208516
  - # 4
    frequency:    0.1342989641
  - # 5
    frequency:    0.2476094570
  - # 6
    frequency:    4.6040730870
  - # 7
    frequency:    4.6060296036
  - # 8
    frequency:    5.2024895408
  - # 9
    frequency:    5.2033343933
  - # 10
    frequency:    6.1362202633
  - # 11
    frequency:    6.3711724747
  - # 12
    frequency:    6.3766996674
  - # 13
    frequency:    9.0957903577
  - # 14
    frequency:   11.6845056908
  - # 15
    frequency:   16.2375926387
  - # 16
    frequency:   17.1599791363
  - # 17
    frequency:   17.1617835174
  - # 18
    frequency:   17.2802747768
  - # 19
    frequency:   17.2810550145
  - # 20
    frequency:   38.3564256450
  - # 21
    frequency:   69.0765859057

- q-position: [    0.0151515,    0.0000000,    0.0000000 ]
  distance:    0.0051748
  band:
  - # 1
    frequency:   -1.0026240283
  - # 2
    frequency:   -0.9902056093
  - # 3
    frequency:   -0.1700216161
  - # 4
    frequency:    0.2016642098
  - # 5
    frequency:    0.3381180455
  - # 6
    frequency:    4.6067775202
  - # 7
    frequency:    4.6111652172
  - # 8
    frequency:    5.2084447211
  - # 9
    frequency:    5.2103425630
  - # 10
    frequency:    6.1330584707
  - # 11
    frequency:    6.3715846200
  - # 12
    frequency:    6.3838488918
  - # 13
    frequency:    9.0933011978
  - # 14
    frequency:   11.6809405678
  - # 15
    frequency:   16.2371050817
  - # 16
    frequency:   17.1648987913
  - # 17
    frequency:   17.1689427298
  - # 18
    frequency:   17.2813808739
  - # 19
    frequency:   17.2831380931
  - # 20
    frequency:   38.3564670492
  - # 21
    frequency:   69.0691267425

- q-position: [    0.0202020,    0.0000000,    0.0000000 ]
  distance:    0.0068998
  band:
  - # 1
    frequency:   -0.9986129717
  - # 2
    frequency:   -0.9765851229
  - # 3
    frequency:   -0.1793292075
  - # 4
    frequency:    0.2692748020
  - # 5
    frequency:    0.4303561929
  - # 6
    frequency:    4.6105083918
  - # 7
    frequency:    4.6182732054
  - # 8
    frequency:    5.2167407848
  - # 9
    frequency:    5.2201072014
  - # 10
    frequency:    6.1288899075
  - # 11
    frequency:    6.3721569518
  - # 12
    frequency:    6.3935692040
  - # 13
    frequency:    9.0898206576
  - # 14
    frequency:   11.6759570750
  - # 15
    frequency:   16.2364210316
  - # 16
    frequency:   17.1716094667
  - # 17
    frequency:   17.1787537302
  - # 18
    frequency:   17.2830350528
  - # 19
    frequency:   17.2861685744
  - # 20
    frequency:   38.3565245700
  - # 21
    frequency:   69.0587161768

- q-position: [    0.0252525,    0.0000000,    0.0000000 ]
  distance:    0.0086247
  band:
  - # 1
    frequency:   -0.9935361223
  - # 2
    frequency:   -0.9591844393
  - # 3
    frequency:   -0.1840737686
  - # 4
    frequency:    0.3371912891
  - # 5
    frequency:    0.5247073278
  - # 6
    frequency:    4.6152123382
  - # 7
    frequency:    4.6272747070
  - # 8
    frequency:    5.2273360536
  - # 9
    frequency:    5.2325812896
  - # 10
    frequency:    6.1239070229
  - # 11
    frequency:    6.3728849442
  - # 12
    frequency:    6.4056378765
  - # 13
    frequency:    9.0853529547
  - # 14
    frequency:   11.6695629510
  - # 15
    frequency:   16.2355391788
  - # 16
    frequency:   17.1799132055
  - # 17
    frequency:   17.1909678753
  - # 18
    frequency:   17.2853649859
  - # 19
    frequency:   17.2902983995
  - # 20
    frequency:   38.3565977685
  - # 21
    frequency:   69.0453862721

- q-position: [    0.0303030,    0.0000000,    0.0000000 ]
  distance:    0.0103497
  band:
  - # 1
    frequency:   -0.9874440651
  - # 2
    frequency:   -0.9380292333
  - # 3
    frequency:   -0.1847684126
  - # 4
    frequency:    0.4054585847
  - # 5
    frequency:    0.6209989933
  - # 6
    frequency:    4.6208234196
  - # 7
    frequency:    4.6380724523
  - # 8
    frequency:    5.2401763384
  - # 9
    frequency:    5.2477040985
  - # 10
    frequency:    6.1182945857
  - # 11
    frequency:    6.3737629870
  - # 12
    frequency:    6.4198317481
  - # 13
    frequency:    9.0799034210
  - # 14
    frequency:   11.6617682266
  - # 15
    frequency:   16.2344580398
  - # 16
    frequency:   17.1895220207
  - # 17
    frequency:   17.2051990152
  - # 18
    frequency:   17.2885695852
  - # 19
    frequency:   17.2957908585
  - # 20
    frequency:   38.3566860887
  - # 21
    frequency:   69.0291779690

- q-position: [    0.0353535,    0.0000000,    0.0000000 ]
  distance:    0.0120746
  band:
  - # 1
    frequency:   -0.9803894673
  - # 2
    frequency:   -0.9130964101
  - # 3
    frequency:   -0.1808150620
  - # 4
    frequency:    0.4741048431
  - # 5
    frequency:    0.7189797132
  - # 6
    frequency:    4.6272648834
  - # 7
    frequency:    4.6505535597
  - # 8
    frequency:    5.2551946457
  - # 9
    frequency:    5.2654010505
  - # 10
    frequency:    6.1122148652
  - # 11
    frequency:    6.3747845426
  - # 12
    frequency:    6.4359424439
  - # 13
    frequency:    9.0734784410
  - # 14
    frequency:   11.6525852801
  - # 15
    frequency:   16.2331760617
  - # 16
    frequency:   17.2000310099
  - # 17
    frequency:   17.2208520053
  - # 18
    frequency:   17.2929468271
  - # 19
    frequency:   17.3030931894
  - # 20
    frequency:   38.3567888638
  - # 21
    frequency:   69.0101408753

- q-position: [    0.0404040,    0.0000000,    0.0000000 ]
  distance:    0.0137996
  band:
  - # 1
    frequency:   -0.9724233954
  - # 2
    frequency:   -0.8842918353
  - # 3
    frequency:   -0.1706900141
  - # 4
    frequency:    0.5431416003
  - # 5
    frequency:    0.8184148332
  - # 6
    frequency:    4.6344510841
  - # 7
    frequency:    4.6645926428
  - # 8
    frequency:    5.2723109691
  - # 9
    frequency:    5.2855836248
  - # 10
    frequency:    6.1058022868
  - # 11
    frequency:    6.3759423387
  - # 12
    frequency:    6.4537822076
  - # 13
    frequency:    9.0660853826
  - # 14
    frequency:   11.6420288998
  - # 15
    frequency:   16.2316917118
  - # 16
    frequency:   17.2108977464
  - # 17
    frequency:   17.2370429455
  - # 18
    frequency:   17.2989154822
  - # 19
    frequency:   17.3129176982
  - # 20
    frequency:   38.3569053238
  - # 21
    frequency:   68.9883330112

- q-position: [    0.0454545,    0.0000000,    0.0000000 ]
  distance:    0.0155245
  band:
  - # 1
    frequency:   -0.9635922064
  - # 2
    frequency:   -0.8514282556
  - # 3
    frequency:   -0.1514365532
  - # 4
    frequency:    0.6125649648
  - # 5
    frequency:    0.9190992032
  - # 6
    frequency:    4.6422894564
  - # 7
    frequency:    4.6800550741
  - # 8
    frequency:    5.2914322243
  - # 9
    frequency:    5.3081493529
  - # 10
    frequency:    6.0991641952
  - # 11
    frequency:    6.3772285973
  - # 12
    frequency:    6.4731837137
  - # 13
    frequency:    9.0577325244
  - # 14
    frequency:   11.6301163498
  - # 15
    frequency:   16.2300035397
  - # 16
    frequency:   17.2214650880
  - # 17
    frequency:   17.2526334399
  - # 18
    frequency:   17.3069935881
  - # 19
    frequency:   17.3262090917
  - # 20
    frequency:   38.3570346040
  - # 21
    frequency:   68.9638205125

- q-position: [    0.0505051,    0.0000000,    0.0000000 ]
  distance:    0.0172495
  band:
  - # 1
    frequency:   -0.9539352348
  - # 2
    frequency:   -0.8142003318
  - # 3
    frequency:   -0.1160863804
  - # 4
    frequency:    0.6823575400
  - # 5
    frequency:    1.0208543696
  - # 6
    frequency:    4.6506824485
  - # 7
    frequency:    4.6968002441
  - # 8
    frequency:    5.3124523756
  - # 9
    frequency:    5.3329819439
  - # 10
    frequency:    6.0923846394
  - # 11
    frequency:    6.3786352989
  - # 12
    frequency:    6.4939969439
  - # 13
    frequency:    9.0484289818
  - # 14
    frequency:   11.6168674362
  - # 15
    frequency:   16.2281102075
  - # 16
    frequency:   17.2310816720
  - # 17
    frequency:   17.2666022788
  - # 18
    frequency:   17.3176793830
  - # 19
    frequency:   17.3437746087
  - # 20
    frequency:   38.3571757546
  - # 21
    frequency:   68.9366772931

- q-position: [    0.0555556,    0.0000000,    0.0000000 ]
  distance:    0.0189744
  band:
  - # 1
    frequency:   -0.9434833478
  - # 2
    frequency:   -0.7721502023
  - # 3
    frequency:   -0.0094796379
  - # 4
    frequency:    0.7524907256
  - # 5
    frequency:    1.1235244896
  - # 6
    frequency:    4.6595293396
  - # 7
    frequency:    4.7146846677
  - # 8
    frequency:    5.3352527814
  - # 9
    frequency:    5.3599515831
  - # 10
    frequency:    6.0855291366
  - # 11
    frequency:    6.3801544841
  - # 12
    frequency:    6.5160851756
  - # 13
    frequency:    9.0381846369
  - # 14
    frequency:   11.6023045705
  - # 15
    frequency:   16.2260104847
  - # 16
    frequency:   17.2393079099
  - # 17
    frequency:   17.2785972495
  - # 18
    frequency:   17.3312468630
  - # 19
    frequency:   17.3657342125
  - # 20
    frequency:   38.3573277518
  - # 21
    frequency:   68.9069846687

- q-position: [    0.0606061,    0.0000000,    0.0000000 ]
  distance:    0.0206994
  band:
  - # 1
    frequency:   -0.9322583028
  - # 2
    frequency:   -0.7246113991
  - # 3
    frequency:    0.1339793644
  - # 4
    frequency:    0.8229270768
  - # 5
    frequency:    1.2269728425
  - # 6
    frequency:    4.6687278878
  - # 7
    frequency:    4.7335648069
  - # 8
    frequency:    5.3597027684
  - # 9
    frequency:    5.3889154258
  - # 10
    frequency:    6.0786493287
  - # 11
    frequency:    6.3817785909
  - # 12
    frequency:    6.5393211707
  - # 13
    frequency:    9.0270100736
  - # 14
    frequency:   11.5864528269
  - # 15
    frequency:   16.2237032127
  - # 16
    frequency:   17.2460508814
  - # 17
    frequency:   17.2889659630
  - # 18
    frequency:   17.3476125447
  - # 19
    frequency:   17.3914919333
  - # 20
    frequency:   38.3574895088
  - # 21
    frequency:   68.8748309444

- q-position: [    0.0656566,    0.0000000,    0.0000000 ]
  distance:    0.0224243
  band:
  - # 1
    frequency:   -0.9202727429
  - # 2
    frequency:   -0.6706070748
  - # 3
    frequency:    0.2035056501
  - # 4
    frequency:    0.8936224831
  - # 5
    frequency:    1.3310786200
  - # 6
    frequency:    4.6781757787
  - # 7
    frequency:    4.7532995103
  - # 8
    frequency:    5.3856604187
  - # 9
    frequency:    5.4197182962
  - # 10
    frequency:    6.0717870819
  - # 11
    frequency:    6.3835008284
  - # 12
    frequency:    6.5635840261
  - # 13
    frequency:    9.0149165221
  - # 14
    frequency:   11.5693399895
  - # 15
    frequency:   16.2211872439
  - # 16
    frequency:   17.2514978506
  - # 17
    frequency:   17.2982831217
  - # 18
    frequency:   17.3664036897
  - # 19
    frequency:   17.4202108972
  - # 20
    frequency:   38.3576598882
  - # 21
    frequency:   68.8403109684

- q-position: [    0.0707071,    0.0000000,    0.0000000 ]
  distance:    0.0241493
  band:
  - # 1
    frequency:   -0.9075306261
  - # 2
    frequency:   -0.6086479518
  - # 3
    frequency:    0.2666725324
  - # 4
    frequency:    0.9645280208
  - # 5
    frequency:    1.4357337082
  - # 6
    frequency:    4.6877718657
  - # 7
    frequency:    4.7737520025
  - # 8
    frequency:    5.4129735413
  - # 9
    frequency:    5.4521935680
  - # 10
    frequency:    6.0649779329
  - # 11
    frequency:    6.3853155862
  - # 12
    frequency:    6.5887567972
  - # 13
    frequency:    9.0019158147
  - # 14
    frequency:   11.5509965875
  - # 15
    frequency:   16.2184613631
  - # 16
    frequency:   17.2559431242
  - # 17
    frequency:   17.3070198166
  - # 18
    frequency:   17.3871332470
  - # 19
    frequency:   17.4511464213
  - # 20
    frequency:   38.3578377150
  - # 21
    frequency:   68.8035256553

- q-position: [    0.0757576,    0.0000000,    0.0000000 ]
  distance:    0.0258742
  band:
  - # 1
    frequency:   -0.8940278814
  - # 2
    frequency:   -0.5362834582
  - # 3
    frequency:    0.3284836374
  - # 4
    frequency:    1.0355914266
  - # 5
    frequency:    1.5408394542
  - # 6
    frequency:    4.6974172144
  - # 7
    frequency:    4.7947913950
  - # 8
    frequency:    5.4414807821
  - # 9
    frequency:    5.4861641752
  - # 10
    frequency:    6.0582539658
  - # 11
    frequency:    6.3872188775
  - # 12
    frequency:    6.6147248412
  - # 13
    frequency:    8.9880203547
  - # 14
    frequency:   11.5314559147
  - # 15
    frequency:   16.2155242001
  - # 16
    frequency:   17.2596626743
  - # 17
    frequency:   17.3154841141
  - # 18
    frequency:   17.4093270728
  - # 19
    frequency:   17.4837078783
  - # 20
    frequency:   38.3580217900
  - # 21
    frequency:   68.7645814808

- q-position: [    0.0808081,    0.0000000,    0.0000000 ]
  distance:    0.0275992
  band:
  - # 1
    frequency:   -0.8797531141
  - # 2
    frequency:   -0.4489191817
  - # 3
    frequency:    0.3907156360
  - # 4
    frequency:    1.1067582037
  - # 5
    frequency:    1.6463035412
  - # 6
    frequency:    4.7070159725
  - # 7
    frequency:    4.8162937243
  - # 8
    frequency:    5.4710128206
  - # 9
    frequency:    5.5214436559
  - # 10
    frequency:    6.0516462825
  - # 11
    frequency:    6.3892088139
  - # 12
    frequency:    6.6413747679
  - # 13
    frequency:    8.9732431007
  - # 14
    frequency:   11.5107540307
  - # 15
    frequency:   16.2123741403
  - # 16
    frequency:   17.2628703283
  - # 17
    frequency:   17.3238612562
  - # 18
    frequency:   17.4325696027
  - # 19
    frequency:   17.5174209723
  - # 20
    frequency:   38.3582109028
  - # 21
    frequency:   68.7235899525

- q-position: [    0.0858586,    0.0000000,    0.0000000 ]
  distance:    0.0293241
  band:
  - # 1
    frequency:   -0.8646882256
  - # 2
    frequency:   -0.3356156144
  - # 3
    frequency:    0.4541652360
  - # 4
    frequency:    1.1779724118
  - # 5
    frequency:    1.7520371111
  - # 6
    frequency:    4.7164760960
  - # 7
    frequency:    4.8381425500
  - # 8
    frequency:    5.5013936021
  - # 9
    frequency:    5.5578370835
  - # 10
    frequency:    6.0451872824
  - # 11
    frequency:    6.3912861074
  - # 12
    frequency:    6.6685938744
  - # 13
    frequency:    8.9575975655
  - # 14
    frequency:   11.4889297422
  - # 15
    frequency:   16.2090092420
  - # 16
    frequency:   17.2657187651
  - # 17
    frequency:   17.3322586612
  - # 18
    frequency:   17.4565047181
  - # 19
    frequency:   17.5518852096
  - # 20
    frequency:   38.3584038462
  - # 21
    frequency:   68.6806670586

- q-position: [    0.0909091,    0.0000000,    0.0000000 ]
  distance:    0.0310491
  band:
  - # 1
    frequency:   -0.8488088531
  - # 2
    frequency:   -0.1459014983
  - # 3
    frequency:    0.5191563468
  - # 4
    frequency:    1.2491772117
  - # 5
    frequency:    1.8579522222
  - # 6
    frequency:    4.7257099652
  - # 7
    frequency:    4.8602291717
  - # 8
    frequency:    5.5324415577
  - # 9
    frequency:    5.5951416522
  - # 10
    frequency:    6.0389130266
  - # 11
    frequency:    6.3934545922
  - # 12
    frequency:    6.6962699506
  - # 13
    frequency:    8.9410978321
  - # 14
    frequency:   11.4660245628
  - # 15
    frequency:   16.2054271644
  - # 16
    frequency:   17.2683135564
  - # 17
    frequency:   17.3407364987
  - # 18
    frequency:   17.4808235508
  - # 19
    frequency:   17.5867457602
  - # 20
    frequency:   38.3585994296
  - # 21
    frequency:   68.6359326988

- q-position: [    0.0959596,    0.0000000,    0.0000000 ]
  distance:    0.0327740
  band:
  - # 1
    frequency:   -0.8320845668
  - # 2
    frequency:    0.2689556130
  - # 3
    frequency:    0.5856718311
  - # 4
    frequency:    1.3203152318
  - # 5
    frequency:    1.9639596771
  - # 6
    frequency:    4.7346349202
  - # 7
    frequency:    4.8824525306
  - # 8
    frequency:    5.5639707755
  - # 9
    frequency:    5.6331465459
  - # 10
    frequency:    6.0328660842
  - # 11
    frequency:    6.3957217554
  - # 12
    frequency:    6.7242913621
  - # 13
    frequency:    8.9237585850
  - # 14
    frequency:   11.4420826489
  - # 15
    frequency:   16.2016251110
  - # 16
    frequency:   17.2707270409
  - # 17
    frequency:   17.3493261866
  - # 18
    frequency:   17.5052524186
  - # 19
    frequency:   17.6216773383
  - # 20
    frequency:   38.3587964927
  - # 21
    frequency:   68.5895101018

- q-position: [    0.1010101,    0.0000000,    0.0000000 ]
  distance:    0.0344989
  band:
  - # 1
    frequency:   -0.8144787804
  - # 2
    frequency:    0.4103459142
  - # 3
    frequency:    0.6533962644
  - # 4
    frequency:    1.3913288187
  - # 5
    frequency:    2.0699672120
  - # 6
    frequency:    4.7431737418
  - # 7
    frequency:    4.9047188755
  - # 8
    frequency:    5.5957921019
  - # 9
    frequency:    5.6716314337
  - # 10
    frequency:    6.0270995250
  - # 11
    frequency:    6.3980992607
  - # 12
    frequency:    6.7525473360
  - # 13
    frequency:    8.9055951569
  - # 14
    frequency:   11.4171507116
  - # 15
    frequency:   16.1975997917
  - # 16
    frequency:   17.2730088188
  - # 17
    frequency:   17.3580413437
  - # 18
    frequency:   17.5295440903
  - # 19
    frequency:   17.6563755455
  - # 20
    frequency:   38.3589939185
  - # 21
    frequency:   68.5415252306

- q-position: [    0.1060606,    0.0000000,    0.0000000 ]
  distance:    0.0362239
  band:
  - # 1
    frequency:   -0.7959483404
  - # 2
    frequency:    0.5171350358
  - # 3
    frequency:    0.7217926069
  - # 4
    frequency:    1.4621602165
  - # 5
    frequency:    2.1758780148
  - # 6
    frequency:    4.7512550977
  - # 7
    frequency:    4.9269412649
  - # 8
    frequency:    5.6277141666
  - # 9
    frequency:    5.7103623295
  - # 10
    frequency:    6.0216833187
  - # 11
    frequency:    6.4006034379
  - # 12
    frequency:    6.7809283906
  - # 13
    frequency:    8.8866235901
  - # 14
    frequency:   11.3912779036
  - # 15
    frequency:   16.1933474045
  - # 16
    frequency:   17.2751930195
  - # 17
    frequency:   17.3668843552
  - # 18
    frequency:   17.5534722141
  - # 19
    frequency:   17.6905525007
  - # 20
    frequency:   38.3591906465
  - # 21
    frequency:   68.4921061825

- q-position: [    0.1111111,    0.0000000,    0.0000000 ]
  distance:    0.0379488
  band:
  - # 1
    frequency:   -0.7764427501
  - # 2
    frequency:    0.6086091676
  - # 3
    frequency:    0.7902462696
  - # 4
    frequency:    1.5327517117
  - # 5
    frequency:    2.2815895250
  - # 6
    frequency:    4.7588139668
  - # 7
    frequency:    4.9490389808
  - # 8
    frequency:    5.6595443501
  - # 9
    frequency:    5.7490821555
  - # 10
    frequency:    6.0167157924
  - # 11
    frequency:    6.4032557053
  - # 12
    frequency:    6.8093268668
  - # 13
    frequency:    8.8668607103
  - # 14
    frequency:   11.3645156815
  - # 15
    frequency:   16.1888636386
  - # 16
    frequency:   17.2773031884
  - # 17
    frequency:   17.3758504101
  - # 18
    frequency:   17.5768280476
  - # 19
    frequency:   17.7239348843
  - # 20
    frequency:   38.3593856848
  - # 21
    frequency:   68.4413825851

- q-position: [    0.1161616,    0.0000000,    0.0000000 ]
  distance:    0.0396738
  band:
  - # 1
    frequency:   -0.7559029673
  - # 2
    frequency:    0.6916628282
  - # 3
    frequency:    0.8582185301
  - # 4
    frequency:    1.6030457627
  - # 5
    frequency:    2.3869924668
  - # 6
    frequency:    4.7657920490
  - # 7
    frequency:    4.9709369173
  - # 8
    frequency:    5.6910897301
  - # 9
    frequency:    5.7874899097
  - # 10
    frequency:    6.0123462369
  - # 11
    frequency:    6.4060828717
  - # 12
    frequency:    6.8376375279
  - # 13
    frequency:    8.8463242131
  - # 14
    frequency:   11.3369176426
  - # 15
    frequency:   16.1841436972
  - # 16
    frequency:   17.2793555616
  - # 17
    frequency:   17.3849300559
  - # 18
    frequency:   17.5994187134
  - # 19
    frequency:   17.7562633333
  - # 20
    frequency:   38.3595781210
  - # 21
    frequency:   68.3894849936

- q-position: [    0.1212121,    0.0000000,    0.0000000 ]
  distance:    0.0413987
  band:
  - # 1
    frequency:   -0.7342596790
  - # 2
    frequency:    0.7696904275
  - # 3
    frequency:    0.9253353475
  - # 4
    frequency:    1.6729851298
  - # 5
    frequency:    2.4919700698
  - # 6
    frequency:    4.7721381623
  - # 7
    frequency:    4.9925650079
  - # 8
    frequency:    5.7221580733
  - # 9
    frequency:    5.8251932351
  - # 10
    frequency:    6.0088238535
  - # 11
    frequency:    6.4091172509
  - # 12
    frequency:    6.8657582025
  - # 13
    frequency:    8.8250327592
  - # 14
    frequency:   11.3085393379
  - # 15
    frequency:   16.1791823399
  - # 16
    frequency:   17.2813612762
  - # 17
    frequency:   17.3941108665
  - # 18
    frequency:   17.6210664188
  - # 19
    frequency:   17.7872925859
  - # 20
    frequency:   38.3597671337
  - # 21
    frequency:   68.3365442929

- q-position: [    0.1262626,    0.0000000,    0.0000000 ]
  distance:    0.0431237
  band:
  - # 1
    frequency:   -0.7114309029
  - # 2
    frequency:    0.8445691772
  - # 3
    frequency:    0.9913983543
  - # 4
    frequency:    1.7425130117
  - # 5
    frequency:    2.5963974347
  - # 6
    frequency:    4.7778086246
  - # 7
    frequency:    5.0138577442
  - # 8
    frequency:    5.7525589604
  - # 9
    frequency:    5.8615938151
  - # 10
    frequency:    6.0066136067
  - # 11
    frequency:    6.4123964999
  - # 12
    frequency:    6.8935904530
  - # 13
    frequency:    8.8030060777
  - # 14
    frequency:   11.2794380616
  - # 15
    frequency:   16.1739739444
  - # 16
    frequency:   17.2833278836
  - # 17
    frequency:   17.4033785619
  - # 18
    frequency:   17.6416082675
  - # 19
    frequency:   17.8167920262
  - # 20
    frequency:   38.3599520009
  - # 21
    frequency:   68.2826911074

- q-position: [    0.1313131,    0.0000000,    0.0000000 ]
  distance:    0.0448486
  band:
  - # 1
    frequency:   -0.6873186797
  - # 2
    frequency:    0.9173752875
  - # 3
    frequency:    1.0563530957
  - # 4
    frequency:    1.8115731912
  - # 5
    frequency:    2.7001410086
  - # 6
    frequency:    4.7827676159
  - # 7
    frequency:    5.0347538392
  - # 8
    frequency:    5.7821051611
  - # 9
    frequency:    5.8955980278
  - # 10
    frequency:    6.0066865394
  - # 11
    frequency:    6.4159630708
  - # 12
    frequency:    6.9210402548
  - # 13
    frequency:    8.7802650760
  - # 14
    frequency:   11.2496726178
  - # 15
    frequency:   16.1685125835
  - # 16
    frequency:   17.2852604022
  - # 17
    frequency:   17.4127177793
  - # 18
    frequency:   17.6608964172
  - # 19
    frequency:   17.8445464222
  - # 20
    frequency:   38.3601321094
  - # 21
    frequency:   68.2280552241

- q-position: [    0.1363636,    0.0000000,    0.0000000 ]
  distance:    0.0465736
  band:
  - # 1
    frequency:   -0.6618044842
  - # 2
    frequency:    0.9887165264
  - # 3
    frequency:    1.1202503886
  - # 4
    frequency:    1.8801101903
  - # 5
    frequency:    2.8030581408
  - # 6
    frequency:    4.7869875133
  - # 7
    frequency:    5.0551960827
  - # 8
    frequency:    5.8106143891
  - # 9
    frequency:    5.9249741807
  - # 10
    frequency:    6.0111632181
  - # 11
    frequency:    6.4198631517
  - # 12
    frequency:    6.9480186727
  - # 13
    frequency:    8.7568319516
  - # 14
    frequency:   11.2193030674
  - # 15
    frequency:   16.1627921178
  - # 16
    frequency:   17.2871620623
  - # 17
    frequency:   17.4221126173
  - # 18
    frequency:   17.6787984246
  - # 19
    frequency:   17.8703567328
  - # 20
    frequency:   38.3603069613
  - # 21
    frequency:   68.1727650305

- q-position: [    0.1414141,    0.0000000,    0.0000000 ]
  distance:    0.0482985
  band:
  - # 1
    frequency:   -0.6347427567
  - # 2
    frequency:    1.0589058725
  - # 3
    frequency:    1.1832181157
  - # 4
    frequency:    1.9480694326
  - # 5
    frequency:    2.9049966954
  - # 6
    frequency:    4.7904491902
  - # 7
    frequency:    5.0751314353
  - # 8
    frequency:    5.8379115750
  - # 9
    frequency:    5.9460748033
  - # 10
    frequency:    6.0235918192
  - # 11
    frequency:    6.4241449715
  - # 12
    frequency:    6.9744425238
  - # 13
    frequency:    8.7327303070
  - # 14
    frequency:   11.1883904556
  - # 15
    frequency:   16.1568063006
  - # 16
    frequency:   17.2890348422
  - # 17
    frequency:   17.4315470255
  - # 18
    frequency:   17.6951976759
  - # 19
    frequency:   17.8940409054
  - # 20
    frequency:   38.3604761801
  - # 21
    frequency:   68.1169469725

- q-position: [    0.1464646,    0.0000000,    0.0000000 ]
  distance:    0.0500235
  band:
  - # 1
    frequency:   -0.6059515706
  - # 2
    frequency:    1.1280555360
  - # 3
    frequency:    1.2454466738
  - # 4
    frequency:    2.0153974132
  - # 5
    frequency:    3.0057947016
  - # 6
    frequency:    4.7931422720
  - # 7
    frequency:    5.0945114024
  - # 8
    frequency:    5.8638317652
  - # 9
    frequency:    5.9574060242
  - # 10
    frequency:    6.0453788177
  - # 11
    frequency:    6.4288563659
  - # 12
    frequency:    7.0002350149
  - # 13
    frequency:    8.7079852624
  - # 14
    frequency:   11.1569965226
  - # 15
    frequency:   16.1505488932
  - # 16
    frequency:   17.2908798601
  - # 17
    frequency:   17.4410050885
  - # 18
    frequency:   17.7099938309
  - # 19
    frequency:   17.9154346154
  - # 20
    frequency:   38.3606395152
  - # 21
    frequency:   68.0607250346

- q-position: [    0.1515152,    0.0000000,    0.0000000 ]
  distance:    0.0517484
  band:
  - # 1
    frequency:   -0.5751987489
  - # 2
    frequency:    1.1961280599
  - # 3
    frequency:    1.3071845976
  - # 4
    frequency:    2.0820418711
  - # 5
    frequency:    3.1052800351
  - # 6
    frequency:    4.7950653392
  - # 7
    frequency:    5.1132927231
  - # 8
    frequency:    5.8882236952
  - # 9
    frequency:    5.9624167484
  - # 10
    frequency:    6.0729995555
  - # 11
    frequency:    6.4340415702
  - # 12
    frequency:    7.0253263417
  - # 13
    frequency:    8.6826235651
  - # 14
    frequency:   11.1251834000
  - # 15
    frequency:   16.1440137884
  - # 16
    frequency:   17.2926976647
  - # 17
    frequency:   17.4504712332
  - # 18
    frequency:   17.7231032380
  - # 19
    frequency:   17.9343919155
  - # 20
    frequency:   38.3607968448
  - # 21
    frequency:   68.0042202466