nqpoint: 300    
npath: 3      
segment_nqpoint:
- 100
- 100
- 100
labels:
- [ 'G', 'M' ]
- [ 'M', 'K' ]
- [ 'K', 'G' ]
reciprocal_lattice:
- [   0.31995786,   0.18472776,   0.00000000 ] # a*
- [   0.00000000,   0.36945552,   0.00000000 ] # b*
- [   0.00000000,   0.00000000,   0.03747676 ] # c*
natom: 6      
lattice:
- [     3.125411555018192,     0.000000000000000,     0.000000000000000 ] # a
- [    -1.562705777509096,     2.706685803927357,     0.000000000000000 ] # b
- [     0.000000000000000,     0.000000000000000,    26.683204997765635 ] # c
points:
- symbol: Br # 1
  coordinates: [  0.666666984744047,  0.333332985985145,  0.337290816480015 ]
  mass: 79.904000
- symbol: Cl # 2
  coordinates: [  0.333332985432215,  0.666666983183674,  0.662709183519985 ]
  mass: 35.453000
- symbol: N # 3
  coordinates: [  0.000000000000000,  0.000000000000000,  0.449700883854556 ]
  mass: 14.006700
- symbol: O # 4
  coordinates: [  0.333332985432215,  0.666666983183674,  0.529702360617708 ]
  mass: 15.999400
- symbol: Ti # 5
  coordinates: [  0.333332985432215,  0.666666983183674,  0.407893232374801 ]
  mass: 47.867000
- symbol: Ti # 6
  coordinates: [  0.666666984744047,  0.333332985985145,  0.497227426267125 ]
  mass: 47.867000

phonon:
- q-position: [    0.0000000,    0.0000000,    0.0000000 ]
  distance:    0.0000000
  band:
  - # 1
    frequency:   -0.4040394340
  - # 2
    frequency:   -0.4040394340
  - # 3
    frequency:   -0.0000002323
  - # 4
    frequency:    0.0000004382
  - # 5
    frequency:    0.0000004779
  - # 6
    frequency:    1.0926602245
  - # 7
    frequency:    2.1595638612
  - # 8
    frequency:    2.1595638612
  - # 9
    frequency:    4.4406990104
  - # 10
    frequency:    4.4406990104
  - # 11
    frequency:    5.4731471741
  - # 12
    frequency:    8.9692024022
  - # 13
    frequency:    8.9692024022
  - # 14
    frequency:   10.4213882727
  - # 15
    frequency:   13.2766469530
  - # 16
    frequency:   13.2766469530
  - # 17
    frequency:   14.9104452970
  - # 18
    frequency:   15.3253485085

- q-position: [    0.0050505,    0.0000000,    0.0000000 ]
  distance:    0.0018659
  band:
  - # 1
    frequency:   -0.4368034198
  - # 2
    frequency:   -0.4166104674
  - # 3
    frequency:   -0.1994863480
  - # 4
    frequency:    0.0684611439
  - # 5
    frequency:    0.2328023936
  - # 6
    frequency:    1.0931215670
  - # 7
    frequency:    2.1595542199
  - # 8
    frequency:    2.1634170068
  - # 9
    frequency:    4.4405003137
  - # 10
    frequency:    4.4412138939
  - # 11
    frequency:    5.4752486122
  - # 12
    frequency:    8.9651167089
  - # 13
    frequency:    8.9679421476
  - # 14
    frequency:   10.4225046995
  - # 15
    frequency:   13.2781136625
  - # 16
    frequency:   13.2783671330
  - # 17
    frequency:   14.9110746094
  - # 18
    frequency:   15.3254635967

- q-position: [    0.0101010,    0.0000000,    0.0000000 ]
  distance:    0.0037319
  band:
  - # 1
    frequency:   -0.5300827340
  - # 2
    frequency:   -0.4550075233
  - # 3
    frequency:   -0.2567603601
  - # 4
    frequency:    0.1458148398
  - # 5
    frequency:    0.3622589155
  - # 6
    frequency:    1.0945311776
  - # 7
    frequency:    2.1595291698
  - # 8
    frequency:    2.1749100165
  - # 9
    frequency:    4.4399232077
  - # 10
    frequency:    4.4427597144
  - # 11
    frequency:    5.4815279354
  - # 12
    frequency:    8.9529419200
  - # 13
    frequency:    8.9641755668
  - # 14
    frequency:   10.4257850780
  - # 15
    frequency:   13.2824972386
  - # 16
    frequency:   13.2835135295
  - # 17
    frequency:   14.9129616500
  - # 18
    frequency:   15.3258085796

- q-position: [    0.0151515,    0.0000000,    0.0000000 ]
  distance:    0.0055978
  band:
  - # 1
    frequency:   -0.6632608698
  - # 2
    frequency:   -0.5167156784
  - # 3
    frequency:   -0.2776193711
  - # 4
    frequency:    0.2303395502
  - # 5
    frequency:    0.4861221513
  - # 6
    frequency:    1.0969740398
  - # 7
    frequency:    2.1595007175
  - # 8
    frequency:    2.1938487803
  - # 9
    frequency:    4.4390232196
  - # 10
    frequency:    4.4453399905
  - # 11
    frequency:    5.4919116778
  - # 12
    frequency:    8.9329168749
  - # 13
    frequency:    8.9579450389
  - # 14
    frequency:   10.4310307395
  - # 15
    frequency:   13.2897482108
  - # 16
    frequency:   13.2920439131
  - # 17
    frequency:   14.9161035493
  - # 18
    frequency:   15.3263827390

- q-position: [    0.0202020,    0.0000000,    0.0000000 ]
  distance:    0.0074637
  band:
  - # 1
    frequency:   -0.8157305277
  - # 2
    frequency:   -0.5950149611
  - # 3
    frequency:   -0.2775037621
  - # 4
    frequency:    0.3172263118
  - # 5
    frequency:    0.6096504664
  - # 6
    frequency:    1.1006277951
  - # 7
    frequency:    2.1594901746
  - # 8
    frequency:    2.2199260195
  - # 9
    frequency:    4.4378883842
  - # 10
    frequency:    4.4489606124
  - # 11
    frequency:    5.5062821863
  - # 12
    frequency:    8.9054148363
  - # 13
    frequency:    8.9493206311
  - # 14
    frequency:   10.4379353785
  - # 15
    frequency:   13.2997847556
  - # 16
    frequency:   13.3038885640
  - # 17
    frequency:   14.9204949147
  - # 18
    frequency:   15.3271853079

- q-position: [    0.0252525,    0.0000000,    0.0000000 ]
  distance:    0.0093297
  band:
  - # 1
    frequency:   -0.9771495909
  - # 2
    frequency:   -0.6836126591
  - # 3
    frequency:   -0.2618323318
  - # 4
    frequency:    0.4038523209
  - # 5
    frequency:    0.7334714677
  - # 6
    frequency:    1.1058679320
  - # 7
    frequency:    2.1595301590
  - # 8
    frequency:    2.2527424767
  - # 9
    frequency:    4.4366332435
  - # 10
    frequency:    4.4536298762
  - # 11
    frequency:    5.5244840450
  - # 12
    frequency:    8.8709123668
  - # 13
    frequency:    8.9383992664
  - # 14
    frequency:   10.4461161626
  - # 15
    frequency:   13.3124936567
  - # 16
    frequency:   13.3189512423
  - # 17
    frequency:   14.9261268836
  - # 18
    frequency:   15.3282161439

- q-position: [    0.0303030,    0.0000000,    0.0000000 ]
  distance:    0.0111956
  band:
  - # 1
    frequency:   -1.1427794270
  - # 2
    frequency:   -0.7783239145
  - # 3
    frequency:   -0.2303848416
  - # 4
    frequency:    0.4892014954
  - # 5
    frequency:    0.8566686962
  - # 6
    frequency:    1.1136672347
  - # 7
    frequency:    2.1596674925
  - # 8
    frequency:    2.2918313033
  - # 9
    frequency:    4.4353917706
  - # 10
    frequency:    4.4593585240
  - # 11
    frequency:    5.5463317616
  - # 12
    frequency:    8.8299554311
  - # 13
    frequency:    8.9253035836
  - # 14
    frequency:   10.4551475728
  - # 15
    frequency:   13.3277316817
  - # 16
    frequency:   13.3371105008
  - # 17
    frequency:   14.9329857304
  - # 18
    frequency:   15.3294767264

- q-position: [    0.0353535,    0.0000000,    0.0000000 ]
  distance:    0.0130616
  band:
  - # 1
    frequency:   -1.3101972864
  - # 2
    frequency:   -0.8765864368
  - # 3
    frequency:   -0.1765498671
  - # 4
    frequency:    0.5728511059
  - # 5
    frequency:    0.9753625531
  - # 6
    frequency:    1.1277130400
  - # 7
    frequency:    2.1599670750
  - # 8
    frequency:    2.3366822972
  - # 9
    frequency:    4.4343101372
  - # 10
    frequency:    4.4661597796
  - # 11
    frequency:    5.5716178068
  - # 12
    frequency:    8.7831280741
  - # 13
    frequency:    8.9101805149
  - # 14
    frequency:   10.4645925935
  - # 15
    frequency:   13.3453273979
  - # 16
    frequency:   13.3582212999
  - # 17
    frequency:   14.9410509646
  - # 18
    frequency:   15.3309715380

- q-position: [    0.0404040,    0.0000000,    0.0000000 ]
  distance:    0.0149275
  band:
  - # 1
    frequency:   -1.4779977939
  - # 2
    frequency:   -0.9768065304
  - # 3
    frequency:   -0.0551705477
  - # 4
    frequency:    0.6545418043
  - # 5
    frequency:    1.0689138224
  - # 6
    frequency:    1.1684027412
  - # 7
    frequency:    2.1605168109
  - # 8
    frequency:    2.3867634561
  - # 9
    frequency:    4.4335401079
  - # 10
    frequency:    4.4740493704
  - # 11
    frequency:    5.6001202460
  - # 12
    frequency:    8.7310270025
  - # 13
    frequency:    8.8931996030
  - # 14
    frequency:   10.4740278966
  - # 15
    frequency:   13.3650834411
  - # 16
    frequency:   13.3821168769
  - # 17
    frequency:   14.9502928363
  - # 18
    frequency:   15.3327099055

- q-position: [    0.0454545,    0.0000000,    0.0000000 ]
  distance:    0.0167934
  band:
  - # 1
    frequency:   -1.6452694923
  - # 2
    frequency:   -1.0779444436
  - # 3
    frequency:    0.1768979913
  - # 4
    frequency:    0.7340336648
  - # 5
    frequency:    1.1065861845
  - # 6
    frequency:    1.2662399827
  - # 7
    frequency:    2.1614336213
  - # 8
    frequency:    2.4415383827
  - # 9
    frequency:    4.4332336081
  - # 10
    frequency:    4.4830455228
  - # 11
    frequency:    5.6316094370
  - # 12
    frequency:    8.6742432652
  - # 13
    frequency:    8.8745510890
  - # 14
    frequency:   10.4830618063
  - # 15
    frequency:   13.3867792373
  - # 16
    frequency:   13.4086108199
  - # 17
    frequency:   14.9606691517
  - # 18
    frequency:   15.3347083975

- q-position: [    0.0505051,    0.0000000,    0.0000000 ]
  distance:    0.0186594
  band:
  - # 1
    frequency:   -1.8113631034
  - # 2
    frequency:   -1.1792830930
  - # 3
    frequency:    0.2682009817
  - # 4
    frequency:    0.8110594497
  - # 5
    frequency:    1.1233174682
  - # 6
    frequency:    1.3860762788
  - # 7
    frequency:    2.1628704670
  - # 8
    frequency:    2.5004790469
  - # 9
    frequency:    4.4335387595
  - # 10
    frequency:    4.4931689164
  - # 11
    frequency:    5.6658535287
  - # 12
    frequency:    8.6133506469
  - # 13
    frequency:    8.8544437918
  - # 14
    frequency:   10.4913454181
  - # 15
    frequency:   13.4101741579
  - # 16
    frequency:   13.4374992970
  - # 17
    frequency:   14.9721212956
  - # 18
    frequency:   15.3369938902

- q-position: [    0.0555556,    0.0000000,    0.0000000 ]
  distance:    0.0205253
  band:
  - # 1
    frequency:   -1.9757794922
  - # 2
    frequency:   -1.2803002990
  - # 3
    frequency:    0.3449724941
  - # 4
    frequency:    0.8853081694
  - # 5
    frequency:    1.1367767365
  - # 6
    frequency:    1.5100523025
  - # 7
    frequency:    2.1650240911
  - # 8
    frequency:    2.5630741005
  - # 9
    frequency:    4.4345974682
  - # 10
    frequency:    4.5044425823
  - # 11
    frequency:    5.7026227082
  - # 12
    frequency:    8.5488995500
  - # 13
    frequency:    8.8331028073
  - # 14
    frequency:   10.4985781052
  - # 15
    frequency:   13.4350110627
  - # 16
    frequency:   13.4685633922
  - # 17
    frequency:   14.9845693655
  - # 18
    frequency:   15.3396074137

- q-position: [    0.0606061,    0.0000000,    0.0000000 ]
  distance:    0.0223912
  band:
  - # 1
    frequency:   -2.1381113840
  - # 2
    frequency:   -1.3805964720
  - # 3
    frequency:    0.4155196560
  - # 4
    frequency:    0.9564181296
  - # 5
    frequency:    1.1501463985
  - # 6
    frequency:    1.6348105725
  - # 7
    frequency:    2.1681428041
  - # 8
    frequency:    2.6288333105
  - # 9
    frequency:    4.4365445033
  - # 10
    frequency:    4.5168917314
  - # 11
    frequency:    5.7416922923
  - # 12
    frequency:    8.4814148940
  - # 13
    frequency:    8.8107670477
  - # 14
    frequency:   10.5045088980
  - # 15
    frequency:   13.4610201618
  - # 16
    frequency:   13.5015715042
  - # 17
    frequency:   14.9979063699
  - # 18
    frequency:   15.3426088594

- q-position: [    0.0656566,    0.0000000,    0.0000000 ]
  distance:    0.0242572
  band:
  - # 1
    frequency:   -2.2980111801
  - # 2
    frequency:   -1.4798523024
  - # 3
    frequency:    0.4827128467
  - # 4
    frequency:    1.0239740438
  - # 5
    frequency:    1.1642971615
  - # 6
    frequency:    1.7593153802
  - # 7
    frequency:    2.1725330091
  - # 8
    frequency:    2.6972888034
  - # 9
    frequency:    4.4395079263
  - # 10
    frequency:    4.5305434968
  - # 11
    frequency:    5.7828448439
  - # 12
    frequency:    8.4113966884
  - # 13
    frequency:    8.7876866431
  - # 14
    frequency:   10.5089351116
  - # 15
    frequency:   13.4879230982
  - # 16
    frequency:   13.5362817716
  - # 17
    frequency:   15.0119915602
  - # 18
    frequency:   15.3460825275

- q-position: [    0.0707071,    0.0000000,    0.0000000 ]
  distance:    0.0261231
  band:
  - # 1
    frequency:   -2.4551722999
  - # 2
    frequency:   -1.5778031560
  - # 3
    frequency:    0.5478811891
  - # 4
    frequency:    1.0875083413
  - # 5
    frequency:    1.1795809400
  - # 6
    frequency:    1.8830559207
  - # 7
    frequency:    2.1785622730
  - # 8
    frequency:    2.7679937762
  - # 9
    frequency:    4.4436107006
  - # 10
    frequency:    4.5454265802
  - # 11
    frequency:    5.8258715159
  - # 12
    frequency:    8.3393222093
  - # 13
    frequency:    8.7641202281
  - # 14
    frequency:   10.5116993281
  - # 15
    frequency:   13.5154371366
  - # 16
    frequency:   13.5724444893
  - # 17
    frequency:   15.0266432232
  - # 18
    frequency:   15.3501432541

- q-position: [    0.0757576,    0.0000000,    0.0000000 ]
  distance:    0.0279891
  band:
  - # 1
    frequency:   -2.6093179287
  - # 2
    frequency:   -1.6742230868
  - # 3
    frequency:    0.6117268022
  - # 4
    frequency:    1.1465093380
  - # 5
    frequency:    1.1961891608
  - # 6
    frequency:    2.0056854477
  - # 7
    frequency:    2.1866556969
  - # 8
    frequency:    2.8405192201
  - # 9
    frequency:    4.4489733093
  - # 10
    frequency:    4.5615707906
  - # 11
    frequency:    5.8705728227
  - # 12
    frequency:    8.2656490187
  - # 13
    frequency:    8.7403321362
  - # 14
    frequency:   10.5126855399
  - # 15
    frequency:   13.5432793205
  - # 16
    frequency:   13.6098044897
  - # 17
    frequency:   15.0416317424
  - # 18
    frequency:   15.3549423913

- q-position: [    0.0808081,    0.0000000,    0.0000000 ]
  distance:    0.0298550
  band:
  - # 1
    frequency:   -2.7601940144
  - # 2
    frequency:   -1.7689145709
  - # 3
    frequency:    0.6746412791
  - # 4
    frequency:    1.2004402085
  - # 5
    frequency:    1.2142558091
  - # 6
    frequency:    2.1269171684
  - # 7
    frequency:    2.1972815174
  - # 8
    frequency:    2.9144490804
  - # 9
    frequency:    4.4557172165
  - # 10
    frequency:    4.5790064730
  - # 11
    frequency:    5.9167590103
  - # 12
    frequency:    8.1908183235
  - # 13
    frequency:    8.7165895300
  - # 14
    frequency:   10.5118150018
  - # 15
    frequency:   13.5711704576
  - # 16
    frequency:   13.6481034677
  - # 17
    frequency:   15.0566745474
  - # 18
    frequency:   15.3606721166

- q-position: [    0.0858586,    0.0000000,    0.0000000 ]
  distance:    0.0317209
  band:
  - # 1
    frequency:   -2.9075647983
  - # 2
    frequency:   -1.8617017526
  - # 3
    frequency:    0.7368391445
  - # 4
    frequency:    1.2338966233
  - # 5
    frequency:    1.2487725431
  - # 6
    frequency:    2.2109221451
  - # 7
    frequency:    2.2464855404
  - # 8
    frequency:    2.9893741843
  - # 9
    frequency:    4.4639689953
  - # 10
    frequency:    4.5977638248
  - # 11
    frequency:    5.9642501627
  - # 12
    frequency:    8.1152583812
  - # 13
    frequency:    8.6931594972
  - # 14
    frequency:   10.5090421375
  - # 15
    frequency:   13.5988387879
  - # 16
    frequency:   13.6870822302
  - # 17
    frequency:   15.0714356941
  - # 18
    frequency:   15.3675654255

- q-position: [    0.0909091,    0.0000000,    0.0000000 ]
  distance:    0.0335869
  band:
  - # 1
    frequency:   -3.0512099086
  - # 2
    frequency:   -1.9524259049
  - # 3
    frequency:    0.7984202137
  - # 4
    frequency:    1.2552286210
  - # 5
    frequency:    1.2910357405
  - # 6
    frequency:    2.2280293937
  - # 7
    frequency:    2.3641289021
  - # 8
    frequency:    3.0648852436
  - # 9
    frequency:    4.4738649054
  - # 10
    frequency:    4.6178721090
  - # 11
    frequency:    6.0128761496
  - # 12
    frequency:    8.0393877986
  - # 13
    frequency:    8.6703061497
  - # 14
    frequency:   10.5043506970
  - # 15
    frequency:   13.6260232072
  - # 16
    frequency:   13.7264828564
  - # 17
    frequency:   15.0855339258
  - # 18
    frequency:   15.3758880543

- q-position: [    0.0959596,    0.0000000,    0.0000000 ]
  distance:    0.0354528
  band:
  - # 1
    frequency:   -3.1909224456
  - # 2
    frequency:   -2.0409423250
  - # 3
    frequency:    0.8593993373
  - # 4
    frequency:    1.2783830258
  - # 5
    frequency:    1.3268779404
  - # 6
    frequency:    2.2489681700
  - # 7
    frequency:    2.4795804423
  - # 8
    frequency:    3.1405653100
  - # 9
    frequency:    4.4855556023
  - # 10
    frequency:    4.6393587750
  - # 11
    frequency:    6.0624764937
  - # 12
    frequency:    7.9636186708
  - # 13
    frequency:    8.6482877679
  - # 14
    frequency:   10.4977502659
  - # 15
    frequency:   13.6524759364
  - # 16
    frequency:   13.7660507588
  - # 17
    frequency:   15.0985631537
  - # 18
    frequency:   15.3859184740

- q-position: [    0.1010101,    0.0000000,    0.0000000 ]
  distance:    0.0373187
  band:
  - # 1
    frequency:   -3.3265077107
  - # 2
    frequency:   -2.1271181783
  - # 3
    frequency:    0.9197192371
  - # 4
    frequency:    1.3035160604
  - # 5
    frequency:    1.3561269741
  - # 6
    frequency:    2.2739600856
  - # 7
    frequency:    2.5925628666
  - # 8
    frequency:    3.2159822632
  - # 9
    frequency:    4.4992104817
  - # 10
    frequency:    4.6622485090
  - # 11
    frequency:    6.1129002088
  - # 12
    frequency:    7.8883595652
  - # 13
    frequency:    8.6273540342
  - # 14
    frequency:   10.4892731610
  - # 15
    frequency:   13.6779645659
  - # 16
    frequency:   13.8055366358
  - # 17
    frequency:   15.1101268008
  - # 18
    frequency:   15.3979145606

- q-position: [    0.1060606,    0.0000000,    0.0000000 ]
  distance:    0.0391847
  band:
  - # 1
    frequency:   -3.4577823617
  - # 2
    frequency:   -2.2108309829
  - # 3
    frequency:    0.9792542112
  - # 4
    frequency:    1.3308187639
  - # 5
    frequency:    1.3788349946
  - # 6
    frequency:    2.3030432293
  - # 7
    frequency:    2.7027847509
  - # 8
    frequency:    3.2906822740
  - # 9
    frequency:    4.5150208860
  - # 10
    frequency:    4.6865622377
  - # 11
    frequency:    6.1640056460
  - # 12
    frequency:    7.8140183846
  - # 13
    frequency:    8.6077434069
  - # 14
    frequency:   10.4789717104
  - # 15
    frequency:   13.7022734462
  - # 16
    frequency:   13.8446983083
  - # 17
    frequency:   15.1198815029
  - # 18
    frequency:   15.4120714675

- q-position: [    0.1111111,    0.0000000,    0.0000000 ]
  distance:    0.0410506
  band:
  - # 1
    frequency:   -3.5845738546
  - # 2
    frequency:   -2.2919675341
  - # 3
    frequency:    1.0378102349
  - # 4
    frequency:    1.3605246595
  - # 5
    frequency:    1.3952927892
  - # 6
    frequency:    2.3360619502
  - # 7
    frequency:    2.8099374291
  - # 8
    frequency:    3.3641857202
  - # 9
    frequency:    4.5332010174
  - # 10
    frequency:    4.7123161183
  - # 11
    frequency:    6.2156603691
  - # 12
    frequency:    7.7410051492
  - # 13
    frequency:    8.5896806814
  - # 14
    frequency:   10.4669158896
  - # 15
    frequency:   13.7252044430
  - # 16
    frequency:   13.8833024377
  - # 17
    frequency:   15.1275784613
  - # 18
    frequency:   15.4284823734

- q-position: [    0.1161616,    0.0000000,    0.0000000 ]
  distance:    0.0429165
  band:
  - # 1
    frequency:   -3.7067200778
  - # 2
    frequency:   -2.3704231345
  - # 3
    frequency:    1.0951277592
  - # 4
    frequency:    1.3929112500
  - # 5
    frequency:    1.4060099448
  - # 6
    frequency:    2.3726902869
  - # 7
    frequency:    2.9136914754
  - # 8
    frequency:    3.4359876982
  - # 9
    frequency:    4.5539849741
  - # 10
    frequency:    4.7395205476
  - # 11
    frequency:    6.2677410675
  - # 12
    frequency:    7.6697347220
  - # 13
    frequency:    8.5733747878
  - # 14
    frequency:   10.4531912800
  - # 15
    frequency:   13.7465771262
  - # 16
    frequency:   13.9211261172
  - # 17
    frequency:   15.1330880499
  - # 18
    frequency:   15.4471164311

- q-position: [    0.1212121,    0.0000000,    0.0000000 ]
  distance:    0.0447825
  band:
  - # 1
    frequency:   -3.8240691197
  - # 2
    frequency:   -2.4461010404
  - # 3
    frequency:    1.1508960242
  - # 4
    frequency:    1.4116693931
  - # 5
    frequency:    1.4282877917
  - # 6
    frequency:    2.4124802746
  - # 7
    frequency:    3.0136917834
  - # 8
    frequency:    3.5055659144
  - # 9
    frequency:    4.5776179849
  - # 10
    frequency:    4.7681792280
  - # 11
    frequency:    6.3201335037
  - # 12
    frequency:    7.6006294555
  - # 13
    frequency:    8.5590168664
  - # 14
    frequency:   10.4378973082
  - # 15
    frequency:   13.7662285016
  - # 16
    frequency:   13.9579583370
  - # 17
    frequency:   15.1363994006
  - # 18
    frequency:   15.4678220771

- q-position: [    0.1262626,    0.0000000,    0.0000000 ]
  distance:    0.0466484
  band:
  - # 1
    frequency:   -3.9364791238
  - # 2
    frequency:   -2.5189120611
  - # 3
    frequency:    1.2047892520
  - # 4
    frequency:    1.4130718437
  - # 5
    frequency:    1.4669597152
  - # 6
    frequency:    2.4549193160
  - # 7
    frequency:    3.1095500824
  - # 8
    frequency:    3.5723990212
  - # 9
    frequency:    4.6043399773
  - # 10
    frequency:    4.7982883247
  - # 11
    frequency:    6.3727324705
  - # 12
    frequency:    7.5341216749
  - # 13
    frequency:    8.5467786560
  - # 14
    frequency:   10.4211457261
  - # 15
    frequency:   13.7840124320
  - # 16
    frequency:   13.9936013186
  - # 17
    frequency:   15.1375982544
  - # 18
    frequency:   15.4903522659

- q-position: [    0.1313131,    0.0000000,    0.0000000 ]
  distance:    0.0485144
  band:
  - # 1
    frequency:   -4.0438182035
  - # 2
    frequency:   -2.5887742679
  - # 3
    frequency:    1.2565298343
  - # 4
    frequency:    1.4110843347
  - # 5
    frequency:    1.5091650074
  - # 6
    frequency:    2.4994820279
  - # 7
    frequency:    3.2008336004
  - # 8
    frequency:    3.6359978753
  - # 9
    frequency:    4.6343605161
  - # 10
    frequency:    4.8298357487
  - # 11
    frequency:    6.4254417069
  - # 12
    frequency:    7.4706558144
  - # 13
    frequency:    8.5368112187
  - # 14
    frequency:   10.4030592963
  - # 15
    frequency:   13.7997989104
  - # 16
    frequency:   14.0278717163
  - # 17
    frequency:   15.1368346343
  - # 18
    frequency:   15.5143999021

- q-position: [    0.1363636,    0.0000000,    0.0000000 ]
  distance:    0.0503803
  band:
  - # 1
    frequency:   -4.1459643950
  - # 2
    frequency:   -2.6556127808
  - # 3
    frequency:    1.3059661620
  - # 4
    frequency:    1.4066006748
  - # 5
    frequency:    1.5549951585
  - # 6
    frequency:    2.5456683716
  - # 7
    frequency:    3.2870486832
  - # 8
    frequency:    3.6959501480
  - # 9
    frequency:    4.6678262944
  - # 10
    frequency:    4.8628005932
  - # 11
    frequency:    6.4781736625
  - # 12
    frequency:    7.4106899092
  - # 13
    frequency:    8.5292440150
  - # 14
    frequency:   10.3837706460
  - # 15
    frequency:   13.8134733541
  - # 16
    frequency:   14.0606016857
  - # 17
    frequency:   15.1342920389
  - # 18
    frequency:   15.5396315962

- q-position: [    0.1414141,    0.0000000,    0.0000000 ]
  distance:    0.0522462
  band:
  - # 1
    frequency:   -4.2428056322
  - # 2
    frequency:   -2.7193596119
  - # 3
    frequency:    1.3531306633
  - # 4
    frequency:    1.4005148417
  - # 5
    frequency:    1.6043352355
  - # 6
    frequency:    2.5930265475
  - # 7
    frequency:    3.3676188839
  - # 8
    frequency:    3.7519749206
  - # 9
    frequency:    4.7047856985
  - # 10
    frequency:    4.8971527474
  - # 11
    frequency:    6.5308489009
  - # 12
    frequency:    7.3546960362
  - # 13
    frequency:    8.5241843283
  - # 14
    frequency:   10.3634212611
  - # 15
    frequency:   13.8249360808
  - # 16
    frequency:   14.0916398173
  - # 17
    frequency:   15.1301646061
  - # 18
    frequency:   15.5657131229

- q-position: [    0.1464646,    0.0000000,    0.0000000 ]
  distance:    0.0541122
  band:
  - # 1
    frequency:   -4.3342397334
  - # 2
    frequency:   -2.7799535472
  - # 3
    frequency:    1.3937042954
  - # 4
    frequency:    1.3982423460
  - # 5
    frequency:    1.6568588108
  - # 6
    frequency:    2.6411632394
  - # 7
    frequency:    3.4418591027
  - # 8
    frequency:    3.8039785925
  - # 9
    frequency:    4.7451584674
  - # 10
    frequency:    4.9328527042
  - # 11
    frequency:    6.5833947403
  - # 12
    frequency:    7.3031592560
  - # 13
    frequency:    8.5217170269
  - # 14
    frequency:   10.3421605887
  - # 15
    frequency:   13.8341020995
  - # 16
    frequency:   14.1208519342
  - # 17
    frequency:   15.1246432499
  - # 18
    frequency:   15.5923254343

- q-position: [    0.1515152,    0.0000000,    0.0000000 ]
  distance:    0.0559781
  band:
  - # 1
    frequency:   -4.4201743908
  - # 2
    frequency:   -2.8373400566
  - # 3
    frequency:    1.3870188665
  - # 4
    frequency:    1.4416506365
  - # 5
    frequency:    1.7120808886
  - # 6
    frequency:    2.6897451527
  - # 7
    frequency:    3.5089520245
  - # 8
    frequency:    3.8520973625
  - # 9
    frequency:    4.7887201233
  - # 10
    frequency:    4.9698515690
  - # 11
    frequency:    6.6357423493
  - # 12
    frequency:    7.2565747763
  - # 13
    frequency:    8.5219046392
  - # 14
    frequency:   10.3201452208
  - # 15
    frequency:   13.8409013180
  - # 16
    frequency:   14.1481217553
  - # 17
    frequency:   15.1179088059
  - # 18
    frequency:   15.6191730743

- q-position: [    0.1565657,    0.0000000,    0.0000000 ]
  distance:    0.0578440
  band:
  - # 1
    frequency:   -4.5005271566
  - # 2
    frequency:   -2.8914712213
  - # 3
    frequency:    1.3812713830
  - # 4
    frequency:    1.4837540760
  - # 5
    frequency:    1.7694350804
  - # 6
    frequency:    2.7384954520
  - # 7
    frequency:    3.5679412861
  - # 8
    frequency:    3.8967056060
  - # 9
    frequency:    4.8351087576
  - # 10
    frequency:    5.0080912720
  - # 11
    frequency:    6.6878207565
  - # 12
    frequency:    7.2154437225
  - # 13
    frequency:    8.5247877094
  - # 14
    frequency:   10.2975381285
  - # 15
    frequency:   13.8452792212
  - # 16
    frequency:   14.1733514221
  - # 17
    frequency:   15.1101295440
  - # 18
    frequency:   15.6459875642

- q-position: [    0.1616162,    0.0000000,    0.0000000 ]
  distance:    0.0597100
  band:
  - # 1
    frequency:   -4.5752254216
  - # 2
    frequency:   -2.9423056723
  - # 3
    frequency:    1.3772274467
  - # 4
    frequency:    1.5249323201
  - # 5
    frequency:    1.8283362344
  - # 6
    frequency:    2.7871877424
  - # 7
    frequency:    3.6177646060
  - # 8
    frequency:    3.9383665581
  - # 9
    frequency:    4.8838558369
  - # 10
    frequency:    5.0475049771
  - # 11
    frequency:    6.7395446106
  - # 12
    frequency:    7.1802696560
  - # 13
    frequency:    8.5303853944
  - # 14
    frequency:   10.2745079146
  - # 15
    frequency:   13.8471980290
  - # 16
    frequency:   14.1964618910
  - # 17
    frequency:   15.1014608934
  - # 18
    frequency:   15.6725278845

- q-position: [    0.1666667,    0.0000000,    0.0000000 ]
  distance:    0.0615759
  band:
  - # 1
    frequency:   -4.6442063812
  - # 2
    frequency:   -2.9898085362
  - # 3
    frequency:    1.3755931570
  - # 4
    frequency:    1.5655081961
  - # 5
    frequency:    1.8882111689
  - # 6
    frequency:    2.8356392645
  - # 7
    frequency:    3.6573467725
  - # 8
    frequency:    3.9777120435
  - # 9
    frequency:    4.9344353460
  - # 10
    frequency:    5.0880176759
  - # 11
    frequency:    6.7907889366
  - # 12
    frequency:    7.1515620969
  - # 13
    frequency:    8.5386962568
  - # 14
    frequency:   10.2512280471
  - # 15
    frequency:   13.8466382852
  - # 16
    frequency:   14.2173931908
  - # 17
    frequency:   15.0920459839
  - # 18
    frequency:   15.6985794760

- q-position: [    0.1717172,    0.0000000,    0.0000000 ]
  distance:    0.0634419
  band:
  - # 1
    frequency:   -4.7074169880
  - # 2
    frequency:   -3.0339513820
  - # 3
    frequency:    1.3770008337
  - # 4
    frequency:    1.6057360269
  - # 5
    frequency:    1.9485002963
  - # 6
    frequency:    2.8837042375
  - # 7
    frequency:    3.6857385938
  - # 8
    frequency:    4.0152764251
  - # 9
    frequency:    4.9863202324
  - # 10
    frequency:    5.1295469466
  - # 11
    frequency:    6.8413357979
  - # 12
    frequency:    7.1298626418
  - # 13
    frequency:    8.5496992113
  - # 14
    frequency:   10.2278760322
  - # 15
    frequency:   13.8436007852
  - # 16
    frequency:   14.2361045465
  - # 17
    frequency:   15.0820162479
  - # 18
    frequency:   15.7239525812

- q-position: [    0.1767677,    0.0000000,    0.0000000 ]
  distance:    0.0653078
  band:
  - # 1
    frequency:   -4.7648138874
  - # 2
    frequency:   -3.0747121671
  - # 3
    frequency:    1.3819937953
  - # 4
    frequency:    1.6458053038
  - # 5
    frequency:    2.0086393842
  - # 6
    frequency:    2.9312677971
  - # 7
    frequency:    3.7022346251
  - # 8
    frequency:    4.0513636029
  - # 9
    frequency:    5.0390338116
  - # 10
    frequency:    5.1720038567
  - # 11
    frequency:    6.8907585566
  - # 12
    frequency:    7.1158299432
  - # 13
    frequency:    8.5633545808
  - # 14