nqpoint: 300    
npath: 3      
segment_nqpoint:
- 100
- 100
- 100
labels:
- [ 'G', 'M' ]
- [ 'M', 'K' ]
- [ 'K', 'G' ]
reciprocal_lattice:
- [   0.30942191,   0.17864483,   0.00000000 ] # a*
- [   0.00000000,   0.35728965,   0.00000000 ] # b*
- [   0.00000000,   0.00000000,   0.04013131 ] # c*
natom: 6      
lattice:
- [     3.231833154029566,     0.000000000000000,     0.000000000000000 ] # a
- [    -1.615916577014783,     2.798849612165832,     0.000000000000000 ] # b
- [     0.000000000000000,     0.000000000000000,    24.918202222540046 ] # c
points:
- symbol: H # 1
  coordinates: [  0.666666984744047,  0.333332985985145,  0.361181754591387 ]
  mass: 1.007940
- symbol: N # 2
  coordinates: [  0.000000000000000,  0.000000000000000,  0.450195675985876 ]
  mass: 14.006700
- symbol: O # 3
  coordinates: [  0.333332985432215,  0.666666983183674,  0.638818245408614 ]
  mass: 15.999400
- symbol: P # 4
  coordinates: [  0.333332985432215,  0.666666983183674,  0.578890131637358 ]
  mass: 30.973762
- symbol: Sc # 5
  coordinates: [  0.333332985432215,  0.666666983183674,  0.401393695397792 ]
  mass: 44.955912
- symbol: Sc # 6
  coordinates: [  0.666666984744047,  0.333332985985145,  0.498692047787337 ]
  mass: 44.955912

phonon:
- q-position: [    0.0000000,    0.0000000,    0.0000000 ]
  distance:    0.0000000
  band:
  - # 1
    frequency:   -0.0000276061
  - # 2
    frequency:   -0.0000005317
  - # 3
    frequency:    0.0000266991
  - # 4
    frequency:    1.8340166301
  - # 5
    frequency:    1.8340166302
  - # 6
    frequency:    4.8439464821
  - # 7
    frequency:    4.8439464821
  - # 8
    frequency:    6.2561202986
  - # 9
    frequency:    6.3055317751
  - # 10
    frequency:    6.3055317752
  - # 11
    frequency:   10.6364085819
  - # 12
    frequency:   14.2709415608
  - # 13
    frequency:   14.2709415609
  - # 14
    frequency:   14.3149223409
  - # 15
    frequency:   27.9978469538
  - # 16
    frequency:   28.4206569853
  - # 17
    frequency:   28.4206569855
  - # 18
    frequency:   34.3559713500

- q-position: [    0.0050505,    0.0000000,    0.0000000 ]
  distance:    0.0018045
  band:
  - # 1
    frequency:    0.0016533748
  - # 2
    frequency:    0.0467427445
  - # 3
    frequency:    0.1241422183
  - # 4
    frequency:    1.8353665532
  - # 5
    frequency:    1.8362516426
  - # 6
    frequency:    4.8438834407
  - # 7
    frequency:    4.8442461438
  - # 8
    frequency:    6.2465190238
  - # 9
    frequency:    6.3060870929
  - # 10
    frequency:    6.3165374468
  - # 11
    frequency:   10.6359172197
  - # 12
    frequency:   14.2701792394
  - # 13
    frequency:   14.2710785550
  - # 14
    frequency:   14.3155454946
  - # 15
    frequency:   27.9954793248
  - # 16
    frequency:   28.4203652850
  - # 17
    frequency:   28.4229002868
  - # 18
    frequency:   34.3556927136

- q-position: [    0.0101010,    0.0000000,    0.0000000 ]
  distance:    0.0036090
  band:
  - # 1
    frequency:    0.0065924906
  - # 2
    frequency:    0.0930209097
  - # 3
    frequency:    0.2473983697
  - # 4
    frequency:    1.8394339098
  - # 5
    frequency:    1.8430531070
  - # 6
    frequency:    4.8436940728
  - # 7
    frequency:    4.8451329610
  - # 8
    frequency:    6.2282466198
  - # 9
    frequency:    6.3077507028
  - # 10
    frequency:    6.3390258377
  - # 11
    frequency:   10.6344441400
  - # 12
    frequency:   14.2680153939
  - # 13
    frequency:   14.2714890605
  - # 14
    frequency:   14.3172921575
  - # 15
    frequency:   27.9885172248
  - # 16
    frequency:   28.4194910391
  - # 17
    frequency:   28.4294897704
  - # 18
    frequency:   34.3548573097

- q-position: [    0.0151515,    0.0000000,    0.0000000 ]
  distance:    0.0054135
  band:
  - # 1
    frequency:    0.0147539841
  - # 2
    frequency:    0.1383702267
  - # 3
    frequency:    0.3688441869
  - # 4
    frequency:    1.8462704047
  - # 5
    frequency:    1.8547123143
  - # 6
    frequency:    4.8433776645
  - # 7
    frequency:    4.8465708730
  - # 8
    frequency:    6.2088780662
  - # 9
    frequency:    6.3105155914
  - # 10
    frequency:    6.3654301573
  - # 11
    frequency:   10.6319923615
  - # 12
    frequency:   14.2647347077
  - # 13
    frequency:   14.2721716482
  - # 14
    frequency:   14.3198786099
  - # 15
    frequency:   27.9773423112
  - # 16
    frequency:   28.4180368117
  - # 17
    frequency:   28.4400448776
  - # 18
    frequency:   34.3534666525

- q-position: [    0.0202020,    0.0000000,    0.0000000 ]
  distance:    0.0072180
  band:
  - # 1
    frequency:    0.0260323222
  - # 2
    frequency:    0.1823275295
  - # 3
    frequency:    0.4874831317
  - # 4
    frequency:    1.8559586749
  - # 5
    frequency:    1.8717193723
  - # 6
    frequency:    4.8429330853
  - # 7
    frequency:    4.8485012417
  - # 8
    frequency:    6.1901770629
  - # 9
    frequency:    6.3143701255
  - # 10
    frequency:    6.3939996900
  - # 11
    frequency:   10.6285669064
  - # 12
    frequency:   14.2606375396
  - # 13
    frequency:   14.2731239429
  - # 14
    frequency:   14.3230061072
  - # 15
    frequency:   27.9624795923
  - # 16
    frequency:   28.4160068670
  - # 17
    frequency:   28.4540424317
  - # 18
    frequency:   34.3515232614

- q-position: [    0.0252525,    0.0000000,    0.0000000 ]
  distance:    0.0090225
  band:
  - # 1
    frequency:    0.0402797291
  - # 2
    frequency:    0.2244325250
  - # 3
    frequency:    0.6022233274
  - # 4
    frequency:    1.8686069542
  - # 5
    frequency:    1.8947622587
  - # 6
    frequency:    4.8423588738
  - # 7
    frequency:    4.8508449982
  - # 8
    frequency:    6.1726675462
  - # 9
    frequency:    6.3192981363
  - # 10
    frequency:    6.4242272940
  - # 11
    frequency:   10.6241747876
  - # 12
    frequency:   14.2559633225
  - # 13
    frequency:   14.2743426326
  - # 14
    frequency:   14.3264374919
  - # 15
    frequency:   27.9444933453
  - # 16
    frequency:   28.4134071547
  - # 17
    frequency:   28.4709207206
  - # 18
    frequency:   34.3490306549

- q-position: [    0.0303030,    0.0000000,    0.0000000 ]
  distance:    0.0108270
  band:
  - # 1
    frequency:    0.0573060162
  - # 2
    frequency:    0.2642307771
  - # 3
    frequency:    0.7118776784
  - # 4
    frequency:    1.8843416218
  - # 5
    frequency:    1.9247080915
  - # 6
    frequency:    4.8416533528
  - # 7
    frequency:    4.8535055545
  - # 8
    frequency:    6.1565713236
  - # 9
    frequency:    6.3252790362
  - # 10
    frequency:    6.4559104059
  - # 11
    frequency:   10.6188249903
  - # 12
    frequency:   14.2508825465
  - # 13
    frequency:   14.2758234821
  - # 14
    frequency:   14.3300052269
  - # 15
    frequency:   27.9239125786
  - # 16
    frequency:   28.4102452910
  - # 17
    frequency:   28.4901540343
  - # 18
    frequency:   34.3459933416

- q-position: [    0.0353535,    0.0000000,    0.0000000 ]
  distance:    0.0126315
  band:
  - # 1
    frequency:    0.0768781798
  - # 2
    frequency:    0.3012779250
  - # 3
    frequency:    0.8152051250
  - # 4
    frequency:    1.9032978156
  - # 5
    frequency:    1.9625477362
  - # 6
    frequency:    4.8408147699
  - # 7
    frequency:    4.8563723838
  - # 8
    frequency:    6.1420112915
  - # 9
    frequency:    6.3322879697
  - # 10
    frequency:    6.4889461194
  - # 11
    frequency:   10.6125284472
  - # 12
    frequency:   14.2455131488
  - # 13
    frequency:   14.2775613498
  - # 14
    frequency:   14.3335950242
  - # 15
    frequency:   27.9011939085
  - # 16
    frequency:   28.4065305331
  - # 17
    frequency:   28.5112897892
  - # 18
    frequency:   34.3424168089

- q-position: [    0.0404040,    0.0000000,    0.0000000 ]
  distance:    0.0144359
  band:
  - # 1
    frequency:    0.0987196510
  - # 2
    frequency:    0.3351447921
  - # 3
    frequency:    0.9110114039
  - # 4
    frequency:    1.9256085266
  - # 5
    frequency:    2.0092844956
  - # 6
    frequency:    4.8398414569
  - # 7
    frequency:    4.8593251485
  - # 8
    frequency:    6.1290691367
  - # 9
    frequency:    6.3402959965
  - # 10
    frequency:    6.5232714822
  - # 11
    frequency:   10.6052980081
  - # 12
    frequency:   14.2399377721
  - # 13
    frequency:   14.2795502080
  - # 14
    frequency:   14.3371286099
  - # 15
    frequency:   27.8767123882
  - # 16
    frequency:   28.4022737488
  - # 17
    frequency:   28.5339576981
  - # 18
    frequency:   34.3383075094

- q-position: [    0.0454545,    0.0000000,    0.0000000 ]
  distance:    0.0162404
  band:
  - # 1
    frequency:    0.1225090863
  - # 2
    frequency:    0.3654226196
  - # 3
    frequency:    0.9983126397
  - # 4
    frequency:    1.9513928974
  - # 5
    frequency:    2.0657627843
  - # 6
    frequency:    4.8387320031
  - # 7
    frequency:    4.8622382276
  - # 8
    frequency:    6.1178048245
  - # 9
    frequency:    6.3492703061
  - # 10
    frequency:    6.5588417804
  - # 11
    frequency:   10.5971484024
  - # 12
    frequency:   14.2342161863
  - # 13
    frequency:   14.2817831666
  - # 14
    frequency:   14.3405513287
  - # 15
    frequency:   27.8507675647
  - # 16
    frequency:   28.3974873804
  - # 17
    frequency:   28.5578637138
  - # 18
    frequency:   34.3336728443

- q-position: [    0.0505051,    0.0000000,    0.0000000 ]
  distance:    0.0180449
  band:
  - # 1
    frequency:    0.1478786039
  - # 2
    frequency:    0.3917272374
  - # 3
    frequency:    1.0765290190
  - # 4
    frequency:    1.9807447338
  - # 5
    frequency:    2.1324688741
  - # 6
    frequency:    4.8374854370
  - # 7
    frequency:    4.8649854701
  - # 8
    frequency:    6.1082636063
  - # 9
    frequency:    6.3591744630
  - # 10
    frequency:    6.5956211727
  - # 11
    frequency:   10.5880961952
  - # 12
    frequency:   14.2283932666
  - # 13
    frequency:   14.2842524995
  - # 14
    frequency:   14.3438241933
  - # 15
    frequency:   27.8235954518
  - # 16
    frequency:   28.3921854032
  - # 17
    frequency:   28.5827780538
  - # 18
    frequency:   34.3285211451

- q-position: [    0.0555556,    0.0000000,    0.0000000 ]
  distance:    0.0198494
  band:
  - # 1
    frequency:    0.1744114024
  - # 2
    frequency:    0.4137006326
  - # 3
    frequency:    1.1456356609
  - # 4
    frequency:    2.0137224190
  - # 5
    frequency:    2.2093760079
  - # 6
    frequency:    4.8361014100
  - # 7
    frequency:    4.8674449805
  - # 8
    frequency:    6.1004782965
  - # 9
    frequency:    6.3699686794
  - # 10
    frequency:    6.6335780507
  - # 11
    frequency:   10.5781597356
  - # 12
    frequency:   14.2225039333
  - # 13
    frequency:   14.2869496743
  - # 14
    frequency:   14.3469189750
  - # 15
    frequency:   27.7953813036
  - # 16
    frequency:   28.3863832793
  - # 17
    frequency:   28.6085224254
  - # 18
    frequency:   34.3228616522

- q-position: [    0.0606061,    0.0000000,    0.0000000 ]
  distance:    0.0216539
  band:
  - # 1
    frequency:    0.2016387436
  - # 2
    frequency:    0.4310081634
  - # 3
    frequency:    1.2061947742
  - # 4
    frequency:    2.0503413858
  - # 5
    frequency:    2.2959092266
  - # 6
    frequency:    4.8345803779
  - # 7
    frequency:    4.8695037328
  - # 8
    frequency:    6.0944696289
  - # 9
    frequency:    6.3816101144
  - # 10
    frequency:    6.6726824596
  - # 11
    frequency:   10.5673590983
  - # 12
    frequency:   14.2165761804
  - # 13
    frequency:   14.2898653840
  - # 14
    frequency:   14.3498152046
  - # 15
    frequency:   27.7662709797
  - # 16
    frequency:   28.3800979057
  - # 17
    frequency:   28.6349586568
  - # 18
    frequency:   34.3167044918

- q-position: [    0.0656566,    0.0000000,    0.0000000 ]
  distance:    0.0234584
  band:
  - # 1
    frequency:    0.2290363351
  - # 2
    frequency:    0.4433295569
  - # 3
    frequency:    1.2592489084
  - # 4
    frequency:    2.0905700142
  - # 5
    frequency:    2.3910495055
  - # 6
    frequency:    4.8329237750
  - # 7
    frequency:    4.8710618056
  - # 8
    frequency:    6.0902459046
  - # 9
    frequency:    6.3940531938
  - # 10
    frequency:    6.7129045280
  - # 11
    frequency:   10.5557160175
  - # 12
    frequency:   14.2106329273
  - # 13
    frequency:   14.2929895818
  - # 14
    frequency:   14.3524983516
  - # 15
    frequency:   27.7363802572
  - # 16
    frequency:   28.3733475580
  - # 17
    frequency:   28.6619793795
  - # 18
    frequency:   34.3100606497

- q-position: [    0.0707071,    0.0000000,    0.0000000 ]
  distance:    0.0252629
  band:
  - # 1
    frequency:    0.2560201708
  - # 2
    frequency:    0.4503416475
  - # 3
    frequency:    1.3061288992
  - # 4
    frequency:    2.1343293276
  - # 5
    frequency:    2.4935229361
  - # 6
    frequency:    4.8311341795
  - # 7
    frequency:    4.8720360497
  - # 8
    frequency:    6.0878025389
  - # 9
    frequency:    6.4072499493
  - # 10
    frequency:    6.7542134535
  - # 11
    frequency:   10.5432538128
  - # 12
    frequency:   14.2046931386
  - # 13
    frequency:   14.2963115175
  - # 14
    frequency:   14.3549587317
  - # 15
    frequency:   27.7058021478
  - # 16
    frequency:   28.3661518288
  - # 17
    frequency:   28.6895007050
  - # 18
    frequency:   34.3029419437

- q-position: [    0.0757576,    0.0000000,    0.0000000 ]
  distance:    0.0270674
  band:
  - # 1
    frequency:    0.2819418502
  - # 2
    frequency:    0.4516901462
  - # 3
    frequency:    1.3482587970
  - # 4
    frequency:    2.1814962676
  - # 5
    frequency:    2.6019919083
  - # 6
    frequency:    4.8292154653
  - # 7
    frequency:    4.8723630340
  - # 8
    frequency:    6.0871218586
  - # 9
    frequency:    6.4211503713
  - # 10
    frequency:    6.7965768318
  - # 11
    frequency:   10.5299973095
  - # 12
    frequency:   14.1987724792
  - # 13
    frequency:   14.2998197762
  - # 14
    frequency:   14.3571908778
  - # 15
    frequency:   27.6746125238
  - # 16
    frequency:   28.3585315620
  - # 17
    frequency:   28.7174565899
  - # 18
    frequency:   34.2953609932

- q-position: [    0.0808081,    0.0000000,    0.0000000 ]
  distance:    0.0288719
  band:
  - # 1
    frequency:    0.3060831710
  - # 2
    frequency:    0.4469457903
  - # 3
    frequency:    1.3870128557
  - # 4
    frequency:    2.2319098192
  - # 5
    frequency:    2.7151924106
  - # 6
    frequency:    4.8271729410
  - # 7
    frequency:    4.8720011674
  - # 8
    frequency:    6.0881733505
  - # 9
    frequency:    6.4357027701
  - # 10
    frequency:    6.8399602235
  - # 11
    frequency:   10.5159727513
  - # 12
    frequency:   14.1928836630
  - # 13
    frequency:   14.3035023188
  - # 14
    frequency:   14.3591932121
  - # 15
    frequency:   27.6428743974
  - # 16
    frequency:   28.3505087822
  - # 17
    frequency:   28.7457945448
  - # 18
    frequency:   34.2873311865

- q-position: [    0.0858586,    0.0000000,    0.0000000 ]
  distance:    0.0306764
  band:
  - # 1
    frequency:    0.3276492287
  - # 2
    frequency:    0.4355353197
  - # 3
    frequency:    1.4236358719
  - # 4
    frequency:    2.2853789348
  - # 5
    frequency:    2.8320053975
  - # 6
    frequency:    4.8250134758
  - # 7
    frequency:    4.8709319626
  - # 8
    frequency:    6.0909144669
  - # 9
    frequency:    6.4508541425
  - # 10
    frequency:    6.8843268995
  - # 11
    frequency:   10.5012077079
  - # 12
    frequency:   14.1870365937
  - # 13
    frequency:   14.3073465245
  - # 14
    frequency:   14.3609679210
  - # 15
    frequency:   27.6106411632
  - # 16
    frequency:   28.3421066201
  - # 17
    frequency:   28.7744723783
  - # 18
    frequency:   34.2788666467

- q-position: [    0.0909091,    0.0000000,    0.0000000 ]
  distance:    0.0324809
  band:
  - # 1
    frequency:    0.3457580358
  - # 2
    frequency:    0.4166256784
  - # 3
    frequency:    1.4592112929
  - # 4
    frequency:    2.3416911423
  - # 5
    frequency:    2.9514772895
  - # 6
    frequency:    4.8227456123
  - # 7
    frequency:    4.8691604828
  - # 8
    frequency:    6.0952920076
  - # 9
    frequency:    6.4665505368
  - # 10
    frequency:    6.9296377316
  - # 11
    frequency:   10.4857309777
  - # 12
    frequency:   14.1812383562
  - # 13
    frequency:   14.3113392340
  - # 14
    frequency:   14.3625209717
  - # 15
    frequency:   27.5779590523
  - # 16
    frequency:   28.3333492340
  - # 17
    frequency:   28.8034557257
  - # 18
    frequency:   34.2699821951

- q-position: [    0.0959596,    0.0000000,    0.0000000 ]
  distance:    0.0342854
  band:
  - # 1
    frequency:    0.3594222999
  - # 2
    frequency:    0.3889079028
  - # 3
    frequency:    1.4946558594
  - # 4
    frequency:    2.4006208662
  - # 5
    frequency:    3.0728108133
  - # 6
    frequency:    4.8203796690
  - # 7
    frequency:    4.8667150884
  - # 8
    frequency:    6.1012440348
  - # 9
    frequency:    6.4827374124
  - # 10
    frequency:    6.9758512015
  - # 11
    frequency:   10.4695724879
  - # 12
    frequency:   14.1754930986
  - # 13
    frequency:   14.3154667956
  - # 14
    frequency:   14.3638622296
  - # 15
    frequency:   27.5448689928
  - # 16
    frequency:   28.3242617271
  - # 17
    frequency:   28.8327161691
  - # 18
    frequency:   34.2606933128

- q-position: [    0.1010101,    0.0000000,    0.0000000 ]
  distance:    0.0360899
  band:
  - # 1
    frequency:    0.3501286675
  - # 2
    frequency:    0.3675144088
  - # 3
    frequency:    1.5307249796
  - # 4
    frequency:    2.4619367648
  - # 5
    frequency:    3.1953426916
  - # 6
    frequency:    4.8179278350
  - # 7
    frequency:    4.8636466742
  - # 8
    frequency:    6.1087022224
  - # 9
    frequency:    6.4993599902
  - # 10
    frequency:    7.0229235072
  - # 11
    frequency:   10.4527631925
  - # 12
    frequency:   14.1698018300
  - # 13
    frequency:   14.3197151114
  - # 14
    frequency:   14.3650056494
  - # 15
    frequency:   27.5114080203
  - # 16
    frequency:   28.3148700618
  - # 17
    frequency:   28.8622298030
  - # 18
    frequency:   34.2510161002

- q-position: [    0.1060606,    0.0000000,    0.0000000 ]
  distance:    0.0378944
  band:
  - # 1
    frequency:    0.2958289885
  - # 2
    frequency:    0.3686963364
  - # 3
    frequency:    1.5680205854
  - # 4
    frequency:    2.5254076932
  - # 5
    frequency:    3.3185179334
  - # 6
    frequency:    4.8154042615
  - # 7
    frequency:    4.8600276543
  - # 8
    frequency:    6.1175945158
  - # 9
    frequency:    6.5163635876
  - # 10
    frequency:    7.0708087491
  - # 11
    frequency:   10.4353349703
  - # 12
    frequency:   14.1641621559
  - # 13
    frequency:   14.3240696856
  - # 14
    frequency:   14.3659695167
  - # 15
    frequency:   27.4776103504
  - # 16
    frequency:   28.3052009705
  - # 17
    frequency:   28.8919761354
  - # 18
    frequency:   34.2409672357

- q-position: [    0.1111111,    0.0000000,    0.0000000 ]
  distance:    0.0396989
  band:
  - # 1
    frequency:    0.2143791006
  - # 2
    frequency:    0.3612746864
  - # 3
    frequency:    1.6069989691
  - # 4
    frequency:    2.5908071710
  - # 5
    frequency:    3.4418653109
  - # 6
    frequency:    4.8128251542
  - # 7
    frequency:    4.8559510300
  - # 8
    frequency:    6.1278479646
  - # 9
    frequency:    6.5336939368
  - # 10
    frequency:    7.1194591763
  - # 11
    frequency:   10.4173205262
  - # 12
    frequency:   14.1585679679
  - # 13
    frequency:   14.3285156742
  - # 14
    frequency:   14.3667767217
  - # 15
    frequency:   27.4435081925
  - # 16
    frequency:   28.2952818631
  - # 17
    frequency:   28.9219372435
  - # 18
    frequency:   34.2305639314

- q-position: [    0.1161616,    0.0000000,    0.0000000 ]
  distance:    0.0415033
  band:
  - # 1
    frequency:   -0.0462209892
  - # 2
    frequency:    0.3428821426
  - # 3
    frequency:    1.6479792323
  - # 4
    frequency:    2.6579164229
  - # 5
    frequency:    3.5649754731
  - # 6
    frequency:    4.8102088725
  - # 7
    frequency:    4.8515299804
  - # 8
    frequency:    6.1393916046
  - # 9
    frequency:    6.5512974816
  - # 10
    frequency:    7.1688254759
  - # 11
    frequency:   10.3987532958
  - # 12
    frequency:   14.1530091082
  - # 13
    frequency:   14.3330379356
  - # 14
    frequency:   14.3674550436
  - # 15
    frequency:   27.4091323657
  - # 16
    frequency:   28.2851407330
  - # 17
    frequency:   28.9520971231
  - # 18
    frequency:   34.2198238887

- q-position: [    0.1212121,    0.0000000,    0.0000000 ]
  distance:    0.0433078
  band:
  - # 1
    frequency:   -0.2383850770
  - # 2
    frequency:    0.3096846368
  - # 3
    frequency:    1.6911539077
  - # 4
    frequency:    2.7265261782
  - # 5
    frequency:    3.6874814232
  - # 6
    frequency:    4.8075760448
  - # 7
    frequency:    4.8468986191
  - # 8
    frequency:    6.1521592868
  - # 9
    frequency:    6.5691216518
  - # 10
    frequency:    7.2188570887
  - # 11
    frequency:   10.3796673580
  - # 12
    frequency:   14.1474710299
  - # 13
    frequency:   14.3376210830
  - # 14
    frequency:   14.3680374236
  - # 15
    frequency:   27.3745127633
  - # 16
    frequency:   28.2748060591
  - # 17
    frequency:   28.9824411866
  - # 18
    frequency:   34.2087652518

- q-position: [    0.1262626,    0.0000000,    0.0000000 ]
  distance:    0.0451123
  band:
  - # 1
    frequency:   -0.3437715360
  - # 2
    frequency:    0.2538547349
  - # 3
    frequency:    1.7366027900
  - # 4
    frequency:    2.7964374575
  - # 5
    frequency:    3.8090400156
  - # 6
    frequency:    4.8049497068
  - # 7
    frequency:    4.8422149652
  - # 8
    frequency:    6.1660923851
  - # 9
    frequency:    6.5871151121
  - # 10
    frequency:    7.2695025341
  - # 11
    frequency:   10.3600973567
  - # 12
    frequency:   14.1419344812
  - # 13
    frequency:   14.3422495378
  - # 14
    frequency:   14.3685621964
  - # 15
    frequency:   27.3396786992
  - # 16
    frequency:   28.2643067076
  - # 17
    frequency:   29.0129558745
  - # 18
    frequency:   34.1974065601

- q-position: [    0.1313131,    0.0000000,    0.0000000 ]
  distance:    0.0469168
  band:
  - # 1
    frequency:   -0.4315831393
  - # 2
    frequency:    0.1489909902
  - # 3
    frequency:    1.7843098786
  - # 4
    frequency:    2.8674615752
  - # 5
    frequency:    3.9293120101
  - # 6
    frequency:    4.8023554759
  - # 7
    frequency:    4.8376680761
  - # 8
    frequency:    6.1811423460
  - # 9
    frequency:    6.6052279850
  - # 10
    frequency:    7.3207097333
  - # 11
    frequency:   10.3400784343
  - # 12
    frequency:   14.1363752447
  - # 13
    frequency:   14.3469075844
  - # 14
    frequency:   14.3690732507
  - # 15
    frequency:   27.3046591612
  - # 16
    frequency:   28.2536718307
  - # 17
    frequency:   29.0436283559
  - # 18
    frequency:   34.1857666998

- q-position: [    0.1363636,    0.0000000,    0.0000000 ]
  distance:    0.0487213
  band:
  - # 1
    frequency:   -0.5110445982
  - # 2
    frequency:   -0.1780649378
  - # 3
    frequency:    1.8341822860
  - # 4
    frequency:    2.9394195616
  - # 5
    frequency:    4.0479361579
  - # 6
    frequency:    4.7998217756
  - # 7
    frequency:    4.8334933286
  - # 8
    frequency:    6.1972730770
  - # 9
    frequency:    6.6234120478
  - # 10
    frequency:    7.3724263148
  - # 11
    frequency:   10.3196461800
  - # 12
    frequency:   14.1307639707
  - # 13
    frequency:   14.3515794267
  - # 14
    frequency:   14.3696200762
  - # 15
    frequency:   27.2694829932
  - # 16
    frequency:   28.2429307651
  - # 17
    frequency:   29.0744462971
  - # 18
    frequency:   34.1738648543

- q-position: [    0.1414141,    0.0000000,    0.0000000 ]
  distance:    0.0505258
  band:
  - # 1
    frequency:   -0.5856450999
  - # 2
    frequency:   -0.3131457490
  - # 3
    frequency:    1.8860694486
  - # 4
    frequency:    3.0121411621
  - # 5
    frequency:    4.1644878733
  - # 6
    frequency:    4.7973801276
  - # 7
    frequency:    4.8300048108
  - # 8
    frequency:    6.2144631872
  - # 9
    frequency:    6.6416209026
  - # 10
    frequency:    7.4245998956
  - # 11
    frequency:   10.2988365948
  - # 12
    frequency:   14.1250661475
  - # 13
    frequency:   14.3562492449
  - # 14
    frequency:   14.3702576582
  - # 15
    frequency:   27.2341790195
  - # 16
    frequency:   28.2321129292
  - # 17
    frequency:   29.1053976836
  - # 18
    frequency:   34.1617204543

- q-position: [    0.1464646,    0.0000000,    0.0000000 ]
  distance:    0.0523303
  band:
  - # 1
    frequency:   -0.6571198845
  - # 2
    frequency:   -0.4213863666
  - # 3
    frequency:    1.9397810326
  - # 4
    frequency:    3.0854635330
  - # 5
    frequency:    4.2784000965
  - # 6
    frequency:    4.7950655362
  - # 7
    frequency:    4.8276668212
  - # 8
    frequency:    6.2327081097
  - # 9
    frequency:    6.6598101210
  - # 10
    frequency:    7.4771783287
  - # 11
    frequency:   10.2776860758
  - # 12
    frequency:   14.1192422508
  - # 13
    frequency:   14.3609012545
  - # 14
    frequency:   14.3710461744
  - # 15
    frequency:   27.1987761242
  - # 16
    frequency:   28.2212477196
  - # 17
    frequency:   29.1364706836
  - # 18
    frequency:   34.1493531272

- q-position: [    0.1515152,    0.0000000,    0.0000000 ]
  distance:    0.0541348
  band:
  - # 1
    frequency:   -0.7264660551
  - # 2
    frequency:   -0.5204453905
  - # 3
    frequency:    1.9951023904
  - # 4
    frequency:    3.1592297065
  - # 5
    frequency:    4.3887867555
  - # 6
    frequency:    4.7929169929
  - # 7
    frequency:    4.8272637554
  - # 8
    frequency:    6.2520221258
  - # 9
    frequency:    6.6779373637
  - # 10
    frequency:    7.5301099115
  - # 11
    frequency:   10.2562314215
  - # 12
    frequency:   14.1132481131
  - # 13
    frequency:   14.3655197654
  - # 14
    frequency:   14.3720504573
  - # 15
    frequency:   27.1633032943
  - # 16
    frequency:   28.2103644083
  - # 17
    frequency:   29.1676535443
  - # 18
    frequency:   34.1367826459

- q-position: [    0.1565657,    0.0000000,    0.0000000 ]
  distance:    0.0559393
  band:
  - # 1
    frequency:   -0.7943103516
  - # 2
    frequency:   -0.6152491624
  - # 3
    frequency:    2.0518070098
  - # 4
    frequency:    3.2332868611
  - # 5
    frequency:    4.4939950491
  - # 6
    frequency:    4.7909781415
  - # 7
    frequency:    4.8303419479
  - # 8
    frequency:    6.2724402947
  - # 9
    frequency:    6.6959624769
  - # 10
    frequency:    7.5833435524
  - # 11
    frequency:   10.2345098601
  - # 12
    frequency:   14.1070355409
  - # 13
    frequency:   14.3700892429
  - # 14
    frequency:   14.3733391924
  - # 15
    frequency:   27.1277896354
  - # 16
    frequency:   28.1994920393
  - # 17
    frequency:   29.1989345132
  - # 18
    frequency:   34.1240288782

- q-position: [    0.1616162,    0.0000000,    0.0000000 ]
  distance:    0.0577438
  band:
  - # 1
    frequency:   -0.8610707725
  - # 2
    frequency:   -0.7078846969
  - # 3
    frequency:    2.1096659173
  - # 4
    frequency:    3.3074843992
  - # 5
    frequency:    4.5903862015
  - # 6
    frequency:    4.7892981530
  - # 7
    frequency:    4.8404237002
  - # 8
    frequency:    6.2940202472
  - # 9
    frequency:    6.7138475677
  - # 10
    frequency:    7.6368288928
  - # 11
    frequency:   10.2125591019
  - # 12
    frequency:   14.1005531907
  - # 13
    frequency:   14.3745943685
  - # 14
    frequency:   14.3749838471
  - # 15
    frequency:   27.0922643634
  - # 16
    frequency:   28.1886593268
  - # 17
    frequency:   29.2303017785
  - # 18
    frequency:   34.1111117351

- q-position: [    0.1666667,    0.0000000,    0.0000000 ]
  distance:    0.0595483
  band:
  - # 1
    frequency:   -0.9270372133
  - # 2
    frequency:   -0.7994077344
  - # 3
    frequency:    2.1684543427
  - # 4
    frequency:    3.3816717984
  - # 5
    frequency:    4.6697120731
  - # 6
    frequency:    4.7879328751
  - # 7
    frequency:    4.8656261178
  - # 8
    frequency:    6.3168437317
  - # 9
    frequency:    6.7315570586
  - # 10
    frequency:    7.6905163841
  - # 11
    frequency:   10.1904174174
  - # 12
    frequency:   14.0937476860
  - # 13
    frequency:   14.3770573464
  - # 14
    frequency:   14.3790201016
  - # 15
    frequency:   27.0567567797
  - # 16
    frequency:   28.1778945537
  - # 17
    frequency:   29.2617434254
  - # 18
    frequency:   34.0980511209

- q-position: [    0.1717172,    0.0000000,    0.0000000 ]
  distance:    0.0613528
  band:
  - # 1
    frequency:   -0.9924155457
  - # 2
    frequency:   -0.8904041150
  - # 3
    frequency:    2.2279561200
  - # 4
    frequency:    3.4556961733
  - # 5
    frequency:    4.7208847618
  - # 6
    frequency:    4.7869463409
  - # 7
    frequency:    4.9168877587
  - # 8
    frequency:    6.3410177013
  - # 9
    frequency:    6.7490577260
  - # 10
    frequency:    7.7443573207
  - # 11
    frequency:   10.1681237413
  - # 12
    frequency:   14.0865649299
  - # 13
    frequency:   14.3796325460
  - # 14
    frequency:   14.3833517415
  - # 15
    frequency:   27.0212962320
  - # 16
    frequency:   28.1672254729
  - # 17
    frequency:   29.2932474028
  - # 18
    frequency:   34.0848668823

- q-position: [    0.1767677,    0.0000000,    0.0000000 ]
  distance:    0.0631573
  band:
  - # 1
    frequency:   -1.0573534710
  - # 2
    frequency:   -0.9812129558
  - # 3
    frequency:    2.2879663426
  - # 4
    frequency:    3.5293994500
  - # 5
    frequency:    4.7464100981
  - # 6
    frequency:    4.7864127446
  - # 7
    frequency:    4.9915325024
  - # 8
    frequency:    6.3666745866
  - # 9
    frequency:    6.7663187223
  - # 10
    frequency:    7.7983038297
  - # 11
    frequency:   10.1457178033
  - # 12
    frequency:   14.0789515365
  - # 13
    frequency:   14.3827805835
  - # 14