nqpoint: 300    
npath: 3      
segment_nqpoint:
- 100
- 100
- 100
labels:
- [ 'G', 'M' ]
- [ 'M', 'K' ]
- [ 'K', 'G' ]
reciprocal_lattice:
- [   0.28494069,   0.16451059,   0.00000000 ] # a*
- [   0.00000000,   0.32902117,   0.00000000 ] # b*
- [   0.00000000,   0.00000000,   0.03418159 ] # c*
natom: 9      
lattice:
- [     3.509502232221474,     0.000000000000000,     0.000000000000000 ] # a
- [    -1.754751116110737,     3.039318087736330,     0.000000000000000 ] # b
- [     0.000000000000000,     0.000000000000000,    29.255510916031877 ] # c
points:
- symbol: C # 1
  coordinates: [  0.333332985432215,  0.666666983183674,  0.651675868820991 ]
  mass: 12.010700
- symbol: C # 2
  coordinates: [  0.666666984744047,  0.333332985985145,  0.348324131565955 ]
  mass: 12.010700
- symbol: N # 3
  coordinates: [  0.000000000000000,  0.000000000000000,  0.500000026118825 ]
  mass: 14.006700
- symbol: N # 4
  coordinates: [  0.333332985432215,  0.666666983183674,  0.692365652890784 ]
  mass: 14.006700
- symbol: N # 5
  coordinates: [  0.666666984744047,  0.333332985985145,  0.307634347109216 ]
  mass: 14.006700
- symbol: S # 6
  coordinates: [  0.333332985432215,  0.666666983183674,  0.594353156301978 ]
  mass: 32.065000
- symbol: S # 7
  coordinates: [  0.666666984744047,  0.333332985985145,  0.405646844084968 ]
  mass: 32.065000
- symbol: Sc # 8
  coordinates: [  0.333332985432215,  0.666666983183674,  0.460242149310322 ]
  mass: 44.955912
- symbol: Sc # 9
  coordinates: [  0.666666984744047,  0.333332985985145,  0.539757850689671 ]
  mass: 44.955912

phonon:
- q-position: [    0.0000000,    0.0000000,    0.0000000 ]
  distance:    0.0000000
  band:
  - # 1
    frequency:   -0.6201170099
  - # 2
    frequency:   -0.6201170099
  - # 3
    frequency:   -0.0000020170
  - # 4
    frequency:   -0.0000008571
  - # 5
    frequency:    0.0000019433
  - # 6
    frequency:    0.4960449771
  - # 7
    frequency:    0.4960449771
  - # 8
    frequency:    3.2970474934
  - # 9
    frequency:    3.2970474934
  - # 10
    frequency:    4.5840578658
  - # 11
    frequency:    6.5857903647
  - # 12
    frequency:    6.5857903647
  - # 13
    frequency:    6.9956018243
  - # 14
    frequency:    6.9956018243
  - # 15
    frequency:    8.1799596984
  - # 16
    frequency:    9.9692072061
  - # 17
    frequency:    9.9692072061
  - # 18
    frequency:   10.2257535852
  - # 19
    frequency:   10.2257535852
  - # 20
    frequency:   10.8052188514
  - # 21
    frequency:   11.3743476794
  - # 22
    frequency:   11.3743476794
  - # 23
    frequency:   11.8751196793
  - # 24
    frequency:   20.6598527923
  - # 25
    frequency:   20.6662119803
  - # 26
    frequency:   65.0734923797
  - # 27
    frequency:   65.0757818096

- q-position: [    0.0050505,    0.0000000,    0.0000000 ]
  distance:    0.0016617
  band:
  - # 1
    frequency:   -0.6195765839
  - # 2
    frequency:   -0.6173817126
  - # 3
    frequency:   -0.0132524112
  - # 4
    frequency:    0.0579149753
  - # 5
    frequency:    0.1002614426
  - # 6
    frequency:    0.4972060396
  - # 7
    frequency:    0.4993386143
  - # 8
    frequency:    3.2973823618
  - # 9
    frequency:    3.2985856429
  - # 10
    frequency:    4.5835048096
  - # 11
    frequency:    6.5855588658
  - # 12
    frequency:    6.5858236142
  - # 13
    frequency:    6.9959263604
  - # 14
    frequency:    6.9961836514
  - # 15
    frequency:    8.1797762202
  - # 16
    frequency:    9.9691765758
  - # 17
    frequency:    9.9695427495
  - # 18
    frequency:   10.2259633482
  - # 19
    frequency:   10.2260734353
  - # 20
    frequency:   10.8044169454
  - # 21
    frequency:   11.3737509280
  - # 22
    frequency:   11.3744130808
  - # 23
    frequency:   11.8728846600
  - # 24
    frequency:   20.6597567943
  - # 25
    frequency:   20.6661382309
  - # 26
    frequency:   65.0734050222
  - # 27
    frequency:   65.0756967979

- q-position: [    0.0101010,    0.0000000,    0.0000000 ]
  distance:    0.0033234
  band:
  - # 1
    frequency:   -0.6179263084
  - # 2
    frequency:   -0.6090340478
  - # 3
    frequency:   -0.0255333549
  - # 4
    frequency:    0.1154022673
  - # 5
    frequency:    0.1992270448
  - # 6
    frequency:    0.5007280988
  - # 7
    frequency:    0.5094884868
  - # 8
    frequency:    3.2983870198
  - # 9
    frequency:    3.3031834486
  - # 10
    frequency:    4.5818483451
  - # 11
    frequency:    6.5848685598
  - # 12
    frequency:    6.5859249369
  - # 13
    frequency:    6.9968984875
  - # 14
    frequency:    6.9979216799
  - # 15
    frequency:    8.1792281271
  - # 16
    frequency:    9.9690897768
  - # 17
    frequency:    9.9705358569
  - # 18
    frequency:   10.2265960338
  - # 19
    frequency:   10.2270301373
  - # 20
    frequency:   10.8020132794
  - # 21
    frequency:   11.3719488843
  - # 22
    frequency:   11.3746039738
  - # 23
    frequency:   11.8661950061
  - # 24
    frequency:   20.6594692017
  - # 25
    frequency:   20.6659169811
  - # 26
    frequency:   65.0731431409
  - # 27
    frequency:   65.0754419214

- q-position: [    0.0151515,    0.0000000,    0.0000000 ]
  distance:    0.0049852
  band:
  - # 1
    frequency:   -0.6150847213
  - # 2
    frequency:   -0.5946680335
  - # 3
    frequency:   -0.0357377156
  - # 4
    frequency:    0.1720104566
  - # 5
    frequency:    0.2950171323
  - # 6
    frequency:    0.5067390713
  - # 7
    frequency:    0.5276022729
  - # 8
    frequency:    3.3000616313
  - # 9
    frequency:    3.3107916082
  - # 10
    frequency:    4.5790965838
  - # 11
    frequency:    6.5837319159
  - # 12
    frequency:    6.5860989076
  - # 13
    frequency:    6.9985138149
  - # 14
    frequency:    7.0007936957
  - # 15
    frequency:    8.1783224349
  - # 16
    frequency:    9.9689618531
  - # 17
    frequency:    9.9721456701
  - # 18
    frequency:   10.2276621466
  - # 19
    frequency:   10.2286153162
  - # 20
    frequency:   10.7980139774
  - # 21
    frequency:   11.3689062086
  - # 22
    frequency:   11.3749045043
  - # 23
    frequency:   11.8550970318
  - # 24
    frequency:   20.6589912140
  - # 25
    frequency:   20.6655482284
  - # 26
    frequency:   65.0727073086
  - # 27
    frequency:   65.0750176561

- q-position: [    0.0202020,    0.0000000,    0.0000000 ]
  distance:    0.0066469
  band:
  - # 1
    frequency:   -0.6109319895
  - # 2
    frequency:   -0.5736406610
  - # 3
    frequency:   -0.0424135583
  - # 4
    frequency:    0.2272230967
  - # 5
    frequency:    0.3839005071
  - # 6
    frequency:    0.5154920555
  - # 7
    frequency:    0.5567905742
  - # 8
    frequency:    3.3024064871
  - # 9
    frequency:    3.3213299833
  - # 10
    frequency:    4.5752630451
  - # 11
    frequency:    6.5821693827
  - # 12
    frequency:    6.5863526641
  - # 13
    frequency:    7.0007651965
  - # 14
    frequency:    7.0047631477
  - # 15
    frequency:    8.1770708046
  - # 16
    frequency:    9.9688171333
  - # 17
    frequency:    9.9743031647
  - # 18
    frequency:   10.2291801960
  - # 19
    frequency:   10.2308155586
  - # 20
    frequency:   10.7924291414
  - # 21
    frequency:   11.3645641040
  - # 22
    frequency:   11.3752885142
  - # 23
    frequency:   11.8396682694
  - # 24
    frequency:   20.6583248153
  - # 25
    frequency:   20.6650319793
  - # 26
    frequency:   65.0720984749
  - # 27
    frequency:   65.0744247957

- q-position: [    0.0252525,    0.0000000,    0.0000000 ]
  distance:    0.0083086
  band:
  - # 1
    frequency:   -0.6053267885
  - # 2
    frequency:   -0.5450443076
  - # 3
    frequency:   -0.0432120002
  - # 4
    frequency:    0.2803872046
  - # 5
    frequency:    0.4586827864
  - # 6
    frequency:    0.5274305745
  - # 7
    frequency:    0.6037197669
  - # 8
    frequency:    3.3054220286
  - # 9
    frequency:    3.3346904612
  - # 10
    frequency:    4.5703666542
  - # 11
    frequency:    6.5802089126
  - # 12
    frequency:    6.5866952096
  - # 13
    frequency:    7.0036429661
  - # 14
    frequency:    7.0097798312
  - # 15
    frequency:    8.1754894898
  - # 16
    frequency:    9.9686881968
  - # 17
    frequency:    9.9769099057
  - # 18
    frequency:   10.2311780169
  - # 19
    frequency:   10.2336131519
  - # 20
    frequency:   10.7852726929
  - # 21
    frequency:   11.3588405104
  - # 22
    frequency:   11.3757199310
  - # 23
    frequency:   11.8200179710
  - # 24
    frequency:   20.6574727516
  - # 25
    frequency:   20.6643682656
  - # 26
    frequency:   65.0713179586
  - # 27
    frequency:   65.0736644522

- q-position: [    0.0303030,    0.0000000,    0.0000000 ]
  distance:    0.0099703
  band:
  - # 1
    frequency:   -0.5981203929
  - # 2
    frequency:   -0.5075634156
  - # 3
    frequency:   -0.0322597648
  - # 4
    frequency:    0.3306172567
  - # 5
    frequency:    0.5141553636
  - # 6
    frequency:    0.5432751529
  - # 7
    frequency:    0.6731251874
  - # 8
    frequency:    3.3091088785
  - # 9
    frequency:    3.3507406140
  - # 10
    frequency:    4.5644317358
  - # 11
    frequency:    6.5778853419
  - # 12
    frequency:    6.5871364938
  - # 13
    frequency:    7.0071352271
  - # 14
    frequency:    7.0157807964
  - # 15
    frequency:    8.1735992529
  - # 16
    frequency:    9.9686145767
  - # 17
    frequency:    9.9798366300
  - # 18
    frequency:   10.2336942271
  - # 19
    frequency:   10.2369869818
  - # 20
    frequency:   10.7765621490
  - # 21
    frequency:   11.3516304594
  - # 22
    frequency:   11.3761532998
  - # 23
    frequency:   11.7962877858
  - # 24
    frequency:   20.6564385000
  - # 25
    frequency:   20.6635571651
  - # 26
    frequency:   65.0703674386
  - # 27
    frequency:   65.0727380554

- q-position: [    0.0353535,    0.0000000,    0.0000000 ]
  distance:    0.0116321
  band:
  - # 1
    frequency:   -0.5891649425
  - # 2
    frequency:   -0.4591178684
  - # 3
    frequency:    0.0347980937
  - # 4
    frequency:    0.3767435913
  - # 5
    frequency:    0.5565672155
  - # 6
    frequency:    0.5640638610
  - # 7
    frequency:    0.7583216801
  - # 8
    frequency:    3.3134678725
  - # 9
    frequency:    3.3693278697
  - # 10
    frequency:    4.5574880009
  - # 11
    frequency:    6.5752396650
  - # 12
    frequency:    6.5876863172
  - # 13
    frequency:    7.0112281662
  - # 14
    frequency:    7.0226914485
  - # 15
    frequency:    8.1714252425
  - # 16
    frequency:    9.9686413157
  - # 17
    frequency:    9.9829220371
  - # 18
    frequency:   10.2367793741
  - # 19
    frequency:   10.2409134840
  - # 20
    frequency:   10.7663183300
  - # 21
    frequency:   11.3428066993
  - # 22
    frequency:   11.3765344433
  - # 23
    frequency:   11.7686525597
  - # 24
    frequency:   20.6552262295
  - # 25
    frequency:   20.6625988288
  - # 26
    frequency:   65.0692489423
  - # 27
    frequency:   65.0716473529

- q-position: [    0.0404040,    0.0000000,    0.0000000 ]
  distance:    0.0132938
  band:
  - # 1
    frequency:   -0.5783154748
  - # 2
    frequency:   -0.3959850856
  - # 3
    frequency:    0.0743238890
  - # 4
    frequency:    0.4175077090
  - # 5
    frequency:    0.5909466073
  - # 6
    frequency:    0.5941856596
  - # 7
    frequency:    0.8506401899
  - # 8
    frequency:    3.3185000894
  - # 9
    frequency:    3.3902838925
  - # 10
    frequency:    4.5495705223
  - # 11
    frequency:    6.5723182383
  - # 12
    frequency:    6.5883531022
  - # 13
    frequency:    7.0159063598
  - # 14
    frequency:    7.0304268069
  - # 15
    frequency:    8.1689968171
  - # 16
    frequency:    9.9688174824
  - # 17
    frequency:    9.9859723374
  - # 18
    frequency:   10.2404961485
  - # 19
    frequency:   10.2453675547
  - # 20
    frequency:   10.7545649864
  - # 21
    frequency:   11.3322207682
  - # 22
    frequency:   11.3768012341
  - # 23
    frequency:   11.7373211538
  - # 24
    frequency:   20.6538407543
  - # 25
    frequency:   20.6614935115
  - # 26
    frequency:   65.0679648317
  - # 27
    frequency:   65.0703944078

- q-position: [    0.0454545,    0.0000000,    0.0000000 ]
  distance:    0.0149555
  band:
  - # 1
    frequency:   -0.5654267319
  - # 2
    frequency:   -0.3101044169
  - # 3
    frequency:    0.1130154948
  - # 4
    frequency:    0.4521917188
  - # 5
    frequency:    0.6245474011
  - # 6
    frequency:    0.6309159971
  - # 7
    frequency:    0.9458125158
  - # 8
    frequency:    3.3242068738
  - # 9
    frequency:    3.4134288908
  - # 10
    frequency:    4.5407196967
  - # 11
    frequency:    6.5691719487
  - # 12
    frequency:    6.5891425663
  - # 13
    frequency:    7.0211530496
  - # 14
    frequency:    7.0388928981
  - # 15
    frequency:    8.1663473034
  - # 16
    frequency:    9.9691947404
  - # 17
    frequency:    9.9887622375
  - # 18
    frequency:   10.2449178944
  - # 19
    frequency:   10.2503233449
  - # 20
    frequency:   10.7413283345
  - # 21
    frequency:   11.3197048069
  - # 22
    frequency:   11.3768844618
  - # 23
    frequency:   11.7025370759
  - # 24
    frequency:   20.6522874799
  - # 25
    frequency:   20.6602416068
  - # 26
    frequency:   65.0665177900
  - # 27
    frequency:   65.0689815961

- q-position: [    0.0505051,    0.0000000,    0.0000000 ]
  distance:    0.0166172
  band:
  - # 1
    frequency:   -0.5503459110
  - # 2
    frequency:   -0.1752772192
  - # 3
    frequency:    0.1585498104
  - # 4
    frequency:    0.4812365784
  - # 5
    frequency:    0.6643403501
  - # 6
    frequency:    0.6682098176
  - # 7
    frequency:    1.0420687271
  - # 8
    frequency:    3.3305898464
  - # 9
    frequency:    3.4385756137
  - # 10
    frequency:    4.5309811893
  - # 11
    frequency:    6.5658553726
  - # 12
    frequency:    6.5900563208
  - # 13
    frequency:    7.0269503697
  - # 14
    frequency:    7.0479882684
  - # 15
    frequency:    8.1635136716
  - # 16
    frequency:    9.9698260343
  - # 17
    frequency:    9.9910380638
  - # 18
    frequency:   10.2501246266
  - # 19
    frequency:   10.2557548890
  - # 20
    frequency:   10.7266364756
  - # 21
    frequency:   11.3050745885
  - # 22
    frequency:   11.3767087749
  - # 23
    frequency:   11.6645785488
  - # 24
    frequency:   20.6505723432
  - # 25
    frequency:   20.6588436842
  - # 26
    frequency:   65.0649108062
  - # 27
    frequency:   65.0674116018

- q-position: [    0.0555556,    0.0000000,    0.0000000 ]
  distance:    0.0182790
  band:
  - # 1
    frequency:   -0.5329019092
  - # 2
    frequency:    0.1492745952
  - # 3
    frequency:    0.2452246038
  - # 4
    frequency:    0.5060070167
  - # 5
    frequency:    0.7066005661
  - # 6
    frequency:    0.7088812274
  - # 7
    frequency:    1.1386061708
  - # 8
    frequency:    3.3376508965
  - # 9
    frequency:    3.4655328507
  - # 10
    frequency:    4.5204058593
  - # 11
    frequency:    6.5624259438
  - # 12
    frequency:    6.5910904085
  - # 13
    frequency:    7.0332795167
  - # 14
    frequency:    7.0576056117
  - # 15
    frequency:    8.1605361089
  - # 16
    frequency:    9.9707644319
  - # 17
    frequency:    9.9925234969
  - # 18
    frequency:   10.2561959858
  - # 19
    frequency:   10.2616365478
  - # 20
    frequency:   10.7105186717
  - # 21
    frequency:   11.2881345280
  - # 22
    frequency:   11.3761936796
  - # 23
    frequency:   11.6237573652
  - # 24
    frequency:   20.6487017468
  - # 25
    frequency:   20.6573005284
  - # 26
    frequency:   65.0631471596
  - # 27
    frequency:   65.0656874103

- q-position: [    0.0606061,    0.0000000,    0.0000000 ]
  distance:    0.0199407
  band:
  - # 1
    frequency:   -0.5128905785
  - # 2
    frequency:    0.2155040353
  - # 3
    frequency:    0.3665665956
  - # 4
    frequency:    0.5279919116
  - # 5
    frequency:    0.7462898059
  - # 6
    frequency:    0.7566052687
  - # 7
    frequency:    1.2350062494
  - # 8
    frequency:    3.3453921528
  - # 9
    frequency:    3.4941083095
  - # 10
    frequency:    4.5090496662
  - # 11
    frequency:    6.5589431415
  - # 12
    frequency:    6.5922337772
  - # 13
    frequency:    7.0401208633
  - # 14
    frequency:    7.0676335127
  - # 15
    frequency:    8.1574574748
  - # 16
    frequency:    9.9720621374
  - # 17
    frequency:    9.9929278343
  - # 18
    frequency:   10.2632011172
  - # 19
    frequency:   10.2679432641
  - # 20
    frequency:   10.6930044470
  - # 21
    frequency:   11.2686858339
  - # 22
    frequency:   11.3752545757
  - # 23
    frequency:   11.5804154856
  - # 24
    frequency:   20.6466824891
  - # 25
    frequency:   20.6556131785
  - # 26
    frequency:   65.0612304046
  - # 27
    frequency:   65.0638122995

- q-position: [    0.0656566,    0.0000000,    0.0000000 ]
  distance:    0.0216024
  band:
  - # 1
    frequency:   -0.4900540686
  - # 2
    frequency:    0.2643904245
  - # 3
    frequency:    0.4688310107
  - # 4
    frequency:    0.5483249487
  - # 5
    frequency:    0.7873651366
  - # 6
    frequency:    0.8063058063
  - # 7
    frequency:    1.3310182701
  - # 8
    frequency:    3.3538159261
  - # 9
    frequency:    3.5241108024
  - # 10
    frequency:    4.4969735572
  - # 11
    frequency:    6.5554677025
  - # 12
    frequency:    6.5934666806
  - # 13
    frequency:    7.0474540200
  - # 14
    frequency:    7.0779583141
  - # 15
    frequency:    8.1543226188
  - # 16
    frequency:    9.9737696734
  - # 17
    frequency:    9.9919558806
  - # 18
    frequency:   10.2711862691
  - # 19
    frequency:   10.2746506502
  - # 20
    frequency:   10.6741224973
  - # 21
    frequency:   11.2465394360
  - # 22
    frequency:   11.3738038132
  - # 23
    frequency:   11.5349178607
  - # 24
    frequency:   20.6445216898
  - # 25
    frequency:   20.6537829679
  - # 26
    frequency:   65.0591643543
  - # 27
    frequency:   65.0617898300

- q-position: [    0.0707071,    0.0000000,    0.0000000 ]
  distance:    0.0232641
  band:
  - # 1
    frequency:   -0.4640499914
  - # 2
    frequency:    0.3127444735
  - # 3
    frequency:    0.5579161973
  - # 4
    frequency:    0.5677395445
  - # 5
    frequency:    0.8298877614
  - # 6
    frequency:    0.8571792927
  - # 7
    frequency:    1.4264721603
  - # 8
    frequency:    3.3629246221
  - # 9
    frequency:    3.5553517147
  - # 10
    frequency:    4.4842433389
  - # 11
    frequency:    6.5520608580
  - # 12
    frequency:    6.5947589862
  - # 13
    frequency:    7.0552578561
  - # 14
    frequency:    7.0884661095
  - # 15
    frequency:    8.1511775453
  - # 16
    frequency:    9.9759352207
  - # 17
    frequency:    9.9893177808
  - # 18
    frequency:   10.2801616624
  - # 19
    frequency:   10.2817349332
  - # 20
    frequency:   10.6538994398
  - # 21
    frequency:   11.2215356398
  - # 22
    frequency:   11.3717517518
  - # 23
    frequency:   11.4876396330
  - # 24
    frequency:   20.6422267132
  - # 25
    frequency:   20.6518115615
  - # 26
    frequency:   65.0569530658
  - # 27
    frequency:   65.0596238316

- q-position: [    0.0757576,    0.0000000,    0.0000000 ]
  distance:    0.0249258
  band:
  - # 1
    frequency:   -0.4344015672
  - # 2
    frequency:    0.3622630839
  - # 3
    frequency:    0.5866783714
  - # 4
    frequency:    0.6383986905
  - # 5
    frequency:    0.8739284145
  - # 6
    frequency:    0.9087160546
  - # 7
    frequency:    1.5212396802
  - # 8
    frequency:    3.3727206205
  - # 9
    frequency:    3.5876457620
  - # 10
    frequency:    4.4709295411
  - # 11
    frequency:    6.5487835926
  - # 12
    frequency:    6.5960683657
  - # 13
    frequency:    7.0635104919
  - # 14
    frequency:    7.0990448620
  - # 15
    frequency:    8.1480684152
  - # 16
    frequency:    9.9786040934
  - # 17
    frequency:    9.9847368296
  - # 18
    frequency:   10.2891727903
  - # 19
    frequency:   10.2900893762
  - # 20
    frequency:   10.6323585810
  - # 21
    frequency:   11.1935720465
  - # 22
    frequency:   11.3690078115
  - # 23
    frequency:   11.4389462317
  - # 24
    frequency:   20.6398050892
  - # 25
    frequency:   20.6497009906
  - # 26
    frequency:   65.0546008241
  - # 27
    frequency:   65.0573183900

- q-position: [    0.0808081,    0.0000000,    0.0000000 ]
  distance:    0.0265876
  band:
  - # 1
    frequency:   -0.4004094022
  - # 2
    frequency:    0.4132538143
  - # 3
    frequency:    0.6054007294
  - # 4
    frequency:    0.7125708963
  - # 5
    frequency:    0.9195762533
  - # 6
    frequency:    0.9605933222
  - # 7
    frequency:    1.6152155886
  - # 8
    frequency:    3.3832061199
  - # 9
    frequency:    3.6208110633
  - # 10
    frequency:    4.4571072816
  - # 11
    frequency:    6.5456959247
  - # 12
    frequency:    6.5973383392
  - # 13
    frequency:    7.0721892730
  - # 14
    frequency:    7.1095866360
  - # 15
    frequency:    8.1450403776
  - # 16
    frequency:    9.9779538191
  - # 17
    frequency:    9.9818183304
  - # 18
    frequency:   10.2969411062
  - # 19
    frequency:   10.3008732074
  - # 20
    frequency:   10.6095192364
  - # 21
    frequency:   11.1626391737
  - # 22
    frequency:   11.3654815014
  - # 23
    frequency:   11.3891668882
  - # 24
    frequency:   20.6372644343
  - # 25
    frequency:   20.6474536840
  - # 26
    frequency:   65.0521121274
  - # 27
    frequency:   65.0548778296

- q-position: [    0.0858586,    0.0000000,    0.0000000 ]
  distance:    0.0282493
  band:
  - # 1
    frequency:   -0.3609777296
  - # 2
    frequency:    0.4657282393
  - # 3
    frequency:    0.6240552825
  - # 4
    frequency:    0.7816719084
  - # 5
    frequency:    0.9669256740
  - # 6
    frequency:    1.0126028965
  - # 7
    frequency:    1.7083077006
  - # 8
    frequency:    3.3943829470
  - # 9
    frequency:    3.6546685605
  - # 10
    frequency:    4.4428561467
  - # 11
    frequency:    6.5428562052
  - # 12
    frequency:    6.5984961402
  - # 13
    frequency:    7.0812707370
  - # 14
    frequency:    7.1199899125
  - # 15
    frequency:    8.1421362371
  - # 16
    frequency:    9.9687277175
  - # 17
    frequency:    9.9856163799
  - # 18
    frequency:   10.3050166815
  - # 19
    frequency:   10.3123495251
  - # 20
    frequency:   10.5853980412
  - # 21
    frequency:   11.1288584636
  - # 22
    frequency:   11.3385666687
  - # 23
    frequency:   11.3610834172
  - # 24
    frequency:   20.6346123713
  - # 25
    frequency:   20.6450724936
  - # 26
    frequency:   65.0494916715
  - # 27
    frequency:   65.0523066968

- q-position: [    0.0909091,    0.0000000,    0.0000000 ]
  distance:    0.0299110
  band:
  - # 1
    frequency:   -0.3142202310
  - # 2
    frequency:    0.5196083530
  - # 3
    frequency:    0.6427244193
  - # 4
    frequency:    0.8464448682
  - # 5
    frequency:    1.0160408864
  - # 6
    frequency:    1.0646071324
  - # 7
    frequency:    1.8004311781
  - # 8
    frequency:    3.4062523327
  - # 9
    frequency:    3.6890408100
  - # 10
    frequency:    4.4282601089
  - # 11
    frequency:    6.5403204389
  - # 12
    frequency:    6.5994503702
  - # 13
    frequency:    7.0907305803
  - # 14
    frequency:    7.1301619410
  - # 15
    frequency:    8.1393949695
  - # 16
    frequency:    9.9568338446
  - # 17
    frequency:    9.9900328586
  - # 18
    frequency:   10.3133759194
  - # 19
    frequency:   10.3242747684
  - # 20
    frequency:   10.5600160049
  - # 21
    frequency:   11.0925103777
  - # 22
    frequency:   11.2873287998
  - # 23
    frequency:   11.3557262016
  - # 24
    frequency:   20.6318564524
  - # 25
    frequency:   20.6425607137
  - # 26
    frequency:   65.0467443352
  - # 27
    frequency:   65.0496097408

- q-position: [    0.0959596,    0.0000000,    0.0000000 ]
  distance:    0.0315727
  band:
  - # 1
    frequency:   -0.2563533062
  - # 2
    frequency:    0.5747854537
  - # 3
    frequency:    0.6614506070
  - # 4
    frequency:    0.9074243613
  - # 5
    frequency:    1.0669053716
  - # 6
    frequency:    1.1165128418
  - # 7
    frequency:    1.8915049383
  - # 8
    frequency:    3.4188146570
  - # 9
    frequency:    3.7237501544
  - # 10
    frequency:    4.4134075104
  - # 11
    frequency:    6.5381416302
  - # 12
    frequency:    6.6000884095
  - # 13
    frequency:    7.1005436272
  - # 14
    frequency:    7.1400210552
  - # 15
    frequency:    8.1368501126
  - # 16
    frequency:    9.9420616246
  - # 17
    frequency:    9.9950983672
  - # 18
    frequency:   10.3219945106
  - # 19
    frequency:   10.3362983336
  - # 20
    frequency:   10.5334215619
  - # 21
    frequency:   11.0540340802
  - # 22
    frequency:   11.2355647797
  - # 23
    frequency:   11.3493254621
  - # 24
    frequency:   20.6290040825
  - # 25
    frequency:   20.6399220937
  - # 26
    frequency:   65.0438751654
  - # 27
    frequency:   65.0467918931

- q-position: [    0.1010101,    0.0000000,    0.0000000 ]
  distance:    0.0332345
  band:
  - # 1
    frequency:   -0.1770766061
  - # 2
    frequency:    0.6311414151
  - # 3
    frequency:    0.6802520983
  - # 4
    frequency:    0.9650972133
  - # 5
    frequency:    1.1193795606
  - # 6
    frequency:    1.1682557522
  - # 7
    frequency:    1.9814491551
  - # 8
    frequency:    3.4320691660
  - # 9
    frequency:    3.7586162491
  - # 10
    frequency:    4.3983911532
  - # 11
    frequency:    6.5363691623
  - # 12
    frequency:    6.6002735524
  - # 13
    frequency:    7.1106838032
  - # 14
    frequency:    7.1494988543
  - # 15
    frequency:    8.1345280695
  - # 16
    frequency:    9.9242141315
  - # 17
    frequency:   10.0008393488
  - # 18
    frequency:   10.3308471331
  - # 19
    frequency:   10.3478895893
  - # 20
    frequency:   10.5057604323
  - # 21
    frequency:   11.0139788179
  - # 22
    frequency:   11.1833704818
  - # 23
    frequency:   11.3418006456
  - # 24
    frequency:   20.6260624482
  - # 25
    frequency:   20.6371608410
  - # 26
    frequency:   65.0408893626
  - # 27
    frequency:   65.0438582473

- q-position: [    0.1060606,    0.0000000,    0.0000000 ]
  distance:    0.0348962
  band:
  - # 1
    frequency:    0.0651429884
  - # 2
    frequency:    0.6885575120
  - # 3
    frequency:    0.6991324264
  - # 4
    frequency:    1.0199706271
  - # 5
    frequency:    1.1731969198
  - # 6
    frequency:    1.2197910901
  - # 7
    frequency:    2.0701833295
  - # 8
    frequency:    3.4460136686
  - # 9
    frequency:    3.7934528738
  - # 10
    frequency:    4.3833085547
  - # 11
    frequency:    6.5350482188
  - # 12
    frequency:    6.5998418410
  - # 13
    frequency:    7.1211241074
  - # 14
    frequency:    7.1585421279
  - # 15
    frequency:    8.1324463698
  - # 16
    frequency:    9.9031110848
  - # 17
    frequency:   10.0072779754
  - # 18
    frequency:   10.3399071810
  - # 19
    frequency:   10.3581133650
  - # 20
    frequency:   10.4774988926
  - # 21
    frequency:   10.9728901577
  - # 22
    frequency:   11.1309426166
  - # 23
    frequency:   11.3330758690
  - # 24
    frequency:   20.6230384501
  - # 25
    frequency:   20.6342816155
  - # 26
    frequency:   65.0377922659
  - # 27
    frequency:   65.0408140370

- q-position: [    0.1111111,    0.0000000,    0.0000000 ]
  distance:    0.0365579
  band:
  - # 1
    frequency:    0.2024263787
  - # 2
    frequency:    0.7180862424
  - # 3
    frequency:    0.7469183121
  - # 4
    frequency:    1.0725659980
  - # 5
    frequency:    1.2280072234
  - # 6
    frequency:    1.2710877457
  - # 7
    frequency:    2.1576246439
  - # 8
    frequency:    3.4606442164
  - # 9
    frequency:    3.8280638928
  - # 10
    frequency:    4.3682624515
  - # 11
    frequency:    6.5342192602
  - # 12
    frequency:    6.5985985733
  - # 13
    frequency:    7.1318365807
  - # 14
    frequency:    7.1671143756
  - # 15
    frequency:    8.1306119399
  - # 16
    frequency:    9.8785959263
  - # 17
    frequency:   10.0144320538
  - # 18
    frequency:   10.3491465270
  - # 19
    frequency:   10.3648445317
  - # 20
    frequency:   10.4502124720
  - # 21
    frequency:   10.9311162235
  - # 22
    frequency:   11.0787672964
  - # 23
    frequency:   11.3230807085
  - # 24
    frequency:   20.6199386419
  - # 25
    frequency:   20.6312895133
  - # 26
    frequency:   65.0345893389
  - # 27
    frequency:   65.0376646145

- q-position: [    0.1161616,    0.0000000,    0.0000000 ]
  distance:    0.0382196
  band:
  - # 1
    frequency:    0.2805992141
  - # 2
    frequency:    0.7371029643
  - # 3
    frequency:    0.8061133280
  - # 4
    frequency:    1.1233758788
  - # 5
    frequency:    1.2834421137
  - # 6
    frequency:    1.3221245600
  - # 7
    frequency:    2.2436864402
  - # 8
    frequency:    3.4759547761
  - # 9
    frequency:    3.8622381348
  - # 10
    frequency:    4.3533616749
  - # 11
    frequency:    6.5339175674
  - # 12
    frequency:    6.5963144743
  - # 13
    frequency:    7.1427922615
  - # 14
    frequency:    7.1751967615
  - # 15
    frequency:    8.1290194314
  - # 16
    frequency:    9.8505463633
  - # 17
    frequency:   10.0223149393
  - # 18
    frequency:   10.3585353269
  - # 19
    frequency:   10.3624181364
  - # 20
    frequency:   10.4289474700
  - # 21
    frequency:   10.8885283704
  - # 22
    frequency:   11.0278832228
  - # 23
    frequency:   11.3117509540
  - # 24
    frequency:   20.6167691766
  - # 25
    frequency:   20.6281900394
  - # 26
    frequency:   65.0312861543
  - # 27
    frequency:   65.0344154282

- q-position: [    0.1212121,    0.0000000,    0.0000000 ]
  distance:    0.0398814
  band:
  - # 1
    frequency:    0.3426588666
  - # 2
    frequency:    0.7561690921
  - # 3
    frequency:    0.8660375402
  - # 4
    frequency:    1.1728245099
  - # 5
    frequency:    1.3391688226
  - # 6
    frequency:    1.3728878910
  - # 7
    frequency:    2.3282767275
  - # 8
    frequency:    3.4919369015
  - # 9
    frequency:    3.8957428357
  - # 10
    frequency:    4.3387225721