nqpoint: 300    
npath: 3      
segment_nqpoint:
- 100
- 100
- 100
labels:
- [ 'G', 'M' ]
- [ 'M', 'K' ]
- [ 'K', 'G' ]
reciprocal_lattice:
- [   0.29190637,   0.16853222,   0.00000000 ] # a*
- [   0.00000000,   0.33706445,   0.00000000 ] # b*
- [   0.00000000,   0.00000000,   0.04040408 ] # c*
natom: 6      
lattice:
- [     3.425755975614420,     0.000000000000000,     0.000000000000000 ] # a
- [    -1.712877987807210,     2.966791702041768,     0.000000000000000 ] # b
- [     0.000000000000000,     0.000000000000000,    24.749975667281046 ] # c
points:
- symbol: Br # 1
  coordinates: [  0.666666984744047,  0.333332985985145,  0.363636721142228 ]
  mass: 79.904000
- symbol: C # 2
  coordinates: [  0.000000000000000,  0.000000000000000,  0.486699371981529 ]
  mass: 12.010700
- symbol: Hf # 3
  coordinates: [  0.333332985432215,  0.666666983183674,  0.443081551715036 ]
  mass: 178.490000
- symbol: Hf # 4
  coordinates: [  0.666666984744047,  0.333332985985145,  0.545232837370911 ]
  mass: 178.490000
- symbol: N # 5
  coordinates: [  0.333332985432215,  0.666666983183674,  0.581863969945686 ]
  mass: 14.006700
- symbol: O # 6
  coordinates: [  0.333332985432215,  0.666666983183674,  0.636363278857772 ]
  mass: 15.999400

phonon:
- q-position: [    0.0000000,    0.0000000,    0.0000000 ]
  distance:    0.0000000
  band:
  - # 1
    frequency:   -6.0246465528
  - # 2
    frequency:   -6.0246465528
  - # 3
    frequency:   -0.0000119778
  - # 4
    frequency:   -0.0000001765
  - # 5
    frequency:    0.0000102580
  - # 6
    frequency:    2.2633702170
  - # 7
    frequency:    2.2633702170
  - # 8
    frequency:    3.4763031012
  - # 9
    frequency:    3.4763031012
  - # 10
    frequency:    3.8034304587
  - # 11
    frequency:    6.3943623012
  - # 12
    frequency:    7.9713125346
  - # 13
    frequency:   10.3012641866
  - # 14
    frequency:   10.3012641866
  - # 15
    frequency:   15.7583020569
  - # 16
    frequency:   15.7583020569
  - # 17
    frequency:   15.7876164054
  - # 18
    frequency:   36.7428505195

- q-position: [    0.0050505,    0.0000000,    0.0000000 ]
  distance:    0.0017023
  band:
  - # 1
    frequency:   -6.0252395270
  - # 2
    frequency:   -6.0241848245
  - # 3
    frequency:    0.0015858031
  - # 4
    frequency:    0.0462123737
  - # 5
    frequency:    0.0851619085
  - # 6
    frequency:    2.2637843629
  - # 7
    frequency:    2.2648446290
  - # 8
    frequency:    3.4764010286
  - # 9
    frequency:    3.4764591563
  - # 10
    frequency:    3.8038350619
  - # 11
    frequency:    6.3939574617
  - # 12
    frequency:    7.9702667193
  - # 13
    frequency:   10.3012383954
  - # 14
    frequency:   10.3014699359
  - # 15
    frequency:   15.7563091483
  - # 16
    frequency:   15.7577009316
  - # 17
    frequency:   15.7895258589
  - # 18
    frequency:   36.7422130168

- q-position: [    0.0101010,    0.0000000,    0.0000000 ]
  distance:    0.0034047
  band:
  - # 1
    frequency:   -6.0270167699
  - # 2
    frequency:   -6.0227985642
  - # 3
    frequency:    0.0063297445
  - # 4
    frequency:    0.0924259805
  - # 5
    frequency:    0.1702635290
  - # 6
    frequency:    2.2650258577
  - # 7
    frequency:    2.2692533172
  - # 8
    frequency:    3.4766950274
  - # 9
    frequency:    3.4769259508
  - # 10
    frequency:    3.8050502896
  - # 11
    frequency:    6.3927435082
  - # 12
    frequency:    7.9671363316
  - # 13
    frequency:   10.3011624817
  - # 14
    frequency:   10.3020851956
  - # 15
    frequency:   15.7513865308
  - # 16
    frequency:   15.7558993163
  - # 17
    frequency:   15.7942004016
  - # 18
    frequency:   36.7403015155

- q-position: [    0.0151515,    0.0000000,    0.0000000 ]
  distance:    0.0051070
  band:
  - # 1
    frequency:   -6.0299732450
  - # 2
    frequency:   -6.0204845410
  - # 3
    frequency:    0.0141934080
  - # 4
    frequency:    0.1386419593
  - # 5
    frequency:    0.2552444079
  - # 6
    frequency:    2.2670918798
  - # 7
    frequency:    2.2765532005
  - # 8
    frequency:    3.4771857455
  - # 9
    frequency:    3.4776994236
  - # 10
    frequency:    3.8070803433
  - # 11
    frequency:    6.3907221361
  - # 12
    frequency:    7.9619424387
  - # 13
    frequency:   10.3010408135
  - # 14
    frequency:   10.3031041214
  - # 15
    frequency:   15.7450165479
  - # 16
    frequency:   15.7529024890
  - # 17
    frequency:   15.8001645266
  - # 18
    frequency:   36.7371190340

- q-position: [    0.0202020,    0.0000000,    0.0000000 ]
  distance:    0.0068094
  band:
  - # 1
    frequency:   -6.0341005651
  - # 2
    frequency:   -6.0172373548
  - # 3
    frequency:    0.0251142524
  - # 4
    frequency:    0.1848612561
  - # 5
    frequency:    0.3400437641
  - # 6
    frequency:    2.2699777490
  - # 7
    frequency:    2.2866742993
  - # 8
    frequency:    3.4778742559
  - # 9
    frequency:    3.4787729753
  - # 10
    frequency:    3.8099320488
  - # 11
    frequency:    6.3878961714
  - # 12
    frequency:    7.9547198008
  - # 13
    frequency:   10.3008806306
  - # 14
    frequency:   10.3045173691
  - # 15
    frequency:   15.7379754936
  - # 16
    frequency:   15.7487192324
  - # 17
    frequency:   15.8066532181
  - # 18
    frequency:   36.7326705955

- q-position: [    0.0252525,    0.0000000,    0.0000000 ]
  distance:    0.0085117
  band:
  - # 1
    frequency:   -6.0393870032
  - # 2
    frequency:   -6.0130494124
  - # 3
    frequency:    0.0390081816
  - # 4
    frequency:    0.2310845305
  - # 5
    frequency:    0.4246003233
  - # 6
    frequency:    2.2736769599
  - # 7
    frequency:    2.2995222988
  - # 8
    frequency:    3.4787620453
  - # 9
    frequency:    3.4801377169
  - # 10
    frequency:    3.8136145959
  - # 11
    frequency:    6.3842695720
  - # 12
    frequency:    7.9455163583
  - # 13
    frequency:   10.3006919854
  - # 14
    frequency:   10.3063126682
  - # 15
    frequency:   15.7306103944
  - # 16
    frequency:   15.7433618133
  - # 17
    frequency:   15.8133349986
  - # 18
    frequency:   36.7269632161

- q-position: [    0.0303030,    0.0000000,    0.0000000 ]
  distance:    0.0102141
  band:
  - # 1
    frequency:   -6.0458175084
  - # 2
    frequency:   -6.0079108968
  - # 3
    frequency:    0.0557726271
  - # 4
    frequency:    0.2773120619
  - # 5
    frequency:    0.5088521517
  - # 6
    frequency:    2.2781812277
  - # 7
    frequency:    2.3149818251
  - # 8
    frequency:    3.4798509998
  - # 9
    frequency:    3.4817828076
  - # 10
    frequency:    3.8181391829
  - # 11
    frequency:    6.3798474281
  - # 12
    frequency:    7.9343925462
  - # 13
    frequency:   10.3004876598
  - # 14
    frequency:   10.3084755900
  - # 15
    frequency:   15.7230929210
  - # 16
    frequency:   15.7368459534
  - # 17
    frequency:   15.8200577830
  - # 18
    frequency:   36.7200058894

- q-position: [    0.0353535,    0.0000000,    0.0000000 ]
  distance:    0.0119164
  band:
  - # 1
    frequency:   -6.0533737269
  - # 2
    frequency:   -6.0018097281
  - # 3
    frequency:    0.0752900391
  - # 4
    frequency:    0.3235436572
  - # 5
    frequency:    0.5927364897
  - # 6
    frequency:    2.2834805463
  - # 7
    frequency:    2.3329201792
  - # 8
    frequency:    3.4811433847
  - # 9
    frequency:    3.4836958714
  - # 10
    frequency:    3.8235185762
  - # 11
    frequency:    6.3746359624
  - # 12
    frequency:    7.9214204607
  - # 13
    frequency:   10.3002830614
  - # 14
    frequency:   10.3109904733
  - # 15
    frequency:   15.7155220864
  - # 16
    frequency:   15.7291907920
  - # 17
    frequency:   15.8267458876
  - # 18
    frequency:   36.7118095654

- q-position: [    0.0404040,    0.0000000,    0.0000000 ]
  distance:    0.0136188
  band:
  - # 1
    frequency:   -6.0620340302
  - # 2
    frequency:   -5.9947315190
  - # 3
    frequency:    0.0974315308
  - # 4
    frequency:    0.3697785611
  - # 5
    frequency:    0.6761895860
  - # 6
    frequency:    2.2895632565
  - # 7
    frequency:    2.3531912730
  - # 8
    frequency:    3.4826418208
  - # 9
    frequency:    3.4858634779
  - # 10
    frequency:    3.8297665971
  - # 11
    frequency:    6.3686425309
  - # 12
    frequency:    7.9066829116
  - # 13
    frequency:   10.3000960968
  - # 14
    frequency:   10.3138414718
  - # 15
    frequency:   15.7079637714
  - # 16
    frequency:   15.7204188401
  - # 17
    frequency:   15.8333601606
  - # 18
    frequency:   36.7023871260

- q-position: [    0.0454545,    0.0000000,    0.0000000 ]
  distance:    0.0153211
  band:
  - # 1
    frequency:   -6.0717735495
  - # 2
    frequency:   -5.9866595245
  - # 3
    frequency:    0.1220604459
  - # 4
    frequency:    0.4160153687
  - # 5
    frequency:    0.7591465325
  - # 6
    frequency:    2.2964161240
  - # 7
    frequency:    2.3756395308
  - # 8
    frequency:    3.4843492554
  - # 9
    frequency:    3.4882716718
  - # 10
    frequency:    3.8368975529
  - # 11
    frequency:    6.3618756204
  - # 12
    frequency:    7.8902723917
  - # 13
    frequency:   10.2999470266
  - # 14
    frequency:   10.3170136789
  - # 15
    frequency:   15.7004669938
  - # 16
    frequency:   15.7105559264
  - # 17
    frequency:   15.8398813249
  - # 18
    frequency:   36.6917533553

- q-position: [    0.0505051,    0.0000000,    0.0000000 ]
  distance:    0.0170235
  band:
  - # 1
    frequency:   -6.0825642183
  - # 2
    frequency:   -5.9775745903
  - # 3
    frequency:    0.1490356660
  - # 4
    frequency:    0.4622519414
  - # 5
    frequency:    0.8415411036
  - # 6
    frequency:    2.3040244265
  - # 7
    frequency:    2.4001035700
  - # 8
    frequency:    3.4862689285
  - # 9
    frequency:    3.4909065292
  - # 10
    frequency:    3.8449256301
  - # 11
    frequency:    6.3543448464
  - # 12
    frequency:    7.8722899965
  - # 13
    frequency:   10.2998583014
  - # 14
    frequency:   10.3204942895
  - # 15
    frequency:   15.6930711151
  - # 16
    frequency:   15.6996311346
  - # 17
    frequency:   15.8463023458
  - # 18
    frequency:   36.6799249064

- q-position: [    0.0555556,    0.0000000,    0.0000000 ]
  distance:    0.0187258
  band:
  - # 1
    frequency:   -6.0943748245
  - # 2
    frequency:   -5.9674550988
  - # 3
    frequency:    0.1782145301
  - # 4
    frequency:    0.5084853270
  - # 5
    frequency:    0.9233056015
  - # 6
    frequency:    2.3123720469
  - # 7
    frequency:    2.4264195247
  - # 8
    frequency:    3.4884043350
  - # 9
    frequency:    3.4937547216
  - # 10
    frequency:    3.8538642709
  - # 11
    frequency:    6.3460609475
  - # 12
    frequency:    7.8528443224
  - # 13
    frequency:   10.2998543811
  - # 14
    frequency:   10.3242737580
  - # 15
    frequency:   15.6858092155
  - # 16
    frequency:   15.6876767328
  - # 17
    frequency:   15.8526246060
  - # 18
    frequency:   36.6669202629

- q-position: [    0.0606061,    0.0000000,    0.0000000 ]
  distance:    0.0204281
  band:
  - # 1
    frequency:   -6.1071710722
  - # 2
    frequency:   -5.9562769171
  - # 3
    frequency:    0.2094552920
  - # 4
    frequency:    0.5547116840
  - # 5
    frequency:    1.0043707127
  - # 6
    frequency:    2.3214415727
  - # 7
    frequency:    2.4544239320
  - # 8
    frequency:    3.4907591809
  - # 9
    frequency:    3.4968040655
  - # 10
    frequency:    3.8637255542
  - # 11
    frequency:    6.3370357767
  - # 12
    frequency:    7.8320503706
  - # 13
    frequency:   10.2999615394
  - # 14
    frequency:   10.3283469153
  - # 15
    frequency:   15.6747280935
  - # 16
    frequency:   15.6787097216
  - # 17
    frequency:   15.8588558084
  - # 18
    frequency:   36.6527596975

- q-position: [    0.0656566,    0.0000000,    0.0000000 ]
  distance:    0.0221305
  band:
  - # 1
    frequency:   -6.1209156548
  - # 2
    frequency:   -5.9440133483
  - # 3
    frequency:    0.2426190926
  - # 4
    frequency:    0.6009262117
  - # 5
    frequency:    1.0846653811
  - # 6
    frequency:    2.3312143996
  - # 7
    frequency:    2.4839561461
  - # 8
    frequency:    3.4933373359
  - # 9
    frequency:    3.5000440373
  - # 10
    frequency:    3.8745196020
  - # 11
    frequency:    6.3272822898
  - # 12
    frequency:    7.8100284752
  - # 13
    frequency:   10.3002076552
  - # 14
    frequency:   10.3327140127
  - # 15
    frequency:   15.6608236063
  - # 16
    frequency:   15.6717971950
  - # 17
    frequency:   15.8650087109
  - # 18
    frequency:   36.6374652257

- q-position: [    0.0707071,    0.0000000,    0.0000000 ]
  distance:    0.0238328
  band:
  - # 1
    frequency:   -6.1355683402
  - # 2
    frequency:   -5.9306350899
  - # 3
    frequency:    0.2775714602
  - # 4
    frequency:    0.6471230861
  - # 5
    frequency:    1.1641167045
  - # 6
    frequency:    2.3416708373
  - # 7
    frequency:    2.5148602835
  - # 8
    frequency:    3.4961427803
  - # 9
    frequency:    3.5034662388
  - # 10
    frequency:    3.8862540295
  - # 11
    frequency:    6.3168145283
  - # 12
    frequency:    7.7869032724
  - # 13
    frequency:   10.3006219941
  - # 14
    frequency:   10.3373816656
  - # 15
    frequency:   15.6460045808
  - # 16
    frequency:   15.6650927057
  - # 17
    frequency:   15.8711002793
  - # 18
    frequency:   36.6210605557

- q-position: [    0.0757576,    0.0000000,    0.0000000 ]
  distance:    0.0255352
  band:
  - # 1
    frequency:   -6.1510860694
  - # 2
    frequency:   -5.9161102001
  - # 3
    frequency:    0.3141833780
  - # 4
    frequency:    0.6932954026
  - # 5
    frequency:    1.2426498645
  - # 6
    frequency:    2.3527902171
  - # 7
    frequency:    2.5469867223
  - # 8
    frequency:    3.4991795483
  - # 9
    frequency:    3.5070647994
  - # 10
    frequency:    3.8989334539
  - # 11
    frequency:    6.3056475976
  - # 12
    frequency:    7.7628027198
  - # 13
    frequency:   10.3012349795
  - # 14
    frequency:   10.3423636762
  - # 15
    frequency:   15.6303151424
  - # 16
    frequency:   15.6586140045
  - # 17
    frequency:   15.8771510515
  - # 18
    frequency:   36.6035710353

- q-position: [    0.0808081,    0.0000000,    0.0000000 ]
  distance:    0.0272375
  band:
  - # 1
    frequency:   -6.1674230689
  - # 2
    frequency:   -5.9004040776
  - # 3
    frequency:    0.3523319761
  - # 4
    frequency:    0.7394351269
  - # 5
    frequency:    1.3201880997
  - # 6
    frequency:    2.3645509988
  - # 7
    frequency:    2.5801931955
  - # 8
    frequency:    3.5024516662
  - # 9
    frequency:    3.5108367122
  - # 10
    frequency:    3.9125590731
  - # 11
    frequency:    6.2937976383
  - # 12
    frequency:    7.7378571709
  - # 13
    frequency:   10.3020779589
  - # 14
    frequency:   10.3476817179
  - # 15
    frequency:   15.6138021179
  - # 16
    frequency:   15.6523756060
  - # 17
    frequency:   15.8831846113
  - # 18
    frequency:   36.5850235941

- q-position: [    0.0858586,    0.0000000,    0.0000000 ]
  distance:    0.0289399
  band:
  - # 1
    frequency:   -6.1845309776
  - # 2
    frequency:   -5.8834794552
  - # 3
    frequency:    0.3919009091
  - # 4
    frequency:    0.7855330527
  - # 5
    frequency:    1.3966527373
  - # 6
    frequency:    2.3769308767
  - # 7
    frequency:    2.6143455169
  - # 8
    frequency:    3.5059630876
  - # 9
    frequency:    3.5147821034
  - # 10
    frequency:    3.9271283200
  - # 11
    frequency:    6.2812817910
  - # 12
    frequency:    7.7121985064
  - # 13
    frequency:   10.3031829650
  - # 14
    frequency:   10.3533658722
  - # 15
    frequency:   15.5965149139
  - # 16
    frequency:   15.6463888484
  - # 17
    frequency:   15.8892271141
  - # 18
    frequency:   36.5654466828

- q-position: [    0.0909091,    0.0000000,    0.0000000 ]
  distance:    0.0306422
  band:
  - # 1
    frequency:   -6.2023589900
  - # 2
    frequency:   -5.8652964126
  - # 3
    frequency:    0.4327804815
  - # 4
    frequency:    0.8315787701
  - # 5
    frequency:    1.4719632984
  - # 6
    frequency:    2.3899068820
  - # 7
    frequency:    2.6493179776
  - # 8
    frequency:    3.5097176250
  - # 9
    frequency:    3.5189044443
  - # 10
    frequency:    3.9426345951
  - # 11
    frequency:    6.2681181533
  - # 12
    frequency:    7.6859593191
  - # 13
    frequency:   10.3045824754
  - # 14
    frequency:   10.3594550096
  - # 15
    frequency:   15.5785053859
  - # 16
    frequency:   15.6406619628
  - # 17
    frequency:   15.8953068375
  - # 18
    frequency:   36.5448702096

- q-position: [    0.0959596,    0.0000000,    0.0000000 ]
  distance:    0.0323446
  band:
  - # 1
    frequency:   -6.2208540135
  - # 2
    frequency:   -5.8458124091
  - # 3
    frequency:    0.4748675795
  - # 4
    frequency:    0.8775606424
  - # 5
    frequency:    1.5460376947
  - # 6
    frequency:    2.4034554821
  - # 7
    frequency:    2.6849934391
  - # 8
    frequency:    3.5137188782
  - # 9
    frequency:    3.5232107199
  - # 10
    frequency:    3.9590670756
  - # 11
    frequency:    6.2543257285
  - # 12
    frequency:    7.6592721472
  - # 13
    frequency:   10.3063091724
  - # 14
    frequency:   10.3659970142
  - # 15
    frequency:   15.5598276988
  - # 16
    frequency:   15.6352001732
  - # 17
    frequency:   15.9014537413
  - # 18
    frequency:   36.5233254728

- q-position: [    0.1010101,    0.0000000,    0.0000000 ]
  distance:    0.0340469
  band:
  - # 1
    frequency:   -6.2399608432
  - # 2
    frequency:   -5.8249823408
  - # 3
    frequency:    0.5180654609
  - # 4
    frequency:    0.9234657928
  - # 5
    frequency:    1.6187925373
  - # 6
    frequency:    2.4175526750
  - # 7
    frequency:    2.7212631403
  - # 8
    frequency:    3.5179701614
  - # 9
    frequency:    3.5277115745
  - # 10
    frequency:    3.9764105971
  - # 11
    frequency:    6.2399243667
  - # 12
    frequency:    7.6322687509
  - # 13
    frequency:   10.3083957050
  - # 14
    frequency:   10.3730488516
  - # 15
    frequency:   15.5405381788
  - # 16
    frequency:   15.6300058364
  - # 17
    frequency:   15.9076990334
  - # 18
    frequency:   36.5008450906

- q-position: [    0.1060606,    0.0000000,    0.0000000 ]
  distance:    0.0357493
  band:
  - # 1
    frequency:   -6.2596223508
  - # 2
    frequency:   -5.8027586244
  - # 3
    frequency:    0.5622834446
  - # 4
    frequency:    0.9692801021
  - # 5
    frequency:    1.6901435800
  - # 6
    frequency:    2.4321740768
  - # 7
    frequency:    2.7580262226
  - # 8
    frequency:    3.5224744288
  - # 9
    frequency:    3.5324214581
  - # 10
    frequency:    3.9946456049
  - # 11
    frequency:    6.2249346962
  - # 12
    frequency:    7.6050794220
  - # 13
    frequency:   10.3108744558
  - # 14
    frequency:   10.3806764834
  - # 15
    frequency:   15.5206951568
  - # 16
    frequency:   15.6250786229
  - # 17
    frequency:   15.9140747417
  - # 18
    frequency:   36.4774629288

- q-position: [    0.1111111,    0.0000000,    0.0000000 ]
  distance:    0.0374516
  band:
  - # 1
    frequency:   -6.2797796903
  - # 2
    frequency:   -5.7790913093
  - # 3
    frequency:    0.6074365375
  - # 4
    frequency:    1.0149882162
  - # 5
    frequency:    1.7600063154
  - # 6
    frequency:    2.4472950044
  - # 7
    frequency:    2.7951889646
  - # 8
    frequency:    3.5272342000
  - # 9
    frequency:    3.5373588026
  - # 10
    frequency:    4.0137481685
  - # 11
    frequency:    6.2093780486
  - # 12
    frequency:    7.5778323215
  - # 13
    frequency:   10.3137773143
  - # 14
    frequency:   10.3889546345
  - # 15
    frequency:   15.5003588035
  - # 16
    frequency:   15.6204157356
  - # 17
    frequency:   15.9206132980
  - # 18
    frequency:   36.4532140251

- q-position: [    0.1161616,    0.0000000,    0.0000000 ]
  distance:    0.0391540
  band:
  - # 1
    frequency:   -6.3003725168
  - # 2
    frequency:   -5.7539282204
  - # 3
    frequency:    0.6534450253
  - # 4
    frequency:    1.0605735650
  - # 5
    frequency:    1.8282967451
  - # 6
    frequency:    2.4628905502
  - # 7
    frequency:    2.8326637130
  - # 8
    frequency:    3.5322514857
  - # 9
    frequency:    3.5425462578
  - # 10
    frequency:    4.0336900579
  - # 11
    frequency:    6.1932763757
  - # 12
    frequency:    7.5506528361
  - # 13
    frequency:   10.3171354584
  - # 14
    frequency:   10.3979664199
  - # 15
    frequency:   15.4795909555
  - # 16
    frequency:   15.6160121584
  - # 17
    frequency:   15.9273471397
  - # 18
    frequency:   36.4281345120

- q-position: [    0.1212121,    0.0000000,    0.0000000 ]
  distance:    0.0408563
  band:
  - # 1
    frequency:   -6.3213392206
  - # 2
    frequency:   -5.7272151333
  - # 3
    frequency:    0.7002340492
  - # 4
    frequency:    1.1060183919
  - # 5
    frequency:    1.8949323364
  - # 6
    frequency:    2.4789356489
  - # 7
    frequency:    2.8703674859
  - # 8
    frequency:    3.5375277155
  - # 9
    frequency:    3.5480110205
  - # 10
    frequency:    4.0544388779
  - # 11
    frequency:    6.1766521610
  - # 12
    frequency:    7.5236629477
  - # 13
    frequency:   10.3209791454
  - # 14
    frequency:   10.4078028395
  - # 15
    frequency:   15.4584549330
  - # 16
    frequency:   15.6118609246
  - # 17
    frequency:   15.9343083414
  - # 18
    frequency:   36.4022615367

- q-position: [    0.1262626,    0.0000000,    0.0000000 ]
  distance:    0.0425586
  band:
  - # 1
    frequency:   -6.3426171726
  - # 2
    frequency:   -5.6988959817
  - # 3
    frequency:    0.7477331843
  - # 4
    frequency:    1.1513037934
  - # 5
    frequency:    1.9598331712
  - # 6
    frequency:    2.4954051384
  - # 7
    frequency:    2.9082202295
  - # 8
    frequency:    3.5430636686
  - # 9
    frequency:    3.5537852921
  - # 10
    frequency:    4.0759582609
  - # 11
    frequency:    6.1595283283
  - # 12
    frequency:    7.4969806107
  - # 13
    frequency:   10.3253375152
  - # 14
    frequency:   10.4185621500
  - # 15
    frequency:   15.4370153503
  - # 16
    frequency:   15.6079533922
  - # 17
    frequency:   15.9415282835
  - # 18
    frequency:   36.3756331800

- q-position: [    0.1313131,    0.0000000,    0.0000000 ]
  distance:    0.0442610
  band:
  - # 1
    frequency:   -6.3641429816
  - # 2
    frequency:   -5.6689130985
  - # 3
    frequency:    0.7958760309
  - # 4
    frequency:    1.1964097700
  - # 5
    frequency:    2.0229232789
  - # 6
    frequency:    2.5122738111
  - # 7
    frequency:    2.9461427090
  - # 8
    frequency:    3.5488594078
  - # 9
    frequency:    3.5599068995
  - # 10
    frequency:    4.0982081170
  - # 11
    frequency:    6.1419281474
  - # 12
    frequency:    7.4707191342
  - # 13
    frequency:   10.3302384048
  - # 14
    frequency:   10.4303491222
  - # 15
    frequency:   15.4153379166
  - # 16
    frequency:   15.6042795128
  - # 17
    frequency:   15.9490373692
  - # 18
    frequency:   36.3482883731

- q-position: [    0.1363636,    0.0000000,    0.0000000 ]
  distance:    0.0459633
  band:
  - # 1
    frequency:   -6.3858527613
  - # 2
    frequency:   -5.6372074886
  - # 3
    frequency:    0.8445998259
  - # 4
    frequency:    1.2413152867
  - # 5
    frequency:    2.0841321297
  - # 6
    frequency:    2.5295164589
  - # 7
    frequency:    2.9840540320
  - # 8
    frequency:    3.5549142191
  - # 9
    frequency:    3.5664201142
  - # 10
    frequency:    4.1211449416
  - # 11
    frequency:    6.1238751427
  - # 12
    frequency:    7.4449865678
  - # 13
    frequency:   10.3357081777
  - # 14
    frequency:   10.4432741956
  - # 15
    frequency:   15.3934892303
  - # 16
    frequency:   15.6008280808
  - # 17
    frequency:   15.9568647982
  - # 18
    frequency:   36.3202668134

- q-position: [    0.1414141,    0.0000000,    0.0000000 ]
  distance:    0.0476657
  band:
  - # 1
    frequency:   -6.4076824039
  - # 2
    frequency:   -5.6037191331
  - # 3
    frequency:    0.8938450799
  - # 4
    frequency:    1.2859983432
  - # 5
    frequency:    2.1433962456
  - # 6
    frequency:    2.5471079103
  - # 7
    frequency:    3.0218688223
  - # 8
    frequency:    3.5612265564
  - # 9
    frequency:    3.5733766992
  - # 10
    frequency:    4.1447221795
  - # 11
    frequency:    6.1053930056
  - # 12
    frequency:    7.4198850918
  - # 13
    frequency:   10.3417715662
  - # 14
    frequency:   10.4574525390
  - # 15
    frequency:   15.3715365652
  - # 16
    frequency:   15.5975869513
  - # 17
    frequency:   15.9650384040
  - # 18
    frequency:   36.2916088785

- q-position: [    0.1464646,    0.0000000,    0.0000000 ]
  distance:    0.0493680
  band:
  - # 1
    frequency:   -6.4295678604
  - # 2
    frequency:   -5.5683873213
  - # 3
    frequency:    0.9435552417
  - # 4
    frequency:    1.3304360531
  - # 5
    frequency:    2.2006608624
  - # 6
    frequency:    2.5650230613
  - # 7
    frequency:    3.0594940939
  - # 8
    frequency:    3.5677939934
  - # 9
    frequency:    3.5808371964
  - # 10
    frequency:    4.1688906429
  - # 11
    frequency:    6.0865055155
  - # 12
    frequency:    7.3955104158
  - # 13
    frequency:   10.3484515296
  - # 14
    frequency:   10.4730030258
  - # 15
    frequency:   15.3495476493
  - # 16
    frequency:   15.5945432166
  - # 17
    frequency:   15.9735845584
  - # 18
    frequency:   36.2623555401

- q-position: [    0.1515152,    0.0000000,    0.0000000 ]
  distance:    0.0510704
  band:
  - # 1
    frequency:   -6.4514454242
  - # 2
    frequency:   -5.5311510086
  - # 3
    frequency:    0.9936763905
  - # 4
    frequency:    1.3746047321
  - # 5
    frequency:    2.2558815589
  - # 6
    frequency:    2.5832368991
  - # 7
    frequency:    3.0968259299
  - # 8
    frequency:    3.5746131836
  - # 9
    frequency:    3.5888724386
  - # 10
    frequency:    4.1935989775
  - # 11
    frequency:    6.0672364724
  - # 12
    frequency:    7.3719511911
  - # 13
    frequency:   10.3557691269
  - # 14
    frequency:   10.4900471373
  - # 15
    frequency:   15.3275904373
  - # 16
    frequency:   15.5916833342
  - # 17
    frequency:   15.9825281463
  - # 18
    frequency:   36.2325482771

- q-position: [    0.1565657,    0.0000000,    0.0000000 ]
  distance:    0.0527727
  band:
  - # 1
    frequency:   -6.4732520156
  - # 2
    frequency:   -5.4919491947
  - # 3
    frequency:    1.0441569577
  - # 4
    frequency:    1.4184799937
  - # 5
    frequency:    2.3090257536
  - # 6
    frequency:    2.6017245211
  - # 7
    frequency:    3.1337461409
  - # 8
    frequency:    3.5816798275
  - # 9
    frequency:    3.5975652058
  - # 10
    frequency:    4.2187941686
  - # 11
    frequency:    6.0476096438
  - # 12
    frequency:    7.3492884479
  - # 13
    frequency:   10.3637434053
  - # 14
    frequency:   10.5087078006
  - # 15
    frequency:   15.3057328759
  - # 16
    frequency:   15.5889932030
  - # 17
    frequency:   15.9918926061
  - # 18
    frequency:   36.2022289879

- q-position: [    0.1616162,    0.0000000,    0.0000000 ]
  distance:    0.0544751
  band:
  - # 1
    frequency:   -6.4949254655
  - # 2
    frequency:   -5.4507213180
  - # 3
    frequency:    1.0949474751
  - # 4
    frequency:    1.4620368517
  - # 5
    frequency:    2.3600739624
  - # 6
    frequency:    2.6204611489
  - # 7
    frequency:    3.1701192003
  - # 8
    frequency:    3.5889886496
  - # 9
    frequency:    3.6070118367
  - # 10
    frequency:    4.2444220762
  - # 11
    frequency:    6.0276487304
  - # 12
    frequency:    7.3275950651
  - # 13
    frequency:   10.3723913034
  - # 14
    frequency:   10.5291081735
  - # 15
    frequency:   15.2840426643
  - # 16
    frequency:   15.5864581870
  - # 17
    frequency:   16.0017000320
  - # 18
    frequency:   36.1714399029

- q-position: [    0.1666667,    0.0000000,    0.0000000 ]
  distance:    0.0561774
  band:
  - # 1
    frequency:   -6.5164047956
  - # 2
    frequency:   -5.4074076588
  - # 3
    frequency:    1.1460003484
  - # 4
    frequency:    1.5052498295
  - # 5
    frequency:    2.4090207164
  - # 6
    frequency:    2.6394221382
  - # 7
    frequency:    3.2057899252
  - # 8
    frequency:    3.5965333840
  - # 9
    frequency:    3.6173234252
  - # 10
    frequency:    4.2704279845
  - # 11
    frequency:    6.0073773507
  - # 12
    frequency:    7.3069352896
  - # 13
    frequency:   10.3817275695
  - # 14
    frequency:   10.5513703864
  - # 15
    frequency:   15.2625870088
  - # 16
    frequency:   15.5840630913
  - # 17
    frequency:   16.0119713294
  - # 18
    frequency:   36.1402234971

- q-position: [    0.1717172,    0.0000000,    0.0000000 ]
  distance:    0.0578798
  band:
  - # 1
    frequency:   -6.5376304932
  - # 2
    frequency:   -5.3619497462
  - # 3
    frequency:    1.1972696562
  - # 4
    frequency:    1.5480930748
  - # 5
    frequency:    2.4558750583
  - # 6
    frequency:    2.6585829865
  - # 7
    frequency:    3.2405826232
  - # 8
    frequency:    3.6043067700
  - # 9
    frequency:    3.6286259616
  - # 10
    frequency:    4.2967571489
  - # 11
    frequency:    5.9868190475
  - # 12
    frequency:    7.2873643181
  - # 13
    frequency:   10.3917646947
  - # 14
    frequency:   10.5756142519
  - # 15
    frequency:   15.2414323731
  - # 16
    frequency:   15.5817920960
  - # 17
    frequency:   16.0227264100
  - # 18
    frequency:   36.1086224032

- q-position: [    0.1767677,    0.0000000,    0.0000000 ]
  distance:    0.0595821
  band:
  - # 1
    frequency:   -6.5585447781
  - # 2
    frequency:   -5.3142907589
  - # 3
    frequency:    1.2487109695
  - # 4
    frequency:    1.5905404782
  - # 5
    frequency:    2.5006605660
  - # 6
    frequency:    2.6779193378
  - # 7
    frequency:    3.2743027377
  - # 8
    frequency:    3.6123005568
  - # 9
    frequency:    3.6410584380
  - # 10
    frequency:    4.3233553232
  - # 11
    frequency:    5.9659973153
  - # 12
    frequency:    7.2689279578
  - # 13
    frequency:   10.4025128595
  - # 14