nqpoint: 300    
npath: 3      
segment_nqpoint:
- 100
- 100
- 100
labels:
- [ 'G', 'M' ]
- [ 'M', 'K' ]
- [ 'K', 'G' ]
reciprocal_lattice:
- [   0.27087625,   0.15639048,   0.00000000 ] # a*
- [   0.00000000,   0.31278095,   0.00000000 ] # b*
- [   0.00000000,   0.00000000,   0.04010554 ] # c*
natom: 6      
lattice:
- [     3.691722670267495,     0.000000000000000,     0.000000000000000 ] # a
- [    -1.845861335133748,     3.197125616199252,     0.000000000000000 ] # b
- [     0.000000000000000,     0.000000000000000,    24.934211464497082 ] # c
points:
- symbol: Br # 1
  coordinates: [  0.666666984744048,  0.333332985985145,  0.360949854492683 ]
  mass: 79.904000
- symbol: N # 2
  coordinates: [  0.000000000000000,  0.000000000000000,  0.483564023831209 ]
  mass: 14.006700
- symbol: N # 3
  coordinates: [  0.333332985432215,  0.666666983183674,  0.584742036120647 ]
  mass: 14.006700
- symbol: O # 4
  coordinates: [  0.333332985432215,  0.666666983183674,  0.639050145507317 ]
  mass: 15.999400
- symbol: Y # 5
  coordinates: [  0.333332985432215,  0.666666983183674,  0.440276993261118 ]
  mass: 88.905850
- symbol: Y # 6
  coordinates: [  0.666666984744048,  0.333332985985145,  0.552840400183879 ]
  mass: 88.905850

phonon:
- q-position: [    0.0000000,    0.0000000,    0.0000000 ]
  distance:    0.0000000
  band:
  - # 1
    frequency:   -5.9500280660
  - # 2
    frequency:   -5.9500280660
  - # 3
    frequency:   -0.0000204678
  - # 4
    frequency:   -0.0000001235
  - # 5
    frequency:    0.0000209778
  - # 6
    frequency:    1.6777712988
  - # 7
    frequency:    1.6777712990
  - # 8
    frequency:    3.5101232719
  - # 9
    frequency:    3.5101232719
  - # 10
    frequency:    3.5532871237
  - # 11
    frequency:    4.5655009213
  - # 12
    frequency:    6.9092244187
  - # 13
    frequency:    9.2662952474
  - # 14
    frequency:    9.2662952474
  - # 15
    frequency:   12.1650010891
  - # 16
    frequency:   12.1650010891
  - # 17
    frequency:   13.2913534973
  - # 18
    frequency:   36.1855769421

- q-position: [    0.0050505,    0.0000000,    0.0000000 ]
  distance:    0.0015797
  band:
  - # 1
    frequency:   -5.9496750062
  - # 2
    frequency:   -5.9489931357
  - # 3
    frequency:    0.0010549441
  - # 4
    frequency:    0.0265161282
  - # 5
    frequency:    0.0646330931
  - # 6
    frequency:    1.6782659519
  - # 7
    frequency:    1.6795078468
  - # 8
    frequency:    3.5088685562
  - # 9
    frequency:    3.5102753642
  - # 10
    frequency:    3.5550067259
  - # 11
    frequency:    4.5648558119
  - # 12
    frequency:    6.9083878415
  - # 13
    frequency:    9.2661000206
  - # 14
    frequency:    9.2698407145
  - # 15
    frequency:   12.1645274016
  - # 16
    frequency:   12.1647777168
  - # 17
    frequency:   13.2913983915
  - # 18
    frequency:   36.1848905927

- q-position: [    0.0101010,    0.0000000,    0.0000000 ]
  distance:    0.0031594
  band:
  - # 1
    frequency:   -5.9486160120
  - # 2
    frequency:   -5.9458908062
  - # 3
    frequency:    0.0042043968
  - # 4
    frequency:    0.0530298788
  - # 5
    frequency:    0.1291533862
  - # 6
    frequency:    1.6797491556
  - # 7
    frequency:    1.6846935856
  - # 8
    frequency:    3.5055721439
  - # 9
    frequency:    3.5107315932
  - # 10
    frequency:    3.5596999285
  - # 11
    frequency:    4.5629411199
  - # 12
    frequency:    6.9058919347
  - # 13
    frequency:    9.2655148254
  - # 14
    frequency:    9.2804382866
  - # 15
    frequency:   12.1631074662
  - # 16
    frequency:   12.1641080862
  - # 17
    frequency:   13.2915362802
  - # 18
    frequency:   36.1828326282

- q-position: [    0.0151515,    0.0000000,    0.0000000 ]
  distance:    0.0047391
  band:
  - # 1
    frequency:   -5.9468516418
  - # 2
    frequency:   -5.9407284543
  - # 3
    frequency:    0.0093962817
  - # 4
    frequency:    0.0795392101
  - # 5
    frequency:    0.1934466503
  - # 6
    frequency:    1.6822186275
  - # 7
    frequency:    1.6932580601
  - # 8
    frequency:    3.5010958698
  - # 9
    frequency:    3.5114918151
  - # 10
    frequency:    3.5665113100
  - # 11
    frequency:    4.5598182108
  - # 12
    frequency:    6.9017771656
  - # 13
    frequency:    9.2645411156
  - # 14
    frequency:    9.2979729337
  - # 15
    frequency:   12.1607448056
  - # 16
    frequency:   12.1629936572
  - # 17
    frequency:   13.2917767004
  - # 18
    frequency:   36.1794062976

- q-position: [    0.0202020,    0.0000000,    0.0000000 ]
  distance:    0.0063188
  band:
  - # 1
    frequency:   -5.9443828360
  - # 2
    frequency:   -5.9335183540
  - # 3
    frequency:    0.0165477529
  - # 4
    frequency:    0.1060427732
  - # 5
    frequency:    0.2573958089
  - # 6
    frequency:    1.6856705107
  - # 7
    frequency:    1.7050879122
  - # 8
    frequency:    3.4960808473
  - # 9
    frequency:    3.5125557887
  - # 10
    frequency:    3.5748105059
  - # 11
    frequency:    4.5555875729
  - # 12
    frequency:    6.8961077658
  - # 13
    frequency:    9.2631813070
  - # 14
    frequency:    9.3222576205
  - # 15
    frequency:   12.1574457591
  - # 16
    frequency:   12.1614368662
  - # 17
    frequency:   13.2921352773
  - # 18
    frequency:   36.1746170070

- q-position: [    0.0252525,    0.0000000,    0.0000000 ]
  distance:    0.0078985
  band:
  - # 1
    frequency:   -5.9412109328
  - # 2
    frequency:   -5.9242776442
  - # 3
    frequency:    0.0255483284
  - # 4
    frequency:    0.1325402151
  - # 5
    frequency:    0.3208795866
  - # 6
    frequency:    1.6900992992
  - # 7
    frequency:    1.7200325601
  - # 8
    frequency:    3.4908848190
  - # 9
    frequency:    3.5139231731
  - # 10
    frequency:    3.5842549403
  - # 11
    frequency:    4.5503862215
  - # 12
    frequency:    6.8889673839
  - # 13
    frequency:    9.2614387666
  - # 14
    frequency:    9.3530397460
  - # 15
    frequency:   12.1532201850
  - # 16
    frequency:   12.1594411305
  - # 17
    frequency:   13.2926333300
  - # 18
    frequency:   36.1684723068

- q-position: [    0.0303030,    0.0000000,    0.0000000 ]
  distance:    0.0094782
  band:
  - # 1
    frequency:   -5.9373376884
  - # 2
    frequency:   -5.9130282849
  - # 3
    frequency:    0.0362645245
  - # 4
    frequency:    0.1590324552
  - # 5
    frequency:    0.3837712467
  - # 6
    frequency:    1.6954977399
  - # 7
    frequency:    1.7379113922
  - # 8
    frequency:    3.4856921894
  - # 9
    frequency:    3.5155935248
  - # 10
    frequency:    3.5946798849
  - # 11
    frequency:    4.5443842210
  - # 12
    frequency:    6.8804538354
  - # 13
    frequency:    9.2593177978
  - # 14
    frequency:    9.3900091150
  - # 15
    frequency:   12.1480824407
  - # 16
    frequency:   12.1570108542
  - # 17
    frequency:   13.2932973371
  - # 18
    frequency:   36.1609818744

- q-position: [    0.0353535,    0.0000000,    0.0000000 ]
  distance:    0.0110579
  band:
  - # 1
    frequency:   -5.9327653038
  - # 2
    frequency:   -5.8997970004
  - # 3
    frequency:    0.0485447758
  - # 4
    frequency:    0.1855219155
  - # 5
    frequency:    0.4459374683
  - # 6
    frequency:    1.7018567199
  - # 7
    frequency:    1.7585218934
  - # 8
    frequency:    3.4805963063
  - # 9
    frequency:    3.5175662936
  - # 10
    frequency:    3.6060162582
  - # 11
    frequency:    4.5377804653
  - # 12
    frequency:    6.8706735647
  - # 13
    frequency:    9.2568236209
  - # 14
    frequency:    9.4328066389
  - # 15
    frequency:   12.1420526425
  - # 16
    frequency:   12.1541514368
  - # 17
    frequency:   13.2941582820
  - # 18
    frequency:   36.1521574906

- q-position: [    0.0404040,    0.0000000,    0.0000000 ]
  distance:    0.0126376
  band:
  - # 1
    frequency:   -5.9274964568
  - # 2
    frequency:   -5.8846152120
  - # 3
    frequency:    0.0622241434
  - # 4
    frequency:    0.2120126958
  - # 5
    frequency:    0.5072374329
  - # 6
    frequency:    1.7091651450
  - # 7
    frequency:    1.7816481414
  - # 8
    frequency:    3.4756427887
  - # 9
    frequency:    3.5198408185
  - # 10
    frequency:    3.6182473391
  - # 11
    frequency:    4.5307978660
  - # 12
    frequency:    6.8597363785
  - # 13
    frequency:    9.2539623499
  - # 14
    frequency:    9.4810330010
  - # 15
    frequency:   12.1351582027
  - # 16
    frequency:   12.1508692815
  - # 17
    frequency:   13.2952509011
  - # 18
    frequency:   36.1420130120

- q-position: [    0.0454545,    0.0000000,    0.0000000 ]
  distance:    0.0142173
  band:
  - # 1
    frequency:   -5.9215343390
  - # 2
    frequency:   -5.8675189572
  - # 3
    frequency:    0.0771284197
  - # 4
    frequency:    0.2385106877
  - # 5
    frequency:    0.5675222098
  - # 6
    frequency:    1.7174098206
  - # 7
    frequency:    1.8070691930
  - # 8
    frequency:    3.4708508887
  - # 9
    frequency:    3.5224163227
  - # 10
    frequency:    3.6313873719
  - # 11
    frequency:    4.5236781068
  - # 12
    frequency:    6.8477508685
  - # 13
    frequency:    9.2507409642
  - # 14
    frequency:    9.5342566450
  - # 15
    frequency:   12.1274356507
  - # 16
    frequency:   12.1471718057
  - # 17
    frequency:   13.2966128609
  - # 18
    frequency:   36.1305643387

- q-position: [    0.0505051,    0.0000000,    0.0000000 ]
  distance:    0.0157970
  band:
  - # 1
    frequency:   -5.9148826978
  - # 2
    frequency:   -5.8485487996
  - # 3
    frequency:    0.0930773697
  - # 4
    frequency:    0.2650236209
  - # 5
    frequency:    0.6266345579
  - # 6
    frequency:    1.7265753420
  - # 7
    frequency:    1.8345669824
  - # 8
    frequency:    3.4662240278
  - # 9
    frequency:    3.5252919078
  - # 10
    frequency:    3.6454708798
  - # 11
    frequency:    4.5166761114
  - # 12
    frequency:    6.8348207782
  - # 13
    frequency:    9.2471672767
  - # 14
    frequency:    9.5920206185
  - # 15
    frequency:   12.1189327438
  - # 16
    frequency:   12.1430674522
  - # 17
    frequency:   13.2982838972
  - # 18
    frequency:   36.1178293762

- q-position: [    0.0555556,    0.0000000,    0.0000000 ]
  distance:    0.0173767
  band:
  - # 1
    frequency:   -5.9075458825
  - # 2
    frequency:   -5.8277497269
  - # 3
    frequency:    0.1098869810
  - # 4
    frequency:    0.2915610420
  - # 5
    frequency:    0.6844092990
  - # 6
    frequency:    1.7366440040
  - # 7
    frequency:    1.8639334493
  - # 8
    frequency:    3.4617550607
  - # 9
    frequency:    3.5284665489
  - # 10
    frequency:    3.6605470893
  - # 11
    frequency:    4.5100543698
  - # 12
    frequency:    6.8210424043
  - # 13
    frequency:    9.2432498977
  - # 14
    frequency:    9.6538479815
  - # 15
    frequency:   12.1097108836
  - # 16
    frequency:   12.1385657009
  - # 17
    frequency:   13.3003049463
  - # 18
    frequency:   36.1038279941

- q-position: [    0.0606061,    0.0000000,    0.0000000 ]
  distance:    0.0189564
  band:
  - # 1
    frequency:   -5.8995288946
  - # 2
    frequency:   -5.8051710389
  - # 3
    frequency:    0.1273707087
  - # 4
    frequency:    0.3181342229
  - # 5
    frequency:    0.7406744431
  - # 6
    frequency:    1.7475957365
  - # 7
    frequency:    1.8949766801
  - # 8
    frequency:    3.4574289677
  - # 9
    frequency:    3.5319390882
  - # 10
    frequency:    3.6766767114
  - # 11
    frequency:    4.5040772574
  - # 12
    frequency:    6.8065029923
  - # 13
    frequency:    9.2389981942
  - # 14
    frequency:    9.7192456366
  - # 15
    frequency:   12.0998478595
  - # 16
    frequency:   12.1336770806
  - # 17
    frequency:   13.3027173048
  - # 18
    frequency:   36.0885819789

- q-position: [    0.0656566,    0.0000000,    0.0000000 ]
  distance:    0.0205361
  band:
  - # 1
    frequency:   -5.8908374413
  - # 2
    frequency:   -5.7808662253
  - # 3
    frequency:    0.1453397846
  - # 4
    frequency:    0.3447560029
  - # 5
    frequency:    0.7952532797
  - # 6
    frequency:    1.7594080734
  - # 7
    frequency:    1.9275258739
  - # 8
    frequency:    3.4532243560
  - # 9
    frequency:    3.5357082297
  - # 10
    frequency:    3.6939296518
  - # 11
    frequency:    4.4990054815
  - # 12
    frequency:    6.7912800028
  - # 13
    frequency:    9.2344222452
  - # 14
    frequency:    9.7877065513
  - # 15
    frequency:   12.0894409530
  - # 16
    frequency:   12.1284131809
  - # 17
    frequency:   13.3055618475
  - # 18
    frequency:   36.0721149841

- q-position: [    0.0707071,    0.0000000,    0.0000000 ]
  distance:    0.0221158
  band:
  - # 1
    frequency:   -5.8814779917
  - # 2
    frequency:   -5.7548928342
  - # 3
    frequency:    0.1636027102
  - # 4
    frequency:    0.3714405694
  - # 5
    frequency:    0.8479676534
  - # 6
    frequency:    1.7720561589
  - # 7
    frequency:    1.9614349439
  - # 8
    frequency:    3.4491145258
  - # 9
    frequency:    3.5397725339
  - # 10
    frequency:    3.7123828467
  - # 11
    frequency:    4.4950907941
  - # 12
    frequency:    6.7754410757
  - # 13
    frequency:    9.2295327935
  - # 14
    frequency:    9.8587104151
  - # 15
    frequency:   12.0786104404
  - # 16
    frequency:   12.1227866638
  - # 17
    frequency:   13.3088783358
  - # 18
    frequency:   36.0544524745

- q-position: [    0.0757576,    0.0000000,    0.0000000 ]
  distance:    0.0236955
  band:
  - # 1
    frequency:   -5.8714578359
  - # 2
    frequency:   -5.7273123312
  - # 3
    frequency:    0.1819640828
  - # 4
    frequency:    0.3982031833
  - # 5
    frequency:    0.8986426202
  - # 6
    frequency:    1.7855127935
  - # 7
    frequency:    1.9965845576
  - # 8
    frequency:    3.4450685400
  - # 9
    frequency:    3.5441304123
  - # 10
    frequency:    3.7321177533
  - # 11
    frequency:    4.4925711226
  - # 12
    frequency:    6.7590445149
  - # 13
    frequency:    9.2243411927
  - # 14
    frequency:    9.9317228118
  - # 15
    frequency:   12.0675035367
  - # 16
    frequency:   12.1168112738
  - # 17
    frequency:   13.3127048398
  - # 18
    frequency:   36.0356216676

- q-position: [    0.0808081,    0.0000000,    0.0000000 ]
  distance:    0.0252752
  band:
  - # 1
    frequency:   -5.8607851445
  - # 2
    frequency:   -5.6981899493
  - # 3
    frequency:    0.2002229196
  - # 4
    frequency:    0.4250598584
  - # 5
    frequency:    0.9471126125
  - # 6
    frequency:    1.7997485221
  - # 7
    frequency:    2.0328824270
  - # 8
    frequency:    3.4410525424
  - # 9
    frequency:    3.5487801234
  - # 10
    frequency:    3.7532172392
  - # 11
    frequency:    4.4916662760
  - # 12
    frequency:    6.7421401226
  - # 13
    frequency:    9.2188593511
  - # 14
    frequency:   10.0061930206
  - # 15
    frequency:   12.0562988133
  - # 16
    frequency:   12.1105018478
  - # 17
    frequency:   13.3170772951
  - # 18
    frequency:   36.0156514710

- q-position: [    0.0858586,    0.0000000,    0.0000000 ]
  distance:    0.0268549
  band:
  - # 1
    frequency:   -5.8494690298
  - # 2
    frequency:   -5.6675945311
  - # 3
    frequency:    0.2181706495
  - # 4
    frequency:    0.4520270063
  - # 5
    frequency:    0.9932291023
  - # 6
    frequency:    1.8147317610
  - # 7
    frequency:    2.0702617151
  - # 8
    frequency:    3.4370314214
  - # 9
    frequency:    3.5537197688
  - # 10
    frequency:    3.7757617918
  - # 11
    frequency:    4.4925743908
  - # 12
    frequency:    6.7247702425
  - # 13
    frequency:    9.2130996716
  - # 14
    frequency:   10.0815505917
  - # 15
    frequency:   12.0452110838
  - # 16
    frequency:   12.1038743220
  - # 17
    frequency:   13.3220292074
  - # 18
    frequency:   35.9945724160

- q-position: [    0.0909091,    0.0000000,    0.0000000 ]
  distance:    0.0284346
  band:
  - # 1
    frequency:   -5.8375196066
  - # 2
    frequency:   -5.6355983615
  - # 3
    frequency:    0.2355889538
  - # 4
    frequency:    0.4791210556
  - # 5
    frequency:    1.0368695525
  - # 6
    frequency:    1.8304289619
  - # 7
    frequency:    2.1086775470
  - # 8
    frequency:    3.4329707926
  - # 9
    frequency:    3.5589472899
  - # 10
    frequency:    3.7998251363
  - # 11
    frequency:    4.4954692632
  - # 12
    frequency:    6.7069708992
  - # 13
    frequency:    9.2070749886
  - # 14
    frequency:   10.1572009135
  - # 15
    frequency:   12.0344966757
  - # 16
    frequency:   12.0969457372
  - # 17
    frequency:   13.3275915097
  - # 18
    frequency:   35.9724165882

- q-position: [    0.0959596,    0.0000000,    0.0000000 ]
  distance:    0.0300143
  band:
  - # 1
    frequency:   -5.8249480515
  - # 2
    frequency:   -5.6022769938
  - # 3
    frequency:    0.2522476547
  - # 4
    frequency:    0.5063580600
  - # 5
    frequency:    1.0779471840
  - # 6
    frequency:    1.8468048089
  - # 7
    frequency:    2.1481017978
  - # 8
    frequency:    3.4288391732
  - # 9
    frequency:    3.5644604662
  - # 10
    frequency:    3.8254694991
  - # 11
    frequency:    4.5004986757
  - # 12
    frequency:    6.6887729527
  - # 13
    frequency:    9.2007985015
  - # 14
    frequency:   10.2325201333
  - # 15
    frequency:   12.0244588451
  - # 16
    frequency:   12.0897342418
  - # 17
    frequency:   13.3337925730
  - # 18
    frequency:   35.9492175543

- q-position: [    0.1010101,    0.0000000,    0.0000000 ]
  distance:    0.0315940
  band:
  - # 1
    frequency:   -5.8117666617
  - # 2
    frequency:   -5.5677090666
  - # 3
    frequency:    0.2679028745
  - # 4
    frequency:    0.5337533032
  - # 5
    frequency:    1.1164208034
  - # 6
    frequency:    1.8638224416
  - # 7
    frequency:    2.1885165614
  - # 8
    frequency:    3.4246101472
  - # 9
    frequency:    3.5702569144
  - # 10
    frequency:    3.8527408702
  - # 11
    frequency:    4.5077837662
  - # 12
    frequency:    6.6702032133
  - # 13
    frequency:    9.1942837051
  - # 14
    frequency:   10.3068500417
  - # 15
    frequency:   12.0154528268
  - # 16
    frequency:   12.0822590906
  - # 17
    frequency:   13.3406583606
  - # 18
    frequency:   35.9250102869

- q-position: [    0.1060606,    0.0000000,    0.0000000 ]
  distance:    0.0331737
  band:
  - # 1
    frequency:   -5.7979889095
  - # 2
    frequency:   -5.5319761144
  - # 3
    frequency:    0.2822957222
  - # 4
    frequency:    0.5613209145
  - # 5
    frequency:    1.1523036908
  - # 6
    frequency:    1.8814436992
  - # 7
    frequency:    2.2299069214
  - # 8
    frequency:    3.4202643000
  - # 9
    frequency:    3.5763340879
  - # 10
    frequency:    3.8816646834
  - # 11
    frequency:    4.5174194002
  - # 12
    frequency:    6.6512854838
  - # 13
    frequency:    9.1875443182
  - # 14
    frequency:   10.3794939561
  - # 15
    frequency:   12.0078895765
  - # 16
    frequency:   12.0745406408
  - # 17
    frequency:   13.3482127141
  - # 18
    frequency:   35.8998310855

- q-position: [    0.1111111,    0.0000000,    0.0000000 ]
  distance:    0.0347534
  band:
  - # 1
    frequency:   -5.7836294941
  - # 2
    frequency:   -5.4951623700
  - # 3
    frequency:    0.2951517959
  - # 4
    frequency:    0.5890735023
  - # 5
    frequency:    1.1856704036
  - # 6
    frequency:    1.8996293781
  - # 7
    frequency:    2.2722537927
  - # 8
    frequency:    3.4157907189
  - # 9
    frequency:    3.5826892784
  - # 10
    frequency:    3.9122423319
  - # 11
    frequency:    4.5294754170
  - # 12
    frequency:    6.6320415126
  - # 13
    frequency:    9.1805942096
  - # 14
    frequency:   10.4497152422
  - # 15
    frequency:   12.0022366400
  - # 16
    frequency:   12.0666003430
  - # 17
    frequency:   13.3564777520
  - # 18
    frequency:   35.8737174964

- q-position: [    0.1161616,    0.0000000,    0.0000000 ]
  distance:    0.0363331
  band:
  - # 1
    frequency:   -5.7687043882
  - # 2
    frequency:   -5.4573545593
  - # 3
    frequency:    0.3061818009
  - # 4
    frequency:    0.6170218144
  - # 5
    frequency:    1.2166603823
  - # 6
    frequency:    1.9183394964
  - # 7
    frequency:    2.3155276192
  - # 8
    frequency:    3.4111879285
  - # 9
    frequency:    3.5893196180
  - # 10
    frequency:    3.9444488679
  - # 11
    frequency:    4.5439985320
  - # 12
    frequency:    6.6124918561
  - # 13
    frequency:    9.1734473226
  - # 14
    frequency:   10.5167408920
  - # 15
    frequency:   11.9990137996
  - # 16
    frequency:   12.0584607284
  - # 17
    frequency:   13.3654743570
  - # 18
    frequency:   35.8467082287

- q-position: [    0.1212121,    0.0000000,    0.0000000 ]
  distance:    0.0379128
  band:
  - # 1
    frequency:   -5.7532308786
  - # 2
    frequency:   -5.4186416896
  - # 3
    frequency:    0.3150835603
  - # 4
    frequency:    0.6451744306
  - # 5
    frequency:    1.2454774598
  - # 6
    frequency:    1.9375335595
  - # 7
    frequency:    2.3596835742
  - # 8
    frequency:    3.4064642132
  - # 9
    frequency:    3.5962220823
  - # 10
    frequency:    3.9782321229
  - # 11
    frequency:    4.5610146115
  - # 12
    frequency:    6.5926566543
  - # 13
    frequency:    9.1661175988
  - # 14
    frequency:   10.5797733312
  - # 15
    frequency:   11.9987803823
  - # 16
    frequency:   12.0501453894
  - # 17
    frequency:   13.3752227264
  - # 18
    frequency:   35.8188430700

- q-position: [    0.1262626,    0.0000000,    0.0000000 ]
  distance:    0.0394925
  band:
  - # 1
    frequency:   -5.7372276000
  - # 2
    frequency:   -5.3791148288
  - # 3
    frequency:    0.3215455921
  - # 4
    frequency:    0.6735374937
  - # 5
    frequency:    1.2723847803
  - # 6
    frequency:    1.9571708197
  - # 7
    frequency:    2.4046586503
  - # 8
    frequency:    3.4016373763
  - # 9
    frequency:    3.6033934946
  - # 10
    frequency:    4.0135133469
  - # 11
    frequency:    4.5805310005
  - # 12
    frequency:    6.5725563315
  - # 13
    frequency:    9.1586189008
  - # 14
    frequency:   10.6380139205
  - # 15
    frequency:   12.0021108189
  - # 16
    frequency:   12.0416789555
  - # 17
    frequency:   13.3857429552
  - # 18
    frequency:   35.7901627990

- q-position: [    0.1313131,    0.0000000,    0.0000000 ]
  distance:    0.0410722
  band:
  - # 1
    frequency:   -5.7207145611
  - # 2
    frequency:   -5.3388668775
  - # 3
    frequency:    0.3252522241
  - # 4
    frequency:    0.7021144794
  - # 5
    frequency:    1.2976951554
  - # 6
    frequency:    1.9772105260
  - # 7
    frequency:    2.4503707028
  - # 8
    frequency:    3.3967340574
  - # 9
    frequency:    3.6108305308
  - # 10
    frequency:    4.0501893293
  - # 11
    frequency:    4.6025385905
  - # 12
    frequency:    6.5522122377
  - # 13
    frequency:    9.1509649352
  - # 14
    frequency:   10.6907006807
  - # 15
    frequency:   12.0095559738
  - # 16
    frequency:   12.0330870624
  - # 17
    frequency:   13.3970556155
  - # 18
    frequency:   35.7607090975

- q-position: [    0.1363636,    0.0000000,    0.0000000 ]
  distance:    0.0426519
  band:
  - # 1
    frequency:   -5.7037131610
  - # 2
    frequency:   -5.2979923320
  - # 3
    frequency:    0.3258898785
  - # 4
    frequency:    0.7309060083
  - # 5
    frequency:    1.3217574551
  - # 6
    frequency:    1.9976121595
  - # 7
    frequency:    2.4967192055
  - # 8
    frequency:    3.3917887773
  - # 9
    frequency:    3.6185297248
  - # 10
    frequency:    4.0881358483
  - # 11
    frequency:    4.6270133511
  - # 12
    frequency:    6.5316472497
  - # 13
    frequency:    9.1431691772
  - # 14
    frequency:   10.7371597791
  - # 15
    frequency:   12.0215907562
  - # 16
    frequency:   12.0243963138
  - # 17
    frequency:   13.4091822968
  - # 18
    frequency:   35.7305244609

- q-position: [    0.1414141,    0.0000000,    0.0000000 ]
  distance:    0.0442317
  band:
  - # 1
    frequency:   -5.6862461963
  - # 2
    frequency:   -5.2565870373
  - # 3
    frequency:    0.3231536702
  - # 4
    frequency:    0.7599096984
  - # 5
    frequency:    1.3449401576
  - # 6
    frequency:    2.0183356506
  - # 7
    frequency:    2.5435872692
  - # 8
    frequency:    3.3868429018
  - # 9
    frequency:    3.6264874743
  - # 10
    frequency:    4.1272122114
  - # 11
    frequency:    4.6539171304
  - # 12
    frequency:    6.5108863499
  - # 13
    frequency:    9.1352447958
  - # 14
    frequency:   10.7768650821
  - # 15
    frequency:   12.0156342366
  - # 16
    frequency:   12.0385537600
  - # 17
    frequency:   13.4221460590
  - # 18
    frequency:   35.6996521073

- q-position: [    0.1464646,    0.0000000,    0.0000000 ]
  distance:    0.0458114
  band:
  - # 1
    frequency:   -5.6683378568
  - # 2
    frequency:   -5.2147479296
  - # 3
    frequency:    0.3167528088
  - # 4
    frequency:    0.7891200576
  - # 5
    frequency:    1.3676135875
  - # 6
    frequency:    2.0393415761
  - # 7
    frequency:    2.5908443619
  - # 8
    frequency:    3.3819437092
  - # 9
    frequency:    3.6347000469
  - # 10
    frequency:    4.1672665830
  - # 11
    frequency:    4.6831976285
  - # 12
    frequency:    6.4899572079
  - # 13
    frequency:    9.1272045818
  - # 14
    frequency:   10.8094941050
  - # 15
    frequency:   12.0068292276
  - # 16
    frequency:   12.0605906552
  - # 17
    frequency:   13.4359717506
  - # 18
    frequency:   35.6681358866

- q-position: [    0.1515152,    0.0000000,    0.0000000 ]
  distance:    0.0473911
  band:
  - # 1
    frequency:   -5.6500137094
  - # 2
    frequency:   -5.1725727662
  - # 3
    frequency:    0.3064124129
  - # 4
    frequency:    0.8185284129
  - # 5
    frequency:    1.3901325779
  - # 6
    frequency:    2.0605913351
  - # 7
    frequency:    2.6383491769
  - # 8
    frequency:    3.3771437390
  - # 9
    frequency:    3.6431635856
  - # 10
    frequency:    4.2081417494
  - # 11
    frequency:    4.7147875677
  - # 12
    frequency:    6.4688907879
  - # 13
    frequency:    9.1190608792
  - # 14
    frequency:   10.8349653850
  - # 15
    frequency:   11.9980104921
  - # 16
    frequency:   12.0876163633
  - # 17
    frequency:   13.4506861311
  - # 18
    frequency:   35.6360201887

- q-position: [    0.1565657,    0.0000000,    0.0000000 ]
  distance:    0.0489708
  band:
  - # 1
    frequency:   -5.6313006691
  - # 2
    frequency:   -5.1301598416
  - # 3
    frequency:    0.2918679493
  - # 4
    frequency:    0.8481228747
  - # 5
    frequency:    1.4128212412
  - # 6
    frequency:    2.0820473026
  - # 7
    frequency:    2.6859521490
  - # 8
    frequency:    3.3725005913
  - # 9
    frequency:    3.6518741142
  - # 10
    frequency:    4.2496809388
  - # 11
    frequency:    4.7486032071
  - # 12
    frequency:    6.4477220111
  - # 13
    frequency:    9.1108255206
  - # 14
    frequency:   10.8534451231
  - # 15
    frequency:   11.9892079734
  - # 16
    frequency:   12.1193082385
  - # 17
    frequency:   13.4663177336
  - # 18
    frequency:   35.6033498510

- q-position: [    0.1616162,    0.0000000,    0.0000000 ]
  distance:    0.0505505
  band:
  - # 1
    frequency:   -5.6122269575
  - # 2
    frequency:   -5.0876076869
  - # 3
    frequency:    0.2728456878
  - # 4
    frequency:    0.8778883326
  - # 5
    frequency:    1.4359612111
  - # 6
    frequency:    2.1036729602
  - # 7
    frequency:    2.7334972000
  - # 8
    frequency:    3.3680773605
  - # 9
    frequency:    3.6608275418
  - # 10
    frequency:    4.2917332900
  - # 11
    frequency:    4.7845424500
  - # 12
    frequency:    6.4264905042
  - # 13
    frequency:    9.1025097673
  - # 14
    frequency:   10.8653200535
  - # 15
    frequency:   11.9804522735
  - # 16
    frequency:   12.1551333632
  - # 17
    frequency:   13.4828963971
  - # 18
    frequency:   35.5701700671

- q-position: [    0.1666667,    0.0000000,    0.0000000 ]
  distance:    0.0521302
  band:
  - # 1
    frequency:   -5.5928220464
  - # 2
    frequency:   -5.0450147506
  - # 3
    frequency:    0.2490154262
  - # 4
    frequency:    0.9078064783
  - # 5
    frequency:    1.4597841754
  - # 6
    frequency:    2.1254330056
  - # 7
    frequency:    2.7808223351
  - # 8
    frequency:    3.3639439371
  - # 9
    frequency:    3.6700196661
  - # 10
    frequency:    4.3341585747
  - # 11
    frequency:    4.8224828574
  - # 12
    frequency:    6.4052414758
  - # 13
    frequency:    9.0941242558
  - # 14
    frequency:   10.8711444575
  - # 15
    frequency:   11.9717745641
  - # 16
    frequency:   12.1944021131
  - # 17
    frequency:   13.5004523967
  - # 18
    frequency:   35.5365262943

- q-position: [    0.1717172,    0.0000000,    0.0000000 ]
  distance:    0.0537099
  band:
  - # 1
    frequency:   -5.5731165878
  - # 2
    frequency:   -5.0024790593
  - # 3
    frequency:    0.2198804356
  - # 4
    frequency:    0.9378558548
  - # 5
    frequency:    1.4844688614
  - # 6
    frequency:    2.1472934414
  - # 7
    frequency:    2.8277586851
  - # 8
    frequency:    3.3601795196
  - # 9
    frequency:    3.6794461751
  - # 10
    frequency:    4.3768308231
  - # 11
    frequency:    4.8622798838
  - # 12
    frequency:    6.3840267656
  - # 13
    frequency:    9.0856789508
  - # 14
    frequency:   10.8715760305
  - # 15
    frequency:   11.9632064880
  - # 16
    frequency:   12.2363333417
  - # 17
    frequency:   13.5190151072
  - # 18
    frequency:   35.5024641626

- q-position: [    0.1767677,    0.0000000,    0.0000000 ]
  distance:    0.0552896
  band:
  - # 1
    frequency:   -5.5531423295
  - # 2
    frequency:   -4.9600978540
  - # 3
    frequency:    0.1844931560
  - # 4
    frequency:    0.9680119267
  - # 5
    frequency:    1.5101420276
  - # 6
    frequency:    2.1692216441
  - # 7
    frequency:    2.8741274478
  - # 8
    frequency:    3.3568768744
  - # 9
    frequency:    3.6891026469
  - # 10
    frequency:    4.4196406083
  - # 11
    frequency:    4.9037655785
  - # 12
    frequency:    6.3629061281
  - # 13
    frequency:    9.0771831055
  - # 14