nqpoint: 300    
npath: 3      
segment_nqpoint:
- 100
- 100
- 100
labels:
- [ 'G', 'M' ]
- [ 'M', 'K' ]
- [ 'K', 'G' ]
reciprocal_lattice:
- [   0.31478744,   0.18174261,   0.00000000 ] # a*
- [   0.00000000,   0.36348523,   0.00000000 ] # b*
- [   0.00000000,   0.00000000,   0.04140328 ] # c*
natom: 6      
lattice:
- [     3.176746795676792,     0.000000000000000,     0.000000000000000 ] # a
- [    -1.588373397838395,     2.751143426429010,     0.000000000000000 ] # b
- [     0.000000000000000,     0.000000000000000,    24.152673814028955 ] # c
points:
- symbol: C # 1
  coordinates: [  0.000000000000000,  0.000000000000000,  0.511294243498630 ]
  mass: 12.010700
- symbol: Cl # 2
  coordinates: [  0.333332985432215,  0.666666983183674,  0.627370448949118 ]
  mass: 35.453000
- symbol: H # 3
  coordinates: [  0.666666984744047,  0.333332985985145,  0.372629551050882 ]
  mass: 1.007940
- symbol: O # 4
  coordinates: [  0.666666984744047,  0.333332985985145,  0.413444311180242 ]
  mass: 15.999400
- symbol: Ti # 5
  coordinates: [  0.333332985432215,  0.666666983183674,  0.465107030804109 ]
  mass: 47.867000
- symbol: Ti # 6
  coordinates: [  0.666666984744047,  0.333332985985145,  0.557025059381212 ]
  mass: 47.867000

phonon:
- q-position: [    0.0000000,    0.0000000,    0.0000000 ]
  distance:    0.0000000
  band:
  - # 1
    frequency:   -0.0000334822
  - # 2
    frequency:   -0.0000003973
  - # 3
    frequency:    0.0000311030
  - # 4
    frequency:    4.7911886321
  - # 5
    frequency:    4.7911886322
  - # 6
    frequency:    7.2800234154
  - # 7
    frequency:    7.2800234155
  - # 8
    frequency:    7.3154015845
  - # 9
    frequency:    8.0579914757
  - # 10
    frequency:    8.0579914757
  - # 11
    frequency:   11.7533555978
  - # 12
    frequency:   13.5395145155
  - # 13
    frequency:   13.5395145156
  - # 14
    frequency:   14.4335912066
  - # 15
    frequency:   17.9059183470
  - # 16
    frequency:   19.1105138737
  - # 17
    frequency:   19.1105138738
  - # 18
    frequency:  112.7031327093

- q-position: [    0.0050505,    0.0000000,    0.0000000 ]
  distance:    0.0018358
  band:
  - # 1
    frequency:    0.0025673988
  - # 2
    frequency:    0.0864292207
  - # 3
    frequency:    0.1384285536
  - # 4
    frequency:    4.7917350103
  - # 5
    frequency:    4.7932245452
  - # 6
    frequency:    7.2587546398
  - # 7
    frequency:    7.2802309263
  - # 8
    frequency:    7.3369276371
  - # 9
    frequency:    8.0582488632
  - # 10
    frequency:    8.0588363198
  - # 11
    frequency:   11.7525017530
  - # 12
    frequency:   13.5377516397
  - # 13
    frequency:   13.5397050261
  - # 14
    frequency:   14.4363465427
  - # 15
    frequency:   17.9055707524
  - # 16
    frequency:   19.1102622074
  - # 17
    frequency:   19.1110315417
  - # 18
    frequency:  112.7027009343

- q-position: [    0.0101010,    0.0000000,    0.0000000 ]
  distance:    0.0036716
  band:
  - # 1
    frequency:    0.0099378908
  - # 2
    frequency:    0.1728323678
  - # 3
    frequency:    0.2768473961
  - # 4
    frequency:    4.7933722831
  - # 5
    frequency:    4.7993169507
  - # 6
    frequency:    7.2263713125
  - # 7
    frequency:    7.2808512442
  - # 8
    frequency:    7.3700805877
  - # 9
    frequency:    8.0590196966
  - # 10
    frequency:    8.0613703839
  - # 11
    frequency:   11.7499458104
  - # 12
    frequency:   13.5325193560
  - # 13
    frequency:   13.5402770221
  - # 14
    frequency:   14.4445504846
  - # 15
    frequency:   17.9045289849
  - # 16
    frequency:   19.1095089308
  - # 17
    frequency:   19.1125805737
  - # 18
    frequency:  112.7014071084

- q-position: [    0.0151515,    0.0000000,    0.0000000 ]
  distance:    0.0055074
  band:
  - # 1
    frequency:    0.0221699721
  - # 2
    frequency:    0.2591835477
  - # 3
    frequency:    0.4152464883
  - # 4
    frequency:    4.7960948884
  - # 5
    frequency:    4.8094202769
  - # 6
    frequency:    7.1930744759
  - # 7
    frequency:    7.2818777507
  - # 8
    frequency:    7.4046528728
  - # 9
    frequency:    8.0602999872
  - # 10
    frequency:    8.0655921668
  - # 11
    frequency:   11.7457044049
  - # 12
    frequency:   13.5239784139
  - # 13
    frequency:   13.5412318929
  - # 14
    frequency:   14.4580252570
  - # 15
    frequency:   17.9027960872
  - # 16
    frequency:   19.1082591988
  - # 17
    frequency:   19.1151490810
  - # 18
    frequency:  112.6992557230

- q-position: [    0.0202020,    0.0000000,    0.0000000 ]
  distance:    0.0073431
  band:
  - # 1
    frequency:    0.0391935016
  - # 2
    frequency:    0.3454572006
  - # 3
    frequency:    0.5536150413
  - # 4
    frequency:    4.7998936305
  - # 5
    frequency:    4.8234599758
  - # 6
    frequency:    7.1598670743
  - # 7
    frequency:    7.2832995010
  - # 8
    frequency:    7.4396310286
  - # 9
    frequency:    8.0620830849
  - # 10
    frequency:    8.0714988427
  - # 11
    frequency:   11.7398048033
  - # 12
    frequency:   13.5123717074
  - # 13
    frequency:   13.5425719378
  - # 14
    frequency:   14.4765000583
  - # 15
    frequency:   17.9003771100
  - # 16
    frequency:   19.1065215595
  - # 17
    frequency:   19.1187173414
  - # 18
    frequency:  112.6962542451

- q-position: [    0.0252525,    0.0000000,    0.0000000 ]
  distance:    0.0091789
  band:
  - # 1
    frequency:    0.0609111403
  - # 2
    frequency:    0.4316282704
  - # 3
    frequency:    0.6919411825
  - # 4
    frequency:    4.8047557898
  - # 5
    frequency:    4.8413345336
  - # 6
    frequency:    7.1270163989
  - # 7
    frequency:    7.2851013525
  - # 8
    frequency:    7.4747337794
  - # 9
    frequency:    8.0643596747
  - # 10
    frequency:    8.0790857620
  - # 11
    frequency:   11.7322842408
  - # 12
    frequency:   13.4979944464
  - # 13
    frequency:   13.5443003419
  - # 14
    frequency:   14.4996415657
  - # 15
    frequency:   17.8972790815
  - # 16
    frequency:   19.1043078896
  - # 17
    frequency:   19.1232579364
  - # 18
    frequency:  112.6924130888

- q-position: [    0.0303030,    0.0000000,    0.0000000 ]
  distance:    0.0110147
  band:
  - # 1
    frequency:    0.0872021348
  - # 2
    frequency:    0.5176723588
  - # 3
    frequency:    0.8302115989
  - # 4
    frequency:    4.8106652722
  - # 5
    frequency:    4.8629181038
  - # 6
    frequency:    7.0946492792
  - # 7
    frequency:    7.2872641429
  - # 8
    frequency:    7.5098176160
  - # 9
    frequency:    8.0671177727
  - # 10
    frequency:    8.0883457314
  - # 11
    frequency:   11.7231890400
  - # 12
    frequency:   13.4811639894
  - # 13
    frequency:   13.5464211426
  - # 14
    frequency:   14.5270850055
  - # 15
    frequency:   17.8935109647
  - # 16
    frequency:   19.1016333053
  - # 17
    frequency:   19.1287359420
  - # 18
    frequency:  112.6877455758

- q-position: [    0.0353535,    0.0000000,    0.0000000 ]
  distance:    0.0128505
  band:
  - # 1
    frequency:    0.1179254821
  - # 2
    frequency:    0.6035658711
  - # 3
    frequency:    0.9684111900
  - # 4
    frequency:    4.8176027945
  - # 5
    frequency:    4.8880636072
  - # 6
    frequency:    7.0628490471
  - # 7
    frequency:    7.2897649152
  - # 8
    frequency:    7.5447808484
  - # 9
    frequency:    8.0703427241
  - # 10
    frequency:    8.0992680625
  - # 11
    frequency:   11.7125735537
  - # 12
    frequency:   13.4621947091
  - # 13
    frequency:   13.5489391862
  - # 14
    frequency:   14.5584603704
  - # 15
    frequency:   17.8890836034
  - # 16
    frequency:   19.0985160489
  - # 17
    frequency:   19.1351091717
  - # 18
    frequency:  112.6822678855

- q-position: [    0.0404040,    0.0000000,    0.0000000 ]
  distance:    0.0146863
  band:
  - # 1
    frequency:    0.1529232868
  - # 2
    frequency:    0.6892861485
  - # 3
    frequency:    1.1065227284
  - # 4
    frequency:    4.8255461004
  - # 5
    frequency:    4.9166061280
  - # 6
    frequency:    7.0316807810
  - # 7
    frequency:    7.2925771898
  - # 8
    frequency:    7.5795396221
  - # 9
    frequency:    8.0740172020
  - # 10
    frequency:    8.1118373891
  - # 11
    frequency:   11.7004989801
  - # 12
    frequency:   13.4413803574
  - # 13
    frequency:   13.5518600749
  - # 14
    frequency:   14.5934112717
  - # 15
    frequency:   17.8840096558
  - # 16
    frequency:   19.0949773527
  - # 17
    frequency:   19.1423284689
  - # 18
    frequency:  112.6759989928

- q-position: [    0.0454545,    0.0000000,    0.0000000 ]
  distance:    0.0165221
  band:
  - # 1
    frequency:    0.1920242196
  - # 2
    frequency:    0.7748115862
  - # 3
    frequency:    1.2445265303
  - # 4
    frequency:    4.8344702027
  - # 5
    frequency:    4.9483664363
  - # 6
    frequency:    7.0011998890
  - # 7
    frequency:    7.2956712768
  - # 8
    frequency:    7.6140208181
  - # 9
    frequency:    8.0781212124
  - # 10
    frequency:    8.1260322766
  - # 11
    frequency:   11.6870321017
  - # 12
    frequency:   13.4189839187
  - # 13
    frequency:   13.5551901049
  - # 14
    frequency:   14.6316063865
  - # 15
    frequency:   17.8783035186
  - # 16
    frequency:   19.0910412821
  - # 17
    frequency:   19.1503380474
  - # 18
    frequency:  112.6689605972

- q-position: [    0.0505051,    0.0000000,    0.0000000 ]
  distance:    0.0183578
  band:
  - # 1
    frequency:    0.2350469363
  - # 2
    frequency:    0.8601217356
  - # 3
    frequency:    1.3824001386
  - # 4
    frequency:    4.8443476444
  - # 5
    frequency:    4.9831544841
  - # 6
    frequency:    6.9714555908
  - # 7
    frequency:    7.2990146277
  - # 8
    frequency:    7.6481602215
  - # 9
    frequency:    8.0826321048
  - # 10
    frequency:    8.1418236805
  - # 11
    frequency:   11.6722439971
  - # 12
    frequency:   13.3952335330
  - # 13
    frequency:   13.5589361942
  - # 14
    frequency:   14.6727448667
  - # 15
    frequency:   17.8719812393
  - # 16
    frequency:   19.0867345577
  - # 17
    frequency:   19.1590758762
  - # 18
    frequency:  112.6611770399

- q-position: [    0.0555556,    0.0000000,    0.0000000 ]
  distance:    0.0201936
  band:
  - # 1
    frequency:    0.2818033306
  - # 2
    frequency:    0.9451973871
  - # 3
    frequency:    1.5201180178
  - # 4
    frequency:    4.8551487737
  - # 5
    frequency:    5.0207727435
  - # 6
    frequency:    6.9424925224
  - # 7
    frequency:    7.3025722194
  - # 8
    frequency:    7.6819026364
  - # 9
    frequency:    8.0875245933
  - # 10
    frequency:    8.1591733484
  - # 11
    frequency:   11.6562087722
  - # 12
    frequency:   13.3703226457
  - # 13
    frequency:   13.5631058025
  - # 14
    frequency:   14.7165575079
  - # 15
    frequency:   17.8650604197
  - # 16
    frequency:   19.0820863610
  - # 17
    frequency:   19.1684741067
  - # 18
    frequency:  112.6526752118

- q-position: [    0.0606061,    0.0000000,    0.0000000 ]
  distance:    0.0220294
  band:
  - # 1
    frequency:    0.3321015234
  - # 2
    frequency:    1.0300206357
  - # 3
    frequency:    1.6576512640
  - # 4
    frequency:    4.8668420265
  - # 5
    frequency:    5.0610192892
  - # 6
    frequency:    6.9143515565
  - # 7
    frequency:    7.3063069656
  - # 8
    frequency:    7.7152027183
  - # 9
    frequency:    8.0927707905
  - # 10
    frequency:    8.1780323056
  - # 11
    frequency:   11.6390023516
  - # 12
    frequency:   13.3444127058
  - # 13
    frequency:   13.5677068410
  - # 14
    frequency:   14.7628053163
  - # 15
    frequency:   17.8575601116
  - # 16
    frequency:   19.0771281233
  - # 17
    frequency:   19.1784595368
  - # 18
    frequency:  112.6434844516

- q-position: [    0.0656566,    0.0000000,    0.0000000 ]
  distance:    0.0238652
  band:
  - # 1
    frequency:    0.3857485209
  - # 2
    frequency:    1.1145749241
  - # 3
    frequency:    1.7949673312
  - # 4
    frequency:    4.8793942092
  - # 5
    frequency:    5.1036905547
  - # 6
    frequency:    6.8870702612
  - # 7
    frequency:    7.3101801494
  - # 8
    frequency:    7.7480259329
  - # 9
    frequency:    8.0983402593
  - # 10
    frequency:    8.1983395925
  - # 11
    frequency:   11.6207013623
  - # 12
    frequency:   13.3176371354
  - # 13
    frequency:   13.5727475745
  - # 14
    frequency:   14.8112767153
  - # 15
    frequency:   17.8495007032
  - # 16
    frequency:   19.0718933005
  - # 17
    frequency:   19.1889541106
  - # 18
    frequency:  112.6336364347

- q-position: [    0.0707071,    0.0000000,    0.0000000 ]
  distance:    0.0257010
  band:
  - # 1
    frequency:    0.4425525035
  - # 2
    frequency:    1.1988450664
  - # 3
    frequency:    1.9320297735
  - # 4
    frequency:    4.8927707777
  - # 5
    frequency:    5.1485837234
  - # 6
    frequency:    6.8606831810
  - # 7
    frequency:    7.3141518683
  - # 8
    frequency:    7.7803492783
  - # 9
    frequency:    8.1042000846
  - # 10
    frequency:    8.2200214319
  - # 11
    frequency:   11.6013821356
  - # 12
    frequency:   13.2901057133
  - # 13
    frequency:   13.5782365146
  - # 14
    frequency:   14.8617842253
  - # 15
    frequency:   17.8409038013
  - # 16
    frequency:   19.0664171376
  - # 17
    frequency:   19.1998754476
  - # 18
    frequency:  112.6231650526

- q-position: [    0.0757576,    0.0000000,    0.0000000 ]
  distance:    0.0275368
  band:
  - # 1
    frequency:    0.5023247325
  - # 2
    frequency:    1.2828172491
  - # 3
    frequency:    2.0687980062
  - # 4
    frequency:    4.9069361068
  - # 5
    frequency:    5.1954987417
  - # 6
    frequency:    6.8352220280
  - # 7
    frequency:    7.3181814850
  - # 8
    frequency:    7.8121615299
  - # 9
    frequency:    8.1103149706
  - # 10
    frequency:    8.2429909824
  - # 11
    frequency:   11.5811198423
  - # 12
    frequency:   13.2619088548
  - # 13
    frequency:   13.5841823062
  - # 14
    frequency:   14.9141611171
  - # 15
    frequency:   17.8317921076
  - # 16
    frequency:   19.0607364227
  - # 17
    frequency:   19.2111373976
  - # 18
    frequency:  112.6121062847

- q-position: [    0.0808081,    0.0000000,    0.0000000 ]
  distance:    0.0293725
  band:
  - # 1
    frequency:    0.5648810835
  - # 2
    frequency:    1.3664790116
  - # 3
    frequency:    2.2052270853
  - # 4
    frequency:    4.9218537446
  - # 5
    frequency:    5.2442399589
  - # 6
    frequency:    6.8107158298
  - # 7
    frequency:    7.3222280753
  - # 8
    frequency:    7.8434628666
  - # 9
    frequency:    8.1166473672
  - # 10
    frequency:    8.2671487743
  - # 11
    frequency:   11.5599877723
  - # 12
    frequency:   13.2331215081
  - # 13
    frequency:   13.5905936058
  - # 14
    frequency:   14.9682583061
  - # 15
    frequency:   17.8221892920
  - # 16
    frequency:   19.0548892349
  - # 17
    frequency:   19.2226506178
  - # 18
    frequency:  112.6004980618

- q-position: [    0.0858586,    0.0000000,    0.0000000 ]
  distance:    0.0312083
  band:
  - # 1
    frequency:    0.6300432275
  - # 2
    frequency:    1.4498192045
  - # 3
    frequency:    2.3412675061
  - # 4
    frequency:    4.9374866495
  - # 5
    frequency:    5.2946174164
  - # 6
    frequency:    6.7871910591
  - # 7
    frequency:    7.3262508650
  - # 8
    frequency:    7.8742638411
  - # 9
    frequency:    8.1231576284
  - # 10
    frequency:    8.2923838398
  - # 11
    frequency:   11.5380567598
  - # 12
    frequency:   13.2038065488
  - # 13
    frequency:   13.5974789542
  - # 14
    frequency:   15.0239416048
  - # 15
    frequency:   17.8121198640
  - # 16
    frequency:   19.0489146878
  - # 17
    frequency:   19.2343231665
  - # 18
    frequency:  112.5883801217

- q-position: [    0.0909091,    0.0000000,    0.0000000 ]
  distance:    0.0330441
  band:
  - # 1
    frequency:    0.6976394953
  - # 2
    frequency:    1.5328279277
  - # 3
    frequency:    2.4768650218
  - # 4
    frequency:    4.9537974061
  - # 5
    frequency:    5.3464478172
  - # 6
    frequency:    6.7646717620
  - # 7
    frequency:    7.3302096468
  - # 8
    frequency:    7.9045837652
  - # 9
    frequency:    8.1298042069
  - # 10
    frequency:    8.3185754552
  - # 11
    frequency:   11.5153947511
  - # 12
    frequency:   13.1740176433
  - # 13
    frequency:   13.6048466436
  - # 14
    frequency:   15.0810893624
  - # 15
    frequency:   17.8016090444
  - # 16
    frequency:   19.0428526706
  - # 17
    frequency:   19.2460611094
  - # 18
    frequency:  112.5757938588

- q-position: [    0.0959596,    0.0000000,    0.0000000 ]
  distance:    0.0348799
  band:
  - # 1
    frequency:    0.7675054605
  - # 2
    frequency:    1.6154964479
  - # 3
    frequency:    2.6119604801
  - # 4
    frequency:    4.9707484182
  - # 5
    frequency:    5.3995552117
  - # 6
    frequency:    6.7431796980
  - # 7
    frequency:    7.3340651711
  - # 8
    frequency:    7.9344486617
  - # 9
    frequency:    8.1365438851
  - # 10
    frequency:    8.3455953321
  - # 11
    frequency:   11.4920665079
  - # 12
    frequency:   13.1438016043
  - # 13
    frequency:   13.6127045804
  - # 14
    frequency:   15.1395904748
  - # 15
    frequency:   17.7906826378
  - # 16
    frequency:   19.0367435905
  - # 17
    frequency:   19.2577691345
  - # 18
    frequency:  112.5627821664

- q-position: [    0.1010101,    0.0000000,    0.0000000 ]
  distance:    0.0367157
  band:
  - # 1
    frequency:    0.8394842840
  - # 2
    frequency:    1.6978170978
  - # 3
    frequency:    2.7464896792
  - # 4
    frequency:    4.9883020769
  - # 5
    frequency:    5.4537714383
  - # 6
    frequency:    6.7227345000
  - # 7
    frequency:    7.3377795036
  - # 8
    frequency:    7.9638889913
  - # 9
    frequency:    8.1433320451
  - # 10
    frequency:    8.3733100448
  - # 11
    frequency:   11.4681334355
  - # 12
    frequency:   13.1132002885
  - # 13
    frequency:   13.6210601444
  - # 14
    frequency:   15.1993427232
  - # 15
    frequency:   17.7793669085
  - # 16
    frequency:   19.0306281167
  - # 17
    frequency:   19.2693511692
  - # 18
    frequency:  112.5493892740

- q-position: [    0.1060606,    0.0000000,    0.0000000 ]
  distance:    0.0385515
  band:
  - # 1
    frequency:    0.9134268584
  - # 2
    frequency:    1.7797831573
  - # 3
    frequency:    2.8803832393
  - # 4
    frequency:    5.0064209047
  - # 5
    frequency:    5.5089363546
  - # 6
    frequency:    6.7033538649
  - # 7
    frequency:    7.3413163430
  - # 8
    frequency:    7.9929373700
  - # 9
    frequency:    8.1501229767
  - # 10
    frequency:    8.4015834756
  - # 11
    frequency:   11.4436535217
  - # 12
    frequency:   13.0822520925
  - # 13
    frequency:   13.6299200466
  - # 14
    frequency:   15.2602513969
  - # 15
    frequency:   17.7676884606
  - # 16
    frequency:   19.0245469298
  - # 17
    frequency:   19.2807109986
  - # 18
    frequency:  112.5356605792

- q-position: [    0.1111111,    0.0000000,    0.0000000 ]
  distance:    0.0403872
  band:
  - # 1
    frequency:    0.9891917904
  - # 2
    frequency:    1.8613887188
  - # 3
    frequency:    3.0135664899
  - # 4
    frequency:    5.0250676744
  - # 5
    frequency:    5.5648978932
  - # 6
    frequency:    6.6850537843
  - # 7
    frequency:    7.3446412973
  - # 8
    frequency:    8.0216264657
  - # 9
    frequency:    8.1568702211
  - # 10
    frequency:    8.4302790866
  - # 11
    frequency:   11.4186813728
  - # 12
    frequency:   13.0509931070
  - # 13
    frequency:   13.6392901859
  - # 14
    frequency:   15.3222281512
  - # 15
    frequency:   17.7556741244
  - # 16
    frequency:   19.0185404782
  - # 17
    frequency:   19.2917528773
  - # 18
    frequency:  112.5216424751

- q-position: [    0.1161616,    0.0000000,    0.0000000 ]
  distance:    0.0422230
  band:
  - # 1
    frequency:    1.0666452548
  - # 2
    frequency:    1.9426285384
  - # 3
    frequency:    3.1459593676
  - # 4
    frequency:    5.0442055051
  - # 5
    frequency:    5.6215119692
  - # 6
    frequency:    6.6678488267
  - # 7
    frequency:    7.3477221139
  - # 8
    frequency:    8.0499872080
  - # 9
    frequency:    8.1635269477
  - # 10
    frequency:    8.4592618803
  - # 11
    frequency:   11.3932683307
  - # 12
    frequency:   13.0194579832
  - # 13
    frequency:   13.6491755068
  - # 14
    frequency:   15.3851900599
  - # 15
    frequency:   17.7433508503
  - # 16
    frequency:   19.0126487429
  - # 17
    frequency:   19.3023821332
  - # 18
    frequency:  112.5073821736

- q-position: [    0.1212121,    0.0000000,    0.0000000 ]
  distance:    0.0440588
  band:
  - # 1
    frequency:    1.1456607507
  - # 2
    frequency:    2.0234978740
  - # 3
    frequency:    3.2774763209
  - # 4
    frequency:    5.0637979349
  - # 5
    frequency:    5.6786422602
  - # 6
    frequency:    6.6517524878
  - # 7
    frequency:    7.3505288640
  - # 8
    frequency:    8.0780473877
  - # 9
    frequency:    8.1700463589
  - # 10
    frequency:    8.4883999777
  - # 11
    frequency:   11.3674626560
  - # 12
    frequency:   12.9876805619
  - # 13
    frequency:   13.6595798605
  - # 14
    frequency:   15.4490588234
  - # 15
    frequency:   17.7307456109
  - # 16
    frequency:   19.0069110130
  - # 17
    frequency:   19.3125057578
  - # 18
    frequency:  112.4929275266

- q-position: [    0.1262626,    0.0000000,    0.0000000 ]
  distance:    0.0458946
  band:
  - # 1
    frequency:    1.2261187849
  - # 2
    frequency:    2.1039923139
  - # 3
    frequency:    3.4080262174
  - # 4
    frequency:    5.0838089751
  - # 5
    frequency:    5.7361598697
  - # 6
    frequency:    6.6367776281
  - # 7
    frequency:    7.3530340814
  - # 8
    frequency:    8.1058306606
  - # 9
    frequency:    8.1763821172
  - # 10
    frequency:    8.5175657929
  - # 11
    frequency:   11.3413097611
  - # 12
    frequency:   12.9556943074
  - # 13
    frequency:   13.6705058690
  - # 14
    frequency:   15.5137601031
  - # 15
    frequency:   17.7178853143
  - # 16
    frequency:   19.0013656725
  - # 17
    frequency:   19.3220329810
  - # 18
    frequency:  112.4783268433

- q-position: [    0.1313131,    0.0000000,    0.0000000 ]
  distance:    0.0477304
  band:
  - # 1
    frequency:    1.3079065047
  - # 2
    frequency:    2.1841075961
  - # 3
    frequency:    3.5375122449
  - # 4
    frequency:    5.1042031453
  - # 5
    frequency:    5.7939428724
  - # 6
    frequency:    6.6229370295
  - # 7
    frequency:    7.3552128594
  - # 8
    frequency:    8.1333559315
  - # 9
    frequency:    8.1824887871
  - # 10
    frequency:    8.5466368343
  - # 11
    frequency:   11.3148524780
  - # 12
    frequency:   12.9235325848
  - # 13
    frequency:   13.6819547964
  - # 14
    frequency:   15.5792229549
  - # 15
    frequency:   17.7047967288
  - # 16
    frequency:   18.9960500008
  - # 17
    frequency:   19.3308758248
  - # 18
    frequency:  112.4636287070

- q-position: [    0.1363636,    0.0000000,    0.0000000 ]
  distance:    0.0495662
  band:
  - # 1
    frequency:    1.3909172986
  - # 2
    frequency:    2.2638394222
  - # 3
    frequency:    3.6658317987
  - # 4
    frequency:    5.1249454930
  - # 5
    frequency:    5.8518757204
  - # 6
    frequency:    6.6102441180
  - # 7
    frequency:    7.3570429075
  - # 8
    frequency:    8.1606370658
  - # 9
    frequency:    8.1883222835
  - # 10
    frequency:    8.5754961852
  - # 11
    frequency:   11.2881313467
  - # 12
    frequency:   12.8912288113
  - # 13
    frequency:   13.6939264267
  - # 14
    frequency:   15.6453793397
  - # 15
    frequency:   17.6915064210
  - # 16
    frequency:   18.9909999862
  - # 17
    frequency:   19.3389496348
  - # 18
    frequency:  112.4488817902

- q-position: [    0.1414141,    0.0000000,    0.0000000 ]
  distance:    0.0514020
  band:
  - # 1
    frequency:    1.4750503783
  - # 2
    frequency:    2.3431832660
  - # 3
    frequency:    3.7928763437
  - # 4
    frequency:    5.1460016018
  - # 5
    frequency:    5.9098484602
  - # 6
    frequency:    6.5987139265
  - # 7
    frequency:    7.3585045762
  - # 8
    frequency:    8.1876828624
  - # 9
    frequency:    8.1938403187
  - # 10
    frequency:    8.6040327310
  - # 11
    frequency:   11.2611849094
  - # 12
    frequency:   12.8588165100
  - # 13
    frequency:   13.7064189525
  - # 14
    frequency:   15.7121636941
  - # 15
    frequency:   17.6780407093
  - # 16
    frequency:   18.9862501555
  - # 17
    frequency:   19.3461735846
  - # 18
    frequency:  112.4341346699

- q-position: [    0.1464646,    0.0000000,    0.0000000 ]
  distance:    0.0532377
  band:
  - # 1
    frequency:    1.5602103545
  - # 2
    frequency:    2.4221341809
  - # 3
    frequency:    3.9185312387
  - # 4
    frequency:    5.1673375875
  - # 5
    frequency:    5.9677556534
  - # 6
    frequency:    6.5883644265
  - # 7
    frequency:    7.3595808523
  - # 8
    frequency:    8.1990028379
  - # 9
    frequency:    8.2144972239
  - # 10
    frequency:    8.6321412033
  - # 11
    frequency:   11.2340499975
  - # 12
    frequency:   12.8263292891
  - # 13
    frequency:   13.7194288730
  - # 14
    frequency:   15.7795125444
  - # 15
    frequency:   17.6644256350
  - # 16
    frequency:   18.9818334173
  - # 17
    frequency:   19.3524711521
  - # 18
    frequency:  112.4194356427

- q-position: [    0.1515152,    0.0000000,    0.0000000 ]
  distance:    0.0550735
  band:
  - # 1
    frequency:    1.6463068158
  - # 2
    frequency:    2.5006866067
  - # 3
    frequency:    4.0426755066
  - # 4
    frequency:    5.1889200883
  - # 5
    frequency:    6.0254947990
  - # 6
    frequency:    6.5792184555
  - # 7
    frequency:    7.3602573352
  - # 8
    frequency:    8.2037724351
  - # 9
    frequency:    8.2410794634
  - # 10
    frequency:    8.6597221022
  - # 11
    frequency:   11.2067619986
  - # 12
    frequency:   12.7938007661
  - # 13
    frequency:   13.7329509060
  - # 14
    frequency:   15.8473641513
  - # 15
    frequency:   17.6506869547
  - # 16
    frequency:   18.9777809215
  - # 17
    frequency:   19.3577705632
  - # 18
    frequency:  112.4048325416

- q-position: [    0.1565657,    0.0000000,    0.0000000 ]
  distance:    0.0569093
  band:
  - # 1
    frequency:    1.7332539163
  - # 2
    frequency:    2.5788341780
  - # 3
    frequency:    4.1651815326
  - # 4
    frequency:    5.2107162487
  - # 5
    frequency:    6.0829638499
  - # 6
    frequency:    6.5713066659
  - # 7
    frequency:    7.3605221987
  - # 8
    frequency:    8.2081147392
  - # 9
    frequency:    8.2674246987
  - # 10
    frequency:    8.6866815532
  - # 11
    frequency:   11.1793550911
  - # 12
    frequency:   12.7612644539
  - # 13
    frequency:   13.7469779128
  - # 14
    frequency:   15.9156581713
  - # 15
    frequency:   17.6368501570
  - # 16
    frequency:   18.9741219343
  - # 17
    frequency:   19.3620052018
  - # 18
    frequency:  112.3903725549

- q-position: [    0.1616162,    0.0000000,    0.0000000 ]
  distance:    0.0587451
  band:
  - # 1
    frequency:    1.8209699791
  - # 2
    frequency:    2.6565695363
  - # 3
    frequency:    4.2859146687
  - # 4
    frequency:    5.2326937011
  - # 5
    frequency:    6.1400569896
  - # 6
    frequency:    6.5646723552
  - # 7
    frequency:    7.3603661480
  - # 8
    frequency:    8.2119987639
  - # 9
    frequency:    8.2935242943
  - # 10
    frequency:    8.7129311417
  - # 11
    frequency:   11.1518624363
  - # 12
    frequency:   12.7287536232
  - # 13
    frequency:   13.7615008387
  - # 14
    frequency:   15.9843353234
  - # 15
    frequency:   17.6229405102
  - # 16
    frequency:   18.9708837276
  - # 17
    frequency:   19.3651139839
  - # 18
    frequency:  112.3761020466

- q-position: [    0.1666667,    0.0000000,    0.0000000 ]
  distance:    0.0605809
  band:
  - # 1
    frequency:    1.9093771173
  - # 2
    frequency:    2.7338841470
  - # 3
    frequency:    4.4047327210
  - # 4
    frequency:    5.2548205462
  - # 5
    frequency:    6.1966568401
  - # 6
    frequency:    6.5593800258
  - # 7
    frequency:    7.3597823777
  - # 8
    frequency:    8.2153972117
  - # 9
    frequency:    8.3193663231
  - # 10
    frequency:    8.7383877591
  - # 11
    frequency:   11.1243163177
  - # 12
    frequency:   12.6963011540
  - # 13
    frequency:   13.7765086694
  - # 14
    frequency:   16.0533370453
  - # 15
    frequency:   17.6089831494
  - # 16
    frequency:   18.9680914842
  - # 17
    frequency:   19.3670416932
  - # 18
    frequency:  112.3620663818

- q-position: [    0.1717172,    0.0000000,    0.0000000 ]
  distance:    0.0624167
  band:
  - # 1
    frequency:    1.9984008766
  - # 2
    frequency:    2.8107681233
  - # 3
    frequency:    4.5214852937
  - # 4
    frequency:    5.2770653339
  - # 5
    frequency:    6.2526187826
  - # 6
    frequency:    6.5555320180
  - # 7
    frequency:    7.3587665389
  - # 8
    frequency:    8.2182867274
  - # 9
    frequency:    8.3449360267
  - # 10
    frequency:    8.7629734877
  - # 11
    frequency:   11.0967482184
  - # 12
    frequency:   12.6639393848
  - # 13
    frequency:   13.7919884041
  - # 14
    frequency:   16.1226051241
  - # 15
    frequency:   17.5950032149
  - # 16
    frequency:   18.9657682166
  - # 17
    frequency:   19.3677392768
  - # 18
    frequency:  112.3483097546

- q-position: [    0.1767677,    0.0000000,    0.0000000 ]
  distance:    0.0642524
  band:
  - # 1
    frequency:    2.0879699000
  - # 2
    frequency:    2.8872100575
  - # 3
    frequency:    4.6360129653
  - # 4
    frequency:    5.2993970476
  - # 5
    frequency:    6.3077361573
  - # 6
    frequency:    6.5533044690
  - # 7
    frequency:    7.3573167217
  - # 8
    frequency:    8.2206480938
  - # 9
    frequency:    8.3702162625
  - # 10
    frequency:    8.7866155427
  - # 11
    frequency:   11.0691888313
  - # 12
    frequency:   12.6316999695
  - # 13
    frequency:   13.8079250462
  - # 14