nqpoint: 300    
npath: 3      
segment_nqpoint:
- 100
- 100
- 100
labels:
- [ 'G', 'M' ]
- [ 'M', 'K' ]
- [ 'K', 'G' ]
reciprocal_lattice:
- [   0.31478744,   0.18174261,   0.00000000 ] # a*
- [   0.00000000,   0.36348523,   0.00000000 ] # b*
- [   0.00000000,   0.00000000,   0.04140328 ] # c*
natom: 6      
lattice:
- [     3.176746795676792,     0.000000000000000,     0.000000000000000 ] # a
- [    -1.588373397838395,     2.751143426429010,     0.000000000000000 ] # b
- [     0.000000000000000,     0.000000000000000,    24.152673814028955 ] # c
points:
- symbol: C # 1
  coordinates: [  0.000000000000000,  0.000000000000000,  0.511294243498630 ]
  mass: 12.010700
- symbol: Cl # 2
  coordinates: [  0.333332985432215,  0.666666983183674,  0.627370448949118 ]
  mass: 35.453000
- symbol: H # 3
  coordinates: [  0.666666984744047,  0.333332985985145,  0.372629551050882 ]
  mass: 1.007940
- symbol: O # 4
  coordinates: [  0.666666984744047,  0.333332985985145,  0.413444311180242 ]
  mass: 15.999400
- symbol: Ti # 5
  coordinates: [  0.333332985432215,  0.666666983183674,  0.465107030804109 ]
  mass: 47.867000
- symbol: Ti # 6
  coordinates: [  0.666666984744047,  0.333332985985145,  0.557025059381212 ]
  mass: 47.867000

phonon:
- q-position: [    0.0000000,    0.0000000,    0.0000000 ]
  distance:    0.0000000
  band:
  - # 1
    frequency:   -0.0000043275
  - # 2
    frequency:   -0.0000002969
  - # 3
    frequency:    0.0000044094
  - # 4
    frequency:    4.6659002429
  - # 5
    frequency:    4.6659002429
  - # 6
    frequency:    7.2807727848
  - # 7
    frequency:    7.2807727848
  - # 8
    frequency:    7.3148234355
  - # 9
    frequency:    8.0584504572
  - # 10
    frequency:    8.0584504572
  - # 11
    frequency:   11.7831682015
  - # 12
    frequency:   13.3824912993
  - # 13
    frequency:   13.3824912993
  - # 14
    frequency:   14.3552404189
  - # 15
    frequency:   17.8260288487
  - # 16
    frequency:   18.5947112589
  - # 17
    frequency:   18.5947112589
  - # 18
    frequency:  112.5870443120

- q-position: [    0.0050505,    0.0000000,    0.0000000 ]
  distance:    0.0018358
  band:
  - # 1
    frequency:   -0.0242744603
  - # 2
    frequency:    0.0912496160
  - # 3
    frequency:    0.1374869576
  - # 4
    frequency:    4.6665416278
  - # 5
    frequency:    4.6680968157
  - # 6
    frequency:    7.2588258201
  - # 7
    frequency:    7.2807702683
  - # 8
    frequency:    7.3372327478
  - # 9
    frequency:    8.0586584251
  - # 10
    frequency:    8.0590435377
  - # 11
    frequency:   11.7823200786
  - # 12
    frequency:   13.3806413946
  - # 13
    frequency:   13.3828873908
  - # 14
    frequency:   14.3584379480
  - # 15
    frequency:   17.8258216780
  - # 16
    frequency:   18.5950980923
  - # 17
    frequency:   18.5957603178
  - # 18
    frequency:  112.5868557653

- q-position: [    0.0101010,    0.0000000,    0.0000000 ]
  distance:    0.0036716
  band:
  - # 1
    frequency:   -0.0466441054
  - # 2
    frequency:    0.1824769046
  - # 3
    frequency:    0.2747951439
  - # 4
    frequency:    4.6684633991
  - # 5
    frequency:    4.6746689163
  - # 6
    frequency:    7.2261256917
  - # 7
    frequency:    7.2807616717
  - # 8
    frequency:    7.3713165017
  - # 9
    frequency:    8.0592813815
  - # 10
    frequency:    8.0608237776
  - # 11
    frequency:   11.7797818371
  - # 12
    frequency:   13.3751621566
  - # 13
    frequency:   13.3840747047
  - # 14
    frequency:   14.3679521435
  - # 15
    frequency:   17.8251997576
  - # 16
    frequency:   18.5962558793
  - # 17
    frequency:   18.5989004430
  - # 18
    frequency:  112.5862899861

- q-position: [    0.0151515,    0.0000000,    0.0000000 ]
  distance:    0.0055074
  band:
  - # 1
    frequency:   -0.0672796717
  - # 2
    frequency:    0.2736595509
  - # 3
    frequency:    0.4121195022
  - # 4
    frequency:    4.6716584312
  - # 5
    frequency:    4.6855642446
  - # 6
    frequency:    7.1927911961
  - # 7
    frequency:    7.2807438796
  - # 8
    frequency:    7.4069456772
  - # 9
    frequency:    8.0603164819
  - # 10
    frequency:    8.0637941487
  - # 11
    frequency:   11.7755716723
  - # 12
    frequency:   13.3662542570
  - # 13
    frequency:   13.3860503636
  - # 14
    frequency:   14.3835587844
  - # 15
    frequency:   17.8241619203
  - # 16
    frequency:   18.5981765031
  - # 17
    frequency:   18.6041104835
  - # 18
    frequency:  112.5853465636

- q-position: [    0.0202020,    0.0000000,    0.0000000 ]
  distance:    0.0073431
  band:
  - # 1
    frequency:   -0.0849236005
  - # 2
    frequency:    0.3647752650
  - # 3
    frequency:    0.5494208719
  - # 4
    frequency:    4.6761149303
  - # 5
    frequency:    4.7006974360
  - # 6
    frequency:    7.1597463069
  - # 7
    frequency:    7.2807117879
  - # 8
    frequency:    7.4431793646
  - # 9
    frequency:    8.0617589729
  - # 10
    frequency:    8.0679595229
  - # 11
    frequency:   11.7697192992
  - # 12
    frequency:   13.3542197830
  - # 13
    frequency:   13.3888095874
  - # 14
    frequency:   14.4049171871
  - # 15
    frequency:   17.8227064068
  - # 16
    frequency:   18.6008465104
  - # 17
    frequency:   18.6113552045
  - # 18
    frequency:  112.5840248376

- q-position: [    0.0252525,    0.0000000,    0.0000000 ]
  distance:    0.0091789
  band:
  - # 1
    frequency:   -0.0982292445
  - # 2
    frequency:    0.4558017925
  - # 3
    frequency:    0.6866816926
  - # 4
    frequency:    4.6818165554
  - # 5
    frequency:    4.7199526269
  - # 6
    frequency:    7.1272287322
  - # 7
    frequency:    7.2806584334
  - # 8
    frequency:    7.4797563686
  - # 9
    frequency:    8.0636021769
  - # 10
    frequency:    8.0733265413
  - # 11
    frequency:   11.7622650717
  - # 12
    frequency:   13.3394240143
  - # 13
    frequency:   13.3923457165
  - # 14
    frequency:   14.4316093718
  - # 15
    frequency:   17.8208311198
  - # 16
    frequency:   18.6042472229
  - # 17
    frequency:   18.6205853358
  - # 18
    frequency:  112.5823239338

- q-position: [    0.0303030,    0.0000000,    0.0000000 ]
  distance:    0.0110147
  band:
  - # 1
    frequency:   -0.1054437298
  - # 2
    frequency:    0.5467169232
  - # 3
    frequency:    0.8238871435
  - # 4
    frequency:    4.6887425850
  - # 5
    frequency:    4.7431867860
  - # 6
    frequency:    7.0953459298
  - # 7
    frequency:    7.2805751693
  - # 8
    frequency:    7.5165394395
  - # 9
    frequency:    8.0658374700
  - # 10
    frequency:    8.0799034132
  - # 11
    frequency:   11.7532588160
  - # 12
    frequency:   13.3222572573
  - # 13
    frequency:   13.3966502436
  - # 14
    frequency:   14.4631794802
  - # 15
    frequency:   17.8185339384
  - # 16
    frequency:   18.6083548922
  - # 17
    frequency:   18.6317376769
  - # 18
    frequency:  112.5802428142

- q-position: [    0.0353535,    0.0000000,    0.0000000 ]
  distance:    0.0128505
  band:
  - # 1
    frequency:   -0.1038517643
  - # 2
    frequency:    0.6374984972
  - # 3
    frequency:    0.9610222211
  - # 4
    frequency:    4.6968681259
  - # 5
    frequency:    4.7702335930
  - # 6
    frequency:    7.0641647058
  - # 7
    frequency:    7.2804518825
  - # 8
    frequency:    7.5534260257
  - # 9
    frequency:    8.0684542602
  - # 10
    frequency:    8.0876996247
  - # 11
    frequency:   11.7427584380
  - # 12
    frequency:   13.3031035746
  - # 13
    frequency:   13.4017128543
  - # 14
    frequency:   14.4991665468
  - # 15
    frequency:   17.8158130544
  - # 16
    frequency:   18.6131408987
  - # 17
    frequency:   18.6447352910
  - # 18
    frequency:  112.5777803392

- q-position: [    0.0404040,    0.0000000,    0.0000000 ]
  distance:    0.0146863
  band:
  - # 1
    frequency:   -0.0878645391
  - # 2
    frequency:    0.7281244085
  - # 3
    frequency:    1.0980708165
  - # 4
    frequency:    4.7061643594
  - # 5
    frequency:    4.8009076289
  - # 6
    frequency:    7.0337345355
  - # 7
    frequency:    7.2802772456
  - # 8
    frequency:    7.5903254366
  - # 9
    frequency:    8.0714399639
  - # 10
    frequency:    8.0967255281
  - # 11
    frequency:   11.7308283741
  - # 12
    frequency:   13.2823193122
  - # 13
    frequency:   13.4075214765
  - # 14
    frequency:   14.5391276493
  - # 15
    frequency:   17.8126673011
  - # 16
    frequency:   18.6185719911
  - # 17
    frequency:   18.6594878155
  - # 18
    frequency:  112.5749353431

- q-position: [    0.0454545,    0.0000000,    0.0000000 ]
  distance:    0.0165221
  band:
  - # 1
    frequency:   -0.0303668452
  - # 2
    frequency:    0.8185726040
  - # 3
    frequency:    1.2350152370
  - # 4
    frequency:    4.7165988222
  - # 5
    frequency:    4.8350086519
  - # 6
    frequency:    7.0040955617
  - # 7
    frequency:    7.2800389960
  - # 8
    frequency:    7.6271515006
  - # 9
    frequency:    8.0747799881
  - # 10
    frequency:    8.1069917766
  - # 11
    frequency:   11.7175379591
  - # 12
    frequency:   13.2602211242
  - # 13
    frequency:   13.4140623371
  - # 14
    frequency:   14.5826516641
  - # 15
    frequency:   17.8090964414
  - # 16
    frequency:   18.6246105666
  - # 17
    frequency:   18.6758919120
  - # 18
    frequency:  112.5717067208

- q-position: [    0.0505051,    0.0000000,    0.0000000 ]
  distance:    0.0183578
  band:
  - # 1
    frequency:    0.1032487499
  - # 2
    frequency:    0.9088210799
  - # 3
    frequency:    1.3718358599
  - # 4
    frequency:    4.7281357151
  - # 5
    frequency:    4.8723257590
  - # 6
    frequency:    6.9752819177
  - # 7
    frequency:    7.2797242348
  - # 8
    frequency:    7.6638201142
  - # 9
    frequency:    8.0784577177
  - # 10
    frequency:    8.1185085584
  - # 11
    frequency:   11.7029597813
  - # 12
    frequency:   13.2370814914
  - # 13
    frequency:   13.4213200263
  - # 14
    frequency:   14.6293655560
  - # 15
    frequency:   17.8051013971
  - # 16
    frequency:   18.6312149899
  - # 17
    frequency:   18.6938318696
  - # 18
    frequency:  112.5680935249

- q-position: [    0.0555556,    0.0000000,    0.0000000 ]
  distance:    0.0201936
  band:
  - # 1
    frequency:    0.1676552826
  - # 2
    frequency:    0.9988478735
  - # 3
    frequency:    1.5085108316
  - # 4
    frequency:    4.7407362354
  - # 5
    frequency:    4.9126412730
  - # 6
    frequency:    6.9473233431
  - # 7
    frequency:    7.2793197371
  - # 8
    frequency:    7.7002487692
  - # 9
    frequency:    8.0824545151
  - # 10
    frequency:    8.1312845810
  - # 11
    frequency:   11.6871680941
  - # 12
    frequency:   13.2131293092
  - # 13
    frequency:   13.4292775685
  - # 14
    frequency:   14.6789355583
  - # 15
    frequency:   17.8006844064
  - # 16
    frequency:   18.6383399483
  - # 17
    frequency:   18.7131803650
  - # 18
    frequency:  112.5640950720

- q-position: [    0.0606061,    0.0000000,    0.0000000 ]
  distance:    0.0220294
  band:
  - # 1
    frequency:    0.2291594994
  - # 2
    frequency:    1.0886310510
  - # 3
    frequency:    1.6450157864
  - # 4
    frequency:    4.7543589267
  - # 5
    frequency:    4.9557342393
  - # 6
    frequency:    6.9202460902
  - # 7
    frequency:    7.2788122637
  - # 8
    frequency:    7.7363571057
  - # 9
    frequency:    8.0867497318
  - # 10
    frequency:    8.1453257565
  - # 11
    frequency:   11.6702373403
  - # 12
    frequency:   13.1885534216
  - # 13
    frequency:   13.4379165002
  - # 14
    frequency:   14.7310653049
  - # 15
    frequency:   17.7958491054
  - # 16
    frequency:   18.6459368413
  - # 17
    frequency:   18.7337993750
  - # 18
    frequency:  112.5597110570

- q-position: [    0.0656566,    0.0000000,    0.0000000 ]
  distance:    0.0238652
  band:
  - # 1
    frequency:    0.2914870180
  - # 2
    frequency:    1.1781486909
  - # 3
    frequency:    1.7813235712
  - # 4
    frequency:    4.7689600417
  - # 5
    frequency:    5.0013834619
  - # 6
    frequency:    6.8940735088
  - # 7
    frequency:    7.2781888685
  - # 8
    frequency:    7.7720681427
  - # 9
    frequency:    8.0913207385
  - # 10
    frequency:    8.1606335550
  - # 11
    frequency:   11.6522408385
  - # 12
    frequency:   13.1635075400
  - # 13
    frequency:   13.4472169528
  - # 14
    frequency:   14.7854924261
  - # 15
    frequency:   17.7906005399
  - # 16
    frequency:   18.6539542004
  - # 17
    frequency:   18.7555412273
  - # 18
    frequency:  112.5549416741

- q-position: [    0.0707071,    0.0000000,    0.0000000 ]
  distance:    0.0257010
  band:
  - # 1
    frequency:    0.3557076888
  - # 2
    frequency:    1.2673788643
  - # 3
    frequency:    1.9174039729
  - # 4
    frequency:    4.7844939104
  - # 5
    frequency:    5.0493700467
  - # 6
    frequency:    6.8688264754
  - # 7
    frequency:    7.2774371905
  - # 8
    frequency:    7.8073100213
  - # 9
    frequency:    8.0961429747
  - # 10
    frequency:    8.1772030237
  - # 11
    frequency:   11.6332496650
  - # 12
    frequency:   13.1381155257
  - # 13
    frequency:   13.4571577402
  - # 14
    frequency:   14.8419845930
  - # 15
    frequency:   17.7849451143
  - # 16
    frequency:   18.6623381384
  - # 17
    frequency:   18.7782497718
  - # 18
    frequency:  112.5497877422

- q-position: [    0.0757576,    0.0000000,    0.0000000 ]
  distance:    0.0275368
  band:
  - # 1
    frequency:    0.4221859929
  - # 2
    frequency:    1.3562996106
  - # 3
    frequency:    2.0532234450
  - # 4
    frequency:    4.8009133114
  - # 5
    frequency:    5.0994794547
  - # 6
    frequency:    6.8445237444
  - # 7
    frequency:    7.2765457269
  - # 8
    frequency:    7.8420181282
  - # 9
    frequency:    8.1011900202
  - # 10
    frequency:    8.1950205295
  - # 11
    frequency:   11.6133317562
  - # 12
    frequency:   13.1124764400
  - # 13
    frequency:   13.4677164520
  - # 14
    frequency:   14.9003355788
  - # 15
    frequency:   17.7788904916
  - # 16
    frequency:   18.6710328216
  - # 17
    frequency:   18.8017616496
  - # 18
    frequency:  112.5442508347

- q-position: [    0.0808081,    0.0000000,    0.0000000 ]
  distance:    0.0293725
  band:
  - # 1
    frequency:    0.4910202498
  - # 2
    frequency:    1.4448889102
  - # 3
    frequency:    2.1887448337
  - # 4
    frequency:    4.8181698380
  - # 5
    frequency:    5.1515030888
  - # 6
    frequency:    6.8211822592
  - # 7
    frequency:    7.2755040778
  - # 8
    frequency:    7.8761374280
  - # 9
    frequency:    8.1064336907
  - # 10
    frequency:    8.2140613609
  - # 11
    frequency:   11.5925512400
  - # 12
    frequency:   13.0866690578
  - # 13
    frequency:   13.4788695484
  - # 14
    frequency:   14.9603616316
  - # 15
    frequency:   17.7724454567
  - # 16
    frequency:   18.6799809641
  - # 17
    frequency:   18.8259076375
  - # 18
    frequency:  112.5383334101

- q-position: [    0.0858586,    0.0000000,    0.0000000 ]
  distance:    0.0312083
  band:
  - # 1
    frequency:    0.5621897452
  - # 2
    frequency:    1.5331246546
  - # 3
    frequency:    2.3239270999
  - # 4
    frequency:    4.8362142576
  - # 5
    frequency:    5.2052394586
  - # 6
    frequency:    6.7988174456
  - # 7
    frequency:    7.2743031601
  - # 8
    frequency:    7.9096247541
  - # 9
    frequency:    8.1118441583
  - # 10
    frequency:    8.2342874205
  - # 11
    frequency:   11.5709679983
  - # 12
    frequency:   13.0607557247
  - # 13
    frequency:   13.4905924601
  - # 14
    frequency:   15.0218982731
  - # 15
    frequency:   17.7656197565
  - # 16
    frequency:   18.6891243374
  - # 17
    frequency:   18.8505140450
  - # 18
    frequency:  112.5320389428

- q-position: [    0.0909091,    0.0000000,    0.0000000 ]
  distance:    0.0330441
  band:
  - # 1
    frequency:    0.6356156308
  - # 2
    frequency:    1.6209846136
  - # 3
    frequency:    2.4587250393
  - # 4
    frequency:    4.8549968578
  - # 5
    frequency:    5.2604949706
  - # 6
    frequency:    6.7774434989
  - # 7
    frequency:    7.2729353865
  - # 8
    frequency:    7.9424507372
  - # 9
    frequency:    8.1173900962
  - # 10
    frequency:    8.2556453176
  - # 11
    frequency:   11.5486374508
  - # 12
    frequency:   13.0347855466
  - # 13
    frequency:   13.5028596887
  - # 14
    frequency:   15.0847975444
  - # 15
    frequency:   17.7584239279
  - # 16
    frequency:   18.6984042925
  - # 17
    frequency:   18.8754041430
  - # 18
    frequency:  112.5253720529

- q-position: [    0.0959596,    0.0000000,    0.0000000 ]
  distance:    0.0348799
  band:
  - # 1
    frequency:    0.7111897461
  - # 2
    frequency:    1.7084464008
  - # 3
    frequency:    2.5930889970
  - # 4
    frequency:    4.8744677774
  - # 5
    frequency:    5.3170844012
  - # 6
    frequency:    6.7570736747
  - # 7
    frequency:    7.2713948061
  - # 8
    frequency:    7.9746010179
  - # 9
    frequency:    8.1230388482
  - # 10
    frequency:    8.2780652122
  - # 11
    frequency:   11.5256105438
  - # 12
    frequency:   13.0087969570
  - # 13
    frequency:   13.5156449104
  - # 14
    frequency:   15.1489256666
  - # 15
    frequency:   17.7508691240
  - # 16
    frequency:   18.7077622887
  - # 17
    frequency:   18.9003996039
  - # 18
    frequency:  112.5183386316

- q-position: [    0.1010101,    0.0000000,    0.0000000 ]
  distance:    0.0367157
  band:
  - # 1
    frequency:    0.7887895467
  - # 2
    frequency:    1.7954874390
  - # 3
    frequency:    2.7269645764
  - # 4
    frequency:    4.8945773181
  - # 5
    frequency:    5.3748311029
  - # 6
    frequency:    6.7377205898
  - # 7
    frequency:    7.2696772074
  - # 8
    frequency:    8.0060764342
  - # 9
    frequency:    8.1287566197
  - # 10
    frequency:    8.3014607133
  - # 11
    frequency:   11.5019339217
  - # 12
    frequency:   12.9828197361
  - # 13
    frequency:   13.5289210796
  - # 14
    frequency:   15.2141610637
  - # 15
    frequency:   17.7429669459
  - # 16
    frequency:   18.7171404251
  - # 17
    frequency:   18.9253219383
  - # 18
    frequency:  112.5109459621

- q-position: [    0.1060606,    0.0000000,    0.0000000 ]
  distance:    0.0385515
  band:
  - # 1
    frequency:    0.8682863153
  - # 2
    frequency:    1.8820849242
  - # 3
    frequency:    2.8602923414
  - # 4
    frequency:    4.9152762354
  - # 5
    frequency:    5.4335669930
  - # 6
    frequency:    6.7193965431
  - # 7
    frequency:    7.2677801838
  - # 8
    frequency:    8.0368920085
  - # 9
    frequency:    8.1345086896
  - # 10
    frequency:    8.3257300053
  - # 11
    frequency:   11.4776502545
  - # 12
    frequency:   12.9568765664
  - # 13
    frequency:   13.5426605340
  - # 14
    frequency:   15.2803926884
  - # 15
    frequency:   17.7347292865
  - # 16
    frequency:   18.7264819691
  - # 17
    frequency:   18.9499939116
  - # 18
    frequency:  112.5032028327

- q-position: [    0.1111111,    0.0000000,    0.0000000 ]
  distance:    0.0403872
  band:
  - # 1
    frequency:    0.9495498478
  - # 2
    frequency:    1.9682157906
  - # 3
    frequency:    2.9930075081
  - # 4
    frequency:    4.9365160050
  - # 5
    frequency:    5.4931323674
  - # 6
    frequency:    6.7021138644
  - # 7
    frequency:    7.2657031613
  - # 8
    frequency:    8.0670747616
  - # 9
    frequency:    8.1402596391
  - # 10
    frequency:    8.3507581743
  - # 11
    frequency:   11.4527986926
  - # 12
    frequency:   12.9309842060
  - # 13
    frequency:   13.5568350991
  - # 14
    frequency:   15.3475185968
  - # 15
    frequency:   17.7261681894
  - # 16
    frequency:   18.7357318756
  - # 17
    frequency:   18.9742409294
  - # 18
    frequency:  112.4951196426

- q-position: [    0.1161616,    0.0000000,    0.0000000 ]
  distance:    0.0422230
  band:
  - # 1
    frequency:    1.0324511683
  - # 2
    frequency:    2.0538566774
  - # 3
    frequency:    3.1250396246
  - # 4
    frequency:    4.9582490657
  - # 5
    frequency:    5.5533755721
  - # 6
    frequency:    6.6858853050
  - # 7
    frequency:    7.2634473941
  - # 8
    frequency:    8.0966605924
  - # 9
    frequency:    8.1459735945
  - # 10
    frequency:    8.3764204903
  - # 11
    frequency:   11.4274154176
  - # 12
    frequency:   12.9051543606
  - # 13
    frequency:   13.5714161934
  - # 14
    frequency:   15.4154447212
  - # 15
    frequency:   17.7172957289
  - # 16
    frequency:   18.7448372950
  - # 17
    frequency:   18.9978923800
  - # 18
    frequency:  112.4867084959

- q-position: [    0.1212121,    0.0000000,    0.0000000 ]
  distance:    0.0440588
  band:
  - # 1
    frequency:    1.1168640880
  - # 2
    frequency:    2.1389838974
  - # 3
    frequency:    3.2563122340
  - # 4
    frequency:    4.9804290357
  - # 5
    frequency:    5.6141525581
  - # 6
    frequency:    6.6707244879
  - # 7
    frequency:    7.2610159277
  - # 8
    frequency:    8.1256906276
  - # 9
    frequency:    8.1516144797
  - # 10
    frequency:    8.4025862423
  - # 11
    frequency:   11.4015342584
  - # 12
    frequency:   12.8793943227
  - # 13
    frequency:   13.5863749318
  - # 14
    frequency:   15.4840837996
  - # 15
    frequency:   17.7081239097
  - # 16
    frequency:   18.7537480601
  - # 17
    frequency:   19.0207829259
  - # 18
    frequency:  112.4779832848

- q-position: [    0.1262626,    0.0000000,    0.0000000 ]
  distance:    0.0458946
  band:
  - # 1
    frequency:    1.2026660641
  - # 2
    frequency:    2.2235734087
  - # 3
    frequency:    3.3867425167
  - # 4
    frequency:    5.0030109034
  - # 5
    frequency:    5.6753263307
  - # 6
    frequency:    6.6566464398
  - # 7
    frequency:    7.2584135363
  - # 8
    frequency:    8.1542074993
  - # 9
    frequency:    8.1571462757
  - # 10
    frequency:    8.4291226624
  - # 11
    frequency:   11.3751873426
  - # 12
    frequency:   12.8537074427
  - # 13
    frequency:   13.6016822287
  - # 14
    frequency:   15.5533544288
  - # 15
    frequency:   17.6986645918
  - # 16
    frequency:   18.7624171517
  - # 17
    frequency:   19.0427537351
  - # 18
    frequency:  112.4689597590

- q-position: [    0.1313131,    0.0000000,    0.0000000 ]
  distance:    0.0477304
  band:
  - # 1
    frequency:    1.2897386243
  - # 2
    frequency:    2.3076007903
  - # 3
    frequency:    3.5162409040
  - # 4
    frequency:    5.0259511909
  - # 5
    frequency:    5.7367662931
  - # 6
    frequency:    6.6436682432
  - # 7
    frequency:    7.2556466368
  - # 8
    frequency:    8.1625332819
  - # 9
    frequency:    8.1822519687
  - # 10
    frequency:    8.4558985222
  - # 11
    frequency:   11.3484057533
  - # 12
    frequency:   12.8280934843
  - # 13
    frequency:   13.6173088998
  - # 14
    frequency:   15.6231802123
  - # 15
    frequency:   17.6889294384
  - # 16
    frequency:   18.7708011338
  - # 17
    frequency:   19.0636536457
  - # 18
    frequency:  112.4596555808

- q-position: [    0.1363636,    0.0000000,    0.0000000 ]
  distance:    0.0495662
  band:
  - # 1
    frequency:    1.3779675218
  - # 2
    frequency:    2.3910412228
  - # 3
    frequency:    3.6447106574
  - # 4
    frequency:    5.0492080925
  - # 5
    frequency:    5.7983474592
  - # 6
    frequency:    6.6318098582
  - # 7
    frequency:    7.2527231839
  - # 8
    frequency:    8.1677403759
  - # 9
    frequency:    8.2098601850
  - # 10
    frequency:    8.4827871066
  - # 11
    frequency:   11.3212201648
  - # 12
    frequency:   12.8025489102
  - # 13
    frequency:   13.6332257615
  - # 14
    frequency:   15.6934889816
  - # 15
    frequency:   17.6789298914
  - # 16
    frequency:   18.7788605567
  - # 17
    frequency:   19.0833402585
  - # 18
    frequency:  112.4500903639

- q-position: [    0.1414141,    0.0000000,    0.0000000 ]
  distance:    0.0514020
  band:
  - # 1
    frequency:    1.4672427236
  - # 2
    frequency:    2.4738694742
  - # 3
    frequency:    3.7720474013
  - # 4
    frequency:    5.0727415872
  - # 5
    frequency:    5.8599494851
  - # 6
    frequency:    6.6210951984
  - # 7
    frequency:    7.2496525511
  - # 8
    frequency:    8.1727332686
  - # 9
    frequency:    8.2370617253
  - # 10
    frequency:    8.5096684191
  - # 11
    frequency:   11.2936614331
  - # 12
    frequency:   12.7770671364
  - # 13
    frequency:   13.6494037294
  - # 14
    frequency:   15.7642120728
  - # 15
    frequency:   17.6686771748
  - # 16
    frequency:   18.7865603225
  - # 17
    frequency:   19.1016809508
  - # 18
    frequency:  112.4402856954

- q-position: [    0.1464646,    0.0000000,    0.0000000 ]
  distance:    0.0532377
  band:
  - # 1
    frequency:    1.5574582992
  - # 2
    frequency:    2.5560598914
  - # 3
    frequency:    3.8981385989
  - # 4
    frequency:    5.0965135268
  - # 5
    frequency:    5.9214554106
  - # 6
    frequency:    6.6115535906
  - # 7
    frequency:    7.2464454015
  - # 8
    frequency:    8.1774787502
  - # 9
    frequency:    8.2638784242
  - # 10
    frequency:    8.5364306093
  - # 11
    frequency:   11.2657611198
  - # 12
    frequency:   12.7516387839
  - # 13
    frequency:   13.6658139137
  - # 14
    frequency:   15.8352836455
  - # 15
    frequency:   17.6581823281
  - # 16
    frequency:   18.7938700087
  - # 17
    frequency:   19.1185538079
  - # 18
    frequency:  112.4302651398

- q-position: [    0.1515152,    0.0000000,    0.0000000 ]
  distance:    0.0550735
  band:
  - # 1
    frequency:    1.6485122547
  - # 2
    frequency:    2.6375863993
  - # 3
    frequency:    4.0228629554
  - # 4
    frequency:    5.1204877001
  - # 5
    frequency:    5.9827499178
  - # 6
    frequency:    6.6032218425
  - # 7
    frequency:    7.2431135514
  - # 8
    frequency:    8.1819449251
  - # 9
    frequency:    8.2903239109
  - # 10
    frequency:    8.5629707012
  - # 11
    frequency:   11.2375519318
  - # 12
    frequency:   12.7262519508
  - # 13
    frequency:   13.6824277127
  - # 14
    frequency:   15.9066400294
  - # 15
    frequency:   17.6474562748
  - # 16
    frequency:   18.8007641474
  - # 17
    frequency:   19.1338484674
  - # 18
    frequency:  112.4200542239

- q-position: [    0.1565657,    0.0000000,    0.0000000 ]
  distance:    0.0569093
  band:
  - # 1
    frequency:    1.7403063413
  - # 2
    frequency:    2.7184225063
  - # 3
    frequency:    4.1460897324
  - # 4
    frequency:    5.1446298750
  - # 5
    frequency:    6.0437167358
  - # 6
    frequency:    6.5961473105
  - # 7
    frequency:    7.2396698311
  - # 8
    frequency:    8.1861014326
  - # 9
    frequency:    8.3164037223
  - # 10
    frequency:    8.5891947582
  - # 11
    frequency:   11.2090680623
  - # 12
    frequency:   12.7008925214
  - # 13
    frequency:   13.6992169032
  - # 14
    frequency:   15.9782190891
  - # 15
    frequency:   17.6365099303
  - # 16
    frequency:   18.8072224564
  - # 17
    frequency:   19.1474668722
  - # 18
    frequency:  112.4096804030

- q-position: [    0.1616162,    0.0000000,    0.0000000 ]
  distance:    0.0587451
  band:
  - # 1
    frequency:    1.8327458588
  - # 2
    frequency:    2.7985413172
  - # 3
    frequency:    4.2676779548
  - # 4
    frequency:    5.1689078188
  - # 5
    frequency:    6.1042344842
  - # 6
    frequency:    6.5903927037
  - # 7
    frequency:    7.2361279458
  - # 8
    frequency:    8.1899196510
  - # 9
    frequency:    8.3421158461
  - # 10
    frequency:    8.6150176256
  - # 11
    frequency:   11.1803454236
  - # 12
    frequency:   12.6755445214
  - # 13
    frequency:   13.7161537278
  - # 14
    frequency:   16.0499595942
  - # 15
    frequency:   17.6253543575
  - # 16
    frequency:   18.8132300195
  - # 17
    frequency:   19.1593239289
  - # 18
    frequency:  112.3991730067

- q-position: [    0.1666667,    0.0000000,    0.0000000 ]
  distance:    0.0605809
  band:
  - # 1
    frequency:    1.9257394649
  - # 2
    frequency:    2.8779155551
  - # 3
    frequency:    4.3874754881
  - # 4
    frequency:    5.1932912985
  - # 5
    frequency:    6.1641695236
  - # 6
    frequency:    6.5860440786
  - # 7
    frequency:    7.2325023382
  - # 8
    frequency:    8.1933728835
  - # 9
    frequency:    8.3674515633
  - # 10
    frequency:    8.6403623902
  - # 11
    frequency:   11.1514217646
  - # 12
    frequency:   12.6501905233
  - # 13
    frequency:   13.7332109787
  - # 14
    frequency:   16.1218005795
  - # 15
    frequency:   17.6140009813
  - # 16
    frequency:   18.8187774153
  - # 17
    frequency:   19.1693480686
  - # 18
    frequency:  112.3885631646

- q-position: [    0.1717172,    0.0000000,    0.0000000 ]
  distance:    0.0624167
  band:
  - # 1
    frequency:    2.0191990007
  - # 2
    frequency:    2.9565175891
  - # 3
    frequency:    4.5053179699
  - # 4
    frequency:    5.2177520622
  - # 5
    frequency:    6.2233627656
  - # 6
    frequency:    6.5832250952
  - # 7
    frequency:    7.2288080568
  - # 8
    frequency:    8.1964365244
  - # 9
    frequency:    8.3923964763
  - # 10
    frequency:    8.6651596684
  - # 11
    frequency:   11.1223366689
  - # 12
    frequency:   12.6248121030
  - # 13
    frequency:   13.7503620777
  - # 14
    frequency:   16.1936806768
  - # 15
    frequency:   17.6024618806
  - # 16
    frequency:   18.8238607911
  - # 17
    frequency:   19.1774817074
  - # 18
    frequency:  112.3778837121

- q-position: [    0.1767677,    0.0000000,    0.0000000 ]
  distance:    0.0642524
  band:
  - # 1
    frequency:    2.1130393351
  - # 2
    frequency:    3.0343194722
  - # 3
    frequency:    4.6210275785
  - # 4
    frequency:    5.2422638023
  - # 5
    frequency:    6.2816035143
  - # 6
    frequency:    6.5821244772
  - # 7
    frequency:    7.2250606298
  - # 8
    frequency:    8.1990882045
  - # 9
    frequency:    8.4169316360
  - # 10
    frequency:    8.6893468146
  - # 11
    frequency:   11.0931314356
  - # 12
    frequency:   12.5993903400
  - # 13
    frequency:   13.7675811514
  - # 14