nqpoint: 300    
npath: 3      
segment_nqpoint:
- 100
- 100
- 100
labels:
- [ 'G', 'M' ]
- [ 'M', 'K' ]
- [ 'K', 'G' ]
reciprocal_lattice:
- [   0.28986365,   0.16735286,   0.00000000 ] # a*
- [   0.00000000,   0.33470572,   0.00000000 ] # b*
- [   0.00000000,   0.00000000,   0.03858213 ] # c*
natom: 7      
lattice:
- [     3.449897871845451,     0.000000000000000,     0.000000000000000 ] # a
- [    -1.724948935922726,     2.987699197479909,     0.000000000000000 ] # b
- [     0.000000000000000,     0.000000000000000,    25.918735730827496 ] # c
points:
- symbol: C # 1
  coordinates: [  0.000000000000000,  0.000000000000000,  0.431441662210844 ]
  mass: 12.010700
- symbol: C # 2
  coordinates: [  0.333332985432215,  0.666666983183674,  0.606832560576138 ]
  mass: 12.010700
- symbol: H # 3
  coordinates: [  0.666666984744047,  0.333332985985145,  0.347239159095846 ]
  mass: 1.007940
- symbol: N # 4
  coordinates: [  0.333332985432215,  0.666666983183674,  0.652760840904154 ]
  mass: 14.006700
- symbol: S # 5
  coordinates: [  0.333332985432215,  0.666666983183674,  0.542377216013139 ]
  mass: 32.065000
- symbol: Sc # 6
  coordinates: [  0.333332985432215,  0.666666983183674,  0.384053398885299 ]
  mass: 44.955912
- symbol: Sc # 7
  coordinates: [  0.666666984744047,  0.333332985985145,  0.478594386596439 ]
  mass: 44.955912

phonon:
- q-position: [    0.0000000,    0.0000000,    0.0000000 ]
  distance:    0.0000000
  band:
  - # 1
    frequency:   -0.3615933287
  - # 2
    frequency:   -0.3615933287
  - # 3
    frequency:   -0.0000022003
  - # 4
    frequency:   -0.0000002856
  - # 5
    frequency:    0.0000020697
  - # 6
    frequency:    4.1251628848
  - # 7
    frequency:    4.1251628848
  - # 8
    frequency:    6.1071610802
  - # 9
    frequency:    6.5600556450
  - # 10
    frequency:    6.5600556450
  - # 11
    frequency:   10.2316414176
  - # 12
    frequency:   10.2316414176
  - # 13
    frequency:   10.6727600050
  - # 14
    frequency:   10.6727600050
  - # 15
    frequency:   10.9030982497
  - # 16
    frequency:   17.5981195548
  - # 17
    frequency:   21.2452921023
  - # 18
    frequency:   23.3530010831
  - # 19
    frequency:   23.3530010831
  - # 20
    frequency:   25.8593236203
  - # 21
    frequency:   65.1664515930

- q-position: [    0.0050505,    0.0000000,    0.0000000 ]
  distance:    0.0016904
  band:
  - # 1
    frequency:   -0.3656878780
  - # 2
    frequency:   -0.3582148722
  - # 3
    frequency:    0.0021953676
  - # 4
    frequency:    0.0975265115
  - # 5
    frequency:    0.1471547920
  - # 6
    frequency:    4.1254237128
  - # 7
    frequency:    4.1270382290
  - # 8
    frequency:    6.1045967033
  - # 9
    frequency:    6.5601193372
  - # 10
    frequency:    6.5631482861
  - # 11
    frequency:   10.2313137080
  - # 12
    frequency:   10.2363477273
  - # 13
    frequency:   10.6727917800
  - # 14
    frequency:   10.6751564901
  - # 15
    frequency:   10.9028926016
  - # 16
    frequency:   17.5956178088
  - # 17
    frequency:   21.2452202474
  - # 18
    frequency:   23.3529186246
  - # 19
    frequency:   23.3547353987
  - # 20
    frequency:   25.8585620684
  - # 21
    frequency:   65.1663563329

- q-position: [    0.0101010,    0.0000000,    0.0000000 ]
  distance:    0.0033809
  band:
  - # 1
    frequency:   -0.3746975372
  - # 2
    frequency:   -0.3451414510
  - # 3
    frequency:    0.0088119984
  - # 4
    frequency:    0.1891250005
  - # 5
    frequency:    0.2909727562
  - # 6
    frequency:    4.1262061632
  - # 7
    frequency:    4.1326501428
  - # 8
    frequency:    6.0971069744
  - # 9
    frequency:    6.5603100457
  - # 10
    frequency:    6.5722194517
  - # 11
    frequency:   10.2303309631
  - # 12
    frequency:   10.2501028404
  - # 13
    frequency:   10.6728880479
  - # 14
    frequency:   10.6825636393
  - # 15
    frequency:   10.9023585821
  - # 16
    frequency:   17.5881221272
  - # 17
    frequency:   21.2450048723
  - # 18
    frequency:   23.3526715118
  - # 19
    frequency:   23.3599302939
  - # 20
    frequency:   25.8562809331
  - # 21
    frequency:   65.1660707030

- q-position: [    0.0151515,    0.0000000,    0.0000000 ]
  distance:    0.0050713
  band:
  - # 1
    frequency:   -0.3835965817
  - # 2
    frequency:   -0.3177570881
  - # 3
    frequency:    0.0199872398
  - # 4
    frequency:    0.2740661283
  - # 5
    frequency:    0.4320535836
  - # 6
    frequency:    4.1275101322
  - # 7
    frequency:    4.1419566870
  - # 8
    frequency:    6.0852357778
  - # 9
    frequency:    6.5606266632
  - # 10
    frequency:    6.5867155659
  - # 11
    frequency:   10.2286943636
  - # 12
    frequency:   10.2717929038
  - # 13
    frequency:   10.6730516061
  - # 14
    frequency:   10.6956116359
  - # 15
    frequency:   10.9017916157
  - # 16
    frequency:   17.5756610293
  - # 17
    frequency:   21.2446465428
  - # 18
    frequency:   23.3522605316
  - # 19
    frequency:   23.3685616748
  - # 20
    frequency:   25.8524908182
  - # 21
    frequency:   65.1655951541

- q-position: [    0.0202020,    0.0000000,    0.0000000 ]
  distance:    0.0067617
  band:
  - # 1
    frequency:   -0.3896964640
  - # 2
    frequency:   -0.2709993329
  - # 3
    frequency:    0.0362411180
  - # 4
    frequency:    0.3540668129
  - # 5
    frequency:    0.5717749179
  - # 6
    frequency:    4.1293354373
  - # 7
    frequency:    4.1548893261
  - # 8
    frequency:    6.0697134833
  - # 9
    frequency:    6.5610673350
  - # 10
    frequency:    6.6058913193
  - # 11
    frequency:   10.2264059736
  - # 12
    frequency:   10.2995185242
  - # 13
    frequency:   10.6732870124
  - # 14
    frequency:   10.7151912796
  - # 15
    frequency:   10.9018909927
  - # 16
    frequency:   17.5582815539
  - # 17
    frequency:   21.2441461887
  - # 18
    frequency:   23.3516869928
  - # 19
    frequency:   23.3805895812
  - # 20
    frequency:   25.8472095382
  - # 21
    frequency:   65.1649304360

- q-position: [    0.0252525,    0.0000000,    0.0000000 ]
  distance:    0.0084522
  band:
  - # 1
    frequency:   -0.3920652447
  - # 2
    frequency:   -0.1929415245
  - # 3
    frequency:    0.0603726239
  - # 4
    frequency:    0.4307990779
  - # 5
    frequency:    0.7108538291
  - # 6
    frequency:    4.1316818028
  - # 7
    frequency:    4.1713548681
  - # 8
    frequency:    6.0513026138
  - # 9
    frequency:    6.5616294449
  - # 10
    frequency:    6.6289656686
  - # 11
    frequency:   10.2234688793
  - # 12
    frequency:   10.3306551137
  - # 13
    frequency:   10.6736004342
  - # 14
    frequency:   10.7418280386
  - # 15
    frequency:   10.9043319469
  - # 16
    frequency:   17.5360485452
  - # 17
    frequency:   21.2435050855
  - # 18
    frequency:   23.3509527212
  - # 19
    frequency:   23.3959584505
  - # 20
    frequency:   25.8404623373
  - # 21
    frequency:   65.1640775961

- q-position: [    0.0303030,    0.0000000,    0.0000000 ]
  distance:    0.0101426
  band:
  - # 1
    frequency:   -0.3904915156
  - # 2
    frequency:   -0.0412963336
  - # 3
    frequency:    0.1299606010
  - # 4
    frequency:    0.5054113108
  - # 5
    frequency:    0.8495368869
  - # 6
    frequency:    4.1345488411
  - # 7
    frequency:    4.1912379871
  - # 8
    frequency:    6.0306980656
  - # 9
    frequency:    6.5623095976
  - # 10
    frequency:    6.6552236804
  - # 11
    frequency:   10.2198873715
  - # 12
    frequency:   10.3621841877
  - # 13
    frequency:   10.6739994477
  - # 14
    frequency:   10.7736972965
  - # 15
    frequency:   10.9134278144
  - # 16
    frequency:   17.5090436986
  - # 17
    frequency:   21.2427248299
  - # 18
    frequency:   23.3500600533
  - # 19
    frequency:   23.4145974273
  - # 20
    frequency:   25.8322822076
  - # 21
    frequency:   65.1630379767

- q-position: [    0.0353535,    0.0000000,    0.0000000 ]
  distance:    0.0118330
  band:
  - # 1
    frequency:   -0.3849823669
  - # 2
    frequency:    0.0855391207
  - # 3
    frequency:    0.2590058303
  - # 4
    frequency:    0.5786279221
  - # 5
    frequency:    0.9878613199
  - # 6
    frequency:    4.1379360285
  - # 7
    frequency:    4.2144041614
  - # 8
    frequency:    6.0084862019
  - # 9
    frequency:    6.5631035961
  - # 10
    frequency:    6.6840596847
  - # 11
    frequency:   10.2156671634
  - # 12
    frequency:   10.3913653782
  - # 13
    frequency:   10.6744927971
  - # 14
    frequency:   10.8029173383
  - # 15
    frequency:   10.9391756244
  - # 16
    frequency:   17.4773644114
  - # 17
    frequency:   21.2418073117
  - # 18
    frequency:   23.3490118287
  - # 19
    frequency:   23.4364206655
  - # 20
    frequency:   25.8227103208
  - # 21
    frequency:   65.1618132116

- q-position: [    0.0404040,    0.0000000,    0.0000000 ]
  distance:    0.0135235
  band:
  - # 1
    frequency:   -0.3755580564
  - # 2
    frequency:    0.1203673491
  - # 3
    frequency:    0.3604356694
  - # 4
    frequency:    0.6508933379
  - # 5
    frequency:    1.1257821865
  - # 6
    frequency:    4.1418426774
  - # 7
    frequency:    4.2407028488
  - # 8
    frequency:    5.9851424437
  - # 9
    frequency:    6.5640064181
  - # 10
    frequency:    6.7149819192
  - # 11
    frequency:   10.2108156286
  - # 12
    frequency:   10.4164408006
  - # 13
    frequency:   10.6750901243
  - # 14
    frequency:   10.8192553595
  - # 15
    frequency:   10.9928577847
  - # 16
    frequency:   17.4411224859
  - # 17
    frequency:   21.2407546832
  - # 18
    frequency:   23.3478113795
  - # 19
    frequency:   23.4613275571
  - # 20
    frequency:   25.8117965895
  - # 21
    frequency:   65.1604052221

- q-position: [    0.0454545,    0.0000000,    0.0000000 ]
  distance:    0.0152139
  band:
  - # 1
    frequency:   -0.3621596618
  - # 2
    frequency:    0.1551919543
  - # 3
    frequency:    0.4488982951
  - # 4
    frequency:    0.7224747021
  - # 5
    frequency:    1.2632239093
  - # 6
    frequency:    4.1462679052
  - # 7
    frequency:    4.2699707248
  - # 8
    frequency:    5.9610465611
  - # 9
    frequency:    6.5650121899
  - # 10
    frequency:    6.7475992940
  - # 11
    frequency:   10.2053420496
  - # 12
    frequency:   10.4368542243
  - # 13
    frequency:   10.6758016839
  - # 14
    frequency:   10.8234148729
  - # 15
    frequency:   11.0735485780
  - # 16
    frequency:   17.4004427370
  - # 17
    frequency:   21.2395693270
  - # 18
    frequency:   23.3464625192
  - # 19
    frequency:   23.4892028161
  - # 20
    frequency:   25.7996003822
  - # 21
    frequency:   65.1588162128

- q-position: [    0.0505051,    0.0000000,    0.0000000 ]
  distance:    0.0169043
  band:
  - # 1
    frequency:   -0.3445877553
  - # 2
    frequency:    0.1923948345
  - # 3
    frequency:    0.5304824049
  - # 4
    frequency:    0.7935273468
  - # 5
    frequency:    1.4000998563
  - # 6
    frequency:    4.1512106014
  - # 7
    frequency:    4.3020348258
  - # 8
    frequency:    5.9365027286
  - # 9
    frequency:    6.5661141615
  - # 10
    frequency:    6.7816031134
  - # 11
    frequency:   10.1992578601
  - # 12
    frequency:   10.4529002598
  - # 13
    frequency:   10.6766380524
  - # 14
    frequency:   10.8210460820
  - # 15
    frequency:   11.1744682099
  - # 16
    frequency:   17.3554615557
  - # 17
    frequency:   21.2382538256
  - # 18
    frequency:   23.3449695287
  - # 19
    frequency:   23.5199163413
  - # 20
    frequency:   25.7861914215
  - # 21
    frequency:   65.1570486656

- q-position: [    0.0555556,    0.0000000,    0.0000000 ]
  distance:    0.0185948
  band:
  - # 1
    frequency:   -0.3224282749
  - # 2
    frequency:    0.2323532498
  - # 3
    frequency:    0.6077710174
  - # 4
    frequency:    0.8641357651
  - # 5
    frequency:    1.5363192966
  - # 6
    frequency:    4.1566693920
  - # 7
    frequency:    4.3367154672
  - # 8
    frequency:    5.9117583339
  - # 9
    frequency:    6.5673046837
  - # 10
    frequency:    6.8167497190
  - # 11
    frequency:   10.1925768711
  - # 12
    frequency:   10.4652094740
  - # 13
    frequency:   10.6776098465
  - # 14
    frequency:   10.8154148981
  - # 15
    frequency:   11.2908423592
  - # 16
    frequency:   17.3063254777
  - # 17
    frequency:   21.2368109318
  - # 18
    frequency:   23.3433371418
  - # 19
    frequency:   23.5533227800
  - # 20
    frequency:   25.7716509006
  - # 21
    frequency:   65.1551053341

- q-position: [    0.0606061,    0.0000000,    0.0000000 ]
  distance:    0.0202852
  band:
  - # 1
    frequency:   -0.2949183003
  - # 2
    frequency:    0.2750826753
  - # 3
    frequency:    0.6820845157
  - # 4
    frequency:    0.9343393969
  - # 5
    frequency:    1.6717894340
  - # 6
    frequency:    4.1626426048
  - # 7
    frequency:    4.3738288347
  - # 8
    frequency:    5.8870195603
  - # 9
    frequency:    6.5685751892
  - # 10
    frequency:    6.8528460482
  - # 11
    frequency:   10.1853154664
  - # 12
    frequency:   10.4744000773
  - # 13
    frequency:   10.6787274601
  - # 14
    frequency:   10.8080368599
  - # 15
    frequency:   11.4196299061
  - # 16
    frequency:   17.2531897991
  - # 17
    frequency:   21.2352435422
  - # 18
    frequency:   23.3415705278
  - # 19
    frequency:   23.5892607132
  - # 20
    frequency:   25.7560728650
  - # 21
    frequency:   65.1529892367

- q-position: [    0.0656566,    0.0000000,    0.0000000 ]
  distance:    0.0219756
  band:
  - # 1
    frequency:   -0.2606462611
  - # 2
    frequency:    0.3204920531
  - # 3
    frequency:    0.7541805591
  - # 4
    frequency:    1.0041490382
  - # 5
    frequency:    1.8064155188
  - # 6
    frequency:    4.1691282345
  - # 7
    frequency:    4.4131891784
  - # 8
    frequency:    5.8624636165
  - # 9
    frequency:    6.5699161795
  - # 10
    frequency:    6.8897382939
  - # 11
    frequency:   10.1774927599
  - # 12
    frequency:   10.4809337167
  - # 13
    frequency:   10.6800008273
  - # 14
    frequency:   10.7997199306
  - # 15
    frequency:   11.5586369752
  - # 16
    frequency:   17.1962172787
  - # 17
    frequency:   21.2335546738
  - # 18
    frequency:   23.3396752733
  - # 19
    frequency:   23.6275513831
  - # 20
    frequency:   25.7395659109
  - # 21
    frequency:   65.1507036498

- q-position: [    0.0707071,    0.0000000,    0.0000000 ]
  distance:    0.0236661
  band:
  - # 1
    frequency:   -0.2167285920
  - # 2
    frequency:    0.3684507994
  - # 3
    frequency:    0.8245282890
  - # 4
    frequency:    1.0735573997
  - # 5
    frequency:    1.9401002092
  - # 6
    frequency:    4.1761239089
  - # 7
    frequency:    4.4546105628
  - # 8
    frequency:    5.8382481549
  - # 9
    frequency:    6.5713172209
  - # 10
    frequency:    6.9273032135
  - # 11
    frequency:   10.1691307057
  - # 12
    frequency:   10.4850899094
  - # 13
    frequency:   10.6814392203
  - # 14
    frequency:   10.7909997339
  - # 15
    frequency:   11.7061189198
  - # 16
    frequency:   17.1355769560
  - # 17
    frequency:   21.2317474442
  - # 18
    frequency:   23.3376573616
  - # 19
    frequency:   23.6679968845
  - # 20
    frequency:   25.7222552656
  - # 21
    frequency:   65.1482520995

- q-position: [    0.0757576,    0.0000000,    0.0000000 ]
  distance:    0.0253565
  band:
  - # 1
    frequency:   -0.1555700839
  - # 2
    frequency:    0.4188124113
  - # 3
    frequency:    0.8934339826
  - # 4
    frequency:    1.1425459656
  - # 5
    frequency:    2.0727426339
  - # 6
    frequency:    4.1836268587
  - # 7
    frequency:    4.4979081434
  - # 8
    frequency:    5.8145185692
  - # 9
    frequency:    6.5727669499
  - # 10
    frequency:    6.9654415085
  - # 11
    frequency:   10.1602541560
  - # 12
    frequency:   10.4869881967
  - # 13
    frequency:   10.6830510833
  - # 14
    frequency:   10.7823064260
  - # 15
    frequency:   11.8606017737
  - # 16
    frequency:   17.0714431134
  - # 17
    frequency:   21.2298250546
  - # 18
    frequency:   23.3355231515
  - # 19
    frequency:   23.7103777441
  - # 20
    frequency:   25.7042853205
  - # 21
    frequency:   65.1456383532

- q-position: [    0.0808081,    0.0000000,    0.0000000 ]
  distance:    0.0270469
  band:
  - # 1
    frequency:    0.0161313121
  - # 2
    frequency:    0.4714246128
  - # 3
    frequency:    0.9611053690
  - # 4
    frequency:    1.2110894818
  - # 5
    frequency:    2.2042373202
  - # 6
    frequency:    4.1916338894
  - # 7
    frequency:    4.5428989531
  - # 8
    frequency:    5.7914138047
  - # 9
    frequency:    6.5742530918
  - # 10
    frequency:    7.0040727642
  - # 11
    frequency:   10.1508908648
  - # 12
    frequency:   10.4866253485
  - # 13
    frequency:   10.6848439066
  - # 14
    frequency:   10.7740274425
  - # 15
    frequency:   12.0207914836
  - # 16
    frequency:   17.0039944003
  - # 17
    frequency:   21.2277907771
  - # 18
    frequency:   23.3332793536
  - # 19
    frequency:   23.7544498145
  - # 20
    frequency:   25.6858226913
  - # 21
    frequency:   65.1428664109

- q-position: [    0.0858586,    0.0000000,    0.0000000 ]
  distance:    0.0287374
  band:
  - # 1
    frequency:    0.1622123612
  - # 2
    frequency:    0.5261343742
  - # 3
    frequency:    1.0276873665
  - # 4
    frequency:    1.2791589103
  - # 5
    frequency:    2.3344730375
  - # 6
    frequency:    4.2001413584
  - # 7
    frequency:    4.5894021765
  - # 8
    frequency:    5.7690712115
  - # 9
    frequency:    6.5757624932
  - # 10
    frequency:    7.0431315457
  - # 11
    frequency:   10.1410714360
  - # 12
    frequency:   10.4839178004
  - # 13
    frequency:   10.6868241382
  - # 14
    frequency:   10.7665232905
  - # 15
    frequency:   12.1855235134
  - # 16
    frequency:   16.9334131434
  - # 17
    frequency:   21.2256479438
  - # 18
    frequency:   23.3309330058
  - # 19
    frequency:   23.7999404266
  - # 20
    frequency:   25.6670598785
  - # 21
    frequency:   65.1399404955

- q-position: [    0.0909091,    0.0000000,    0.0000000 ]
  distance:    0.0304278
  band:
  - # 1
    frequency:    0.2320780550
  - # 2
    frequency:    0.5827906318
  - # 3
    frequency:    1.0932832425
  - # 4
    frequency:    1.3467233810
  - # 5
    frequency:    2.4633315562
  - # 6
    frequency:    4.2091451557
  - # 7
    frequency:    4.6372388877
  - # 8
    frequency:    5.7476308787
  - # 9
    frequency:    6.5772811723
  - # 10
    frequency:    7.0825643550
  - # 11
    frequency:   10.1308292177
  - # 12
    frequency:   10.4787472547
  - # 13
    frequency:   10.6889971313
  - # 14
    frequency:   10.7601178369
  - # 15
    frequency:   12.3537334370
  - # 16
    frequency:   16.8598848602
  - # 17
    frequency:   21.2233999387
  - # 18
    frequency:   23.3284914475
  - # 19
    frequency:   23.8465437690
  - # 20
    frequency:   25.6482195769
  - # 21
    frequency:   65.1368650431

- q-position: [    0.0959596,    0.0000000,    0.0000000 ]
  distance:    0.0321182
  band:
  - # 1
    frequency:    0.2877720588
  - # 2
    frequency:    0.6412458281
  - # 3
    frequency:    1.1579677976
  - # 4
    frequency:    1.4137514828
  - # 5
    frequency:    2.5906863027
  - # 6
    frequency:    4.2186406920
  - # 7
    frequency:    4.6862312001
  - # 8
    frequency:    5.7272398151
  - # 9
    frequency:    6.5787943861
  - # 10
    frequency:    7.1223272293
  - # 11
    frequency:   10.1202001453
  - # 12
    frequency:   10.4710063982
  - # 13
    frequency:   10.6913671241
  - # 14
    frequency:   10.7550755055
  - # 15
    frequency:   12.5244391777
  - # 16
    frequency:   16.7835980079
  - # 17
    frequency:   21.2210501922
  - # 18
    frequency:   23.3259622920
  - # 19
    frequency:   23.8939155239
  - # 20
    frequency:   25.6295596315
  - # 21
    frequency:   65.1336446921

- q-position: [    0.1010101,    0.0000000,    0.0000000 ]
  distance:    0.0338087
  band:
  - # 1
    frequency:    0.3362827734
  - # 2
    frequency:    0.7013567713
  - # 3
    frequency:    1.2217959310
  - # 4
    frequency:    1.4802121174
  - # 5
    frequency:    2.7164008821
  - # 6
    frequency:    4.2286228905
  - # 7
    frequency:    4.7362007513
  - # 8
    frequency:    5.7080563067
  - # 9
    frequency:    6.5802867183
  - # 10
    frequency:    7.1623838267
  - # 11
    frequency:   10.1092225390
  - # 12
    frequency:   10.4606376903
  - # 13
    frequency:   10.6939372464
  - # 14
    frequency:   10.7515775076
  - # 15
    frequency:   12.6967298565
  - # 16
    frequency:   16.7047440056
  - # 17
    frequency:   21.2186021765
  - # 18
    frequency:   23.3233533983
  - # 19
    frequency:   23.9416668980
  - # 20
    frequency:   25.6113785314
  - # 21
    frequency:   65.1302842731

- q-position: [    0.1060606,    0.0000000,    0.0000000 ]
  distance:    0.0354991
  band:
  - # 1
    frequency:    0.3802637618
  - # 2
    frequency:    0.7629850655
  - # 3
    frequency:    1.2848084116
  - # 4
    frequency:    1.5460750595
  - # 5
    frequency:    2.8403274385
  - # 6
    frequency:    4.2390861866
  - # 7
    frequency:    4.7869664018
  - # 8
    frequency:    5.6902547656
  - # 9
    frequency:    6.5817421879
  - # 10
    frequency:    7.2027038825
  - # 11
    frequency:   10.0979368576
  - # 12
    frequency:   10.4476565857
  - # 13
    frequency:   10.6967095483
  - # 14
    frequency:   10.7497086792
  - # 15
    frequency:   12.8697583340
  - # 16
    frequency:   16.6235175976
  - # 17
    frequency:   21.2160594024
  - # 18
    frequency:   23.3206728420
  - # 19
    frequency:   23.9893583814
  - # 20
    frequency:   25.5940211435
  - # 21
    frequency:   65.1267887969

- q-position: [    0.1111111,    0.0000000,    0.0000000 ]
  distance:    0.0371895
  band:
  - # 1
    frequency:    0.4210468520
  - # 2
    frequency:    0.8259972519
  - # 3
    frequency:    1.3470358909
  - # 4
    frequency:    1.6113113217
  - # 5
    frequency:    2.9623048244
  - # 6
    frequency:    4.2500245332
  - # 7
    frequency:    4.8383409751
  - # 8
    frequency:    5.6740313960
  - # 9
    frequency:    6.5831443795
  - # 10
    frequency:    7.2432619527
  - # 11
    frequency:   10.0863854173
  - # 12
    frequency:   10.4321545795
  - # 13
    frequency:   10.6996850457
  - # 14
    frequency:   10.7494613140
  - # 15
    frequency:   13.0427356666
  - # 16
    frequency:   16.5401176636
  - # 17
    frequency:   21.2134254174
  - # 18
    frequency:   23.3179288847
  - # 19
    frequency:   24.0364938812
  - # 20
    frequency:   25.5778840720
  - # 21
    frequency:   65.1231634438

- q-position: [    0.1161616,    0.0000000,    0.0000000 ]
  distance:    0.0388800
  band:
  - # 1
    frequency:    0.4594062450
  - # 2
    frequency:    0.8902647417
  - # 3
    frequency:    1.4085017786
  - # 4
    frequency:    1.6758933852
  - # 5
    frequency:    3.0821565587
  - # 6
    frequency:    4.2614314123
  - # 7
    frequency:    4.8901268186
  - # 8
    frequency:    5.6596110103
  - # 9
    frequency:    6.5844765956
  - # 10
    frequency:    7.2840363793
  - # 11
    frequency:   10.0746120777
  - # 12
    frequency:   10.4142850389
  - # 13
    frequency:   10.7028637776
  - # 14
    frequency:   10.7507541196
  - # 15
    frequency:   13.2149262943
  - # 16
    frequency:   16.4547486513
  - # 17
    frequency:   21.2107038038
  - # 18
    frequency:   23.3151299435
  - # 19
    frequency:   24.0825163595
  - # 20
    frequency:   25.5634195497
  - # 21
    frequency:   65.1194135509

- q-position: [    0.1212121,    0.0000000,    0.0000000 ]
  distance:    0.0405704
  band:
  - # 1
    frequency:    0.4958359016
  - # 2
    frequency:    0.9556635969
  - # 3
    frequency:    1.4692243667
  - # 4
    frequency:    1.7397953402
  - # 5
    frequency:    3.1996885702
  - # 6
    frequency:    4.2732998529
  - # 7
    frequency:    4.9421099410
  - # 8
    frequency:    5.6472553162
  - # 9
    frequency:    6.5857220304
  - # 10
    frequency:    7.3250084283
  - # 11
    frequency:   10.0626619031
  - # 12
    frequency:   10.3942403831
  - # 13
    frequency:   10.7062448702
  - # 14
    frequency:   10.7534584356
  - # 15
    frequency:   13.3856430603
  - # 16
    frequency:   16.3676229298
  - # 17
    frequency:   21.2078981780
  - # 18
    frequency:   23.3122845591
  - # 19
    frequency:   24.1268067604
  - # 20
    frequency:   25.5511361114
  - # 21
    frequency:   65.1155446007

- q-position: [    0.1262626,    0.0000000,    0.0000000 ]
  distance:    0.0422608
  band:
  - # 1
    frequency:    0.5306722257
  - # 2
    frequency:    1.0220741910
  - # 3
    frequency:    1.5292184469
  - # 4
    frequency:    1.8029929632
  - # 5
    frequency:    3.3146867535
  - # 6
    frequency:    4.2856224542
  - # 7
    frequency:    4.9940525568
  - # 8
    frequency:    5.6372728687
  - # 9
    frequency:    6.5868639643
  - # 10
    frequency:    7.3661615608
  - # 11
    frequency:   10.0505808021
  - # 12
    frequency:   10.3722294593
  - # 13
    frequency:   10.7098266046
  - # 14
    frequency:   10.7574233116
  - # 15
    frequency:   13.5542411806
  - # 16
    frequency:   16.2789645721
  - # 17
    frequency:   21.2050121892
  - # 18
    frequency:   23.3094013645
  - # 19
    frequency:   24.1686887666
  - # 20
    frequency:   25.5415935364
  - # 21
    frequency:   65.1115622083

- q-position: [    0.1313131,    0.0000000,    0.0000000 ]
  distance:    0.0439513
  band:
  - # 1
    frequency:    0.5641557778
  - # 2
    frequency:    1.0893807732
  - # 3
    frequency:    1.5884965906
  - # 4
    frequency:    1.8654637509
  - # 5
    frequency:    3.4269144178
  - # 6
    frequency:    4.2983914146
  - # 7
    frequency:    5.0456841979
  - # 8
    frequency:    5.6300304895
  - # 9
    frequency:    6.5878859775
  - # 10
    frequency:    7.4074808062
  - # 11
    frequency:   10.0384151517
  - # 12
    frequency:   10.3484604096
  - # 13
    frequency:   10.7136064851
  - # 14
    frequency:   10.7624944457
  - # 15
    frequency:   13.7201100409
  - # 16
    frequency:   16.1890154708
  - # 17
    frequency:   21.2020495194
  - # 18
    frequency:   23.3064890523
  - # 19
    frequency:   24.2074425400
  - # 20
    frequency:   25.5353889366
  - # 21
    frequency:   65.1074721091

- q-position: [    0.1363636,    0.0000000,    0.0000000 ]
  distance:    0.0456417
  band:
  - # 1
    frequency:    0.5964652953
  - # 2
    frequency:    1.1574709474
  - # 3
    frequency:    1.6470702038
  - # 4
    frequency:    1.9271869227
  - # 5
    frequency:    3.5361097980
  - # 6
    frequency:    4.3115985637
  - # 7
    frequency:    5.0966924691
  - # 8
    frequency:    5.6259649403
  - # 9
    frequency:    6.5887721803
  - # 10
    frequency:    7.4489522109
  - # 11
    frequency:   10.0262114112
  - # 12
    frequency:   10.3231303276
  - # 13
    frequency:   10.7175813041
  - # 14
    frequency:   10.7685258832
  - # 15
    frequency:   13.8826610284
  - # 16
    frequency:   16.0980454416
  - # 17
    frequency:   21.1990138816
  - # 18
    frequency:   23.3035563432
  - # 19
    frequency:   24.2423305502
  - # 20
    frequency:   25.5331309047
  - # 21
    frequency:   65.1032801460

- q-position: [    0.1414141,    0.0000000,    0.0000000 ]
  distance:    0.0473321
  band:
  - # 1
    frequency:    0.6277377786
  - # 2
    frequency:    1.2262350710
  - # 3
    frequency:    1.7049504436
  - # 4
    frequency:    1.9881434007
  - # 5
    frequency:    3.6419839311
  - # 6
    frequency:    4.3252353992
  - # 7
    frequency:    5.1467166056
  - # 8
    frequency:    5.6255914130
  - # 9
    frequency:    6.5895074572
  - # 10
    frequency:    7.4905623411
  - # 11
    frequency:   10.0140157291
  - # 12
    frequency:   10.2964205781
  - # 13
    frequency:   10.7217472037
  - # 14
    frequency:   10.7753857355
  - # 15
    frequency:   14.0413081504
  - # 16
    frequency:   16.0063694872
  - # 17
    frequency:   21.1959090204
  - # 18
    frequency:   23.3006119536
  - # 19
    frequency:   24.2726371520
  - # 20
    frequency:   25.5354000829
  - # 21
    frequency:   65.0989922567

- q-position: [    0.1464646,    0.0000000,    0.0000000 ]
  distance:    0.0490226
  band:
  - # 1
    frequency:    0.6580809996
  - # 2
    frequency:    1.2955655689
  - # 3
    frequency:    1.7621490621
  - # 4
    frequency:    2.0483157736
  - # 5
    frequency:    3.7442194005
  - # 6
    frequency:    4.3392931252
  - # 7
    frequency:    5.1953509633
  - # 8
    frequency:    5.6295012207
  - # 9
    frequency:    6.5900777205
  - # 10
    frequency:    7.5322978214
  - # 11
    frequency:   10.0018735504
  - # 12
    frequency:   10.2684959113
  - # 13
    frequency:   10.7260997314
  - # 14
    frequency:   10.7829578822
  - # 15
    frequency:   14.1954349972
  - # 16
    frequency:   15.9143786215
  - # 17
    frequency:   21.1927387103
  - # 18
    frequency:   23.2976645638
  - # 19
    frequency:   24.2977201375
  - # 20
    frequency:   25.5426979326
  - # 21
    frequency:   65.0946144608

- q-position: [    0.1515152,    0.0000000,    0.0000000 ]
  distance:    0.0507130
  band:
  - # 1
    frequency:    0.6875816318
  - # 2
    frequency:    1.3653561535
  - # 3
    frequency:    1.8186792331
  - # 4
    frequency:    2.1076882479
  - # 5
    frequency:    3.8424707213
  - # 6
    frequency:    4.3537626922
  - # 7
    frequency:    5.2421713428
  - # 8
    frequency:    5.6383350344
  - # 9
    frequency:    6.5904701705
  - # 10
    frequency:    7.5741448927
  - # 11
    frequency:    9.9898292270
  - # 12
    frequency:   10.2395057044
  - # 13
    frequency:   10.7306338900
  - # 14
    frequency:   10.7911413896
  - # 15
    frequency:   14.3443343275
  - # 16
    frequency:   15.8225979566
  - # 17
    frequency:   21.1895067555
  - # 18
    frequency:   23.2947227873
  - # 19
    frequency:   24.3170673905
  - # 20
    frequency:   25.5553905854
  - # 21
    frequency:   65.0901528468
