nqpoint: 300    
npath: 3      
segment_nqpoint:
- 100
- 100
- 100
labels:
- [ 'G', 'M' ]
- [ 'M', 'K' ]
- [ 'K', 'G' ]
reciprocal_lattice:
- [   0.26268519,   0.15166137,   0.00000000 ] # a*
- [   0.00000000,   0.30332273,   0.00000000 ] # b*
- [   0.00000000,   0.00000000,   0.03681176 ] # c*
natom: 7      
lattice:
- [     3.806838097646569,     0.000000000000000,     0.000000000000000 ] # a
- [    -1.903419048823284,     3.296818500757948,     0.000000000000000 ] # b
- [     0.000000000000000,     0.000000000000000,    27.165232400692155 ] # c
points:
- symbol: Br # 1
  coordinates: [  0.666666984744047,  0.333332985985144,  0.331305834871881 ]
  mass: 79.904000
- symbol: C # 2
  coordinates: [  0.000000000000000,  0.000000000000000,  0.450912381651623 ]
  mass: 12.010700
- symbol: C # 3
  coordinates: [  0.333332985432215,  0.666666983183674,  0.624880989769660 ]
  mass: 12.010700
- symbol: N # 4
  coordinates: [  0.333332985432215,  0.666666983183674,  0.668694165128119 ]
  mass: 14.006700
- symbol: S # 5
  coordinates: [  0.333332985432215,  0.666666983183674,  0.563211069187774 ]
  mass: 32.065000
- symbol: Y # 6
  coordinates: [  0.333332985432215,  0.666666983183674,  0.401814226329310 ]
  mass: 88.905850
- symbol: Y # 7
  coordinates: [  0.666666984744047,  0.333332985985144,  0.499819027010240 ]
  mass: 88.905850

phonon:
- q-position: [    0.0000000,    0.0000000,    0.0000000 ]
  distance:    0.0000000
  band:
  - # 1
    frequency:   -0.4063741711
  - # 2
    frequency:   -0.4063741704
  - # 3
    frequency:   -0.0000380044
  - # 4
    frequency:    0.0000003334
  - # 5
    frequency:    0.0000353885
  - # 6
    frequency:    2.3594247494
  - # 7
    frequency:    2.3594247497
  - # 8
    frequency:    3.5063512684
  - # 9
    frequency:    3.5063512686
  - # 10
    frequency:    3.6741281436
  - # 11
    frequency:    4.7228012778
  - # 12
    frequency:    4.7228012780
  - # 13
    frequency:    6.0470776626
  - # 14
    frequency:    7.7867991179
  - # 15
    frequency:    7.7867991186
  - # 16
    frequency:    7.8889265563
  - # 17
    frequency:   10.4960728809
  - # 18
    frequency:   10.4960728812
  - # 19
    frequency:   14.8510786717
  - # 20
    frequency:   21.0229538345
  - # 21
    frequency:   65.1924735894

- q-position: [    0.0050505,    0.0000000,    0.0000000 ]
  distance:    0.0015319
  band:
  - # 1
    frequency:   -0.4072522290
  - # 2
    frequency:   -0.4044925157
  - # 3
    frequency:    0.0013110065
  - # 4
    frequency:    0.0504819273
  - # 5
    frequency:    0.0857391169
  - # 6
    frequency:    2.3594966513
  - # 7
    frequency:    2.3607212205
  - # 8
    frequency:    3.5055451521
  - # 9
    frequency:    3.5063973775
  - # 10
    frequency:    3.6762846354
  - # 11
    frequency:    4.7228653925
  - # 12
    frequency:    4.7235163608
  - # 13
    frequency:    6.0470352469
  - # 14
    frequency:    7.7852185884
  - # 15
    frequency:    7.7865868718
  - # 16
    frequency:    7.8963062174
  - # 17
    frequency:   10.4961259833
  - # 18
    frequency:   10.4962552655
  - # 19
    frequency:   14.8497923857
  - # 20
    frequency:   21.0229099488
  - # 21
    frequency:   65.1924155129

- q-position: [    0.0101010,    0.0000000,    0.0000000 ]
  distance:    0.0030639
  band:
  - # 1
    frequency:   -0.4097129070
  - # 2
    frequency:   -0.3986961352
  - # 3
    frequency:    0.0053249186
  - # 4
    frequency:    0.1002889141
  - # 5
    frequency:    0.1711802825
  - # 6
    frequency:    2.3597124283
  - # 7
    frequency:    2.3645968450
  - # 8
    frequency:    3.5032139622
  - # 9
    frequency:    3.5065355855
  - # 10
    frequency:    3.6826190133
  - # 11
    frequency:    4.7230569417
  - # 12
    frequency:    4.7256582776
  - # 13
    frequency:    6.0469083496
  - # 14
    frequency:    7.7811481061
  - # 15
    frequency:    7.7859512013
  - # 16
    frequency:    7.9177423597
  - # 17
    frequency:   10.4962851976
  - # 18
    frequency:   10.4968024725
  - # 19
    frequency:   14.8459355328
  - # 20
    frequency:   21.0227783666
  - # 21
    frequency:   65.1922413694

- q-position: [    0.0151515,    0.0000000,    0.0000000 ]
  distance:    0.0045958
  band:
  - # 1
    frequency:   -0.4133242548
  - # 2
    frequency:   -0.3885945315
  - # 3
    frequency:    0.0119909715
  - # 4
    frequency:    0.1489489352
  - # 5
    frequency:    0.2561552825
  - # 6
    frequency:    2.3600722942
  - # 7
    frequency:    2.3710109837
  - # 8
    frequency:    3.4995781973
  - # 9
    frequency:    3.5067655339
  - # 10
    frequency:    3.6927705978
  - # 11
    frequency:    4.7233735422
  - # 12
    frequency:    4.7292169931
  - # 13
    frequency:    6.0466980449
  - # 14
    frequency:    7.7756495696
  - # 15
    frequency:    7.7848953086
  - # 16
    frequency:    7.9520772591
  - # 17
    frequency:   10.4965502453
  - # 18
    frequency:   10.4977146944
  - # 19
    frequency:   14.8395141277
  - # 20
    frequency:   21.0225593135
  - # 21
    frequency:   65.1919514170

- q-position: [    0.0202020,    0.0000000,    0.0000000 ]
  distance:    0.0061277
  band:
  - # 1
    frequency:   -0.4175783344
  - # 2
    frequency:   -0.3736506406
  - # 3
    frequency:    0.0212784431
  - # 4
    frequency:    0.1962608482
  - # 5
    frequency:    0.3406314351
  - # 6
    frequency:    2.3605766042
  - # 7
    frequency:    2.3798982251
  - # 8
    frequency:    3.4949045209
  - # 9
    frequency:    3.5070866204
  - # 10
    frequency:    3.7062507811
  - # 11
    frequency:    4.7238112277
  - # 12
    frequency:    4.7341756615
  - # 13
    frequency:    6.0464062017
  - # 14
    frequency:    7.7692569882
  - # 15
    frequency:    7.7834245215
  - # 16
    frequency:    7.9986152710
  - # 17
    frequency:   10.4969206630
  - # 18
    frequency:   10.4989923538
  - # 19
    frequency:   14.8305381893
  - # 20
    frequency:   21.0222531644
  - # 21
    frequency:   65.1915460850

- q-position: [    0.0252525,    0.0000000,    0.0000000 ]
  distance:    0.0076597
  band:
  - # 1
    frequency:   -0.4220326243
  - # 2
    frequency:   -0.3531672435
  - # 3
    frequency:    0.0331517398
  - # 4
    frequency:    0.2422359916
  - # 5
    frequency:    0.4246396925
  - # 6
    frequency:    2.3612258522
  - # 7
    frequency:    2.3911715503
  - # 8
    frequency:    3.4894338941
  - # 9
    frequency:    3.5074979928
  - # 10
    frequency:    3.7225310226
  - # 11
    frequency:    4.7243644579
  - # 12
    frequency:    4.7405104792
  - # 13
    frequency:    6.0460355882
  - # 14
    frequency:    7.7620754008
  - # 15
    frequency:    7.7815462805
  - # 16
    frequency:    8.0570215567
  - # 17
    frequency:   10.4973958023
  - # 18
    frequency:   10.5006362698
  - # 19
    frequency:   14.8190217337
  - # 20
    frequency:   21.0218604430
  - # 21
    frequency:   65.1910259729

- q-position: [    0.0303030,    0.0000000,    0.0000000 ]
  distance:    0.0091916
  band:
  - # 1
    frequency:   -0.4263639845
  - # 2
    frequency:   -0.3261296065
  - # 3
    frequency:    0.0475838769
  - # 4
    frequency:    0.2870018544
  - # 5
    frequency:    0.5082143213
  - # 6
    frequency:    2.3620206681
  - # 7
    frequency:    2.4047262044
  - # 8
    frequency:    3.4833509953
  - # 9
    frequency:    3.5079985392
  - # 10
    frequency:    3.7410934241
  - # 11
    frequency:    4.7250261317
  - # 12
    frequency:    4.7481905451
  - # 13
    frequency:    6.0455899948
  - # 14
    frequency:    7.7540505737
  - # 15
    frequency:    7.7792701192
  - # 16
    frequency:    8.1270500393
  - # 17
    frequency:   10.4979748310
  - # 18
    frequency:   10.5026479128
  - # 19
    frequency:   14.8049827640
  - # 20
    frequency:   21.0213818201
  - # 21
    frequency:   65.1903918495

- q-position: [    0.0353535,    0.0000000,    0.0000000 ]
  distance:    0.0107235
  band:
  - # 1
    frequency:   -0.4303634760
  - # 2
    frequency:   -0.2908460518
  - # 3
    frequency:    0.0645892494
  - # 4
    frequency:    0.3307266930
  - # 5
    frequency:    0.5913683939
  - # 6
    frequency:    2.3629618137
  - # 7
    frequency:    2.4204438649
  - # 8
    frequency:    3.4767849539
  - # 9
    frequency:    3.5085868777
  - # 10
    frequency:    3.7614517600
  - # 11
    frequency:    4.7257876065
  - # 12
    frequency:    4.7571777834
  - # 13
    frequency:    6.0450743624
  - # 14
    frequency:    7.7451011856
  - # 15
    frequency:    7.7766076379
  - # 16
    frequency:    8.2084095978
  - # 17
    frequency:   10.4986567342
  - # 18
    frequency:   10.5050297810
  - # 19
    frequency:   14.7884432590
  - # 20
    frequency:   21.0208181122
  - # 21
    frequency:   65.1896446506

- q-position: [    0.0404040,    0.0000000,    0.0000000 ]
  distance:    0.0122555
  band:
  - # 1
    frequency:   -0.4339095303
  - # 2
    frequency:   -0.2440540752
  - # 3
    frequency:    0.0843261879
  - # 4
    frequency:    0.3735768277
  - # 5
    frequency:    0.6740912270
  - # 6
    frequency:    2.3640501781
  - # 7
    frequency:    2.4381967344
  - # 8
    frequency:    3.4698231693
  - # 9
    frequency:    3.5092613424
  - # 10
    frequency:    3.7831590870
  - # 11
    frequency:    4.7266387244
  - # 12
    frequency:    4.7674269872
  - # 13
    frequency:    6.0444949016
  - # 14
    frequency:    7.7351602140
  - # 15
    frequency:    7.7735724707
  - # 16
    frequency:    8.3007224147
  - # 17
    frequency:   10.4994403147
  - # 18
    frequency:   10.5077859431
  - # 19
    frequency:   14.7694291606
  - # 20
    frequency:   21.0201702792
  - # 21
    frequency:   65.1887854773

- q-position: [    0.0454545,    0.0000000,    0.0000000 ]
  distance:    0.0137874
  band:
  - # 1
    frequency:   -0.4369401697
  - # 2
    frequency:   -0.1777795609
  - # 3
    frequency:    0.1075494532
  - # 4
    frequency:    0.4156978666
  - # 5
    frequency:    0.7563532779
  - # 6
    frequency:    2.3652867720
  - # 7
    frequency:    2.4578512716
  - # 8
    frequency:    3.4625264767
  - # 9
    frequency:    3.5100199694
  - # 10
    frequency:    3.8058118432
  - # 11
    frequency:    4.7275678460
  - # 12
    frequency:    4.7788860351
  - # 13
    frequency:    6.0438591977
  - # 14
    frequency:    7.7241819278
  - # 15
    frequency:    7.7701802433
  - # 16
    frequency:    8.4035184912
  - # 17
    frequency:   10.5003241956
  - # 18
    frequency:   10.5109228259
  - # 19
    frequency:   14.7479703611
  - # 20
    frequency:   21.0194394220
  - # 21
    frequency:   65.1878155930

- q-position: [    0.0505051,    0.0000000,    0.0000000 ]
  distance:    0.0153193
  band:
  - # 1
    frequency:   -0.4394311724
  - # 2
    frequency:   -0.0485277104
  - # 3
    frequency:    0.1390456595
  - # 4
    frequency:    0.4572092883
  - # 5
    frequency:    0.8381116995
  - # 6
    frequency:    2.3666727214
  - # 7
    frequency:    2.4792713825
  - # 8
    frequency:    3.4549410710
  - # 9
    frequency:    3.5108604802
  - # 10
    frequency:    3.8290536757
  - # 11
    frequency:    4.7285618949
  - # 12
    frequency:    4.7914963161
  - # 13
    frequency:    6.0431762974
  - # 14
    frequency:    7.7121391044
  - # 15
    frequency:    7.7664485218
  - # 16
    frequency:    8.5162418080
  - # 17
    frequency:   10.5013068207
  - # 18
    frequency:   10.5144503678
  - # 19
    frequency:   14.7241006934
  - # 20
    frequency:   21.0186267795
  - # 21
    frequency:   65.1867364212

- q-position: [    0.0555556,    0.0000000,    0.0000000 ]
  distance:    0.0168513
  band:
  - # 1
    frequency:   -0.4413807535
  - # 2
    frequency:    0.1326562855
  - # 3
    frequency:    0.2028974152
  - # 4
    frequency:    0.4982052945
  - # 5
    frequency:    0.9193145787
  - # 6
    frequency:    2.3682092600
  - # 7
    frequency:    2.5023209895
  - # 8
    frequency:    3.4471064978
  - # 9
    frequency:    3.5117802656
  - # 10
    frequency:    3.8525789265
  - # 11
    frequency:    4.7296064128
  - # 12
    frequency:    4.8051933749
  - # 13
    frequency:    6.0424567795
  - # 14
    frequency:    7.6990186947
  - # 15
    frequency:    7.7623967510
  - # 16
    frequency:    8.6382596334
  - # 17
    frequency:   10.5023864572
  - # 18
    frequency:   10.5183837450
  - # 19
    frequency:   14.6978579234
  - # 20
    frequency:   21.0177337256
  - # 21
    frequency:   65.1855495416

- q-position: [    0.0606061,    0.0000000,    0.0000000 ]
  distance:    0.0183832
  band:
  - # 1
    frequency:   -0.4427994139
  - # 2
    frequency:    0.1687915603
  - # 3
    frequency:    0.2774780436
  - # 4
    frequency:    0.5387580886
  - # 5
    frequency:    0.9999037524
  - # 6
    frequency:    2.3698977215
  - # 7
    frequency:    2.5268659733
  - # 8
    frequency:    3.4390604470
  - # 9
    frequency:    3.5127763687
  - # 10
    frequency:    3.8761348603
  - # 11
    frequency:    4.7306856288
  - # 12
    frequency:    4.8199077632
  - # 13
    frequency:    6.0417128128
  - # 14
    frequency:    7.6848181405
  - # 15
    frequency:    7.7580461815
  - # 16
    frequency:    8.7688720867
  - # 17
    frequency:   10.5035611972
  - # 18
    frequency:   10.5227460197
  - # 19
    frequency:   14.6692837496
  - # 20
    frequency:   21.0167617654
  - # 21
    frequency:   65.1842566872

- q-position: [    0.0656566,    0.0000000,    0.0000000 ]
  distance:    0.0199151
  band:
  - # 1
    frequency:   -0.4437034342
  - # 2
    frequency:    0.1995604158
  - # 3
    frequency:    0.3427445716
  - # 4
    frequency:    0.5789217304
  - # 5
    frequency:    1.0798165678
  - # 6
    frequency:    2.3717395308
  - # 7
    frequency:    2.5527755335
  - # 8
    frequency:    3.4308413364
  - # 9
    frequency:    3.5138454677
  - # 10
    frequency:    3.8995219588
  - # 11
    frequency:    4.7317825428
  - # 12
    frequency:    4.8355660532
  - # 13
    frequency:    6.0409582039
  - # 14
    frequency:    7.6695426668
  - # 15
    frequency:    7.7534197830
  - # 16
    frequency:    8.9073204876
  - # 17
    frequency:   10.5048289603
  - # 18
    frequency:   10.5275723330
  - # 19
    frequency:   14.6384238122
  - # 20
    frequency:   21.0157125316
  - # 21
    frequency:   65.1828597398

- q-position: [    0.0707071,    0.0000000,    0.0000000 ]
  distance:    0.0214471
  band:
  - # 1
    frequency:   -0.4441108010
  - # 2
    frequency:    0.2305067998
  - # 3
    frequency:    0.4015287933
  - # 4
    frequency:    0.6187357778
  - # 5
    frequency:    1.1589869626
  - # 6
    frequency:    2.3737361943
  - # 7
    frequency:    2.5799230351
  - # 8
    frequency:    3.4224895093
  - # 9
    frequency:    3.5149838608
  - # 10
    frequency:    3.9225921143
  - # 11
    frequency:    4.7328790258
  - # 12
    frequency:    4.8520919529
  - # 13
    frequency:    6.0402084410
  - # 14
    frequency:    7.6532033899
  - # 15
    frequency:    7.7485421446
  - # 16
    frequency:    9.0527928768
  - # 17
    frequency:   10.5061874956
  - # 18
    frequency:   10.5329167950
  - # 19
    frequency:   14.6053277156
  - # 20
    frequency:   21.0145877801
  - # 21
    frequency:   65.1813607263

- q-position: [    0.0757576,    0.0000000,    0.0000000 ]
  distance:    0.0229790
  band:
  - # 1
    frequency:   -0.4440387130
  - # 2
    frequency:    0.2624236163
  - # 3
    frequency:    0.4560071310
  - # 4
    frequency:    0.6582284307
  - # 5
    frequency:    1.2373461413
  - # 6
    frequency:    2.3758892897
  - # 7
    frequency:    2.6081864140
  - # 8
    frequency:    3.4140476394
  - # 9
    frequency:    3.5161874513
  - # 10
    frequency:    3.9452449732
  - # 11
    frequency:    4.7339559386
  - # 12
    frequency:    4.8694074471
  - # 13
    frequency:    6.0394807329
  - # 14
    frequency:    7.6358160135
  - # 15
    frequency:    7.7434393600
  - # 16
    frequency:    9.2044240695
  - # 17
    frequency:   10.5076343848
  - # 18
    frequency:   10.5388643138
  - # 19
    frequency:   14.5700490705
  - # 20
    frequency:   21.0133893852
  - # 21
    frequency:   65.1797618136

- q-position: [    0.0808081,    0.0000000,    0.0000000 ]
  distance:    0.0245109
  band:
  - # 1
    frequency:   -0.4435020943
  - # 2
    frequency:    0.2954638237
  - # 3
    frequency:    0.5074229879
  - # 4
    frequency:    0.6974191262
  - # 5
    frequency:    1.3148230313
  - # 6
    frequency:    2.3782004552
  - # 7
    frequency:    2.6374482085
  - # 8
    frequency:    3.4055607347
  - # 9
    frequency:    3.5174517348
  - # 10
    frequency:    3.9674229223
  - # 11
    frequency:    4.7349932694
  - # 12
    frequency:    4.8874338909
  - # 13
    frequency:    6.0387940469
  - # 14
    frequency:    7.6173999307
  - # 15
    frequency:    7.7381388957
  - # 16
    frequency:    9.3612852525
  - # 17
    frequency:   10.5091670450
  - # 18
    frequency:   10.5455519838
  - # 19
    frequency:   14.5326455637
  - # 20
    frequency:   21.0121193353
  - # 21
    frequency:   65.1780653045

- q-position: [    0.0858586,    0.0000000,    0.0000000 ]
  distance:    0.0260429
  band:
  - # 1
    frequency:   -0.4425127379
  - # 2
    frequency:    0.3296235846
  - # 3
    frequency:    0.5565301386
  - # 4
    frequency:    0.7363206269
  - # 5
    frequency:    1.3913446378
  - # 6
    frequency:    2.3806713780
  - # 7
    frequency:    2.6675952652
  - # 8
    frequency:    3.3970759917
  - # 9
    frequency:    3.5187717898
  - # 10
    frequency:    3.9891052837
  - # 11
    frequency:    4.7359702913
  - # 12
    frequency:    4.9060929909
  - # 13
    frequency:    6.0381691442
  - # 14
    frequency:    7.5979776003
  - # 15
    frequency:    7.7326694443
  - # 16
    frequency:    9.5223526314
  - # 17
    frequency:   10.5107827318
  - # 18
    frequency:   10.5532102283
  - # 19
    frequency:   14.4931790646
  - # 20
    frequency:   21.0107797272
  - # 21
    frequency:   65.1762736321

- q-position: [    0.0909091,    0.0000000,    0.0000000 ]
  distance:    0.0275748
  band:
  - # 1
    frequency:   -0.4410788385
  - # 2
    frequency:    0.3648477448
  - # 3
    frequency:    0.6038159206
  - # 4
    frequency:    0.7749406741
  - # 5
    frequency:    1.4668363702
  - # 6
    frequency:    2.3833037822
  - # 7
    frequency:    2.6985181532
  - # 8
    frequency:    3.3886426614
  - # 9
    frequency:    3.5201422703
  - # 10
    frequency:    4.0103022409
  - # 11
    frequency:    4.7368657413
  - # 12
    frequency:    4.9253076262
  - # 13
    frequency:    6.0376286111
  - # 14
    frequency:    7.5775741066
  - # 15
    frequency:    7.7270607588
  - # 16
    frequency:    9.6864305733
  - # 17
    frequency:   10.5124785427
  - # 18
    frequency:   10.5622480441
  - # 19
    frequency:   14.4517157834
  - # 20
    frequency:   21.0093727612
  - # 21
    frequency:   65.1743893546

- q-position: [    0.0959596,    0.0000000,    0.0000000 ]
  distance:    0.0291067
  band:
  - # 1
    frequency:   -0.4392047552
  - # 2
    frequency:    0.4010619880
  - # 3
    frequency:    0.6496123148
  - # 4
    frequency:    0.8132832839
  - # 5
    frequency:    1.5412223913
  - # 6
    frequency:    2.3860994161
  - # 7
    frequency:    2.7301102979
  - # 8
    frequency:    3.3803120381
  - # 9
    frequency:    3.5215574034
  - # 10
    frequency:    4.0310489119
  - # 11
    frequency:    4.7376580195
  - # 12
    frequency:    4.9450024834
  - # 13
    frequency:    6.0371968844
  - # 14
    frequency:    7.5562168461
  - # 15
    frequency:    7.7213434713
  - # 16
    frequency:    9.8519654375
  - # 17
    frequency:   10.5142514209
  - # 18
    frequency:   10.5734460519
  - # 19
    frequency:   14.4083264996
  - # 20
    frequency:   21.0079007348
  - # 21
    frequency:   65.1724151498

- q-position: [    0.1010101,    0.0000000,    0.0000000 ]
  distance:    0.0306387
  band:
  - # 1
    frequency:   -0.4368909030
  - # 2
    frequency:    0.4381848391
  - # 3
    frequency:    0.6941551990
  - # 4
    frequency:    0.8513497552
  - # 5
    frequency:    1.6144260182
  - # 6
    frequency:    2.3890600394
  - # 7
    frequency:    2.7622668215
  - # 8
    frequency:    3.3721376597
  - # 9
    frequency:    3.5230109903
  - # 10
    frequency:    4.0513998557
  - # 11
    frequency:    4.7383254082
  - # 12
    frequency:    4.9651044995
  - # 13
    frequency:    6.0369002657
  - # 14
    frequency:    7.5339353002
  - # 15
    frequency:    7.7155488931
  - # 16
    frequency:   10.0165666940
  - # 17
    frequency:   10.5160981592
  - # 18
    frequency:   10.5884407342
  - # 19
    frequency:   14.3630868887
  - # 20
    frequency:   21.0063660374
  - # 21
    frequency:   65.1703538090

- q-position: [    0.1060606,    0.0000000,    0.0000000 ]
  distance:    0.0321706
  band:
  - # 1
    frequency:   -0.4341337056
  - # 2
    frequency:    0.4761327365
  - # 3
    frequency:    0.7376181805
  - # 4
    frequency:    0.8891394473
  - # 5
    frequency:    1.6863701963
  - # 6
    frequency:    2.3921874094
  - # 7
    frequency:    2.7948830503
  - # 8
    frequency:    3.3641758107
  - # 9
    frequency:    3.5244964129
  - # 10
    frequency:    4.0714241742
  - # 11
    frequency:    4.7388463108
  - # 12
    frequency:    4.9855431245
  - # 13
    frequency:    6.0367669212
  - # 14
    frequency:    7.5107608704
  - # 15
    frequency:    7.7097087989
  - # 16
    frequency:   10.1756757531
  - # 17
    frequency:   10.5180154046
  - # 18
    frequency:   10.6110594871
  - # 19
    frequency:   14.3160779839
  - # 20
    frequency:   21.0047711436
  - # 21
    frequency:   65.1682082313

- q-position: [    0.1111111,    0.0000000,    0.0000000 ]
  distance:    0.0337025
  band:
  - # 1
    frequency:   -0.4309255645
  - # 2
    frequency:    0.5148222973
  - # 3
    frequency:    0.7801330828
  - # 4
    frequency:    0.9266503768
  - # 5
    frequency:    1.7569780558
  - # 6
    frequency:    2.3954832677
  - # 7
    frequency:    2.8278526092
  - # 8
    frequency:    3.3564864454
  - # 9
    frequency:    3.5260066463
  - # 10
    frequency:    4.0912012725
  - # 11
    frequency:    4.7391995075
  - # 12
    frequency:    5.0062504299
  - # 13
    frequency:    6.0368268602
  - # 14
    frequency:    7.4867267573
  - # 15
    frequency:    7.7038551959
  - # 16
    frequency:   10.3190124381
  - # 17
    frequency:   10.5199996628
  - # 18
    frequency:   10.6508766305
  - # 19
    frequency:   14.2673868291
  - # 20
    frequency:   21.0031186074
  - # 21
    frequency:   65.1659814174

- q-position: [    0.1161616,    0.0000000,    0.0000000 ]
  distance:    0.0352345
  band:
  - # 1
    frequency:   -0.4272548138
  - # 2
    frequency:    0.5541712893
  - # 3
    frequency:    0.8218029964
  - # 4
    frequency:    0.9638796713
  - # 5
    frequency:    1.8261735540
  - # 6
    frequency:    2.3989493253
  - # 7
    frequency:    2.8610649617
  - # 8
    frequency:    3.3491347014
  - # 9
    frequency:    3.5275342773
  - # 10
    frequency:    4.1108172605
  - # 11
    frequency:    4.7393644256
  - # 12
    frequency:    5.0271610960
  - # 13
    frequency:    6.0371118852
  - # 14
    frequency:    7.4618678737
  - # 15
    frequency:    7.6980200781
  - # 16
    frequency:   10.4269879626
  - # 17
    frequency:   10.5220473034
  - # 18
    frequency:   10.7268015995
  - # 19
    frequency:   14.2171074055
  - # 20
    frequency:   21.0014110553
  - # 21
    frequency:   65.1636764628

- q-position: [    0.1212121,    0.0000000,    0.0000000 ]
  distance:    0.0367664
  band:
  - # 1
    frequency:   -0.4231056351
  - # 2
    frequency:    0.5940989390
  - # 3
    frequency:    0.8627109747
  - # 4
    frequency:    1.0008239112
  - # 5
    frequency:    1.8938821951
  - # 6
    frequency:    2.4025872488
  - # 7
    frequency:    2.8944021655
  - # 8
    frequency:    3.3421932688
  - # 9
    frequency:    3.5290715294
  - # 10
    frequency:    4.1303619329
  - # 11
    frequency:    4.7393214219
  - # 12
    frequency:    5.0482123158
  - # 13
    frequency:    6.0376555057
  - # 14
    frequency:    7.4362207863
  - # 15
    frequency:    7.6922351697
  - # 16
    frequency:   10.4892646592
  - # 17
    frequency:   10.5241545653
  - # 18
    frequency:   10.8485191177
  - # 19
    frequency:   14.1653419519
  - # 20
    frequency:   20.9996511799
  - # 21
    frequency:   65.1612965518

- q-position: [    0.1262626,    0.0000000,    0.0000000 ]
  distance:    0.0382983
  band:
  - # 1
    frequency:   -0.4184579137
  - # 2
    frequency:    0.6345258602
  - # 3
    frequency:    0.9029260755
  - # 4
    frequency:    1.0374793830
  - # 5
    frequency:    1.9600318148
  - # 6
    frequency:    2.4063986450
  - # 7
    frequency:    2.9277344538
  - # 8
    frequency:    3.3357460386
  - # 9
    frequency:    3.5306102964
  - # 10
    frequency:    4.1499262330
  - # 11
    frequency:    4.7390520718
  - # 12
    frequency:    5.0693436538
  - # 13
    frequency:    6.0384928050
  - # 14
    frequency:    7.4098236789
  - # 15
    frequency:    7.6865316583
  - # 16
    frequency:   10.5223658788
  - # 17
    frequency:   10.5263175629
  - # 18
    frequency:   10.9988779128
  - # 19
    frequency:   14.1122028673
  - # 20
    frequency:   20.9978417331
  - # 21
    frequency:   65.1588449502

- q-position: [    0.1313131,    0.0000000,    0.0000000 ]
  distance:    0.0398303
  band:
  - # 1
    frequency:   -0.4132870123
  - # 2
    frequency:    0.6753737435
  - # 3
    frequency:    0.9425077307
  - # 4
    frequency:    1.0738422638
  - # 5
    frequency:    2.0245534002
  - # 6
    frequency:    2.4103850462
  - # 7
    frequency:    2.9609140037
  - # 8
    frequency:    3.3298937123
  - # 9
    frequency:    3.5321421833
  - # 10
    frequency:    4.1696000980
  - # 11
    frequency:    4.7385394622
  - # 12
    frequency:    5.0904968957
  - # 13
    frequency:    6.0396602497
  - # 14
    frequency:    7.3827163389
  - # 15
    frequency:    7.6809399234
  - # 16
    frequency:   10.5285322922
  - # 17
    frequency:   10.5425492610
  - # 18
    frequency:   11.1610146326
  - # 19
    frequency:   14.0578154887
  - # 20
    frequency:   20.9959855193
  - # 21
    frequency:   65.1563249994

- q-position: [    0.1363636,    0.0000000,    0.0000000 ]
  distance:    0.0413622
  band:
  - # 1
    frequency:   -0.4075634406
  - # 2
    frequency:    0.7165648816
  - # 3
    frequency:    0.9815090404
  - # 4
    frequency:    1.1099087521
  - # 5
    frequency:    2.0873819131
  - # 6
    frequency:    2.4145478944
  - # 7
    frequency:    2.9937658398
  - # 8
    frequency:    3.3247624730
  - # 9
    frequency:    3.5336585555
  - # 10
    frequency:    4.1894705826
  - # 11
    frequency:    4.7377684817
  - # 12
    frequency:    5.1116159205
  - # 13
    frequency:    6.0411954281
  - # 14
    frequency:    7.3549401646
  - # 15
    frequency:    7.6754892609
  - # 16
    frequency:   10.5307946380
  - # 17
    frequency:   10.5569693159
  - # 18
    frequency:   11.3271866850
  - # 19
    frequency:   14.0023222151
  - # 20
    frequency:   20.9940853884
  - # 21
    frequency:   65.1537401086

- q-position: [    0.1414141,    0.0000000,    0.0000000 ]
  distance:    0.0428941
  band:
  - # 1
    frequency:   -0.4012523880
  - # 2
    frequency:    0.7580215677
  - # 3
    frequency:    1.0199793593
  - # 4
    frequency:    1.1456751553
  - # 5
    frequency:    2.1484570696
  - # 6
    frequency:    2.4188885254
  - # 7
    frequency:    3.0260742075
  - # 8
    frequency:    3.3205174361
  - # 9
    frequency:    3.5351505981
  - # 10
    frequency:    4.2096201685
  - # 11
    frequency:    4.7367261025
  - # 12
    frequency:    5.1326466250
  - # 13
    frequency:    6.0431367048
  - # 14
    frequency:    7.3265381962
  - # 15
    frequency:    7.6702076107
  - # 16
    frequency:   10.5331003815
  - # 17
    frequency:   10.5685057552
  - # 18
    frequency:   11.4939368987
  - # 19
    frequency:   13.9458887554
  - # 20
    frequency:   20.9921442293
  - # 21
    frequency:   65.1510937484

- q-position: [    0.1464646,    0.0000000,    0.0000000 ]
  distance:    0.0444261
  band:
  - # 1
    frequency:   -0.3943130799
  - # 2
    frequency:    0.7996653952
  - # 3
    frequency:    1.0579664144
  - # 4
    frequency:    1.1811379452
  - # 5
    frequency:    2.2077240242
  - # 6
    frequency:    2.4234081521
  - # 7
    frequency:    3.0575619977
  - # 8
    frequency:    3.3173833505
  - # 9
    frequency:    3.5366093835
  - # 10
    frequency:    4.2301251866
  - # 11
    frequency:    4.7354016480
  - # 12
    frequency:    5.1535369225
  - # 13
    frequency:    6.0455227753
  - # 14
    frequency:    7.2975551722
  - # 15
    frequency:    7.6651212895
  - # 16
    frequency:   10.5354452079
  - # 17
    frequency:   10.5784314383
  - # 18
    frequency:   11.6594149071
  - # 19
    frequency:   13.8887138260
  - # 20
    frequency:   20.9901649630
  - # 21
    frequency:   65.1483894439

- q-position: [    0.1515152,    0.0000000,    0.0000000 ]
  distance:    0.0459580
  band:
  - # 1
    frequency:   -0.3866978972
  - # 2
    frequency:    0.8414164783
  - # 3
    frequency:    1.0955181030
  - # 4
    frequency:    1.2162937874
  - # 5
    frequency:    2.2651339024
  - # 6
    frequency:    2.4281078473
  - # 7
    frequency:    3.0878605825
  - # 8
    frequency:    3.3156752373
  - # 9
    frequency:    3.5380259496
  - # 10
    frequency:    4.2510542947
  - # 11
    frequency:    4.7337870403
  - # 12
    frequency:    5.1742368363
  - # 13
    frequency:    6.0483921066
  - # 14
    frequency:    7.2680376170
  - # 15
    frequency:    7.6602547341
  - # 16
    frequency:   10.5378247153
  - # 17
    frequency:   10.5873706971
  - # 18
    frequency:   11.8224022371
  - # 19
    frequency:   13.8310446280
  - # 20
    frequency:   20.9881505355
  - # 21
    frequency:   65.1456307674
