nqpoint: 300    
npath: 3      
segment_nqpoint:
- 100
- 100
- 100
labels:
- [ 'G', 'M' ]
- [ 'M', 'K' ]
- [ 'K', 'G' ]
reciprocal_lattice:
- [   0.31597919,   0.18243067,   0.00000000 ] # a*
- [   0.00000000,   0.36486134,   0.00000000 ] # b*
- [   0.00000000,   0.00000000,   0.04447190 ] # c*
natom: 5      
lattice:
- [     3.164765368086252,     0.000000000000000,     0.000000000000000 ] # a
- [    -1.582382684043126,     2.740767205777360,     0.000000000000000 ] # b
- [     0.000000000000000,     0.000000000000000,    22.486111049197302 ] # c
points:
- symbol: C # 1
  coordinates: [  0.000000000000000,  0.000000000000000,  0.501751550385395 ]
  mass: 12.010700
- symbol: F # 2
  coordinates: [  0.666666984744047,  0.333332985985145,  0.400247067192229 ]
  mass: 18.998403
- symbol: O # 3
  coordinates: [  0.333332985432215,  0.666666983183674,  0.599752932807771 ]
  mass: 15.999400
- symbol: Ti # 4
  coordinates: [  0.333332985432215,  0.666666983183674,  0.453335943544481 ]
  mass: 47.867000
- symbol: Ti # 5
  coordinates: [  0.666666984744047,  0.333332985985145,  0.561139520811993 ]
  mass: 47.867000

phonon:
- q-position: [    0.0000000,    0.0000000,    0.0000000 ]
  distance:    0.0000000
  band:
  - # 1
    frequency:   -0.0000117096
  - # 2
    frequency:   -0.0000001326
  - # 3
    frequency:    0.0000096473
  - # 4
    frequency:    1.3731729449
  - # 5
    frequency:    1.3731729449
  - # 6
    frequency:    5.5824483327
  - # 7
    frequency:    5.5824483327
  - # 8
    frequency:    7.3574014141
  - # 9
    frequency:    7.3574014141
  - # 10
    frequency:    8.1014045038
  - # 11
    frequency:   13.6856283001
  - # 12
    frequency:   14.3502439312
  - # 13
    frequency:   14.3502439312
  - # 14
    frequency:   15.8967718781
  - # 15
    frequency:   19.1739115858

- q-position: [    0.0050505,    0.0000000,    0.0000000 ]
  distance:    0.0018427
  band:
  - # 1
    frequency:   -0.2644570013
  - # 2
    frequency:   -0.2557259842
  - # 3
    frequency:    0.0018849018
  - # 4
    frequency:    1.3901835374
  - # 5
    frequency:    1.3930871799
  - # 6
    frequency:    5.5802336960
  - # 7
    frequency:    5.5820530303
  - # 8
    frequency:    7.3568570635
  - # 9
    frequency:    7.3576692041
  - # 10
    frequency:    8.1014558132
  - # 11
    frequency:   13.6845222322
  - # 12
    frequency:   14.3500008244
  - # 13
    frequency:   14.3504012591
  - # 14
    frequency:   15.8961019136
  - # 15
    frequency:   19.1736434918

- q-position: [    0.0101010,    0.0000000,    0.0000000 ]
  distance:    0.0036855
  band:
  - # 1
    frequency:   -0.5140071614
  - # 2
    frequency:   -0.4957130582
  - # 3
    frequency:    0.0075323719
  - # 4
    frequency:    1.4345646066
  - # 5
    frequency:    1.4455914580
  - # 6
    frequency:    5.5736471907
  - # 7
    frequency:    5.5809083514
  - # 8
    frequency:    7.3552391476
  - # 9
    frequency:    7.3584494966
  - # 10
    frequency:    8.1016095156
  - # 11
    frequency:   13.6812059203
  - # 12
    frequency:   14.3492720225
  - # 13
    frequency:   14.3508734839
  - # 14
    frequency:   15.8940928042
  - # 15
    frequency:   19.1728387200

- q-position: [    0.0151515,    0.0000000,    0.0000000 ]
  distance:    0.0055282
  band:
  - # 1
    frequency:   -0.7438383652
  - # 2
    frequency:   -0.7152071960
  - # 3
    frequency:    0.0169207174
  - # 4
    frequency:    1.4939503103
  - # 5
    frequency:    1.5172874395
  - # 6
    frequency:    5.5628585164
  - # 7
    frequency:    5.5791365694
  - # 8
    frequency:    7.3525921259
  - # 9
    frequency:    7.3596747346
  - # 10
    frequency:    8.1018652987
  - # 11
    frequency:   13.6756850325
  - # 12
    frequency:   14.3480591196
  - # 13
    frequency:   14.3516613099
  - # 14
    frequency:   15.8907469140
  - # 15
    frequency:   19.1714958066

- q-position: [    0.0202020,    0.0000000,    0.0000000 ]
  distance:    0.0073709
  band:
  - # 1
    frequency:   -0.9563967654
  - # 2
    frequency:   -0.9172615215
  - # 3
    frequency:    0.0300066157
  - # 4
    frequency:    1.5592769558
  - # 5
    frequency:    1.5983872162
  - # 6
    frequency:    5.5481423484
  - # 7
    frequency:    5.5769367091
  - # 8
    frequency:    7.3489870360
  - # 9
    frequency:    7.3612376730
  - # 10
    frequency:    8.1022238108
  - # 11
    frequency:   13.6679689918
  - # 12
    frequency:   14.3463648953
  - # 13
    frequency:   14.3527658481
  - # 14
    frequency:   15.8860682213
  - # 15
    frequency:   19.1696123296

- q-position: [    0.0252525,    0.0000000,    0.0000000 ]
  distance:    0.0092137
  band:
  - # 1
    frequency:   -1.1559150936
  - # 2
    frequency:   -1.1068136985
  - # 3
    frequency:    0.0467173348
  - # 4
    frequency:    1.6258792179
  - # 5
    frequency:    1.6838268776
  - # 6
    frequency:    5.5298668458
  - # 7
    frequency:    5.5745772257
  - # 8
    frequency:    7.3445172291
  - # 9
    frequency:    7.3629986335
  - # 10
    frequency:    8.1026882504
  - # 11
    frequency:   13.6580709469
  - # 12
    frequency:   14.3441934874
  - # 13
    frequency:   14.3541885243
  - # 14
    frequency:   15.8800623753
  - # 15
    frequency:   19.1671849366

- q-position: [    0.0303030,    0.0000000,    0.0000000 ]
  distance:    0.0110564
  band:
  - # 1
    frequency:   -1.3461236311
  - # 2
    frequency:   -1.2882436748
  - # 3
    frequency:    0.0669432489
  - # 4
    frequency:    1.6917654493
  - # 5
    frequency:    1.7714007225
  - # 6
    frequency:    5.5084788892
  - # 7
    frequency:    5.5723855179
  - # 8
    frequency:    7.3392930031
  - # 9
    frequency:    7.3647943066
  - # 10
    frequency:    8.1032662966
  - # 11
    frequency:   13.6460077425
  - # 12
    frequency:   14.3415506083
  - # 13
    frequency:   14.3559309556
  - # 14
    frequency:   15.8727367756
  - # 15
    frequency:   19.1642093823

- q-position: [    0.0353535,    0.0000000,    0.0000000 ]
  distance:    0.0128991
  band:
  - # 1
    frequency:   -1.5298298892
  - # 2
    frequency:   -1.4649151867
  - # 3
    frequency:    0.0905332978
  - # 4
    frequency:    1.7562601605
  - # 5
    frequency:    1.8603194229
  - # 6
    frequency:    5.4844870744
  - # 7
    frequency:    5.5707342794
  - # 8
    frequency:    7.3334356307
  - # 9
    frequency:    7.3664471136
  - # 10
    frequency:    8.1039721511
  - # 11
    frequency:   13.6317998968
  - # 12
    frequency:   14.3384437874
  - # 13
    frequency:   14.3579947999
  - # 14
    frequency:   15.8641006742
  - # 15
    frequency:   19.1606805777

- q-position: [    0.0404040,    0.0000000,    0.0000000 ]
  distance:    0.0147419
  band:
  - # 1
    frequency:   -1.7090319658
  - # 2
    frequency:   -1.6392728373
  - # 3
    frequency:    0.1172951161
  - # 4
    frequency:    1.8192869683
  - # 5
    frequency:    1.9504498735
  - # 6
    frequency:    5.4584434677
  - # 7
    frequency:    5.5700249795
  - # 8
    frequency:    7.3270712913
  - # 9
    frequency:    7.3677742447
  - # 10
    frequency:    8.1048284672
  - # 11
    frequency:   13.6154715969
  - # 12
    frequency:   14.3348826150
  - # 13
    frequency:   14.3603815834
  - # 14
    frequency:   15.8541652994
  - # 15
    frequency:   19.1565926510

- q-position: [    0.0454545,    0.0000000,    0.0000000 ]
  distance:    0.0165846
  band:
  - # 1
    frequency:   -1.8851064768
  - # 2
    frequency:   -1.8130186909
  - # 3
    frequency:    0.1470004575
  - # 4
    frequency:    1.8810247774
  - # 5
    frequency:    2.0419449014
  - # 6
    frequency:    5.4309250369
  - # 7
    frequency:    5.5706691539
  - # 8
    frequency:    7.3203253745
  - # 9
    frequency:    7.3685957049
  - # 10
    frequency:    8.1058679797
  - # 11
    frequency:   13.5970507158
  - # 12
    frequency:   14.3308789679
  - # 13
    frequency:   14.3630925133
  - # 14
    frequency:   15.8429440008
  - # 15
    frequency:   19.1519390184

- q-position: [    0.0505051,    0.0000000,    0.0000000 ]
  distance:    0.0184273
  band:
  - # 1
    frequency:   -2.0589652688
  - # 2
    frequency:   -1.9872633564
  - # 3
    frequency:    0.1793953888
  - # 4
    frequency:    1.9417464064
  - # 5
    frequency:    2.1350620332
  - # 6
    frequency:    5.4025155503
  - # 7
    frequency:    5.5730686109
  - # 8
    frequency:    7.3133175392
  - # 9
    frequency:    7.3687409667
  - # 10
    frequency:    8.1071346925
  - # 11
    frequency:   13.5765688567
  - # 12
    frequency:   14.3264471966
  - # 13
    frequency:   14.3661282825
  - # 14
    frequency:   15.8304524150
  - # 15
    frequency:   19.1467124671

- q-position: [    0.0555556,    0.0000000,    0.0000000 ]
  distance:    0.0202701
  band:
  - # 1
    frequency:   -2.2311709140
  - # 2
    frequency:   -2.1626436502
  - # 3
    frequency:    0.2142138355
  - # 4
    frequency:    2.0017435883
  - # 5
    frequency:    2.2300723477
  - # 6
    frequency:    5.3737886347
  - # 7
    frequency:    5.5775959950
  - # 8
    frequency:    7.3061577988
  - # 9
    frequency:    7.3680540662
  - # 10
    frequency:    8.1086845412
  - # 11
    frequency:   13.5540614255
  - # 12
    frequency:   14.3216042583
  - # 13
    frequency:   14.3694888719
  - # 14
    frequency:   15.8167086501
  - # 15
    frequency:   19.1409052478

- q-position: [    0.0606061,    0.0000000,    0.0000000 ]
  distance:    0.0221128
  band:
  - # 1
    frequency:   -2.4020203404
  - # 2
    frequency:   -2.3394165999
  - # 3
    frequency:    0.2511926147
  - # 4
    frequency:    2.0612931893
  - # 5
    frequency:    2.3272138106
  - # 6
    frequency:    5.3452925923
  - # 7
    frequency:    5.5845773033
  - # 8
    frequency:    7.2989437914
  - # 9
    frequency:    7.3663971765
  - # 10
    frequency:    8.1105854912
  - # 11
    frequency:   13.5295677255
  - # 12
    frequency:   14.3163697860
  - # 13
    frequency:   14.3731733587
  - # 14
    frequency:   15.8017334881
  - # 15
    frequency:   19.1345091786

- q-position: [    0.0656566,    0.0000000,    0.0000000 ]
  distance:    0.0239555
  band:
  - # 1
    frequency:   -2.5716066269
  - # 2
    frequency:   -2.5175385170
  - # 3
    frequency:    0.2900861044
  - # 4
    frequency:    2.1206434002
  - # 5
    frequency:    2.4266679672
  - # 6
    frequency:    5.3175374958
  - # 7
    frequency:    5.5942778266
  - # 8
    frequency:    7.2917592844
  - # 9
    frequency:    7.3636528144
  - # 10
    frequency:    8.1129170753
  - # 11
    frequency:   13.5031310725
  - # 12
    frequency:   14.3107660852
  - # 13
    frequency:   14.3771797368
  - # 14
    frequency:   15.7855506036
  - # 15
    frequency:   19.1275157568

- q-position: [    0.0707071,    0.0000000,    0.0000000 ]
  distance:    0.0257983
  band:
  - # 1
    frequency:   -2.7398662828
  - # 2
    frequency:   -2.6967340414
  - # 3
    frequency:    0.3306790581
  - # 4
    frequency:    2.1800096736
  - # 5
    frequency:    2.5285497895
  - # 6
    frequency:    5.2909849706
  - # 7
    frequency:    5.6068926092
  - # 8
    frequency:    7.2846738720
  - # 9
    frequency:    7.3597249023
  - # 10
    frequency:    8.1157694048
  - # 11
    frequency:   13.4747989175
  - # 12
    frequency:   14.3048180589
  - # 13
    frequency:   14.3815047547
  - # 14
    frequency:   15.7681867956
  - # 15
    frequency:   19.1199162799

- q-position: [    0.0757576,    0.0000000,    0.0000000 ]
  distance:    0.0276410
  band:
  - # 1
    frequency:   -2.9066167410
  - # 2
    frequency:   -2.8765570883
  - # 3
    frequency:    0.3727965965
  - # 4
    frequency:    2.2395753476
  - # 5
    frequency:    2.6329053701
  - # 6
    frequency:    5.2660409302
  - # 7
    frequency:    5.6225419407
  - # 8
    frequency:    7.2777437566
  - # 9
    frequency:    7.3545389257
  - # 10
    frequency:    8.1192417108
  - # 11
    frequency:   13.4446229708
  - # 12
    frequency:   14.2985530610
  - # 13
    frequency:   14.3861437755
  - # 14
    frequency:   15.7496722332
  - # 15
    frequency:   19.1117019730

- q-position: [    0.0808081,    0.0000000,    0.0000000 ]
  distance:    0.0294837
  band:
  - # 1
    frequency:   -3.0715869371
  - # 2
    frequency:   -3.0564439919
  - # 3
    frequency:    0.4163109448
  - # 4
    frequency:    2.2994943912
  - # 5
    frequency:    2.7397144156
  - # 6
    frequency:    5.2430513489
  - # 7
    frequency:    5.6412717543
  - # 8
    frequency:    7.2710134560
  - # 9
    frequency:    7.3480414148
  - # 10
    frequency:    8.1234404885
  - # 11
    frequency:   13.4126593138
  - # 12
    frequency:   14.2920006836
  - # 13
    frequency:   14.3910906651
  - # 14
    frequency:   15.7300407109
  - # 15
    frequency:   19.1028641220

- q-position: [    0.0858586,    0.0000000,    0.0000000 ]
  distance:    0.0313265
  band:
  - # 1
    frequency:   -3.2357585657
  - # 2
    frequency:   -3.2344426365
  - # 3
    frequency:    0.4611449203
  - # 4
    frequency:    2.3598949495
  - # 5
    frequency:    2.8488956071
  - # 6
    frequency:    5.2223009560
  - # 7
    frequency:    5.6630582399
  - # 8
    frequency:    7.2645182513
  - # 9
    frequency:    7.3401989495
  - # 10
    frequency:    8.1284773323
  - # 11
    frequency:   13.3789684902
  - # 12
    frequency:   14.2851924846
  - # 13
    frequency:   14.3963377093
  - # 14
    frequency:   15.7093299143
  - # 15
    frequency:   19.0933942097

- q-position: [    0.0909091,    0.0000000,    0.0000000 ]
  distance:    0.0331692
  band:
  - # 1
    frequency:   -3.4138288780
  - # 2
    frequency:   -3.3948074540
  - # 3
    frequency:    0.5072724717
  - # 4
    frequency:    2.4208830055
  - # 5
    frequency:    2.9603135149
  - # 6
    frequency:    5.2040145506
  - # 7
    frequency:    5.6878155970
  - # 8
    frequency:    7.2582871757
  - # 9
    frequency:    7.3309968512
  - # 10
    frequency:    8.1344665585
  - # 11
    frequency:   13.3436155668
  - # 12
    frequency:   14.2781616643
  - # 13
    frequency:   14.4018755639
  - # 14
    frequency:   15.6875816950
  - # 15
    frequency:   19.0832840540

- q-position: [    0.0959596,    0.0000000,    0.0000000 ]
  distance:    0.0350119
  band:
  - # 1
    frequency:   -3.5899759233
  - # 2
    frequency:   -3.5522801212
  - # 3
    frequency:    0.5547167324
  - # 4
    frequency:    2.4825458140
  - # 5
    frequency:    3.0737861533
  - # 6
    frequency:    5.1883604869
  - # 7
    frequency:    5.7154056920
  - # 8
    frequency:    7.2523463443
  - # 9
    frequency:    7.3204376913
  - # 10
    frequency:    8.1415227260
  - # 11
    frequency:   13.3066701556
  - # 12
    frequency:   14.2709426968
  - # 13
    frequency:   14.4076932370
  - # 14
    frequency:   15.6648423545
  - # 15
    frequency:   19.0725259449

- q-position: [    0.1010101,    0.0000000,    0.0000000 ]
  distance:    0.0368547
  band:
  - # 1
    frequency:   -3.7635348016
  - # 2
    frequency:   -3.7064483882
  - # 3
    frequency:    0.6035461063
  - # 4
    frequency:    2.5449549437
  - # 5
    frequency:    3.1890925534
  - # 6
    frequency:    5.1754557928
  - # 7
    frequency:    5.7456484340
  - # 8
    frequency:    7.2467224292
  - # 9
    frequency:    7.3085397135
  - # 10
    frequency:    8.1497581664
  - # 11
    frequency:   13.2682063923
  - # 12
    frequency:   14.2635709251
  - # 13
    frequency:   14.4137781049
  - # 14
    frequency:   15.6411629392
  - # 15
    frequency:   19.0611127790

- q-position: [    0.1060606,    0.0000000,    0.0000000 ]
  distance:    0.0386974
  band:
  - # 1
    frequency:   -3.9338693512
  - # 2
    frequency:   -3.8568998972
  - # 3
    frequency:    0.6538688907
  - # 4
    frequency:    2.6081688656
  - # 5
    frequency:    3.3059799549
  - # 6
    frequency:    5.1653723648
  - # 7
    frequency:    5.7783318744
  - # 8
    frequency:    7.2414460992
  - # 9
    frequency:    7.2953352392
  - # 10
    frequency:    8.1592806373
  - # 11
    frequency:   13.2283028669
  - # 12
    frequency:   14.2560821243
  - # 13
    frequency:   14.4201159602
  - # 14
    frequency:   15.6165995485
  - # 15
    frequency:   19.0490381890

- q-position: [    0.1111111,    0.0000000,    0.0000000 ]
  distance:    0.0405401
  band:
  - # 1
    frequency:   -4.1003813687
  - # 2
    frequency:   -4.0032303757
  - # 3
    frequency:    0.7058268961
  - # 4
    frequency:    2.6722350764
  - # 5
    frequency:    3.4241703916
  - # 6
    frequency:    5.1581437152
  - # 7
    frequency:    5.8132213125
  - # 8
    frequency:    7.2365552608
  - # 9
    frequency:    7.2808691091
  - # 10
    frequency:    8.1701912069
  - # 11
    frequency:   13.1870425042
  - # 12
    frequency:   14.2485120366
  - # 13
    frequency:   14.4266910897
  - # 14
    frequency:   15.5912136602
  - # 15
    frequency:   19.0362966660

- q-position: [    0.1161616,    0.0000000,    0.0000000 ]
  distance:    0.0423829
  band:
  - # 1
    frequency:   -4.2625155807
  - # 2
    frequency:   -4.1450495193
  - # 3
    frequency:    0.7595884606
  - # 4
    frequency:    2.7371917780
  - # 5
    frequency:    3.5433665747
  - # 6
    frequency:    5.1537718281
  - # 7
    frequency:    5.8500669681
  - # 8
    frequency:    7.2320979604
  - # 9
    frequency:    7.2651971919
  - # 10
    frequency:    8.1825824583
  - # 11
    frequency:   13.1445123958
  - # 12
    frequency:   14.2408958804
  - # 13
    frequency:   14.4334863804
  - # 14
    frequency:   15.5650724776
  - # 15
    frequency:   19.0228836718

- q-position: [    0.1212121,    0.0000000,    0.0000000 ]
  distance:    0.0442256
  band:
  - # 1
    frequency:   -4.4197614598
  - # 2
    frequency:   -4.2819849504
  - # 3
    frequency:    0.8153412001
  - # 4
    frequency:    2.8030691463
  - # 5
    frequency:    3.6632570740
  - # 6
    frequency:    5.1522337796
  - # 7
    frequency:    5.8886100360
  - # 8
    frequency:    7.2281348315
  - # 9
    frequency:    7.2483849843
  - # 10
    frequency:    8.1965370788
  - # 11
    frequency:   13.1008035829
  - # 12
    frequency:   14.2332678315
  - # 13
    frequency:   14.4404834512
  - # 14
    frequency:   15.5382493059
  - # 15
    frequency:   19.0087957416

- q-position: [    0.1262626,    0.0000000,    0.0000000 ]
  distance:    0.0460684
  band:
  - # 1
    frequency:   -4.5716528296
  - # 2
    frequency:   -4.4136846304
  - # 3
    frequency:    0.8732847852
  - # 4
    frequency:    2.8698902279
  - # 5
    frequency:    3.7835208548
  - # 6
    frequency:    5.1534878818
  - # 7
    frequency:    5.9285871377
  - # 8
    frequency:    7.2247409970
  - # 9
    frequency:    7.2305063155
  - # 10
    frequency:    8.2121268653
  - # 11
    frequency:   13.0560107945
  - # 12
    frequency:   14.2256604741
  - # 13
    frequency:   14.4476628051
  - # 14
    frequency:   15.5108239653
  - # 15
    frequency:   18.9940305731

- q-position: [    0.1313131,    0.0000000,    0.0000000 ]
  distance:    0.0479111
  band:
  - # 1
    frequency:   -4.7177660284
  - # 2
    frequency:   -4.5398180781
  - # 3
    frequency:    0.9336239850
  - # 4
    frequency:    2.9376715073
  - # 5
    frequency:    3.9038312710
  - # 6
    frequency:    5.1574792084
  - # 7
    frequency:    5.9697333347
  - # 8
    frequency:    7.2116421645
  - # 9
    frequency:    7.2220073555
  - # 10
    frequency:    8.2294121402
  - # 11
    frequency:   13.0102321441
  - # 12
    frequency:   14.2181042161
  - # 13
    frequency:   14.4550039999
  - # 14
    frequency:   15.4828832497
  - # 15
    frequency:   18.9785871024

- q-position: [    0.1363636,    0.0000000,    0.0000000 ]
  distance:    0.0497538
  band:
  - # 1
    frequency:   -4.8577172308
  - # 2
    frequency:   -4.6600767096
  - # 3
    frequency:    0.9965621796
  - # 4
    frequency:    3.0064231804
  - # 5
    frequency:    4.0238596251
  - # 6
    frequency:    5.1641444373
  - # 7
    frequency:    6.0117839694
  - # 8
    frequency:    7.1918795938
  - # 9
    frequency:    7.2200411895
  - # 10
    frequency:    8.2484415338
  - # 11
    frequency:   12.9635687889
  - # 12
    frequency:   14.2106266605
  - # 13
    frequency:   14.4624858338
  - # 14
    frequency:   15.4545214418
  - # 15
    frequency:   18.9624655653

- q-position: [    0.1414141,    0.0000000,    0.0000000 ]
  distance:    0.0515966
  band:
  - # 1
    frequency:   -4.9911593644
  - # 2
    frequency:   -4.7741735607
  - # 3
    frequency:    1.0622954988
  - # 4
    frequency:    3.0761491732
  - # 5
    frequency:    4.1432784129
  - # 6
    frequency:    5.1734160054
  - # 7
    frequency:    6.0544756770
  - # 8
    frequency:    7.1713108026
  - # 9
    frequency:    7.2189660337
  - # 10
    frequency:    8.2692520558
  - # 11
    frequency:   12.9161245567
  - # 12
    frequency:   14.2032519250
  - # 13
    frequency:   14.4700865406
  - # 14
    frequency:   15.4258408934
  - # 15
    frequency:   18.9456675441

- q-position: [    0.1464646,    0.0000000,    0.0000000 ]
  distance:    0.0534393
  band:
  - # 1
    frequency:   -5.1177789335
  - # 2
    frequency:   -4.8818426097
  - # 3
    frequency:    1.1310077005
  - # 4
    frequency:    3.1468469357
  - # 5
    frequency:    4.2617643588
  - # 6
    frequency:    5.1852256150
  - # 7
    frequency:    6.0975469641
  - # 8
    frequency:    7.1500323005
  - # 9
    frequency:    7.2189207146
  - # 10
    frequency:    8.2918693511
  - # 11
    frequency:   12.8680055447
  - # 12
    frequency:   14.1959998995
  - # 13
    frequency:   14.4777839929
  - # 14
    frequency:   15.3969526820
  - # 15
    frequency:   18.9281959993

- q-position: [    0.1515152,    0.0000000,    0.0000000 ]
  distance:    0.0552820
  band:
  - # 1
    frequency:   -5.2372929538
  - # 2
    frequency:   -4.9828378641
  - # 3
    frequency:    1.2028658612
  - # 4
    frequency:    3.2185070394
  - # 5
    frequency:    4.3790013261
  - # 6
    frequency:    5.1995071495
  - # 7
    frequency:    6.1407388020
  - # 8
    frequency:    7.1281442018
  - # 9
    frequency:    7.2200574445
  - # 10
    frequency:    8.3163080198
  - # 11
    frequency:   12.8193196941
  - # 12
    frequency:   14.1888854322
  - # 13
    frequency:   14.4855559087
  - # 14
    frequency:   15.3679773493
  - # 15
    frequency:   18.9100552872

- q-position: [    0.1565657,    0.0000000,    0.0000000 ]
  distance:    0.0571248
  band:
  - # 1
    frequency:   -5.3494461292
  - # 2
    frequency:   -5.0769323368
  - # 3
    frequency:    1.2780169050
  - # 4
    frequency:    3.2911126041
  - # 5
    frequency:    4.4946831657
  - # 6
    frequency:    5.2161990728
  - # 7
    frequency:    6.1837957185
  - # 8
    frequency:    7.1057496434
  - # 9
    frequency:    7.2225388045
  - # 10
    frequency:    8.3425718750
  - # 11
    frequency:   12.7701763457
  - # 12
    frequency:   14.1819174386
  - # 13
    frequency:   14.4933800584
  - # 14
    frequency:   15.3390457272
  - # 15
    frequency:   18.8912511646

- q-position: [    0.1616162,    0.0000000,    0.0000000 ]
  distance:    0.0589675
  band:
  - # 1
    frequency:   -5.4540083425
  - # 2
    frequency:   -5.1639169990
  - # 3
    frequency:    1.3565849608
  - # 4
    frequency:    3.3646385756
  - # 5
    frequency:    4.6085165292
  - # 6
    frequency:    5.2352463807
  - # 7
    frequency:    6.2264678919
  - # 8
    frequency:    7.0829543297
  - # 9
    frequency:    7.2265334204
  - # 10
    frequency:    8.3706540205
  - # 11
    frequency:   12.7206857795
  - # 12
    frequency:   14.1750979303
  - # 13
    frequency:   14.5012344698
  - # 14
    frequency:   15.3102998460
  - # 15
    frequency:   18.8717907809

- q-position: [    0.1666667,    0.0000000,    0.0000000 ]
  distance:    0.0608102
  band:
  - # 1
    frequency:   -5.5507724948
  - # 2
    frequency:   -5.2435997695
  - # 3
    frequency:    1.4386694998
  - # 4
    frequency:    3.4390508750
  - # 5
    frequency:    4.7202236429
  - # 6
    frequency:    5.2566021695
  - # 7
    frequency:    6.2685147313
  - # 8
    frequency:    7.0598662101
  - # 9
    frequency:    7.2322101338
  - # 10
    frequency:    8.4005366475
  - # 11
    frequency:   12.6709587406
  - # 12
    frequency:   14.1684209714
  - # 13
    frequency:   14.5090976282
  - # 14
    frequency:   15.2818939129
  - # 15
    frequency:   18.8516826606

- q-position: [    0.1717172,    0.0000000,    0.0000000 ]
  distance:    0.0626530
  band:
  - # 1
    frequency:   -5.6395527029
  - # 2
    frequency:   -5.3158045776
  - # 3
    frequency:    1.5243441813
  - # 4
    frequency:    3.5143054412
  - # 5
    frequency:    4.8295450013
  - # 6
    frequency:    5.2802288701
  - # 7
    frequency:    6.3097103251
  - # 8
    frequency:    7.0365953006
  - # 9
    frequency:    7.2397305444
  - # 10
    frequency:    8.4321904773
  - # 11
    frequency:   12.6211059556
  - # 12
    frequency:   14.1618715805
  - # 13
    frequency:   14.5169486696
  - # 14
    frequency:   15.2539953309
  - # 15
    frequency:   18.8309366781

- q-position: [    0.1767677,    0.0000000,    0.0000000 ]
  distance:    0.0644957
  band:
  - # 1
    frequency:   -5.7201828491
  - # 2
    frequency:   -5.3803705191
  - # 3
    frequency:    1.6136563125
  - # 4
    frequency:    3.5903471900
  - # 5
    frequency:    4.9362419075
  - # 6
    frequency:    5.3060991777
  - # 7
    frequency:    6.3498509289
  - # 8
    frequency:    7.0132536629
  - # 9
    frequency:    7.2492399762
  - # 10
    frequency:    8.4655738157
  - # 11
    frequency:   12.5712376389
  - # 12
    frequency:   14.1554246201
  - # 13
    frequency:   14.5247675656
  - # 14
    frequency:   15.2267857075
  - # 15
    frequency:   18.8095640255

- q-position: [    0.1818182,    0.0000000,    0.0000000 ]
  distance:    0.0663384
  band:
  - # 1
    frequency:   -5.7925154655
  - # 2
    frequency:   -5.4371511137
  - # 3
    frequency:    1.7066268182
  - # 4
    frequency:    3.6671089181
  - # 5
    frequency:    5.0400987649
  - # 6
    frequency:    5.3341966815
  - # 7
    frequency:    6.3887643116
  - # 8
    frequency:    6.9899555669
  - # 9
    frequency:    7.2608572280
  - # 10
    frequency:    8.5006312276
  - # 11
    frequency:   12.5214629932
  - # 12
    frequency:   14.1490437361
  - # 13
    frequency:   14.5325352967
  - # 14
    frequency:   15.2004617750
  - # 15
    frequency:   18.7875771794

- q-position: [    0.1868687,    0.0000000,    0.0000000 ]
  distance:    0.0681812
  band:
  - # 1
    frequency:   -5.8564209349
  - # 2
    frequency:   -5.4860136639
  - # 3
    frequency:    1.8032506095
  - # 4
    frequency:    3.7445101913
  - # 5
    frequency:    5.1409250133
  - # 6
    frequency:    5.3645161690
  - # 7
    frequency:    6.4263203035
  - # 8
    frequency:    6.9668178681
  - # 9
    frequency:    7.2746638838
  - # 10
    frequency:    8.5372918915
  - # 11
    frequency:   12.4718897017
  - # 12
    frequency:   14.1426804489
  - # 13
    frequency:   14.5402340157
  - # 14
    frequency:   15.1752361047
  - # 15
    frequency:   18.7649898662

- q-position: [    0.1919192,    0.0000000,    0.0000000 ]
  distance:    0.0700239
  band:
  - # 1
    frequency:   -5.9117869851
  - # 2
    frequency:   -5.5268387075
  - # 3
    frequency:    1.9034972431
  - # 4
    frequency:    3.8224562676
  - # 5
    frequency:    5.2385566092
  - # 6
    frequency:    5.3970635385
  - # 7
    frequency:    6.4624413842
  - # 8
    frequency:    6.9439606512
  - # 9
    frequency:    7.2906943947
  - # 10
    frequency:    8.5754677442
  - # 11
    frequency:   12.4226234155
  - # 12
    frequency:   14.1362735343
  - # 13
    frequency:   14.5478471977
  - # 14
    frequency:   15.1513374602
  - # 15
    frequency:   18.7418170312

- q-position: [    0.1969697,    0.0000000,    0.0000000 ]
  distance:    0.0718666
  band:
  - # 1
    frequency:   -5.9585184545
  - # 2
    frequency:   -5.5595195532
  - # 3
    frequency:    2.0073117645
  - # 4
    frequency:    3.9008371267
  - # 5
    frequency:    5.3328569830
  - # 6
    frequency:    5.4318552059
  - # 7
    frequency:    6.4971117528
  - # 8
    frequency:    6.9215082099
  - # 9
    frequency:    7.3089284476
  - # 10
    frequency:    8.6150515758
  - # 11
    frequency:   12.3737672333
  - # 12
    frequency:   14.1297488762
  - # 13
    frequency:   14.5553597764
  - # 14
    frequency:   15.1290105846
  - # 15
    frequency:   18.7180748136

- q-position: [    0.2020202,    0.0000000,    0.0000000 ]
  distance:    0.0737094
  band:
  - # 1
    frequency:   -5.9965373080
  - # 2
    frequency:   -5.5839618857
  - # 3
    frequency:    2.1146156353
  - # 4
    frequency:    3.9795266986
  - # 5
    frequency:    5.4237174522
  - # 6
    frequency:    5.4689168259
  - # 7
    frequency:    6.5303832300
  - # 8
    frequency:    6.8995904675
  - # 9
    frequency:    7.3292871272
  - # 10
    frequency:    8.6559152737
  - # 11
    frequency:   12.3254211765
  - # 12
    frequency:   14.1230200083
  - # 13
    frequency:   14.5627582684
  - # 14
    frequency:   15.1085151846
  - # 15
    frequency:   18.6937805309

- q-position: [    0.2070707,    0.0000000,    0.0000000 ]
  distance:    0.0755521
  band:
  - # 1
    frequency:   -6.0257828820
  - # 2
    frequency:   -5.6000834241
  - # 3
    frequency:    2.2253076524
  - # 4
    frequency:    4.0583824157
  - # 5
    frequency:    5.5082810682
  - # 6
    frequency:    5.5110571501
  - # 7
    frequency:    6.5623766750
  - # 8
    frequency:    6.8783449854
  - # 9
    frequency:    7.3516339438
  - # 10
    frequency:    8.6979084433
  - # 11
    frequency:   12.2776816573
  - # 12
    frequency:   14.1159895789
  - # 13
    frequency:   14.5700308813
  - # 14
    frequency:   15.0901238536
  - # 15
    frequency:   18.6689526759

- q-position: [    0.2121212,    0.0000000,    0.0000000 ]
  distance:    0.0773948
  band:
  - # 1
    frequency:   -6.0462123391
  - # 2