nqpoint: 300    
npath: 3      
segment_nqpoint:
- 100
- 100
- 100
labels:
- [ 'G', 'M' ]
- [ 'M', 'K' ]
- [ 'K', 'G' ]
reciprocal_lattice:
- [   0.31597919,   0.18243067,   0.00000000 ] # a*
- [   0.00000000,   0.36486134,   0.00000000 ] # b*
- [   0.00000000,   0.00000000,   0.04447190 ] # c*
natom: 5      
lattice:
- [     3.164765368086252,     0.000000000000000,     0.000000000000000 ] # a
- [    -1.582382684043126,     2.740767205777360,     0.000000000000000 ] # b
- [     0.000000000000000,     0.000000000000000,    22.486111049197302 ] # c
points:
- symbol: C # 1
  coordinates: [  0.000000000000000,  0.000000000000000,  0.501751550385395 ]
  mass: 12.010700
- symbol: F # 2
  coordinates: [  0.666666984744047,  0.333332985985145,  0.400247067192229 ]
  mass: 18.998403
- symbol: O # 3
  coordinates: [  0.333332985432215,  0.666666983183674,  0.599752932807771 ]
  mass: 15.999400
- symbol: Ti # 4
  coordinates: [  0.333332985432215,  0.666666983183674,  0.453335943544481 ]
  mass: 47.867000
- symbol: Ti # 5
  coordinates: [  0.666666984744047,  0.333332985985145,  0.561139520811993 ]
  mass: 47.867000

phonon:
- q-position: [    0.0000000,    0.0000000,    0.0000000 ]
  distance:    0.0000000
  band:
  - # 1
    frequency:   -0.0000020685
  - # 2
    frequency:    0.0000004800
  - # 3
    frequency:    0.0000019969
  - # 4
    frequency:    2.6748368873
  - # 5
    frequency:    2.6748368873
  - # 6
    frequency:    6.8766351538
  - # 7
    frequency:    6.8766351538
  - # 8
    frequency:    7.7650751097
  - # 9
    frequency:    7.7650751097
  - # 10
    frequency:    8.0372306877
  - # 11
    frequency:   13.7410949429
  - # 12
    frequency:   14.6191884245
  - # 13
    frequency:   14.6191884245
  - # 14
    frequency:   15.9270741734
  - # 15
    frequency:   19.2846170652

- q-position: [    0.0050505,    0.0000000,    0.0000000 ]
  distance:    0.0018427
  band:
  - # 1
    frequency:   -0.4247442090
  - # 2
    frequency:    0.0340988965
  - # 3
    frequency:    0.4406802409
  - # 4
    frequency:    2.6713778721
  - # 5
    frequency:    2.6744948232
  - # 6
    frequency:    6.8753639654
  - # 7
    frequency:    6.8753877503
  - # 8
    frequency:    7.7600609988
  - # 9
    frequency:    7.7610652671
  - # 10
    frequency:    8.0391193005
  - # 11
    frequency:   13.7399613162
  - # 12
    frequency:   14.6188381086
  - # 13
    frequency:   14.6193093320
  - # 14
    frequency:   15.9263281565
  - # 15
    frequency:   19.2840894227

- q-position: [    0.0101010,    0.0000000,    0.0000000 ]
  distance:    0.0036855
  band:
  - # 1
    frequency:   -0.5891250290
  - # 2
    frequency:    0.0633195924
  - # 3
    frequency:    0.6336966408
  - # 4
    frequency:    2.6609954599
  - # 5
    frequency:    2.6734450515
  - # 6
    frequency:    6.8715328892
  - # 7
    frequency:    6.8715921818
  - # 8
    frequency:    7.7454726650
  - # 9
    frequency:    7.7491435089
  - # 10
    frequency:    8.0444215857
  - # 11
    frequency:   13.7365612655
  - # 12
    frequency:   14.6177907257
  - # 13
    frequency:   14.6196713804
  - # 14
    frequency:   15.9240908324
  - # 15
    frequency:   19.2825068017

- q-position: [    0.0151515,    0.0000000,    0.0000000 ]
  distance:    0.0055282
  band:
  - # 1
    frequency:   -0.7074913883
  - # 2
    frequency:    0.0809055324
  - # 3
    frequency:    0.7877798263
  - # 4
    frequency:    2.6436864849
  - # 5
    frequency:    2.6716347511
  - # 6
    frequency:    6.8650864421
  - # 7
    frequency:    6.8650899722
  - # 8
    frequency:    7.7224468971
  - # 9
    frequency:    7.7296359469
  - # 10
    frequency:    8.0522722487
  - # 11
    frequency:   13.7308973295
  - # 12
    frequency:   14.6160568763
  - # 13
    frequency:   14.6202725801
  - # 14
    frequency:   15.9203644543
  - # 15
    frequency:   19.2798701454

- q-position: [    0.0202020,    0.0000000,    0.0000000 ]
  distance:    0.0073709
  band:
  - # 1
    frequency:   -0.8011582437
  - # 2
    frequency:    0.0721685932
  - # 3
    frequency:    0.9211404165
  - # 4
    frequency:    2.6194915420
  - # 5
    frequency:    2.6690382325
  - # 6
    frequency:    6.8555947283
  - # 7
    frequency:    6.8559509856
  - # 8
    frequency:    7.6923769262
  - # 9
    frequency:    7.7030947141
  - # 10
    frequency:    8.0617304905
  - # 11
    frequency:   13.7229739074
  - # 12
    frequency:   14.6136539165
  - # 13
    frequency:   14.6211097212
  - # 14
    frequency:   15.9151530152
  - # 15
    frequency:   19.2761811051

- q-position: [    0.0252525,    0.0000000,    0.0000000 ]
  distance:    0.0092137
  band:
  - # 1
    frequency:   -0.8789217164
  - # 2
    frequency:   -0.0743055433
  - # 3
    frequency:    1.0395902573
  - # 4
    frequency:    2.5885733755
  - # 5
    frequency:    2.6657592662
  - # 6
    frequency:    6.8427213451
  - # 7
    frequency:    6.8440045031
  - # 8
    frequency:    7.6566373700
  - # 9
    frequency:    7.6703079866
  - # 10
    frequency:    8.0720528728
  - # 11
    frequency:   13.7127975008
  - # 12
    frequency:   14.6106055083
  - # 13
    frequency:   14.6221785237
  - # 14
    frequency:   15.9084625898
  - # 15
    frequency:   19.2714421548

- q-position: [    0.0303030,    0.0000000,    0.0000000 ]
  distance:    0.0110564
  band:
  - # 1
    frequency:   -0.9458366447
  - # 2
    frequency:   -0.1835698688
  - # 3
    frequency:    1.1447222622
  - # 4
    frequency:    2.5513446962
  - # 5
    frequency:    2.6621893787
  - # 6
    frequency:    6.8259485025
  - # 7
    frequency:    6.8291221900
  - # 8
    frequency:    7.6165169868
  - # 9
    frequency:    7.6323070229
  - # 10
    frequency:    8.0827531223
  - # 11
    frequency:   13.7003770300
  - # 12
    frequency:   14.6069410192
  - # 13
    frequency:   14.6234738324
  - # 14
    frequency:   15.9003017816
  - # 15
    frequency:   19.2656567460

- q-position: [    0.0353535,    0.0000000,    0.0000000 ]
  distance:    0.0128991
  band:
  - # 1
    frequency:   -1.0055638987
  - # 2
    frequency:   -0.3011461806
  - # 3
    frequency:    1.2358193749
  - # 4
    frequency:    2.5086573920
  - # 5
    frequency:    2.6592256773
  - # 6
    frequency:    6.8046467185
  - # 7
    frequency:    6.8111775045
  - # 8
    frequency:    7.5732485539
  - # 9
    frequency:    7.5903607361
  - # 10
    frequency:    8.0935550274
  - # 11
    frequency:   13.6857242084
  - # 12
    frequency:   14.6026948011
  - # 13
    frequency:   14.6249898414
  - # 14
    frequency:   15.8906822489
  - # 15
    frequency:   19.2588294947

- q-position: [    0.0404040,    0.0000000,    0.0000000 ]
  distance:    0.0147419
  band:
  - # 1
    frequency:   -1.0613638091
  - # 2
    frequency:   -0.4382328189
  - # 3
    frequency:    1.3104286267
  - # 4
    frequency:    2.4620488301
  - # 5
    frequency:    2.6585205860
  - # 6
    frequency:    6.7781110599
  - # 7
    frequency:    6.7900763179
  - # 8
    frequency:    7.5280446427
  - # 9
    frequency:    7.5459434364
  - # 10
    frequency:    8.1043242968
  - # 11
    frequency:   13.6688539538
  - # 12
    frequency:   14.5979053761
  - # 13
    frequency:   14.6267203326
  - # 14
    frequency:   15.8796192788
  - # 15
    frequency:   19.2509663941

- q-position: [    0.0454545,    0.0000000,    0.0000000 ]
  distance:    0.0165846
  band:
  - # 1
    frequency:   -1.1167168730
  - # 2
    frequency:   -0.5984581198
  - # 3
    frequency:    1.3646604109
  - # 4
    frequency:    2.4139901316
  - # 5
    frequency:    2.6626569108
  - # 6
    frequency:    6.7456384796
  - # 7
    frequency:    6.7658016788
  - # 8
    frequency:    7.4821014258
  - # 9
    frequency:    7.5006589424
  - # 10
    frequency:    8.1150126766
  - # 11
    frequency:   13.6497848140
  - # 12
    frequency:   14.5926145628
  - # 13
    frequency:   14.6286589135
  - # 14
    frequency:   15.8671323775
  - # 15
    frequency:   19.2420750436

- q-position: [    0.0505051,    0.0000000,    0.0000000 ]
  distance:    0.0184273
  band:
  - # 1
    frequency:   -1.1758623852
  - # 2
    frequency:   -0.7835278199
  - # 3
    frequency:    1.3937718483
  - # 4
    frequency:    2.3679844159
  - # 5
    frequency:    2.6750230590
  - # 6
    frequency:    6.7066546003
  - # 7
    frequency:    6.7384708230
  - # 8
    frequency:    7.4365642756
  - # 9
    frequency:    7.4561107684
  - # 10
    frequency:    8.1256197928
  - # 11
    frequency:   13.6285393890
  - # 12
    frequency:   14.5868665722
  - # 13
    frequency:   14.6307992375
  - # 14
    frequency:   15.8532458459
  - # 15
    frequency:   19.2321648850

- q-position: [    0.0555556,    0.0000000,    0.0000000 ]
  distance:    0.0202701
  band:
  - # 1
    frequency:   -1.2443262811
  - # 2
    frequency:   -0.9933264051
  - # 3
    frequency:    1.3935067072
  - # 4
    frequency:    2.3282754326
  - # 5
    frequency:    2.6991449971
  - # 6
    frequency:    6.6608762804
  - # 7
    frequency:    6.7083952245
  - # 8
    frequency:    7.3924651195
  - # 9
    frequency:    7.4137298342
  - # 10
    frequency:    8.1361693938
  - # 11
    frequency:   13.6051447305
  - # 12
    frequency:   14.5807070986
  - # 13
    frequency:   14.6331351961
  - # 14
    frequency:   15.8379893135
  - # 15
    frequency:   19.2212474357

- q-position: [    0.0606061,    0.0000000,    0.0000000 ]
  distance:    0.0221128
  band:
  - # 1
    frequency:   -1.3292961530
  - # 2
    frequency:   -1.2256325444
  - # 3
    frequency:    1.3623254212
  - # 4
    frequency:    2.2990282497
  - # 5
    frequency:    2.7375727902
  - # 6
    frequency:    6.6084642685
  - # 7
    frequency:    6.6761262578
  - # 8
    frequency:    7.3506517144
  - # 9
    frequency:    7.3746032180
  - # 10
    frequency:    8.1466955026
  - # 11
    frequency:   13.5796327056
  - # 12
    frequency:   14.5741824290
  - # 13
    frequency:   14.6356610717
  - # 14
    frequency:   15.8213982090
  - # 15
    frequency:   19.2093365090

- q-position: [    0.0656566,    0.0000000,    0.0000000 ]
  distance:    0.0239555
  band:
  - # 1
    frequency:   -1.4763693757
  - # 2
    frequency:   -1.4393193460
  - # 3
    frequency:    1.3039379141
  - # 4
    frequency:    2.2832554116
  - # 5
    frequency:    2.7909954903
  - # 6
    frequency:    6.5501023888
  - # 7
    frequency:    6.6424654778
  - # 8
    frequency:    7.3117334049
  - # 9
    frequency:    7.3393659094
  - # 10
    frequency:    8.1572348991
  - # 11
    frequency:   13.5520403136
  - # 12
    frequency:   14.5673385847
  - # 13
    frequency:   14.6383716462
  - # 14
    frequency:   15.8035141504
  - # 15
    frequency:   19.1964484139

- q-position: [    0.0707071,    0.0000000,    0.0000000 ]
  distance:    0.0257983
  band:
  - # 1
    frequency:   -1.7405245248
  - # 2
    frequency:   -1.5824246579
  - # 3
    frequency:    1.2288150820
  - # 4
    frequency:    2.2821290672
  - # 5
    frequency:    2.8582489476
  - # 6
    frequency:    6.4869615334
  - # 7
    frequency:    6.6084251662
  - # 8
    frequency:    7.2760627980
  - # 9
    frequency:    7.3081969587
  - # 10
    frequency:    8.1678234713
  - # 11
    frequency:   13.5224099511
  - # 12
    frequency:   14.5602205079
  - # 13
    frequency:   14.6412622611
  - # 14
    frequency:   15.7843852462
  - # 15
    frequency:   19.1826021226

- q-position: [    0.0757576,    0.0000000,    0.0000000 ]
  distance:    0.0276410
  band:
  - # 1
    frequency:   -2.0132178060
  - # 2
    frequency:   -1.7625297156
  - # 3
    frequency:    1.1528079507
  - # 4
    frequency:    2.2950746611
  - # 5
    frequency:    2.9370726934
  - # 6
    frequency:    6.4205598450
  - # 7
    frequency:    6.5751411796
  - # 8
    frequency:    7.2437585422
  - # 9
    frequency:    7.2809102562
  - # 10
    frequency:    8.1784948493
  - # 11
    frequency:   13.4907896201
  - # 12
    frequency:   14.5528712985
  - # 13
    frequency:   14.6443288294
  - # 14
    frequency:   15.7640663030
  - # 15
    frequency:   19.1678194014

- q-position: [    0.0808081,    0.0000000,    0.0000000 ]
  distance:    0.0294837
  band:
  - # 1
    frequency:   -2.2903477806
  - # 2
    frequency:   -1.9766850175
  - # 3
    frequency:    1.0919522959
  - # 4
    frequency:    2.3204108040
  - # 5
    frequency:    3.0249462003
  - # 6
    frequency:    6.3525731962
  - # 7
    frequency:    6.5437577416
  - # 8
    frequency:    7.2147586494
  - # 9
    frequency:    7.2570897672
  - # 10
    frequency:    8.1892803276
  - # 11
    frequency:   13.4572330807
  - # 12
    frequency:   14.5453315029
  - # 13
    frequency:   14.6475678037
  - # 14
    frequency:   15.7426189433
  - # 15
    frequency:   19.1521248968

- q-position: [    0.0858586,    0.0000000,    0.0000000 ]
  distance:    0.0313265
  band:
  - # 1
    frequency:   -2.5687137127
  - # 2
    frequency:   -2.2164087837
  - # 3
    frequency:    1.0565481075
  - # 4
    frequency:    2.3560402080
  - # 5
    frequency:    3.1195933453
  - # 6
    frequency:    6.2846542903
  - # 7
    frequency:    6.5153124844
  - # 8
    frequency:    7.1888855195
  - # 9
    frequency:    7.2362168369
  - # 10
    frequency:    8.2002094695
  - # 11
    frequency:   13.4217999483
  - # 12
    frequency:   14.5376384560
  - # 13
    frequency:   14.6509761038
  - # 14
    frequency:   15.7201116404
  - # 15
    frequency:   19.1355461721

- q-position: [    0.0909091,    0.0000000,    0.0000000 ]
  distance:    0.0331692
  band:
  - # 1
    frequency:   -2.8458446370
  - # 2
    frequency:   -2.4718016809
  - # 3
    frequency:    1.0492374923
  - # 4
    frequency:    2.3999100680
  - # 5
    frequency:    3.2191572093
  - # 6
    frequency:    6.2182952724
  - # 7
    frequency:    6.4906463780
  - # 8
    frequency:    7.1659056804
  - # 9
    frequency:    7.2177615602
  - # 10
    frequency:    8.2113110251
  - # 11
    frequency:   13.3845557389
  - # 12
    frequency:   14.5298256734
  - # 13
    frequency:   14.6545510116
  - # 14
    frequency:   15.6966196827
  - # 15
    frequency:   19.1181136921

- q-position: [    0.0959596,    0.0000000,    0.0000000 ]
  distance:    0.0350119
  band:
  - # 1
    frequency:   -3.1197702177
  - # 2
    frequency:   -2.7345255842
  - # 3
    frequency:    1.0672222565
  - # 4
    frequency:    2.4502258176
  - # 5
    frequency:    3.3221935720
  - # 6
    frequency:    6.1547431110
  - # 7
    frequency:    6.4703516961
  - # 8
    frequency:    7.1455749012
  - # 9
    frequency:    7.2012351277
  - # 10
    frequency:    8.2226139410
  - # 11
    frequency:   13.3455718636
  - # 12
    frequency:   14.5219222930
  - # 13
    frequency:   14.6582900418
  - # 14
    frequency:   15.6722250802
  - # 15
    frequency:   19.0998607532

- q-position: [    0.1010101,    0.0000000,    0.0000000 ]
  distance:    0.0368547
  band:
  - # 1
    frequency:   -3.3888438494
  - # 2
    frequency:   -2.9985327715
  - # 3
    frequency:    1.1054558432
  - # 4
    frequency:    2.5055069471
  - # 5
    frequency:    3.4275995910
  - # 6
    frequency:    6.0949620613
  - # 7
    frequency:    6.4547588927
  - # 8
    frequency:    7.1276669284
  - # 9
    frequency:    7.1862126865
  - # 10
    frequency:    8.2341483307
  - # 11
    frequency:   13.3049255757
  - # 12
    frequency:   14.5139525648
  - # 13
    frequency:   14.6621907945
  - # 14
    frequency:   15.6470164301
  - # 15
    frequency:   19.0808233587

- q-position: [    0.1060606,    0.0000000,    0.0000000 ]
  distance:    0.0386974
  band:
  - # 1
    frequency:   -3.6516365632
  - # 2
    frequency:   -3.2596610364
  - # 3
    frequency:    1.1588003811
  - # 4
    frequency:    2.5645676637
  - # 5
    frequency:    3.5345345975
  - # 6
    frequency:    6.0396322407
  - # 7
    frequency:    6.4439547463
  - # 8
    frequency:    7.1119885920
  - # 9
    frequency:    7.1723382740
  - # 10
    frequency:    8.2459463251
  - # 11
    frequency:   13.2626998710
  - # 12
    frequency:   14.5059353906
  - # 13
    frequency:   14.6662508014
  - # 14
    frequency:   15.6210887562
  - # 15
    frequency:   19.0610400417

- q-position: [    0.1111111,    0.0000000,    0.0000000 ]
  distance:    0.0405401
  band:
  - # 1
    frequency:   -3.9068840071
  - # 2
    frequency:   -3.5150481112
  - # 3
    frequency:    1.2229558562
  - # 4
    frequency:    2.6264717079
  - # 5
    frequency:    3.6423528672
  - # 6
    frequency:    5.9891728870
  - # 7
    frequency:    6.4378205122
  - # 8
    frequency:    7.0983854552
  - # 9
    frequency:    7.1593206936
  - # 10
    frequency:    8.2580427556
  - # 11
    frequency:   13.2189833424
  - # 12
    frequency:   14.4978839137
  - # 13
    frequency:   14.6704673705
  - # 14
    frequency:   15.5945433376
  - # 15
    frequency:   19.0405516369

- q-position: [    0.1161616,    0.0000000,    0.0000000 ]
  distance:    0.0423829
  band:
  - # 1
    frequency:   -4.1534637580
  - # 2
    frequency:   -3.7626840325
  - # 3
    frequency:    1.2946394125
  - # 4
    frequency:    2.6904844725
  - # 5
    frequency:    3.7505518878
  - # 6
    frequency:    5.9437801353
  - # 7
    frequency:    6.4360790740
  - # 8
    frequency:    7.0867418000
  - # 9
    frequency:    7.1469258127
  - # 10
    frequency:    8.2704756402
  - # 11
    frequency:   13.1738699882
  - # 12
    frequency:   14.4898051661
  - # 13
    frequency:   14.6748374382
  - # 14
    frequency:   15.5674875385
  - # 15
    frequency:   19.0194010065

- q-position: [    0.1212121,    0.0000000,    0.0000000 ]
  distance:    0.0442256
  band:
  - # 1
    frequency:   -4.3903860342
  - # 2
    frequency:   -4.0011214412
  - # 3
    frequency:    1.3714520892
  - # 4
    frequency:    2.7560311055
  - # 5
    frequency:    3.8587341129
  - # 6
    frequency:    5.9034710179
  - # 7
    frequency:    6.4383425210
  - # 8
    frequency:    7.0769777280
  - # 9
    frequency:    7.1349681911
  - # 10
    frequency:    8.2832864529
  - # 11
    frequency:   13.1274589744
  - # 12
    frequency:   14.4816997768
  - # 13
    frequency:   14.6793574354
  - # 14
    frequency:   15.5400346490
  - # 15
    frequency:   18.9976327246

- q-position: [    0.1262626,    0.0000000,    0.0000000 ]
  distance:    0.0460684
  band:
  - # 1
    frequency:   -4.6167879929
  - # 2
    frequency:   -4.2292958212
  - # 3
    frequency:    1.4516716626
  - # 4
    frequency:    2.8226626337
  - # 5
    frequency:    3.9665790708
  - # 6
    frequency:    5.8681275198
  - # 7
    frequency:    6.4441546811
  - # 8
    frequency:    7.0690451535
  - # 9
    frequency:    7.1233033675
  - # 10
    frequency:    8.2965201683
  - # 11
    frequency:   13.0798543488
  - # 12
    frequency:   14.4735617523
  - # 13
    frequency:   14.6840231726
  - # 14
    frequency:   15.5123037431
  - # 15
    frequency:   18.9752927252

- q-position: [    0.1313131,    0.0000000,    0.0000000 ]
  distance:    0.0479111
  band:
  - # 1
    frequency:   -4.8319271600
  - # 2
    frequency:   -4.4464125374
  - # 3
    frequency:    1.5340657227
  - # 4
    frequency:    2.8900295517
  - # 5
    frequency:    4.0738230337
  - # 6
    frequency:    5.8375366687
  - # 7
    frequency:    6.4530259452
  - # 8
    frequency:    7.0629236994
  - # 9
    frequency:    7.1118212706
  - # 10
    frequency:    8.3102250770
  - # 11
    frequency:   13.0311647073
  - # 12
    frequency:   14.4653783382
  - # 13
    frequency:   14.6888297480
  - # 14
    frequency:   15.4844195545
  - # 15
    frequency:   18.9524279230

- q-position: [    0.1363636,    0.0000000,    0.0000000 ]
  distance:    0.0497538
  band:
  - # 1
    frequency:   -5.0351727734
  - # 2
    frequency:   -4.6518731460
  - # 3
    frequency:    1.6177484545
  - # 4
    frequency:    2.9578615493
  - # 5
    frequency:    4.1802441099
  - # 6
    frequency:    5.8114245356
  - # 7
    frequency:    6.4644597736
  - # 8
    frequency:    7.0586169895
  - # 9
    frequency:    7.1004408101
  - # 10
    frequency:    8.3244523765
  - # 11
    frequency:   12.9815028119
  - # 12
    frequency:   14.4571299753
  - # 13
    frequency:   14.6937714831
  - # 14
    frequency:   15.4565123666
  - # 15
    frequency:   18.9290858102

- q-position: [    0.1414141,    0.0000000,    0.0000000 ]
  distance:    0.0515966
  band:
  - # 1
    frequency:   -5.2259953923
  - # 2
    frequency:   -4.8452251831
  - # 3
    frequency:    1.7020783205
  - # 4
    frequency:    3.0259520136
  - # 5
    frequency:    4.2856512268
  - # 6
    frequency:    5.7894834806
  - # 7
    frequency:    6.4779715463
  - # 8
    frequency:    7.0561494982
  - # 9
    frequency:    7.0891055290
  - # 10
    frequency:    8.3392555473
  - # 11
    frequency:   12.9309851597
  - # 12
    frequency:   14.4487903649
  - # 13
    frequency:   14.6988418877
  - # 14
    frequency:   15.4287179067
  - # 15
    frequency:   18.9053140405

- q-position: [    0.1464646,    0.0000000,    0.0000000 ]
  distance:    0.0534393
  band:
  - # 1
    frequency:   -5.4039556707
  - # 2
    frequency:   -5.0261266073
  - # 3
    frequency:    1.7865872467
  - # 4
    frequency:    3.0941461354
  - # 5
    frequency:    4.3898759376
  - # 6
    frequency:    5.7713929508
  - # 7
    frequency:    6.4931010577
  - # 8
    frequency:    7.0555638979
  - # 9
    frequency:    7.0777801425
  - # 10
    frequency:    8.3546895358
  - # 11
    frequency:   12.8797315054
  - # 12
    frequency:   14.4403266597
  - # 13
    frequency:   14.7040336544
  - # 14
    frequency:   15.4011772286
  - # 15
    frequency:   18.8811600050

- q-position: [    0.1515152,    0.0000000,    0.0000000 ]
  distance:    0.0552820
  band:
  - # 1
    frequency:   -5.5686931854
  - # 2
    frequency:   -5.1943199005
  - # 3
    frequency:    1.8709322577
  - # 4
    frequency:    3.1623316976
  - # 5
    frequency:    4.4927663233
  - # 6
    frequency:    5.7568346646
  - # 7
    frequency:    6.5094201721
  - # 8
    frequency:    7.0569186930
  - # 9
    frequency:    7.0664477932
  - # 10
    frequency:    8.3708097675
  - # 11
    frequency:   12.8278643376
  - # 12
    frequency:   14.4316998004
  - # 13
    frequency:   14.7093386850
  - # 14
    frequency:   15.3740365624
  - # 15
    frequency:   18.8566704085

- q-position: [    0.1565657,    0.0000000,    0.0000000 ]
  distance:    0.0571248
  band:
  - # 1
    frequency:   -5.7199159879
  - # 2
    frequency:   -5.3496128656
  - # 3
    frequency:    1.9548625765
  - # 4
    frequency:    3.2304318365
  - # 5
    frequency:    4.5941824955
  - # 6
    frequency:    5.7455032281
  - # 7
    frequency:    6.5265371397
  - # 8
    frequency:    7.0551078714
  - # 9
    frequency:    7.0602858079
  - # 10
    frequency:    8.3876710288
  - # 11
    frequency:   12.7755083132
  - # 12
    frequency:   14.4228650177
  - # 13
    frequency:   14.7147481467
  - # 14
    frequency:   15.3474471025
  - # 15
    frequency:   18.8318908533

- q-position: [    0.1616162,    0.0000000,    0.0000000 ]
  distance:    0.0589675
  band:
  - # 1
    frequency:   -5.8573912884
  - # 2
    frequency:   -5.4918642628
  - # 3
    frequency:    2.0381972432
  - # 4
    frequency:    3.2983992449
  - # 5
    frequency:    4.6939933633
  - # 6
    frequency:    5.7371132177
  - # 7
    frequency:    6.5440989320
  - # 8
    frequency:    7.0437742780
  - # 9
    frequency:    7.0657477219
  - # 10
    frequency:    8.4053262551
  - # 11
    frequency:   12.7227896520
  - # 12
    frequency:   14.4137725220
  - # 13
    frequency:   14.7202525576
  - # 14
    frequency:   15.3215647023
  - # 15
    frequency:   18.8068654379

- q-position: [    0.1666667,    0.0000000,    0.0000000 ]
  distance:    0.0608102
  band:
  - # 1
    frequency:   -5.9809374576
  - # 2
    frequency:   -5.6209730435
  - # 3
    frequency:    2.1208098732
  - # 4
    frequency:    3.3662114174
  - # 5
    frequency:    4.7920744370
  - # 6
    frequency:    5.7314036530
  - # 7
    frequency:    6.5617927465
  - # 8
    frequency:    7.0324740382
  - # 9
    frequency:    7.0733937197
  - # 10
    frequency:    8.4238252723
  - # 11
    frequency:   12.6698354970
  - # 12
    frequency:   14.4043684023
  - # 13
    frequency:   14.7258418998
  - # 14
    frequency:   15.2965494418
  - # 15
    frequency:   18.7816363761

- q-position: [    0.1717172,    0.0000000,    0.0000000 ]
  distance:    0.0626530
  band:
  - # 1
    frequency:   -6.0904173710
  - # 2
    frequency:   -5.7368703100
  - # 3
    frequency:    2.2026182873
  - # 4
    frequency:    3.4338666363
  - # 5
    frequency:    4.8883065065
  - # 6
    frequency:    5.7281406195
  - # 7
    frequency:    6.5793475548
  - # 8
    frequency:    7.0212461947
  - # 9
    frequency:    7.0833149129
  - # 10
    frequency:    8.4432135354
  - # 11
    frequency:   12.6167732434
  - # 12
    frequency:   14.3945957491
  - # 13
    frequency:   14.7315057563
  - # 14
    frequency:   15.2725650326
  - # 15
    frequency:   18.7562436436

- q-position: [    0.1767677,    0.0000000,    0.0000000 ]
  distance:    0.0644957
  band:
  - # 1
    frequency:   -6.1857330297
  - # 2
    frequency:   -5.8395133642
  - # 3
    frequency:    2.2835774864
  - # 4
    frequency:    3.5013804709
  - # 5
    frequency:    4.9825750746
  - # 6
    frequency:    5.7271186346
  - # 7
    frequency:    6.5965361997
  - # 8
    frequency:    7.0101409329
  - # 9
    frequency:    7.0955978923
  - # 10
    frequency:    8.4635309094
  - # 11
    frequency:   12.5637298436
  - # 12
    frequency:   14.3843960111
  - # 13
    frequency:   14.7372334714
  - # 14
    frequency:   15.2497780346
  - # 15
    frequency:   18.7307246580

- q-position: [    0.1818182,    0.0000000,    0.0000000 ]
  distance:    0.0663384
  band:
  - # 1
    frequency:   -6.2668213340
  - # 2
    frequency:   -5.9288813735
  - # 3
    frequency:    2.3636749474
  - # 4
    frequency:    3.5687826124
  - # 5
    frequency:    5.0747704419
  - # 6
    frequency:    5.7281612016
  - # 7
    frequency:    6.6131781099
  - # 8
    frequency:    6.9992189119
  - # 9
    frequency:    7.1103172155
  - # 10
    frequency:    8.4848105289
  - # 11
    frequency:   12.5108310917
  - # 12
    frequency:   14.3737105776
  - # 13
    frequency:   14.7430143287
  - # 14
    frequency:   15.2283568681
  - # 15
    frequency:   18.7051139959

- q-position: [    0.1868687,    0.0000000,    0.0000000 ]
  distance:    0.0681812
  band:
  - # 1
    frequency:   -6.3336508745
  - # 2
    frequency:   -6.0049722998
  - # 3
    frequency:    2.4429275386
  - # 4
    frequency:    3.6361139063
  - # 5
    frequency:    5.1647883433
  - # 6
    frequency:    5.7311208677
  - # 7
    frequency:    6.6291422300
  - # 8
    frequency:    6.9885507875
  - # 9
    frequency:    7.1275273309
  - # 10
    frequency:    8.5070777654
  - # 11
    frequency:   12.4582008946
  - # 12
    frequency:   14.3624825588
  - # 13
    frequency:   14.7488377448
  - # 14
    frequency:   15.2084706264
  - # 15
    frequency:   18.6794431540

- q-position: [    0.1919192,    0.0000000,    0.0000000 ]
  distance:    0.0700239
  band:
  - # 1
    frequency:   -6.3862196024
  - # 2
    frequency:   -6.0678008248
  - # 3
    frequency:    2.5213795687
  - # 4
    frequency:    3.7034234693
  - # 5
    frequency:    5.2525310248
  - # 6
    frequency:    5.7358789991
  - # 7
    frequency:    6.6443494173
  - # 8
    frequency:    6.9782169356
  - # 9
    frequency:    7.1472548700
  - # 10
    frequency:    8.5303493217
  - # 11
    frequency:   12.4059605341
  - # 12
    frequency:   14.3506587095
  - # 13
    frequency:   14.7546934751
  - # 14
    frequency:   15.1902877167
  - # 15
    frequency:   18.6537403566

- q-position: [    0.1969697,    0.0000000,    0.0000000 ]
  distance:    0.0718666
  band:
  - # 1
    frequency:   -6.4245532587
  - # 2
    frequency:   -6.1173970776
  - # 3
    frequency:    2.5991016245
  - # 4
    frequency:    3.7707657961
  - # 5
    frequency:    5.3379086333
  - # 6
    frequency:    5.7423454025
  - # 7
    frequency:    6.6587734385
  - # 8
    frequency:    6.9683073981
  - # 9
    frequency:    7.1694923455
  - # 10
    frequency:    8.5546324605
  - # 11
    frequency:   12.3542279281
  - # 12
    frequency:   14.3381914103
  - # 13
    frequency:   14.7605718269
  - # 14
    frequency:   15.1739743895
  - # 15
    frequency:   18.6280304146

- q-position: [    0.2020202,    0.0000000,    0.0000000 ]
  distance:    0.0737094
  band:
  - # 1
    frequency:   -6.4487044549
  - # 2
    frequency:   -6.1538060221
  - # 3
    frequency:    2.6761899398
  - # 4
    frequency:    3.8381977746
  - # 5
    frequency:    5.4208407717
  - # 6
    frequency:    5.7504578516
  - # 7
    frequency:    6.6724399097
  - # 8
    frequency:    6.9589220927
  - # 9
    frequency:    7.1941940974
  - # 10
    frequency:    8.5799243682
  - # 11
    frequency:   12.3031168945
  - # 12
    frequency:   14.3250405943
  - # 13
    frequency:   14.7664638774
  - # 14
    frequency:   15.1596932385
  - # 15
    frequency:   18.6023346379

- q-position: [    0.2070707,    0.0000000,    0.0000000 ]
  distance:    0.0755521
  band:
  - # 1
    frequency:   -6.4587523189
  - # 2
    frequency:   -6.1770874082
  - # 3
    frequency:    2.7527660979
  - # 4
    frequency:    3.9057755404
  - # 5
    frequency:    5.5012580584
  - # 6
    frequency:    5.7601815161
  - # 7
    frequency:    6.6854229729
  - # 8
    frequency:    6.9501713490
  - # 9
    frequency:    7.2212748886
  - # 10
    frequency:    8.6062116447
  - # 11
    frequency:   12.2527364280
  - # 12
    frequency:   14.3111754855
  - # 13
    frequency:   14.7723616922
  - # 14
    frequency:   15.1476017772
  - # 15
    frequency:   18.5766708056

- q-position: [    0.2121212,    0.0000000,    0.0000000 ]
  distance:    0.0773948
  band:
  - # 1
    frequency:   -6.4548026341
  - # 2