nqpoint: 300    
npath: 3      
segment_nqpoint:
- 100
- 100
- 100
labels:
- [ 'G', 'M' ]
- [ 'M', 'K' ]
- [ 'K', 'G' ]
reciprocal_lattice:
- [   0.31182303,   0.18003111,   0.00000000 ] # a*
- [   0.00000000,   0.36006222,   0.00000000 ] # b*
- [   0.00000000,   0.00000000,   0.03575113 ] # c*
natom: 9      
lattice:
- [     3.206947203602072,     0.000000000000000,     0.000000000000000 ] # a
- [    -1.603473601801036,     2.777297746909905,     0.000000000000000 ] # b
- [     0.000000000000000,     0.000000000000000,    27.971146991448286 ] # c
points:
- symbol: C # 1
  coordinates: [  0.333332985432215,  0.666666983183674,  0.622850909878930 ]
  mass: 12.010700
- symbol: C # 2
  coordinates: [  0.666666984744047,  0.333332985985145,  0.364221392208215 ]
  mass: 12.010700
- symbol: N # 3
  coordinates: [  0.000000000000000,  0.000000000000000,  0.493880374348049 ]
  mass: 14.006700
- symbol: N # 4
  coordinates: [  0.333332985432215,  0.666666983183674,  0.578032769754923 ]
  mass: 14.006700
- symbol: N # 5
  coordinates: [  0.666666984744047,  0.333332985985145,  0.321760133853346 ]
  mass: 14.006700
- symbol: O # 6
  coordinates: [  0.666666984744047,  0.333332985985145,  0.411943349847127 ]
  mass: 15.999400
- symbol: S # 7
  coordinates: [  0.333332985432215,  0.666666983183674,  0.678239866146655 ]
  mass: 32.065000
- symbol: Ti # 8
  coordinates: [  0.333332985432215,  0.666666983183674,  0.457759569682389 ]
  mass: 47.867000
- symbol: Ti # 9
  coordinates: [  0.666666984744047,  0.333332985985145,  0.532368696533838 ]
  mass: 47.867000

phonon:
- q-position: [    0.0000000,    0.0000000,    0.0000000 ]
  distance:    0.0000000
  band:
  - # 1
    frequency:   -0.6995816673
  - # 2
    frequency:   -0.6995816672
  - # 3
    frequency:   -0.0000165553
  - # 4
    frequency:    0.0000003816
  - # 5
    frequency:    0.0000125748
  - # 6
    frequency:    1.2006702424
  - # 7
    frequency:    1.2006702425
  - # 8
    frequency:    5.0446070727
  - # 9
    frequency:    5.0446070727
  - # 10
    frequency:    5.7713122027
  - # 11
    frequency:    7.4577897499
  - # 12
    frequency:    7.4577897499
  - # 13
    frequency:    8.2913107717
  - # 14
    frequency:    8.2913107718
  - # 15
    frequency:    8.8049891238
  - # 16
    frequency:   11.8653790797
  - # 17
    frequency:   13.9088797039
  - # 18
    frequency:   13.9088797040
  - # 19
    frequency:   14.1288710441
  - # 20
    frequency:   14.1288710442
  - # 21
    frequency:   15.7393203124
  - # 22
    frequency:   17.1835088281
  - # 23
    frequency:   17.1835088281
  - # 24
    frequency:   27.3806741435
  - # 25
    frequency:   32.0125523244
  - # 26
    frequency:   57.4892583907
  - # 27
    frequency:   67.8498858218

- q-position: [    0.0050505,    0.0000000,    0.0000000 ]
  distance:    0.0018185
  band:
  - # 1
    frequency:   -0.6977501997
  - # 2
    frequency:   -0.6922175996
  - # 3
    frequency:    0.0034762071
  - # 4
    frequency:    0.0800279447
  - # 5
    frequency:    0.1377431683
  - # 6
    frequency:    1.2022524938
  - # 7
    frequency:    1.2063984119
  - # 8
    frequency:    5.0448675798
  - # 9
    frequency:    5.0455048829
  - # 10
    frequency:    5.7707830443
  - # 11
    frequency:    7.4575196659
  - # 12
    frequency:    7.4584729340
  - # 13
    frequency:    8.2911434272
  - # 14
    frequency:    8.2919430706
  - # 15
    frequency:    8.8046138016
  - # 16
    frequency:   11.8643197393
  - # 17
    frequency:   13.9089151874
  - # 18
    frequency:   13.9092293628
  - # 19
    frequency:   14.1288917366
  - # 20
    frequency:   14.1291362291
  - # 21
    frequency:   15.7390210938
  - # 22
    frequency:   17.1834349273
  - # 23
    frequency:   17.1836477583
  - # 24
    frequency:   27.3805696035
  - # 25
    frequency:   32.0121306001
  - # 26
    frequency:   57.4883543896
  - # 27
    frequency:   67.8496626445

- q-position: [    0.0101010,    0.0000000,    0.0000000 ]
  distance:    0.0036370
  band:
  - # 1
    frequency:   -0.6922735984
  - # 2
    frequency:   -0.6700514452
  - # 3
    frequency:    0.0138628825
  - # 4
    frequency:    0.1601278420
  - # 5
    frequency:    0.2760989286
  - # 6
    frequency:    1.2069919512
  - # 7
    frequency:    1.2234193776
  - # 8
    frequency:    5.0456481661
  - # 9
    frequency:    5.0481935287
  - # 10
    frequency:    5.7692010828
  - # 11
    frequency:    7.4567104365
  - # 12
    frequency:    7.4605165260
  - # 13
    frequency:    8.2906417140
  - # 14
    frequency:    8.2938363373
  - # 15
    frequency:    8.8034909738
  - # 16
    frequency:   11.8611440253
  - # 17
    frequency:   13.9090217576
  - # 18
    frequency:   13.9102780166
  - # 19
    frequency:   14.1289539485
  - # 20
    frequency:   14.1299311992
  - # 21
    frequency:   15.7381239267
  - # 22
    frequency:   17.1832133941
  - # 23
    frequency:   17.1840634953
  - # 24
    frequency:   27.3802560883
  - # 25
    frequency:   32.0108664556
  - # 26
    frequency:   57.4856436863
  - # 27
    frequency:   67.8489935655

- q-position: [    0.0151515,    0.0000000,    0.0000000 ]
  distance:    0.0054555
  band:
  - # 1
    frequency:   -0.6831957168
  - # 2
    frequency:   -0.6326459775
  - # 3
    frequency:    0.0311092253
  - # 4
    frequency:    0.2403388214
  - # 5
    frequency:    0.4153512111
  - # 6
    frequency:    1.2148673773
  - # 7
    frequency:    1.2512780621
  - # 8
    frequency:    5.0469460317
  - # 9
    frequency:    5.0526587152
  - # 10
    frequency:    5.7665827619
  - # 11
    frequency:    7.4553651265
  - # 12
    frequency:    7.4639028061
  - # 13
    frequency:    8.2898065930
  - # 14
    frequency:    8.2969795522
  - # 15
    frequency:    8.8016301509
  - # 16
    frequency:   11.8558588531
  - # 17
    frequency:   13.9091997729
  - # 18
    frequency:   13.9120246961
  - # 19
    frequency:   14.1290580820
  - # 20
    frequency:   14.1312542059
  - # 21
    frequency:   15.7366302838
  - # 22
    frequency:   17.1828447267
  - # 23
    frequency:   17.1847528829
  - # 24
    frequency:   27.3797339120
  - # 25
    frequency:   32.0087629736
  - # 26
    frequency:   57.4811301778
  - # 27
    frequency:   67.8478799417

- q-position: [    0.0202020,    0.0000000,    0.0000000 ]
  distance:    0.0072740
  band:
  - # 1
    frequency:   -0.6705605579
  - # 2
    frequency:   -0.5785778602
  - # 3
    frequency:    0.0554261037
  - # 4
    frequency:    0.3206432624
  - # 5
    frequency:    0.5553012289
  - # 6
    frequency:    1.2258455199
  - # 7
    frequency:    1.2893214994
  - # 8
    frequency:    5.0487565288
  - # 9
    frequency:    5.0588768165
  - # 10
    frequency:    5.7629551716
  - # 11
    frequency:    7.4534888329
  - # 12
    frequency:    7.4686027723
  - # 13
    frequency:    8.2886396625
  - # 14
    frequency:    8.3013539109
  - # 15
    frequency:    8.7990475064
  - # 16
    frequency:   11.8484757275
  - # 17
    frequency:   13.9094498254
  - # 18
    frequency:   13.9144677841
  - # 19
    frequency:   14.1292048010
  - # 20
    frequency:   14.1331023531
  - # 21
    frequency:   15.7345426433
  - # 22
    frequency:   17.1823297288
  - # 23
    frequency:   17.1857106747
  - # 24
    frequency:   27.3790035996
  - # 25
    frequency:   32.0058252798
  - # 26
    frequency:   57.4748203500
  - # 27
    frequency:   67.8463240301

- q-position: [    0.0252525,    0.0000000,    0.0000000 ]
  distance:    0.0090925
  band:
  - # 1
    frequency:   -0.6543768786
  - # 2
    frequency:   -0.5043681727
  - # 3
    frequency:    0.0880185711
  - # 4
    frequency:    0.4009570076
  - # 5
    frequency:    0.6953343573
  - # 6
    frequency:    1.2398842289
  - # 7
    frequency:    1.3368205670
  - # 8
    frequency:    5.0510731891
  - # 9
    frequency:    5.0668151583
  - # 10
    frequency:    5.7583556044
  - # 11
    frequency:    7.4510886694
  - # 12
    frequency:    7.4745769028
  - # 13
    frequency:    8.2871431537
  - # 14
    frequency:    8.3069321464
  - # 15
    frequency:    8.7957663869
  - # 16
    frequency:   11.8390107128
  - # 17
    frequency:   13.9097727326
  - # 18
    frequency:   13.9176050122
  - # 19
    frequency:   14.1293950233
  - # 20
    frequency:   14.1354716238
  - # 21
    frequency:   15.7318645219
  - # 22
    frequency:   17.1816694683
  - # 23
    frequency:   17.1869295561
  - # 24
    frequency:   27.3780658888
  - # 25
    frequency:   32.0020605258
  - # 26
    frequency:   57.4667232640
  - # 27
    frequency:   67.8443289808

- q-position: [    0.0303030,    0.0000000,    0.0000000 ]
  distance:    0.0109110
  band:
  - # 1
    frequency:   -0.6345806623
  - # 2
    frequency:   -0.4026581430
  - # 3
    frequency:    0.1336527270
  - # 4
    frequency:    0.4811333737
  - # 5
    frequency:    0.8345947098
  - # 6
    frequency:    1.2569366300
  - # 7
    frequency:    1.3930907169
  - # 8
    frequency:    5.0538877632
  - # 9
    frequency:    5.0764323883
  - # 10
    frequency:    5.7528309925
  - # 11
    frequency:    7.4481737425
  - # 12
    frequency:    7.4817761606
  - # 13
    frequency:    8.2853199249
  - # 14
    frequency:    8.3136775400
  - # 15
    frequency:    8.7918180825
  - # 16
    frequency:   11.8274843920
  - # 17
    frequency:   13.9101695268
  - # 18
    frequency:   13.9214334564
  - # 19
    frequency:   14.1296299077
  - # 20
    frequency:   14.1383569159
  - # 21
    frequency:   15.7286005215
  - # 22
    frequency:   17.1808652238
  - # 23
    frequency:   17.1884001735
  - # 24
    frequency:   27.3769217331
  - # 25
    frequency:   31.9974778643
  - # 26
    frequency:   57.4568505366
  - # 27
    frequency:   67.8418988268

- q-position: [    0.0353535,    0.0000000,    0.0000000 ]
  distance:    0.0127295
  band:
  - # 1
    frequency:   -0.6109990840
  - # 2
    frequency:   -0.2629938782
  - # 3
    frequency:    0.2118279374
  - # 4
    frequency:    0.5609759345
  - # 5
    frequency:    0.9721204136
  - # 6
    frequency:    1.2769561780
  - # 7
    frequency:    1.4575941860
  - # 8
    frequency:    5.0571902701
  - # 9
    frequency:    5.0876789053
  - # 10
    frequency:    5.7464372814
  - # 11
    frequency:    7.4447551216
  - # 12
    frequency:    7.4901431841
  - # 13
    frequency:    8.2831734531
  - # 14
    frequency:    8.3215425700
  - # 15
    frequency:    8.7872429192
  - # 16
    frequency:   11.8139218158
  - # 17
    frequency:   13.9106414414
  - # 18
    frequency:   13.9259495321
  - # 19
    frequency:   14.1299108398
  - # 20
    frequency:   14.1417520864
  - # 21
    frequency:   15.7247563841
  - # 22
    frequency:   17.1799184167
  - # 23
    frequency:   17.1901111723
  - # 24
    frequency:   27.3755723045
  - # 25
    frequency:   31.9920884183
  - # 26
    frequency:   57.4452163161
  - # 27
    frequency:   67.8390384719

- q-position: [    0.0404040,    0.0000000,    0.0000000 ]
  distance:    0.0145480
  band:
  - # 1
    frequency:   -0.5833128955
  - # 2
    frequency:   -0.1066189946
  - # 3
    frequency:    0.3537427276
  - # 4
    frequency:    0.6402534573
  - # 5
    frequency:    1.1068887238
  - # 6
    frequency:    1.2999023585
  - # 7
    frequency:    1.5300135991
  - # 8
    frequency:    5.0609690587
  - # 9
    frequency:    5.1004973123
  - # 10
    frequency:    5.7392388010
  - # 11
    frequency:    7.4408458009
  - # 12
    frequency:    7.4996135990
  - # 13
    frequency:    8.2807078251
  - # 14
    frequency:    8.3304671275
  - # 15
    frequency:    8.7820917637
  - # 16
    frequency:   11.7983524443
  - # 17
    frequency:   13.9111898936
  - # 18
    frequency:   13.9311489867
  - # 19
    frequency:   14.1302394135
  - # 20
    frequency:   14.1456500012
  - # 21
    frequency:   15.7203390568
  - # 22
    frequency:   17.1788305344
  - # 23
    frequency:   17.1920492423
  - # 24
    frequency:   27.3740189980
  - # 25
    frequency:   31.9859052429
  - # 26
    frequency:   57.4318372521
  - # 27
    frequency:   67.8357536752

- q-position: [    0.0454545,    0.0000000,    0.0000000 ]
  distance:    0.0163665
  band:
  - # 1
    frequency:   -0.5510058417
  - # 2
    frequency:    0.1230201626
  - # 3
    frequency:    0.5052875219
  - # 4
    frequency:    0.7187119646
  - # 5
    frequency:    1.2378184295
  - # 6
    frequency:    1.3257466984
  - # 7
    frequency:    1.6102779338
  - # 8
    frequency:    5.0652108803
  - # 9
    frequency:    5.1148228487
  - # 10
    frequency:    5.7313077096
  - # 11
    frequency:    7.4364606527
  - # 12
    frequency:    7.5101173854
  - # 13
    frequency:    8.2779277266
  - # 14
    frequency:    8.3403761942
  - # 15
    frequency:    8.7764280628
  - # 16
    frequency:   11.7808100819
  - # 17
    frequency:   13.9118164658
  - # 18
    frequency:   13.9370268917
  - # 19
    frequency:   14.1306174107
  - # 20
    frequency:   14.1500425909
  - # 21
    frequency:   15.7153567612
  - # 22
    frequency:   17.1776030446
  - # 23
    frequency:   17.1941991709
  - # 24
    frequency:   27.3722634360
  - # 25
    frequency:   31.9789432811
  - # 26
    frequency:   57.4167324606
  - # 27
    frequency:   67.8320510334

- q-position: [    0.0505051,    0.0000000,    0.0000000 ]
  distance:    0.0181850
  band:
  - # 1
    frequency:   -0.5132778961
  - # 2
    frequency:    0.1919976375
  - # 3
    frequency:    0.6398531116
  - # 4
    frequency:    0.7960819700
  - # 5
    frequency:    1.3544785505
  - # 6
    frequency:    1.3638231445
  - # 7
    frequency:    1.6984943208
  - # 8
    frequency:    5.0699009725
  - # 9
    frequency:    5.1305837444
  - # 10
    frequency:    5.7227235891
  - # 11
    frequency:    7.4316163722
  - # 12
    frequency:    7.5215802351
  - # 13
    frequency:    8.2748384296
  - # 14
    frequency:    8.3511768391
  - # 15
    frequency:    8.7703305842
  - # 16
    frequency:   11.7613328066
  - # 17
    frequency:   13.9125228836
  - # 18
    frequency:   13.9435776336
  - # 19
    frequency:   14.1310467788
  - # 20
    frequency:   14.1549209085
  - # 21
    frequency:   15.7098190671
  - # 22
    frequency:   17.1762373042
  - # 23
    frequency:   17.1965439031
  - # 24
    frequency:   27.3703074728
  - # 25
    frequency:   31.9712193127
  - # 26
    frequency:   57.3999234834
  - # 27
    frequency:   67.8279379607

- q-position: [    0.0555556,    0.0000000,    0.0000000 ]
  distance:    0.0200035
  band:
  - # 1
    frequency:   -0.4688733290
  - # 2
    frequency:    0.2464607707
  - # 3
    frequency:    0.7622179349
  - # 4
    frequency:    0.8720817518
  - # 5
    frequency:    1.3861097401
  - # 6
    frequency:    1.4840070340
  - # 7
    frequency:    1.7947246125
  - # 8
    frequency:    5.0750231534
  - # 9
    frequency:    5.1477014234
  - # 10
    frequency:    5.7135732850
  - # 11
    frequency:    7.4263314124
  - # 12
    frequency:    7.5339248379
  - # 13
    frequency:    8.2714457794
  - # 14
    frequency:    8.3627543472
  - # 15
    frequency:    8.7638970666
  - # 16
    frequency:   11.7399628966
  - # 17
    frequency:   13.9133109922
  - # 18
    frequency:   13.9507949030
  - # 19
    frequency:   14.1315296057
  - # 20
    frequency:   14.1602751901
  - # 21
    frequency:   15.7037369669
  - # 22
    frequency:   17.1747344662
  - # 23
    frequency:   17.1990646085
  - # 24
    frequency:   27.3681532000
  - # 25
    frequency:   31.9627518979
  - # 26
    frequency:   57.3814342429
  - # 27
    frequency:   67.8234226654

- q-position: [    0.0606061,    0.0000000,    0.0000000 ]
  distance:    0.0218220
  band:
  - # 1
    frequency:   -0.4156980963
  - # 2
    frequency:    0.2980271775
  - # 3
    frequency:    0.8765770378
  - # 4
    frequency:    0.9464193549
  - # 5
    frequency:    1.4206765736
  - # 6
    frequency:    1.5979908053
  - # 7
    frequency:    1.8986320985
  - # 8
    frequency:    5.0805599282
  - # 9
    frequency:    5.1660904557
  - # 10
    frequency:    5.7039511013
  - # 11
    frequency:    7.4206259092
  - # 12
    frequency:    7.5470720470
  - # 13
    frequency:    8.2677561794
  - # 14
    frequency:    8.3749672572
  - # 15
    frequency:    8.7572490246
  - # 16
    frequency:   11.7167467537
  - # 17
    frequency:   13.9141827308
  - # 18
    frequency:   13.9586716828
  - # 19
    frequency:   14.1320680936
  - # 20
    frequency:   14.1660949140
  - # 21
    frequency:   15.6971229479
  - # 22
    frequency:   17.1730953862
  - # 23
    frequency:   17.2017407540
  - # 24
    frequency:   27.3658029515
  - # 25
    frequency:   31.9535613144
  - # 26
    frequency:   57.3612909922
  - # 27
    frequency:   67.8185141251

- q-position: [    0.0656566,    0.0000000,    0.0000000 ]
  distance:    0.0236404
  band:
  - # 1
    frequency:   -0.3498138621
  - # 2
    frequency:    0.3494741374
  - # 3
    frequency:    0.9853870996
  - # 4
    frequency:    1.0187970014
  - # 5
    frequency:    1.4582369392
  - # 6
    frequency:    1.7061435685
  - # 7
    frequency:    2.0092266812
  - # 8
    frequency:    5.0864926049
  - # 9
    frequency:    5.1856581208
  - # 10
    frequency:    5.6939594978
  - # 11
    frequency:    7.4145215949
  - # 12
    frequency:    7.5609418770
  - # 13
    frequency:    8.2637765758
  - # 14
    frequency:    8.3876410995
  - # 15
    frequency:    8.7505379400
  - # 16
    frequency:   11.6917348263
  - # 17
    frequency:   13.9151401055
  - # 18
    frequency:   13.9672002348
  - # 19
    frequency:   14.1326645316
  - # 20
    frequency:   14.1723688600
  - # 21
    frequency:   15.6899910609
  - # 22
    frequency:   17.1713205322
  - # 23
    frequency:   17.2045501833
  - # 24
    frequency:   27.3632593087
  - # 25
    frequency:   31.9436694889
  - # 26
    frequency:   57.3395222595
  - # 27
    frequency:   67.8132220593

- q-position: [    0.0707071,    0.0000000,    0.0000000 ]
  distance:    0.0254589
  band:
  - # 1
    frequency:   -0.2618467469
  - # 2
    frequency:    0.4017758523
  - # 3
    frequency:    1.0889218991
  - # 4
    frequency:    1.0901239736
  - # 5
    frequency:    1.4988596396
  - # 6
    frequency:    1.8094618144
  - # 7
    frequency:    2.1249675557
  - # 8
    frequency:    5.0928014219
  - # 9
    frequency:    5.2063033768
  - # 10
    frequency:    5.6837104944
  - # 11
    frequency:    7.4080417014
  - # 12
    frequency:    7.5754543055
  - # 13
    frequency:    8.2595144401
  - # 14
    frequency:    8.4005607586
  - # 15
    frequency:    8.7439529332
  - # 16
    frequency:   11.6649815321
  - # 17
    frequency:   13.9161851610
  - # 18
    frequency:   13.9763720852
  - # 19
    frequency:   14.1333212672
  - # 20
    frequency:   14.1790851654
  - # 21
    frequency:   15.6823569825
  - # 22
    frequency:   17.1694098994
  - # 23
    frequency:   17.2074692007
  - # 24
    frequency:   27.3605251057
  - # 25
    frequency:   31.9330999238
  - # 26
    frequency:   57.3161587891
  - # 27
    frequency:   67.8075568992

- q-position: [    0.0757576,    0.0000000,    0.0000000 ]
  distance:    0.0272774
  band:
  - # 1
    frequency:   -0.1068501313
  - # 2
    frequency:    0.4553362699
  - # 3
    frequency:    1.1565266335
  - # 4
    frequency:    1.1917208585
  - # 5
    frequency:    1.5426035038
  - # 6
    frequency:    1.9091723530
  - # 7
    frequency:    2.2441457973
  - # 8
    frequency:    5.0994656849
  - # 9
    frequency:    5.2279149250
  - # 10
    frequency:    5.6733280896
  - # 11
    frequency:    7.4012108500
  - # 12
    frequency:    7.5905298521
  - # 13
    frequency:    8.2549777514
  - # 14
    frequency:    8.4134618218
  - # 15
    frequency:    8.7377295728
  - # 16
    frequency:   11.6365451808
  - # 17
    frequency:   13.9173199516
  - # 18
    frequency:   13.9861780086
  - # 19
    frequency:   14.1340406769
  - # 20
    frequency:   14.1862313783
  - # 21
    frequency:   15.6742380681
  - # 22
    frequency:   17.1673629337
  - # 23
    frequency:   17.2104726612
  - # 24
    frequency:   27.3576034337
  - # 25
    frequency:   31.9218776181
  - # 26
    frequency:   57.2912334769
  - # 27
    frequency:   67.8015297570

- q-position: [    0.0808081,    0.0000000,    0.0000000 ]
  distance:    0.0290959
  band:
  - # 1
    frequency:    0.2214396012
  - # 2
    frequency:    0.5103325019
  - # 3
    frequency:    1.2213993628
  - # 4
    frequency:    1.2907946233
  - # 5
    frequency:    1.5894864670
  - # 6
    frequency:    2.0063787028
  - # 7
    frequency:    2.3652264986
  - # 8
    frequency:    5.1064639133
  - # 9
    frequency:    5.2503678833
  - # 10
    frequency:    5.6629521772
  - # 11
    frequency:    7.3940549304
  - # 12
    frequency:    7.6060899220
  - # 13
    frequency:    8.2501749775
  - # 14
    frequency:    8.4260222964
  - # 15
    frequency:    8.7321584524
  - # 16
    frequency:   11.6064878977
  - # 17
    frequency:   13.9185465114
  - # 18
    frequency:   13.9966080101
  - # 19
    frequency:   14.1348251373
  - # 20
    frequency:   14.1937945079
  - # 21
    frequency:   15.6656533957
  - # 22
    frequency:   17.1651784642
  - # 23
    frequency:   17.2135340639
  - # 24
    frequency:   27.3544976456
  - # 25
    frequency:   31.9100289843
  - # 26
    frequency:   57.2647813025
  - # 27
    frequency:   67.7951523913

- q-position: [    0.0858586,    0.0000000,    0.0000000 ]
  distance:    0.0309144
  band:
  - # 1
    frequency:    0.3357867006
  - # 2
    frequency:    0.5668362896
  - # 3
    frequency:    1.2834184456
  - # 4
    frequency:    1.3877676015
  - # 5
    frequency:    1.6394501877
  - # 6
    frequency:    2.1019126306
  - # 7
    frequency:    2.4869880274
  - # 8
    frequency:    5.1137739954
  - # 9
    frequency:    5.2735182876
  - # 10
    frequency:    5.6527447313
  - # 11
    frequency:    7.3866009657
  - # 12
    frequency:    7.6220569067
  - # 13
    frequency:    8.2451150543
  - # 14
    frequency:    8.4378580771
  - # 15
    frequency:    8.7275901677
  - # 16
    frequency:   11.5748755483
  - # 17
    frequency:   13.9198668248
  - # 18
    frequency:   14.0076513056
  - # 19
    frequency:   14.1356769950
  - # 20
    frequency:   14.2017610700
  - # 21
    frequency:   15.6566237975
  - # 22
    frequency:   17.1628546477
  - # 23
    frequency:   17.2166256507
  - # 24
    frequency:   27.3512113594
  - # 25
    frequency:   31.8975817606
  - # 26
    frequency:   57.2368392565
  - # 27
    frequency:   67.7884371724

- q-position: [    0.0909091,    0.0000000,    0.0000000 ]
  distance:    0.0327329
  band:
  - # 1
    frequency:    0.4238958202
  - # 2
    frequency:    0.6248642125
  - # 3
    frequency:    1.3425800111
  - # 4
    frequency:    1.4829368647
  - # 5
    frequency:    1.6923317702
  - # 6
    frequency:    2.1963380686
  - # 7
    frequency:    2.6085106231
  - # 8
    frequency:    5.1213733515
  - # 9
    frequency:    5.2971941665
  - # 10
    frequency:    5.6428995080
  - # 11
    frequency:    7.3788769653
  - # 12
    frequency:    7.6383540433
  - # 13
    frequency:    8.2398073650
  - # 14
    frequency:    8.4485286115
  - # 15
    frequency:    8.7244302525
  - # 16
    frequency:   11.5417776632
  - # 17
    frequency:   13.9212827973
  - # 18
    frequency:   14.0192963001
  - # 19
    frequency:   14.1365985381
  - # 20
    frequency:   14.2101171310
  - # 21
    frequency:   15.6471718798
  - # 22
    frequency:   17.1603889265
  - # 23
    frequency:   17.2197185085
  - # 24
    frequency:   27.3477484610
  - # 25
    frequency:   31.8845649188
  - # 26
    frequency:   57.2074462643
  - # 27
    frequency:   67.7813970452

- q-position: [    0.0959596,    0.0000000,    0.0000000 ]
  distance:    0.0345514
  band:
  - # 1
    frequency:    0.4997873049
  - # 2
    frequency:    0.6844009908
  - # 3
    frequency:    1.3990055092
  - # 4
    frequency:    1.5765156750
  - # 5
    frequency:    1.7478555785
  - # 6
    frequency:    2.2900114396
  - # 7
    frequency:    2.7291098830
  - # 8
    frequency:    5.1292391040
  - # 9
    frequency:    5.3211811978
  - # 10
    frequency:    5.6336572447
  - # 11
    frequency:    7.3709117653
  - # 12
    frequency:    7.6549050327
  - # 13
    frequency:    8.2342617174
  - # 14
    frequency:    8.4575621305
  - # 15
    frequency:    8.7231147135
  - # 16
    frequency:   11.5072673624
  - # 17
    frequency:   13.9227962264
  - # 18
    frequency:   14.0315305623
  - # 19
    frequency:   14.1375919670
  - # 20
    frequency:   14.2188483476
  - # 21
    frequency:   15.6373220289
  - # 22
    frequency:   17.1577779990
  - # 23
    frequency:   17.2227826749
  - # 24
    frequency:   27.3441131066
  - # 25
    frequency:   31.8710085694
  - # 26
    frequency:   57.1766431064
  - # 27
    frequency:   67.7740454903

- q-position: [    0.1010101,    0.0000000,    0.0000000 ]
  distance:    0.0363699
  band:
  - # 1
    frequency:    0.5683247457
  - # 2
    frequency:    0.7454113807
  - # 3
    frequency:    1.4529232755
  - # 4
    frequency:    1.6686593976
  - # 5
    frequency:    1.8056511015
  - # 6
    frequency:    2.3831446156
  - # 7
    frequency:    2.8482686090
  - # 8
    frequency:    5.1373482526
  - # 9
    frequency:    5.3451999848
  - # 10
    frequency:    5.6253293099
  - # 11
    frequency:    7.3627348560
  - # 12
    frequency:    7.6716334275
  - # 13
    frequency:    8.2284883207
  - # 14
    frequency:    8.4645084776
  - # 15
    frequency:    8.7240581349
  - # 16
    frequency:   11.4714212794
  - # 17
    frequency:   13.9244087745
  - # 18
    frequency:   14.0443407963
  - # 19
    frequency:   14.1386593663
  - # 20
    frequency:   14.2279400063
  - # 21
    frequency:   15.6271004051
  - # 22
    frequency:   17.1550178057
  - # 23
    frequency:   17.2257872479
  - # 24
    frequency:   27.3403097235
  - # 25
    frequency:   31.8569438620
  - # 26
    frequency:   57.1444723350
  - # 27
    frequency:   67.7663964846

- q-position: [    0.1060606,    0.0000000,    0.0000000 ]
  distance:    0.0381884
  band:
  - # 1
    frequency:    0.6318548602
  - # 2
    frequency:    0.8078467859
  - # 3
    frequency:    1.5046302008
  - # 4
    frequency:    1.7594823126
  - # 5
    frequency:    1.8652907698
  - # 6
    frequency:    2.4758536709
  - # 7
    frequency:    2.9655836265
  - # 8
    frequency:    5.1456778538
  - # 9
    frequency:    5.3688713383
  - # 10
    frequency:    5.6183334028
  - # 11
    frequency:    7.3543761980
  - # 12
    frequency:    7.6884617955
  - # 13
    frequency:    8.2224977603
  - # 14
    frequency:    8.4690161115
  - # 15
    frequency:    8.7275777796
  - # 16
    frequency:   11.4343194824
  - # 17
    frequency:   13.9261219421
  - # 18
    frequency:   14.0577128077
  - # 19
    frequency:   14.1398026779
  - # 20
    frequency:   14.2373770624
  - # 21
    frequency:   15.6165349229
  - # 22
    frequency:   17.1521035290
  - # 23
    frequency:   17.2287004977
  - # 24
    frequency:   27.3363430101
  - # 25
    frequency:   31.8424028846
  - # 26
    frequency:   57.1109781872
  - # 27
    frequency:   67.7584644600

- q-position: [    0.1111111,    0.0000000,    0.0000000 ]
  distance:    0.0400069
  band:
  - # 1
    frequency:    0.6917086970
  - # 2
    frequency:    0.8716492290
  - # 3
    frequency:    1.5544476932
  - # 4
    frequency:    1.8490688763
  - # 5
    frequency:    1.9263335253
  - # 6
    frequency:    2.5681926463
  - # 7
    frequency:    3.0807281944
  - # 8
    frequency:    5.1542052032
  - # 9
    frequency:    5.3916681911
  - # 10
    frequency:    5.6132426619
  - # 11
    frequency:    7.3458660270
  - # 12
    frequency:    7.7053106706
  - # 13
    frequency:    8.2163009719
  - # 14
    frequency:    8.4709090015
  - # 15
    frequency:    8.7338179692
  - # 16
    frequency:   11.3960453920
  - # 17
    frequency:   13.9279370437
  - # 18
    frequency:   14.0716314641
  - # 19
    frequency:   14.1410236745
  - # 20
    frequency:   14.2471441805
  - # 21
    frequency:   15.6056552196
  - # 22
    frequency:   17.1490296070
  - # 23
    frequency:   17.2314899827
  - # 24
    frequency:   27.3322179341
  - # 25
    frequency:   31.8274185587
  - # 26
    frequency:   57.0762064957
  - # 27
    frequency:   67.7502642615

- q-position: [    0.1161616,    0.0000000,    0.0000000 ]
  distance:    0.0418254
  band:
  - # 1
    frequency:    0.7487191896
  - # 2
    frequency:    0.9367539129
  - # 3
    frequency:    1.6026850905
  - # 4
    frequency:    1.9374814739
  - # 5
    frequency:    1.9883609754
  - # 6
    frequency:    2.6601758425
  - # 7
    frequency:    3.1934263730
  - # 8
    frequency:    5.1629080177
  - # 9
    frequency:    5.4128660017
  - # 10
    frequency:    5.6108362980
  - # 11
    frequency:    7.3372346493
  - # 12
    frequency:    7.7220973059
  - # 13
    frequency:    8.2099092138
  - # 14
    frequency:    8.4702262258
  - # 15
    frequency:    8.7427119266
  - # 16
    frequency:   11.3566856929
  - # 17
    frequency:   13.9298551851
  - # 18
    frequency:   14.0860806469
  - # 19
    frequency:   14.1423239347
  - # 20
    frequency:   14.2572257802
  - # 21
    frequency:   15.5944926122
  - # 22
    frequency:   17.1457897616
  - # 23
    frequency:   17.2341226670
  - # 24
    frequency:   27.3279397306
  - # 25
    frequency:   31.8120245332
  - # 26
    frequency:   57.0402045966
  - # 27
    frequency:   67.7418111038

- q-position: [    0.1212121,    0.0000000,    0.0000000 ]
  distance:    0.0436439
  band:
  - # 1
    frequency:    0.8034433244
  - # 2
    frequency:    1.0030909769
  - # 3
    frequency:    1.6496166877
  - # 4
    frequency:    2.0247658857
  - # 5
    frequency:    2.0509999604
  - # 6
    frequency:    2.7517922490
  - # 7
    frequency:    3.3034356735
  - # 8
    frequency:    5.1717646174
  - # 9
    frequency:    5.4315434560
  - # 10
    frequency:    5.6120999097