nqpoint: 300    
npath: 3      
segment_nqpoint:
- 100
- 100
- 100
labels:
- [ 'G', 'M' ]
- [ 'M', 'K' ]
- [ 'K', 'G' ]
reciprocal_lattice:
- [   0.29830166,   0.17222455,   0.00000000 ] # a*
- [   0.00000000,   0.34444909,   0.00000000 ] # b*
- [   0.00000000,   0.00000000,   0.03910128 ] # c*
natom: 7      
lattice:
- [     3.352311164437264,     0.000000000000000,     0.000000000000000 ] # a
- [    -1.676155582218632,     2.903186629789354,     0.000000000000000 ] # b
- [     0.000000000000000,     0.000000000000000,    25.574608680646850 ] # c
points:
- symbol: C # 1
  coordinates: [  0.000000000000000,  0.000000000000000,  0.551159665327555 ]
  mass: 12.010700
- symbol: C # 2
  coordinates: [  0.666666984744047,  0.333332985985145,  0.398349329957031 ]
  mass: 12.010700
- symbol: F # 3
  coordinates: [  0.333332985432215,  0.666666983183674,  0.648088457094923 ]
  mass: 18.998403
- symbol: Hf # 4
  coordinates: [  0.333332985432215,  0.666666983183674,  0.504708096637088 ]
  mass: 178.490000
- symbol: Hf # 5
  coordinates: [  0.666666984744047,  0.333332985985145,  0.596684950137978 ]
  mass: 178.490000
- symbol: N # 6
  coordinates: [  0.666666984744047,  0.333332985985145,  0.351911542905077 ]
  mass: 14.006700
- symbol: O # 7
  coordinates: [  0.666666984744047,  0.333332985985145,  0.450733509980299 ]
  mass: 15.999400

phonon:
- q-position: [    0.0000000,    0.0000000,    0.0000000 ]
  distance:    0.0000000
  band:
  - # 1
    frequency:   -0.0000090986
  - # 2
    frequency:   -0.0000003967
  - # 3
    frequency:    0.0000071441
  - # 4
    frequency:    2.1095146152
  - # 5
    frequency:    2.1095146152
  - # 6
    frequency:    3.7336084139
  - # 7
    frequency:    3.7336084140
  - # 8
    frequency:    4.7622638401
  - # 9
    frequency:    4.7622638401
  - # 10
    frequency:    5.4470891255
  - # 11
    frequency:    5.9060511530
  - # 12
    frequency:    5.9060511530
  - # 13
    frequency:    8.2366280452
  - # 14
    frequency:   11.2748419649
  - # 15
    frequency:   14.0921773937
  - # 16
    frequency:   14.0921773938
  - # 17
    frequency:   17.0059714588
  - # 18
    frequency:   19.2322834254
  - # 19
    frequency:   19.2322834255
  - # 20
    frequency:   31.5261478234
  - # 21
    frequency:   67.9024256913

- q-position: [    0.0050505,    0.0000000,    0.0000000 ]
  distance:    0.0017396
  band:
  - # 1
    frequency:    0.0009848610
  - # 2
    frequency:    0.0421288816
  - # 3
    frequency:    0.0858643457
  - # 4
    frequency:    2.1092959670
  - # 5
    frequency:    2.1098925183
  - # 6
    frequency:    3.7334647695
  - # 7
    frequency:    3.7340536779
  - # 8
    frequency:    4.7627379867
  - # 9
    frequency:    4.7630463690
  - # 10
    frequency:    5.4469026332
  - # 11
    frequency:    5.9061147917
  - # 12
    frequency:    5.9063559990
  - # 13
    frequency:    8.2360850484
  - # 14
    frequency:   11.2742276955
  - # 15
    frequency:   14.0922190726
  - # 16
    frequency:   14.0923296008
  - # 17
    frequency:   17.0058684728
  - # 18
    frequency:   19.2319774759
  - # 19
    frequency:   19.2324765650
  - # 20
    frequency:   31.5257001180
  - # 21
    frequency:   67.9021655087

- q-position: [    0.0101010,    0.0000000,    0.0000000 ]
  distance:    0.0034793
  band:
  - # 1
    frequency:    0.0039368298
  - # 2
    frequency:    0.0843050161
  - # 3
    frequency:    0.1717253787
  - # 4
    frequency:    2.1086410468
  - # 5
    frequency:    2.1110249181
  - # 6
    frequency:    3.7330294119
  - # 7
    frequency:    3.7353866642
  - # 8
    frequency:    4.7641629934
  - # 9
    frequency:    4.7653916586
  - # 10
    frequency:    5.4463443670
  - # 11
    frequency:    5.9063051221
  - # 12
    frequency:    5.9072679518
  - # 13
    frequency:    8.2344568350
  - # 14
    frequency:   11.2723861236
  - # 15
    frequency:   14.0923440658
  - # 16
    frequency:   14.0927860389
  - # 17
    frequency:   17.0055596997
  - # 18
    frequency:   19.2310610168
  - # 19
    frequency:   19.2330538123
  - # 20
    frequency:   31.5243580301
  - # 21
    frequency:   67.9013855238

- q-position: [    0.0151515,    0.0000000,    0.0000000 ]
  distance:    0.0052189
  band:
  - # 1
    frequency:    0.0088541581
  - # 2
    frequency:    0.1265746875
  - # 3
    frequency:    0.2575790164
  - # 4
    frequency:    2.1075529414
  - # 5
    frequency:    2.1129079959
  - # 6
    frequency:    3.7322892846
  - # 7
    frequency:    3.7375990166
  - # 8
    frequency:    4.7665463725
  - # 9
    frequency:    4.7692927476
  - # 10
    frequency:    5.4454179660
  - # 11
    frequency:    5.9066204038
  - # 12
    frequency:    5.9087792817
  - # 13
    frequency:    8.2317457384
  - # 14
    frequency:   11.2693209551
  - # 15
    frequency:   14.0925522423
  - # 16
    frequency:   14.0935461588
  - # 17
    frequency:   17.0050456944
  - # 18
    frequency:   19.2295382127
  - # 19
    frequency:   19.2340086678
  - # 20
    frequency:   31.5221246419
  - # 21
    frequency:   67.9000874241

- q-position: [    0.0202020,    0.0000000,    0.0000000 ]
  distance:    0.0069586
  band:
  - # 1
    frequency:    0.0157328862
  - # 2
    frequency:    0.1689822666
  - # 3
    frequency:    0.3434196351
  - # 4
    frequency:    2.1060368401
  - # 5
    frequency:    2.1155357530
  - # 6
    frequency:    3.7312233374
  - # 7
    frequency:    3.7406770030
  - # 8
    frequency:    4.7699000273
  - # 9
    frequency:    4.7747378064
  - # 10
    frequency:    5.4441295193
  - # 11
    frequency:    5.9070577915
  - # 12
    frequency:    5.9108771934
  - # 13
    frequency:    8.2279556527
  - # 14
    frequency:   11.2650383562
  - # 15
    frequency:   14.0928433822
  - # 16
    frequency:   14.0946090460
  - # 17
    frequency:   17.0043273819
  - # 18
    frequency:   19.2274159913
  - # 19
    frequency:   19.2353303482
  - # 20
    frequency:   31.5190050803
  - # 21
    frequency:   67.8982740157

- q-position: [    0.0252525,    0.0000000,    0.0000000 ]
  distance:    0.0086982
  band:
  - # 1
    frequency:    0.0245674113
  - # 2
    frequency:    0.2115693243
  - # 3
    frequency:    0.4292392853
  - # 4
    frequency:    2.1041000992
  - # 5
    frequency:    2.1189005528
  - # 6
    frequency:    3.7298035598
  - # 7
    frequency:    3.7446017975
  - # 8
    frequency:    4.7742393556
  - # 9
    frequency:    4.7817098065
  - # 10
    frequency:    5.4424876057
  - # 11
    frequency:    5.9076134158
  - # 12
    frequency:    5.9135439548
  - # 13
    frequency:    8.2230920421
  - # 14
    frequency:   11.2595469377
  - # 15
    frequency:   14.0932171735
  - # 16
    frequency:   14.0959734213
  - # 17
    frequency:   17.0034060586
  - # 18
    frequency:   19.2247040227
  - # 19
    frequency:   19.2370038593
  - # 20
    frequency:   31.5150065008
  - # 21
    frequency:   67.8959492143

- q-position: [    0.0303030,    0.0000000,    0.0000000 ]
  distance:    0.0104379
  band:
  - # 1
    frequency:    0.0353504353
  - # 2
    frequency:    0.2543738202
  - # 3
    frequency:    0.5150268892
  - # 4
    frequency:    2.1017523272
  - # 5
    frequency:    2.1229938690
  - # 6
    frequency:    3.7279963639
  - # 7
    frequency:    3.7493498507
  - # 8
    frequency:    4.7795820543
  - # 9
    frequency:    4.7901860808
  - # 10
    frequency:    5.4405033546
  - # 11
    frequency:    5.9082824929
  - # 12
    frequency:    5.9167570740
  - # 13
    frequency:    8.2171619515
  - # 14
    frequency:   11.2528577329
  - # 15
    frequency:   14.0936732088
  - # 16
    frequency:   14.0976376428
  - # 17
    frequency:   17.0022833932
  - # 18
    frequency:   19.2214146912
  - # 19
    frequency:   19.2390100983
  - # 20
    frequency:   31.5101380666
  - # 21
    frequency:   67.8931180327

- q-position: [    0.0353535,    0.0000000,    0.0000000 ]
  distance:    0.0121775
  band:
  - # 1
    frequency:    0.0480729054
  - # 2
    frequency:    0.2974293875
  - # 3
    frequency:    0.6007674055
  - # 4
    frequency:    2.0990054871
  - # 5
    frequency:    2.1278072309
  - # 6
    frequency:    3.7257642534
  - # 7
    frequency:    3.7548933312
  - # 8
    frequency:    4.7859466839
  - # 9
    frequency:    4.8001377938
  - # 10
    frequency:    5.4381905360
  - # 11
    frequency:    5.9090594605
  - # 12
    frequency:    5.9204895210
  - # 13
    frequency:    8.2101740214
  - # 14
    frequency:   11.2449841696
  - # 15
    frequency:   14.0942109809
  - # 16
    frequency:   14.0995997072
  - # 17
    frequency:   17.0009614279
  - # 18
    frequency:   19.2175630589
  - # 19
    frequency:   19.2413259816
  - # 20
    frequency:   31.5044109202
  - # 21
    frequency:   67.8897865642

- q-position: [    0.0404040,    0.0000000,    0.0000000 ]
  distance:    0.0139171
  band:
  - # 1
    frequency:    0.0627239528
  - # 2
    frequency:    0.3407647283
  - # 3
    frequency:    0.6864409432
  - # 4
    frequency:    2.0958740104
  - # 5
    frequency:    2.1333333587
  - # 6
    frequency:    3.7230677016
  - # 7
    frequency:    3.7612006115
  - # 8
    frequency:    4.7933510635
  - # 9
    frequency:    4.8115293424
  - # 10
    frequency:    5.4355656875
  - # 11
    frequency:    5.9099381337
  - # 12
    frequency:    5.9247099893
  - # 13
    frequency:    8.2021385050
  - # 14
    frequency:   11.2359420351
  - # 15
    frequency:   14.0948298771
  - # 16
    frequency:   14.1018572522
  - # 17
    frequency:   16.9994425802
  - # 18
    frequency:   19.2131668206
  - # 19
    frequency:   19.2439245996
  - # 20
    frequency:   31.4978381504
  - # 21
    frequency:   67.8859619629

- q-position: [    0.0454545,    0.0000000,    0.0000000 ]
  distance:    0.0156568
  band:
  - # 1
    frequency:    0.0792908353
  - # 2
    frequency:    0.3844031269
  - # 3
    frequency:    0.7720217937
  - # 4
    frequency:    2.0923749179
  - # 5
    frequency:    2.1395674892
  - # 6
    frequency:    3.7198671484
  - # 7
    frequency:    3.7682367765
  - # 8
    frequency:    4.8018105811
  - # 9
    frequency:    4.8243177075
  - # 10
    frequency:    5.4326482911
  - # 11
    frequency:    5.9109118788
  - # 12
    frequency:    5.9293831945
  - # 13
    frequency:    8.1930672870
  - # 14
    frequency:   11.2257494352
  - # 15
    frequency:   14.0955291739
  - # 16
    frequency:   14.1044075592
  - # 17
    frequency:   16.9977296447
  - # 18
    frequency:   19.2082462517
  - # 19
    frequency:   19.2467753959
  - # 20
    frequency:   31.4904347526
  - # 21
    frequency:   67.8816524206

- q-position: [    0.0505051,    0.0000000,    0.0000000 ]
  distance:    0.0173964
  band:
  - # 1
    frequency:    0.0977588868
  - # 2
    frequency:    0.4283620840
  - # 3
    frequency:    0.8574773400
  - # 4
    frequency:    2.0885279429
  - # 5
    frequency:    2.1465088998
  - # 6
    frequency:    3.7161250201
  - # 7
    frequency:    3.7759641304
  - # 8
    frequency:    4.8113365065
  - # 9
    frequency:    4.8384517729
  - # 10
    frequency:    5.4294610154
  - # 11
    frequency:    5.9119737990
  - # 12
    frequency:    5.9344702046
  - # 13
    frequency:    8.1829739055
  - # 14
    frequency:   11.2144267459
  - # 15
    frequency:   14.0963080307
  - # 16
    frequency:   14.1072475567
  - # 17
    frequency:   16.9958257947
  - # 18
    frequency:   19.2028241469
  - # 19
    frequency:   19.2498443678
  - # 20
    frequency:   31.4822175832
  - # 21
    frequency:   67.8768671402

- q-position: [    0.0555556,    0.0000000,    0.0000000 ]
  distance:    0.0191361
  band:
  - # 1
    frequency:    0.1181114773
  - # 2
    frequency:    0.4726530691
  - # 3
    frequency:    0.9427667813
  - # 4
    frequency:    2.0843556523
  - # 5
    frequency:    2.1541626581
  - # 6
    frequency:    3.7118076747
  - # 7
    frequency:    3.7843426808
  - # 8
    frequency:    4.8219343988
  - # 9
    frequency:    4.8538716184
  - # 10
    frequency:    5.4260300439
  - # 11
    frequency:    5.9131169263
  - # 12
    frequency:    5.9399287972
  - # 13
    frequency:    8.1718735738
  - # 14
    frequency:   11.2019965593
  - # 15
    frequency:   14.0971654839
  - # 16
    frequency:   14.1103738234
  - # 17
    frequency:   16.9937345845
  - # 18
    frequency:   19.1969257512
  - # 19
    frequency:   19.2530942889
  - # 20
    frequency:   31.4732053096
  - # 21
    frequency:   67.8716163062

- q-position: [    0.0606061,    0.0000000,    0.0000000 ]
  distance:    0.0208757
  band:
  - # 1
    frequency:    0.1403299872
  - # 2
    frequency:    0.5172813844
  - # 3
    frequency:    1.0278395837
  - # 4
    frequency:    2.0798835617
  - # 5
    frequency:    2.1625416504
  - # 6
    frequency:    3.7068871804
  - # 7
    frequency:    3.7933305852
  - # 8
    frequency:    4.8336026901
  - # 9
    frequency:    4.8705077846
  - # 10
    frequency:    5.4223855178
  - # 11
    frequency:    5.9143344158
  - # 12
    frequency:    5.9457138417
  - # 13
    frequency:    8.1597832043
  - # 14
    frequency:   11.1884836218
  - # 15
    frequency:   14.0981004408
  - # 16
    frequency:   14.1137825928
  - # 17
    frequency:   16.9914599508
  - # 18
    frequency:   19.1905786830
  - # 19
    frequency:   19.2564849488
  - # 20
    frequency:   31.4634183533
  - # 21
    frequency:   67.8659110520

- q-position: [    0.0656566,    0.0000000,    0.0000000 ]
  distance:    0.0226153
  band:
  - # 1
    frequency:    0.1643937955
  - # 2
    frequency:    0.5622461282
  - # 3
    frequency:    1.1126335288
  - # 4
    frequency:    2.0751402439
  - # 5
    frequency:    2.1716689860
  - # 6
    frequency:    3.7013428490
  - # 7
    frequency:    3.8028845486
  - # 8
    frequency:    4.8463315189
  - # 9
    frequency:    4.8882804900
  - # 10
    frequency:    5.4185621319
  - # 11
    frequency:    5.9156197366
  - # 12
    frequency:    5.9517777008
  - # 13
    frequency:    8.1467214322
  - # 14
    frequency:   11.1739147661
  - # 15
    frequency:   14.0991116738
  - # 16
    frequency:   14.1174697576
  - # 17
    frequency:   16.9890062150
  - # 18
    frequency:   19.1838128487
  - # 19
    frequency:   19.2599734097
  - # 20
    frequency:   31.4528788290
  - # 21
    frequency:   67.8597634237

- q-position: [    0.0707071,    0.0000000,    0.0000000 ]
  distance:    0.0243550
  band:
  - # 1
    frequency:    0.1902802826
  - # 2
    frequency:    0.6075402442
  - # 3
    frequency:    1.1970721705
  - # 4
    frequency:    2.0701574278
  - # 5
    frequency:    2.1815809319
  - # 6
    frequency:    3.6951624630
  - # 7
    frequency:    3.8129601674
  - # 8
    frequency:    4.8601018636
  - # 9
    frequency:    4.9070987602
  - # 10
    frequency:    5.4145999321
  - # 11
    frequency:    5.9169668558
  - # 12
    frequency:    5.9580706494
  - # 13
    frequency:    8.1327086390
  - # 14
    frequency:   11.1583188356
  - # 15
    frequency:   14.1001978157
  - # 16
    frequency:   14.1214308751
  - # 17
    frequency:   16.9863780839
  - # 18
    frequency:   19.1766603491
  - # 19
    frequency:   19.2635142767
  - # 20
    frequency:   31.4416104778
  - # 21
    frequency:   67.8531863423

- q-position: [    0.0757576,    0.0000000,    0.0000000 ]
  distance:    0.0260946
  band:
  - # 1
    frequency:    0.2179648469
  - # 2
    frequency:    0.6531506401
  - # 3
    frequency:    1.2810614219
  - # 4
    frequency:    2.0649700901
  - # 5
    frequency:    2.1923306296
  - # 6
    frequency:    3.6883431574
  - # 7
    frequency:    3.8235122231
  - # 8
    frequency:    4.8748850100
  - # 9
    frequency:    4.9268594052
  - # 10
    frequency:    5.4105453870
  - # 11
    frequency:    5.9183704103
  - # 12
    frequency:    5.9645413096
  - # 13
    frequency:    8.1177669750
  - # 14
    frequency:   11.1417266027
  - # 15
    frequency:   14.1013573555
  - # 16
    frequency:   14.1256611728
  - # 17
    frequency:   16.9835806508
  - # 18
    frequency:   19.1691553782
  - # 19
    frequency:   19.2670599793
  - # 20
    frequency:   31.4296385962
  - # 21
    frequency:   67.8461935625

- q-position: [    0.0808081,    0.0000000,    0.0000000 ]
  distance:    0.0278343
  band:
  - # 1
    frequency:    0.2474209336
  - # 2
    frequency:    0.6990583569
  - # 3
    frequency:    1.3644848643
  - # 4
    frequency:    2.0596165407
  - # 5
    frequency:    2.2039929792
  - # 6
    frequency:    3.6808919419
  - # 7
    frequency:    3.8344949321
  - # 8
    frequency:    4.8906423598
  - # 9
    frequency:    4.9474457475
  - # 10
    frequency:    5.4064528232
  - # 11
    frequency:    5.9198258633
  - # 12
    frequency:    5.9711370990
  - # 13
    frequency:    8.1019203807
  - # 14
    frequency:   11.1241706790
  - # 15
    frequency:   14.1025886356
  - # 16
    frequency:   14.1301555552
  - # 17
    frequency:   16.9806193955
  - # 18
    frequency:   19.1613341127
  - # 19
    frequency:   19.2705610623
  - # 20
    frequency:   31.4169899604
  - # 21
    frequency:   67.8387996286

- q-position: [    0.0858586,    0.0000000,    0.0000000 ]
  distance:    0.0295739
  band:
  - # 1
    frequency:    0.2786200728
  - # 2
    frequency:    0.7452387712
  - # 3
    frequency:    1.4471971703
  - # 4
    frequency:    2.0541385051
  - # 5
    frequency:    2.2166712777
  - # 6
    frequency:    3.6728258718
  - # 7
    frequency:    3.8458621639
  - # 8
    frequency:    4.9073255654
  - # 9
    frequency:    4.9687259692
  - # 10
    frequency:    5.4023863496
  - # 11
    frequency:    5.9213296425
  - # 12
    frequency:    5.9778046925
  - # 13
    frequency:    8.0851946052
  - # 14
    frequency:   11.1056854193
  - # 15
    frequency:   14.1038898499
  - # 16
    frequency:   14.1349086109
  - # 17
    frequency:   16.9775001832
  - # 18
    frequency:   19.1532345944
  - # 19
    frequency:   19.2739664829
  - # 20
    frequency:   31.4036927455
  - # 21
    frequency:   67.8310198294

- q-position: [    0.0909091,    0.0000000,    0.0000000 ]
  distance:    0.0313136
  band:
  - # 1
    frequency:    0.3115319253
  - # 2
    frequency:    0.7916618100
  - # 3
    frequency:    1.5290147631
  - # 4
    frequency:    2.0485812103
  - # 5
    frequency:    2.2305064780
  - # 6
    frequency:    3.6641718935
  - # 7
    frequency:    3.8575676458
  - # 8
    frequency:    4.9248769609
  - # 9
    frequency:    4.9905509023
  - # 10
    frequency:    5.3984224288
  - # 11
    frequency:    5.9228792571
  - # 12
    frequency:    5.9844904981
  - # 13
    frequency:    8.0676172215
  - # 14
    frequency:   11.0863068182
  - # 15
    frequency:   14.1052590444
  - # 16
    frequency:   14.1399146203
  - # 17
    frequency:   16.9742292624
  - # 18
    frequency:   19.1448966034
  - # 19
    frequency:   19.2772239130
  - # 20
    frequency:   31.3897764420
  - # 21
    frequency:   67.8228701497

- q-position: [    0.0959596,    0.0000000,    0.0000000 ]
  distance:    0.0330532
  band:
  - # 1
    frequency:    0.3461243330
  - # 2
    frequency:    0.8382921595
  - # 3
    frequency:    1.6097024758
  - # 4
    frequency:    2.0429934805
  - # 5
    frequency:    2.2456902954
  - # 6
    frequency:    3.6549664078
  - # 7
    frequency:    3.8695651697
  - # 8
    frequency:    4.9432302412
  - # 9
    frequency:    5.0127510532
  - # 10
    frequency:    5.3946532844
  - # 11
    frequency:    5.9244733908
  - # 12
    frequency:    5.9911411485
  - # 13
    frequency:    8.0492176378
  - # 14
    frequency:   11.0660724006
  - # 15
    frequency:   14.1066941187
  - # 16
    frequency:   14.1451675648
  - # 17
    frequency:   16.9708132604
  - # 18
    frequency:   19.1363615239
  - # 19
    frequency:   19.2802800425
  - # 20
    frequency:   31.3752717671
  - # 21
    frequency:   67.8143672207

- q-position: [    0.1010101,    0.0000000,    0.0000000 ]
  distance:    0.0347928
  band:
  - # 1
    frequency:    0.3823633715
  - # 2
    frequency:    0.8850894475
  - # 3
    frequency:    1.6889546415
  - # 4
    frequency:    2.0374278516
  - # 5
    frequency:    2.2624837303
  - # 6
    frequency:    3.6452546015
  - # 7
    frequency:    3.8818088221
  - # 8
    frequency:    4.9623113365
  - # 9
    frequency:    5.0351326407
  - # 10
    frequency:    5.3911913445
  - # 11
    frequency:    5.9261119700
  - # 12
    frequency:    5.9977040098
  - # 13
    frequency:    8.0300271033
  - # 14
    frequency:   11.0450211046
  - # 15
    frequency:   14.1081928301
  - # 16
    frequency:   14.1506611360
  - # 17
    frequency:   16.9672591777
  - # 18
    frequency:   19.1276722010
  - # 19
    frequency:   19.2830808837
  - # 20
    frequency:   31.3602105727
  - # 21
    frequency:   67.8055282685

- q-position: [    0.1060606,    0.0000000,    0.0000000 ]
  distance:    0.0365325
  band:
  - # 1
    frequency:    0.4202134035
  - # 2
    frequency:    0.9320083783
  - # 3
    frequency:    1.7663690990
  - # 4
    frequency:    2.0319407172
  - # 5
    frequency:    2.2812425223
  - # 6
    frequency:    3.6350895992
  - # 7
    frequency:    3.8942532549
  - # 8
    frequency:    4.9820394277
  - # 9
    frequency:    5.0574725020
  - # 10
    frequency:    5.3881748393
  - # 11
    frequency:    5.9277962038
  - # 12
    frequency:    6.0041277108
  - # 13
    frequency:    8.0100787074
  - # 14
    frequency:   11.0231931592
  - # 15
    frequency:   14.1097527991
  - # 16
    frequency:   14.1563887467
  - # 17
    frequency:   16.9635743793
  - # 18
    frequency:   19.1188727893
  - # 19
    frequency:   19.2855720726
  - # 20
    frequency:   31.3446257511
  - # 21
    frequency:   67.7963710607

- q-position: [    0.1111111,    0.0000000,    0.0000000 ]
  distance:    0.0382721
  band:
  - # 1
    frequency:    0.4596371302
  - # 2
    frequency:    0.9789987986
  - # 3
    frequency:    1.8414142147
  - # 4
    frequency:    2.0265925206
  - # 5
    frequency:    2.3024494447
  - # 6
    frequency:    3.6245314906
  - # 7
    frequency:    3.9068540149
  - # 8
    frequency:    5.0023280480
  - # 9
    frequency:    5.0795120007
  - # 10
    frequency:    5.3857743967
  - # 11
    frequency:    5.9295285966
  - # 12
    frequency:    6.0103626986
  - # 13
    frequency:    7.9894073715
  - # 14
    frequency:   11.0006299554
  - # 15
    frequency:   14.1113715178
  - # 16
    frequency:   14.1623435416
  - # 17
    frequency:   16.9597665829
  - # 18
    frequency:   19.1100085945
  - # 19
    frequency:   19.2876991674
  - # 20
    frequency:   31.3285511360
  - # 21
    frequency:   67.7869138525

- q-position: [    0.1161616,    0.0000000,    0.0000000 ]
  distance:    0.0400118
  band:
  - # 1
    frequency:    0.5005956405
  - # 2
    frequency:    1.0260056711
  - # 3
    frequency:    1.9133950404
  - # 4
    frequency:    2.0214480116
  - # 5
    frequency:    2.3267473284
  - # 6
    frequency:    3.6136462776
  - # 7
    frequency:    3.9195679468
  - # 8
    frequency:    5.0230862251
  - # 9
    frequency:    5.1009507950
  - # 10
    frequency:    5.3841997521
  - # 11
    frequency:    5.9313129297
  - # 12
    frequency:    6.0163618232
  - # 13
    frequency:    7.9680498311
  - # 14
    frequency:   10.9773739124
  - # 15
    frequency:   14.1130463602
  - # 16
    frequency:   14.1685184105
  - # 17
    frequency:   16.9558438439
  - # 18
    frequency:   19.1011259053
  - # 19
    frequency:   19.2894079407
  - # 20
    frequency:   31.3120214023
  - # 21
    frequency:   67.7771753308

- q-position: [    0.1212121,    0.0000000,    0.0000000 ]
  distance:    0.0417514
  band:
  - # 1
    frequency:    0.5430484571
  - # 2
    frequency:    1.0729689256
  - # 3
    frequency:    1.9814402705
  - # 4
    frequency:    2.0165765914
  - # 5
    frequency:    2.3549511651
  - # 6
    frequency:    3.6025047827
  - # 7
    frequency:    3.9323536830
  - # 8
    frequency:    5.0442196265
  - # 9
    frequency:    5.1214428616
  - # 10
    frequency:    5.3837041572
  - # 11
    frequency:    5.9331542120
  - # 12
    frequency:    6.0220809582
  - # 13
    frequency:    7.9460446064
  - # 14
    frequency:   10.9534683385
  - # 15
    frequency:   14.1147745943
  - # 16
    frequency:   14.1749060011
  - # 17
    frequency:   16.9518145367
  - # 18
    frequency:   19.0922718187
  - # 19
    frequency:   19.2906446647
  - # 20
    frequency:   31.2950719621
  - # 21
    frequency:   67.7671745580

- q-position: [    0.1262626,    0.0000000,    0.0000000 ]
  distance:    0.0434910
  band:
  - # 1
    frequency:    0.5869535787
  - # 2
    frequency:    1.1198231589
  - # 3
    frequency:    2.0120527770
  - # 4
    frequency:    2.0445591183
  - # 5
    frequency:    2.3879901875
  - # 6
    frequency:    3.5911815497
  - # 7
    frequency:    3.9451722294
  - # 8
    frequency:    5.0656316783
  - # 9
    frequency:    5.1405998295
  - # 10
    frequency:    5.3845814108
  - # 11
    frequency:    5.9350585978
  - # 12
    frequency:    6.0274796634
  - # 13
    frequency:    7.9234319614
  - # 14
    frequency:   10.9289572885
  - # 15
    frequency:   14.1165533968
  - # 16
    frequency:   14.1814987342
  - # 17
    frequency:   16.9476873313
  - # 18
    frequency:   19.0834940572
  - # 19
    frequency:   19.2913563877
  - # 20
    frequency:   31.2777388597
  - # 21
    frequency:   67.7569309151

- q-position: [    0.1313131,    0.0000000,    0.0000000 ]
  distance:    0.0452307
  band:
  - # 1
    frequency:    0.6322675188
  - # 2
    frequency:    1.1664971424
  - # 3
    frequency:    2.0079568184
  - # 4
    frequency:    2.1018340549
  - # 5
    frequency:    2.4267139962
  - # 6
    frequency:    3.5797537605
  - # 7
    frequency:    3.9579876550
  - # 8
    frequency:    5.0872246387
  - # 9
    frequency:    5.1580098921
  - # 10
    frequency:    5.3871472297
  - # 11
    frequency:    5.9370332700
  - # 12
    frequency:    6.0325218940
  - # 13
    frequency:    7.9002538462
  - # 14
    frequency:   10.9038854170
  - # 15
    frequency:   14.1183798693
  - # 16
    frequency:   14.1882888184
  - # 17
    frequency:   16.9434711648
  - # 18
    frequency:   19.0748407793
  - # 19
    frequency:   19.2914912018
  - # 20
    frequency:   31.2600586640
  - # 21
    frequency:   67.7464640442

- q-position: [    0.1363636,    0.0000000,    0.0000000 ]
  distance:    0.0469703
  band:
  - # 1
    frequency:    0.6789453419
  - # 2
    frequency:    1.2129130943
  - # 3
    frequency:    2.0043755176
  - # 4
    frequency:    2.1527494726
  - # 5
    frequency:    2.4715626940
  - # 6
    frequency:    3.5683001852
  - # 7
    frequency:    3.9707678895
  - # 8
    frequency:    5.1089006151
  - # 9
    frequency:    5.1732812038
  - # 10
    frequency:    5.3916960404
  - # 11
    frequency:    5.9390862871
  - # 12
    frequency:    6.0371767613
  - # 13
    frequency:    7.8765538236
  - # 14
    frequency:   10.8782978301
  - # 15
    frequency:   14.1202510567
  - # 16
    frequency:   14.1952682671
  - # 17
    frequency:   16.9391752081
  - # 18
    frequency:   19.0663603822
  - # 19
    frequency:   19.2909984988
  - # 20
    frequency:   31.2420683597
  - # 21
    frequency:   67.7357937907

- q-position: [    0.1414141,    0.0000000,    0.0000000 ]
  distance:    0.0487100
  band:
  - # 1
    frequency:    0.7269406963
  - # 2
    frequency:    1.2589856622
  - # 3
    frequency:    2.0014032980
  - # 4
    frequency:    2.1974770436
  - # 5
    frequency:    2.5222802722
  - # 6
    frequency:    3.5569001745
  - # 7
    frequency:    3.9834856286
  - # 8
    frequency:    5.1305625212
  - # 9
    frequency:    5.1861103872
  - # 10
    frequency:    5.3984325581
  - # 11
    frequency:    5.9412263933
  - # 12
    frequency:    6.0414193461
  - # 13
    frequency:    7.8523769751
  - # 14
    frequency:   10.8522399348
  - # 15
    frequency:   14.1221639661
  - # 16
    frequency:   14.2024289160
  - # 17
    frequency:   16.9348088263
  - # 18
    frequency:   19.0581012990
  - # 19
    frequency:   19.2898292151
  - # 20
    frequency:   31.2238052371
  - # 21
    frequency:   67.7249401457

- q-position: [    0.1464646,    0.0000000,    0.0000000 ]
  distance:    0.0504496
  band:
  - # 1
    frequency:    0.7762058467
  - # 2
    frequency:    1.3046205613
  - # 3
    frequency:    1.9991435854
  - # 4
    frequency:    2.2368628467
  - # 5
    frequency:    2.5779261984
  - # 6
    frequency:    3.5456327027
  - # 7
    frequency:    3.9961193440
  - # 8
    frequency:    5.1521149745
  - # 9
    frequency:    5.1963565241
  - # 10
    frequency:    5.4073977797
  - # 11
    frequency:    5.9434627880
  - # 12
    frequency:    6.0452315633
  - # 13
    frequency:    7.8277697862
  - # 14
    frequency:   10.8257572884
  - # 15
    frequency:   14.1241155880
  - # 16
    frequency:   14.2097624417
  - # 17
    frequency:   16.9303815340
  - # 18
    frequency:   19.0501117901
  - # 19
    frequency:   19.2879360645
  - # 20
    frequency:   31.2053067814
  - # 21
    frequency:   67.7139231883

- q-position: [    0.1515152,    0.0000000,    0.0000000 ]
  distance:    0.0521893
  band:
  - # 1
    frequency:    0.8266917047
  - # 2
    frequency:    1.3497128122
  - # 3
    frequency:    1.9977105526
  - # 4
    frequency:    2.2721123086
  - # 5
    frequency:    2.6371891849
  - # 6
    frequency:    3.5345754628
  - # 7
    frequency:    4.0086543861
  - # 8
    frequency:    5.1734651396
  - # 9
    frequency:    5.2040826589
  - # 10
    frequency:    5.4184273717
  - # 11
    frequency:    5.9458048564
  - # 12
    frequency:    6.0486030648
  - # 13
    frequency:    7.8027800065
  - # 14
    frequency:   10.7988954481
  - # 15
    frequency:   14.1261029171
  - # 16
    frequency:   14.2172603805
  - # 17
    frequency:   16.9259029435
  - # 18
    frequency:   19.0424397293
  - # 19
    frequency:   19.2852737581
  - # 20
    frequency:   31.1866105610
  - # 21