nqpoint: 459    
npath: 9      
segment_nqpoint:
- 51
- 51
- 51
- 51
- 51
- 51
- 51
- 51
- 51
labels:
- [ '$\Gamma$', '$\mathrm{M}$' ]
- [ '$\mathrm{M}$', '$\mathrm{K}$' ]
- [ '$\mathrm{K}$', '$\Gamma$' ]
- [ '$\Gamma$', '$\mathrm{A}$' ]
- [ '$\mathrm{A}$', '$\mathrm{L}$' ]
- [ '$\mathrm{L}$', '$\mathrm{H}$' ]
- [ '$\mathrm{H}$', '$\mathrm{A}$' ]
- [ '$\mathrm{L}$', '$\mathrm{M}$' ]
- [ '$\mathrm{H}$', '$\mathrm{K}$' ]
reciprocal_lattice:
- [   0.25793133,   0.14891672,  -0.00000000 ] # a*
- [  -0.00000000,   0.29783345,  -0.00000000 ] # b*
- [   0.00000000,  -0.00000000,   0.04312242 ] # c*
natom: 5      
lattice:
- [     3.877000865747808,     0.000000000000001,     0.000000000000000 ] # a
- [    -1.938500432873903,     3.357581240234081,     0.000000000000000 ] # b
- [     0.000000000000002,     0.000000000000007,    23.189790885331455 ] # c
points:
- symbol: C  # 1
  coordinates: [  1.000000000000000,  0.000000000000000,  0.496768446117286 ]
  mass: 12.010700
- symbol: F  # 2
  coordinates: [  0.333332985432214,  0.666666983183674,  0.610462163653901 ]
  mass: 18.998403
- symbol: H  # 3
  coordinates: [  0.666666984744047,  0.333332985985145,  0.386409236298466 ]
  mass: 1.007940
- symbol: La # 4
  coordinates: [  0.333332985432214,  0.666666983183674,  0.432057737821314 ]
  mass: 138.905470
- symbol: La # 5
  coordinates: [  0.666666984744047,  0.333332985985145,  0.561091240408244 ]
  mass: 138.905470

phonon:
- q-position: [    0.0000000,    0.0000000,    0.0000000 ]
  distance:    0.0000000
  band:
  - # 1
    frequency:   -2.7045627598
  - # 2
    frequency:   -2.7045627598
  - # 3
    frequency:   -0.0179714453
  - # 4
    frequency:    0.0219680604
  - # 5
    frequency:    0.0219680604
  - # 6
    frequency:    2.3167353576
  - # 7
    frequency:    2.3167353576
  - # 8
    frequency:    4.6564192399
  - # 9
    frequency:    6.5313976075
  - # 10
    frequency:    6.5313976075
  - # 11
    frequency:    8.0824472095
  - # 12
    frequency:   14.3448275153
  - # 13
    frequency:   20.5838189760
  - # 14
    frequency:   24.0474666804
  - # 15
    frequency:   24.0474666804

- q-position: [    0.0100000,    0.0000000,    0.0000000 ]
  distance:    0.0029783
  band:
  - # 1
    frequency:   -2.6915990766
  - # 2
    frequency:   -2.5660602315
  - # 3
    frequency:    0.0264536473
  - # 4
    frequency:    0.0913143941
  - # 5
    frequency:    0.1535538903
  - # 6
    frequency:    2.3196724972
  - # 7
    frequency:    2.3272555742
  - # 8
    frequency:    4.6557200279
  - # 9
    frequency:    6.5301795475
  - # 10
    frequency:    6.5312729721
  - # 11
    frequency:    8.0808450345
  - # 12
    frequency:   14.3373119504
  - # 13
    frequency:   20.5764280755
  - # 14
    frequency:   24.0474647487
  - # 15
    frequency:   24.0547716737

- q-position: [    0.0200000,    0.0000000,    0.0000000 ]
  distance:    0.0059567
  band:
  - # 1
    frequency:   -2.6528960625
  - # 2
    frequency:   -2.1096496660
  - # 3
    frequency:    0.1070398676
  - # 4
    frequency:    0.1791178500
  - # 5
    frequency:    0.2986535035
  - # 6
    frequency:    2.3285865840
  - # 7
    frequency:    2.3649867996
  - # 8
    frequency:    4.6536282739
  - # 9
    frequency:    6.5266673525
  - # 10
    frequency:    6.5308951626
  - # 11
    frequency:    8.0761128959
  - # 12
    frequency:   14.3148617866
  - # 13
    frequency:   20.5543483261
  - # 14
    frequency:   24.0474500119
  - # 15
    frequency:   24.0766116031

- q-position: [    0.0300000,    0.0000000,    0.0000000 ]
  distance:    0.0089350
  band:
  - # 1
    frequency:   -2.5890436283
  - # 2
    frequency:   -1.1017533057
  - # 3
    frequency:    0.2688390593
  - # 4
    frequency:    0.2929765169
  - # 5
    frequency:    0.4579645105
  - # 6
    frequency:    2.3437910078
  - # 7
    frequency:    2.4634499846
  - # 8
    frequency:    4.6501617453
  - # 9
    frequency:    6.5213498181
  - # 10
    frequency:    6.5302526468
  - # 11
    frequency:    8.0684882139
  - # 12
    frequency:   14.2777666768
  - # 13
    frequency:   20.5178537366
  - # 14
    frequency:   24.0473960404
  - # 15
    frequency:   24.1127637952

- q-position: [    0.0400000,    0.0000000,    0.0000000 ]
  distance:    0.0119133
  band:
  - # 1
    frequency:   -2.5011159899
  - # 2
    frequency:   -0.2372931511
  - # 3
    frequency:    0.3604414683
  - # 4
    frequency:    0.5796529635
  - # 5
    frequency:    1.5667424382
  - # 6
    frequency:    2.3658239519
  - # 7
    frequency:    2.7806411349
  - # 8
    frequency:    4.6453509383
  - # 9
    frequency:    6.5153089169
  - # 10
    frequency:    6.5293267808
  - # 11
    frequency:    8.0584231503
  - # 12
    frequency:   14.2265099397
  - # 13
    frequency:   20.4673858014
  - # 14
    frequency:   24.0472600938
  - # 15
    frequency:   24.1628643734

- q-position: [    0.0500000,    0.0000000,    0.0000000 ]
  distance:    0.0148917
  band:
  - # 1
    frequency:   -2.3908246067
  - # 2
    frequency:   -0.1440654934
  - # 3
    frequency:    0.4544996074
  - # 4
    frequency:    0.7263668373
  - # 5
    frequency:    2.0296365273
  - # 6
    frequency:    2.3954636824
  - # 7
    frequency:    3.5213547142
  - # 8
    frequency:    4.6392449621
  - # 9
    frequency:    6.5109204111
  - # 10
    frequency:    6.5280926291
  - # 11
    frequency:    8.0467097624
  - # 12
    frequency:   14.1617706991
  - # 13
    frequency:   20.4035337368
  - # 14
    frequency:   24.0469850432
  - # 15
    frequency:   24.2264160052

- q-position: [    0.0600000,    0.0000000,    0.0000000 ]
  distance:    0.0178700
  band:
  - # 1
    frequency:   -2.2607581445
  - # 2
    frequency:   -0.0312232891
  - # 3
    frequency:    0.5517459788
  - # 4
    frequency:    0.8698402811
  - # 5
    frequency:    2.1667627471
  - # 6
    frequency:    2.4337285807
  - # 7
    frequency:    4.3736247455
  - # 8
    frequency:    4.6320380224
  - # 9
    frequency:    6.5140592768
  - # 10
    frequency:    6.5265200250
  - # 11
    frequency:    8.0347846980
  - # 12
    frequency:   14.0844295789
  - # 13
    frequency:   20.3270116924
  - # 14
    frequency:   24.0465019819
  - # 15
    frequency:   24.3027938347

- q-position: [    0.0700000,    0.0000000,    0.0000000 ]
  distance:    0.0208483
  band:
  - # 1
    frequency:   -2.1147078758
  - # 2
    frequency:    0.1443879310
  - # 3
    frequency:    0.6528919567
  - # 4
    frequency:    1.0112951824
  - # 5
    frequency:    2.2391506288
  - # 6
    frequency:    2.4818313319
  - # 7
    frequency:    4.6230884306
  - # 8
    frequency:    5.1592999556
  - # 9
    frequency:    6.5245747918
  - # 10
    frequency:    6.5426753855
  - # 11
    frequency:    8.0255527619
  - # 12
    frequency:   13.9955809895
  - # 13
    frequency:   20.2386357587
  - # 14
    frequency:   24.0457334456
  - # 15
    frequency:   24.3912471180

- q-position: [    0.0800000,    0.0000000,    0.0000000 ]
  distance:    0.0238267
  band:
  - # 1
    frequency:   -1.9580074736
  - # 2
    frequency:    0.2204363827
  - # 3
    frequency:    0.7583290417
  - # 4
    frequency:    1.1505597730
  - # 5
    frequency:    2.2943605741
  - # 6
    frequency:    2.5410407219
  - # 7
    frequency:    4.6134225891
  - # 8
    frequency:    5.7847982922
  - # 9
    frequency:    6.5222200392
  - # 10
    frequency:    6.6643242267
  - # 11
    frequency:    8.0260162202
  - # 12
    frequency:   13.8965565866
  - # 13
    frequency:   20.1393026365
  - # 14
    frequency:   24.0445971425
  - # 15
    frequency:   24.4908955668

- q-position: [    0.0900000,    0.0000000,    0.0000000 ]
  distance:    0.0268050
  band:
  - # 1
    frequency:   -1.7976635609
  - # 2
    frequency:    0.2904106744
  - # 3
    frequency:    0.8676202296
  - # 4
    frequency:    1.2871991721
  - # 5
    frequency:    2.3444675237
  - # 6
    frequency:    2.6124027512
  - # 7
    frequency:    4.6026487751
  - # 8
    frequency:    6.0947236893
  - # 9
    frequency:    6.5194174458
  - # 10
    frequency:    7.0122538346
  - # 11
    frequency:    8.0576180756
  - # 12
    frequency:   13.7889668954
  - # 13
    frequency:   20.0299707602
  - # 14
    frequency:   24.0430100768
  - # 15
    frequency:   24.6007211922

- q-position: [    0.1000000,    0.0000000,    0.0000000 ]
  distance:    0.0297833
  band:
  - # 1
    frequency:   -1.6418804895
  - # 2
    frequency:    0.3600558801
  - # 3
    frequency:    0.9788986719
  - # 4
    frequency:    1.4206213082
  - # 5
    frequency:    2.3937890242
  - # 6
    frequency:    2.6963187038
  - # 7
    frequency:    4.5908912118
  - # 8
    frequency:    6.1713308424
  - # 9
    frequency:    6.5161284584
  - # 10
    frequency:    7.4278874788
  - # 11
    frequency:    8.1965152866
  - # 12
    frequency:   13.6747719825
  - # 13
    frequency:   19.9116438387
  - # 14
    frequency:   24.0408929305
  - # 15
    frequency:   24.7195580427

- q-position: [    0.1100000,    0.0000000,    0.0000000 ]
  distance:    0.0327617
  band:
  - # 1
    frequency:   -1.4987042553
  - # 2
    frequency:    0.4310242216
  - # 3
    frequency:    1.0886523169
  - # 4
    frequency:    1.5500777723
  - # 5
    frequency:    2.4443707325
  - # 6
    frequency:    2.7920948004
  - # 7
    frequency:    4.5782489681
  - # 8
    frequency:    6.1760117554
  - # 9
    frequency:    6.5123153649
  - # 10
    frequency:    7.6344544476
  - # 11
    frequency:    8.5573281903
  - # 12
    frequency:   13.5563981450
  - # 13
    frequency:   19.7853563315
  - # 14
    frequency:   24.0381745570
  - # 15
    frequency:   24.8460833553

- q-position: [    0.1200000,    0.0000000,    0.0000000 ]
  distance:    0.0357400
  band:
  - # 1
    frequency:   -1.3742460225
  - # 2
    frequency:    0.5038264910
  - # 3
    frequency:    1.1924677027
  - # 4
    frequency:    1.6746488815
  - # 5
    frequency:    2.4975146432
  - # 6
    frequency:    2.8977041186
  - # 7
    frequency:    4.5648263369
  - # 8
    frequency:    6.1567242791
  - # 9
    frequency:    6.5079422424
  - # 10
    frequency:    7.6832571287
  - # 11
    frequency:    9.0393055383
  - # 12
    frequency:   13.4369260632
  - # 13
    frequency:   19.6521602514
  - # 14
    frequency:   24.0347964294
  - # 15
    frequency:   24.9788141409

- q-position: [    0.1300000,    0.0000000,    0.0000000 ]
  distance:    0.0387183
  band:
  - # 1
    frequency:   -1.2716612242
  - # 2
    frequency:    0.5785356992
  - # 3
    frequency:    1.2865433977
  - # 4
    frequency:    1.7932440899
  - # 5
    frequency:    2.5543023973
  - # 6
    frequency:    3.0099732256
  - # 7
    frequency:    4.5507374588
  - # 8
    frequency:    6.1266025588
  - # 9
    frequency:    6.5029758396
  - # 10
    frequency:    7.6811220148
  - # 11
    frequency:    9.5201743810
  - # 12
    frequency:   13.3203833381
  - # 13
    frequency:   19.5131127616
  - # 14
    frequency:   24.0307168767
  - # 15
    frequency:   25.1161130340

- q-position: [    0.1400000,    0.0000000,    0.0000000 ]
  distance:    0.0416967
  band:
  - # 1
    frequency:   -1.1915106483
  - # 2
    frequency:    0.6550277481
  - # 3
    frequency:    1.3688822822
  - # 4
    frequency:    1.9046507636
  - # 5
    frequency:    2.6157565395
  - # 6
    frequency:    3.1251589729
  - # 7
    frequency:    4.5361097917
  - # 8
    frequency:    6.0905402089
  - # 9
    frequency:    6.4973865016
  - # 10
    frequency:    7.6608861111
  - # 11
    frequency:    9.9587939467
  - # 12
    frequency:   13.2121631074
  - # 13
    frequency:   19.3692641869
  - # 14
    frequency:   24.0259149434
  - # 15
    frequency:   25.2562063626

- q-position: [    0.1500000,    0.0000000,    0.0000000 ]
  distance:    0.0446750
  band:
  - # 1
    frequency:   -1.1328601676
  - # 2
    frequency:    0.7330807693
  - # 3
    frequency:    1.4394242749
  - # 4
    frequency:    2.0076683636
  - # 5
    frequency:    2.6827976236
  - # 6
    frequency:    3.2396323755
  - # 7
    frequency:    4.5210888459
  - # 8
    frequency:    6.0509452567
  - # 9
    frequency:    6.4911492936
  - # 10
    frequency:    7.6324161935
  - # 11
    frequency:   10.3379777487
  - # 12
    frequency:   13.1194980587
  - # 13
    frequency:   19.2216462099
  - # 14
    frequency:   24.0203937057
  - # 15
    frequency:   25.3972159278

- q-position: [    0.1600000,    0.0000000,    0.0000000 ]
  distance:    0.0476534
  band:
  - # 1
    frequency:   -1.0941749388
  - # 2
    frequency:    0.8124210229
  - # 3
    frequency:    1.4994230203
  - # 4
    frequency:    2.1013403719
  - # 5
    frequency:    2.7560514088
  - # 6
    frequency:    3.3503830252
  - # 7
    frequency:    4.5058451890
  - # 8
    frequency:    6.0093077204
  - # 9
    frequency:    6.4842454905
  - # 10
    frequency:    7.5995276619
  - # 11
    frequency:   10.6458904526
  - # 12
    frequency:   13.0515911343
  - # 13
    frequency:   19.0712601390
  - # 14
    frequency:   24.0141828898
  - # 15
    frequency:   25.5372041186

- q-position: [    0.1700000,    0.0000000,    0.0000000 ]
  distance:    0.0506317
  band:
  - # 1
    frequency:   -1.0736791048
  - # 2
    frequency:    0.8927457912
  - # 3
    frequency:    1.5507119562
  - # 4
    frequency:    2.1852231358
  - # 5
    frequency:    2.8355923704
  - # 6
    frequency:    3.4552429985
  - # 7
    frequency:    4.4905846835
  - # 8
    frequency:    5.9667254326
  - # 9
    frequency:    6.4766645670
  - # 10
    frequency:    7.5640396362
  - # 11
    frequency:   10.8727399384
  - # 12
    frequency:   13.0183158053
  - # 13
    frequency:   18.9190652296
  - # 14
    frequency:   24.0073406484
  - # 15
    frequency:   25.6742300533

- q-position: [    0.1800000,    0.0000000,    0.0000000 ]
  distance:    0.0536100
  band:
  - # 1
    frequency:   -1.0693532870
  - # 2
    frequency:    0.9737356806
  - # 3
    frequency:    1.5951941937
  - # 4
    frequency:    2.2595534969
  - # 5
    frequency:    2.9207717766
  - # 6
    frequency:    3.5528889865
  - # 7
    frequency:    4.4755630938
  - # 8
    frequency:    5.9241056728
  - # 9
    frequency:    6.4684067499
  - # 10
    frequency:    7.5269667074
  - # 11
    frequency:   11.0133635303
  - # 12
    frequency:   13.0261821413
  - # 13
    frequency:   18.7659671360
  - # 14
    frequency:   23.9999543746
  - # 15
    frequency:   25.8064127729

- q-position: [    0.1900000,    0.0000000,    0.0000000 ]
  distance:    0.0565884
  band:
  - # 1
    frequency:   -1.0788347942
  - # 2
    frequency:    1.0550620553
  - # 3
    frequency:    1.6345796594
  - # 4
    frequency:    2.3252022181
  - # 5
    frequency:    3.0102470852
  - # 6
    frequency:    3.6427265973
  - # 7
    frequency:    4.4611063834
  - # 8
    frequency:    5.8822468533
  - # 9
    frequency:    6.4594860704
  - # 10
    frequency:    7.4889444922
  - # 11
    frequency:   11.0719146112
  - # 12
    frequency:   13.0730722953
  - # 13
    frequency:   18.6128067030
  - # 14
    frequency:   23.9921404573
  - # 15
    frequency:   25.9319964429

- q-position: [    0.2000000,    0.0000000,    0.0000000 ]
  distance:    0.0595667
  band:
  - # 1
    frequency:   -1.0993805747
  - # 2
    frequency:    1.1363925241
  - # 3
    frequency:    1.6702861303
  - # 4
    frequency:    2.3834428987
  - # 5
    frequency:    3.1021840318
  - # 6
    frequency:    3.7247355974
  - # 7
    frequency:    4.4476379862
  - # 8
    frequency:    5.8418696274
  - # 9
    frequency:    6.4499337251
  - # 10
    frequency:    7.4504061440
  - # 11
    frequency:   11.0623649960
  - # 12
    frequency:   13.1474530609
  - # 13
    frequency:   18.4603495018
  - # 14
    frequency:   23.9840429175
  - # 15
    frequency:   26.0494122046

- q-position: [    0.2100000,    0.0000000,    0.0000000 ]
  distance:    0.0625450
  band:
  - # 1
    frequency:   -1.1279289825
  - # 2
    frequency:    1.2173960626
  - # 3
    frequency:    1.7034272313
  - # 4
    frequency:    2.4356771341
  - # 5
    frequency:    3.1944912223
  - # 6
    frequency:    3.7993175310
  - # 7
    frequency:    4.4357136041
  - # 8
    frequency:    5.8036246534
  - # 9
    frequency:    6.4398014407
  - # 10
    frequency:    7.4116646278
  - # 11
    frequency:   11.0027982073
  - # 12
    frequency:   13.2339161253
  - # 13
    frequency:   18.3092767729
  - # 14
    frequency:   23.9758308975
  - # 15
    frequency:   26.1573317656

- q-position: [    0.2200000,    0.0000000,    0.0000000 ]
  distance:    0.0655234
  band:
  - # 1
    frequency:   -1.1612227564
  - # 2
    frequency:    1.2977486349
  - # 3
    frequency:    1.7348406597
  - # 4
    frequency:    2.4832323740
  - # 5
    frequency:    3.2849733727
  - # 6
    frequency:    3.8671618055
  - # 7
    frequency:    4.4260615864
  - # 8
    frequency:    5.7680891777
  - # 9
    frequency:    6.4291644728
  - # 10
    frequency:    7.3729549288
  - # 11
    frequency:   10.9093617085
  - # 12
    frequency:   13.3191174493
  - # 13
    frequency:   18.1601787207
  - # 14
    frequency:   23.9676950236
  - # 15
    frequency:   26.2547088559

- q-position: [    0.2300000,    0.0000000,    0.0000000 ]
  distance:    0.0685017
  band:
  - # 1
    frequency:   -1.1959397256
  - # 2
    frequency:    1.3771396949
  - # 3
    frequency:    1.7651322698
  - # 4
    frequency:    2.5272597774
  - # 5
    frequency:    3.3713848165
  - # 6
    frequency:    3.9291339807
  - # 7
    frequency:    4.4196206122
  - # 8
    frequency:    5.7357585620
  - # 9
    frequency:    6.4181238804
  - # 10
    frequency:    7.3344576681
  - # 11
    frequency:   10.7939855085
  - # 12
    frequency:   13.3939844963
  - # 13
    frequency:   18.0135513331
  - # 14
    frequency:   23.9598427004
  - # 15
    frequency:   26.3408060588

- q-position: [    0.2400000,    0.0000000,    0.0000000 ]
  distance:    0.0714800
  band:
  - # 1
    frequency:   -1.2287955862
  - # 2
    frequency:    1.4552795640
  - # 3
    frequency:    1.7947236352
  - # 4
    frequency:    2.5687031978
  - # 5
    frequency:    3.4514343710
  - # 6
    frequency:    3.9861854313
  - # 7
    frequency:    4.4175533877
  - # 8
    frequency:    5.7070361441
  - # 9
    frequency:    6.4068077861
  - # 10
    frequency:    7.2963135839
  - # 11
    frequency:   10.6647639526
  - # 12
    frequency:   13.4532833914
  - # 13
    frequency:   17.8697979472
  - # 14
    frequency:   23.9524924431
  - # 15
    frequency:   26.4152059849

- q-position: [    0.2500000,    0.0000000,    0.0000000 ]
  distance:    0.0744584
  band:
  - # 1
    frequency:   -1.2566063907
  - # 2
    frequency:    1.5319073180
  - # 3
    frequency:    1.8238965502
  - # 4
    frequency:    2.6083027025
  - # 5
    frequency:    3.5228210356
  - # 6
    frequency:    4.0392823997
  - # 7
    frequency:    4.4211949113
  - # 8
    frequency:    5.6822233764
  - # 9
    frequency:    6.3953714528
  - # 10
    frequency:    7.2586334645
  - # 11
    frequency:   10.5270387165
  - # 12
    frequency:   13.4945015969
  - # 13
    frequency:   17.7292365232
  - # 14
    frequency:   23.9458673982
  - # 15
    frequency:   26.4778070979

- q-position: [    0.2600000,    0.0000000,    0.0000000 ]
  distance:    0.0774367
  band:
  - # 1
    frequency:   -1.2763122300
  - # 2
    frequency:    1.6067985055
  - # 3
    frequency:    1.8528310415
  - # 4
    frequency:    2.6466090965
  - # 5
    frequency:    3.5833824791
  - # 6
    frequency:    4.0893523651
  - # 7
    frequency:    4.4318788453
  - # 8
    frequency:    5.6615112653
  - # 9
    frequency:    6.3839961263
  - # 10
    frequency:    7.2215059764
  - # 11
    frequency:   10.3843323712
  - # 12
    frequency:   13.5168923273
  - # 13
    frequency:   17.5921129521
  - # 14
    frequency:   23.9401882396
  - # 15
    frequency:   26.5288055803

- q-position: [    0.2700000,    0.0000000,    0.0000000 ]
  distance:    0.0804150
  band:
  - # 1
    frequency:   -1.2849662247
  - # 2
    frequency:    1.6797717804
  - # 3
    frequency:    1.8816354515
  - # 4
    frequency:    2.6839993286
  - # 5
    frequency:    3.6313972264
  - # 6
    frequency:    4.1372456554
  - # 7
    frequency:    4.4506135680
  - # 8
    frequency:    5.6449734839
  - # 9
    frequency:    6.3728866980
  - # 10
    frequency:    7.1850047976
  - # 11
    frequency:   10.2389900360
  - # 12
    frequency:   13.5208200106
  - # 13
    frequency:   17.4586197486
  - # 14
    frequency:   23.9356656663
  - # 15
    frequency:   26.5686654238

- q-position: [    0.2800000,    0.0000000,    0.0000000 ]
  distance:    0.0833934
  band:
  - # 1
    frequency:   -1.2796876073
  - # 2
    frequency:    1.7506934616
  - # 3
    frequency:    1.9103685354
  - # 4
    frequency:    2.7206906569
  - # 5
    frequency:    3.6659627566
  - # 6
    frequency:    4.1837100955
  - # 7
    frequency:    4.4776902038
  - # 8
    frequency:    5.6325611257
  - # 9
    frequency:    6.3622682942
  - # 10
    frequency:    7.1491958993
  - # 11
    frequency:   10.0925929902
  - # 12
    frequency:   13.5073407963
  - # 13
    frequency:   17.3289183505
  - # 14
    frequency:   23.9324927546
  - # 15
    frequency:   26.5980794238

- q-position: [    0.2900000,    0.0000000,    0.0000000 ]
  distance:    0.0863717
  band:
  - # 1
    frequency:   -1.2575659072
  - # 2
    frequency:    1.8194791740
  - # 3
    frequency:    1.9390544139
  - # 4
    frequency:    2.7567548322
  - # 5
    frequency:    3.6872330953
  - # 6
    frequency:    4.2293762704
  - # 7
    frequency:    4.5124396478
  - # 8
    frequency:    5.6240989711
  - # 9
    frequency:    6.3523819005
  - # 10
    frequency:    7.1141454493
  - # 11
    frequency:    9.9462249734
  - # 12
    frequency:   13.4779361395
  - # 13
    frequency:   17.2031622748
  - # 14
    frequency:   23.9308374371
  - # 15
    frequency:   26.6179240097

- q-position: [    0.3000000,    0.0000000,    0.0000000 ]
  distance:    0.0893500
  band:
  - # 1
    frequency:   -1.2154809766
  - # 2
    frequency:    1.8860920959
  - # 3
    frequency:    1.9676917060
  - # 4
    frequency:    2.7921342234
  - # 5
    frequency:    3.6963246672
  - # 6
    frequency:    4.2747508303
  - # 7
    frequency:    4.5533285893
  - # 8
    frequency:    5.6192834375
  - # 9
    frequency:    6.3434790846
  - # 10
    frequency:    7.0799284888
  - # 11
    frequency:    9.8006485932
  - # 12
    frequency:   13.4343413306
  - # 13
    frequency:   17.0815178753
  - # 14
    frequency:   23.9308353924
  - # 15
    frequency:   26.6292108786

- q-position: [    0.3100000,    0.0000000,    0.0000000 ]
  distance:    0.0923284
  band:
  - # 1
    frequency:   -1.1497537773
  - # 2
    frequency:    1.9505378569
  - # 3
    frequency:    1.9962583315
  - # 4
    frequency:    2.8266611763
  - # 5
    frequency:    3.6949359134
  - # 6
    frequency:    4.3202152787
  - # 7
    frequency:    4.5983467878
  - # 8
    frequency:    5.6176830672
  - # 9
    frequency:    6.3358158015
  - # 10
    frequency:    7.0466382099
  - # 11
    frequency:    9.6564270307
  - # 12
    frequency:   13.3784330996
  - # 13
    frequency:   16.9641796312
  - # 14
    frequency:   23.9325836298
  - # 15
    frequency:   26.6330382571

- q-position: [    0.3200000,    0.0000000,    0.0000000 ]
  distance:    0.0953067
  band:
  - # 1
    frequency:   -1.0554070062
  - # 2
    frequency:    2.0128566648
  - # 3
    frequency:    2.0247134285
  - # 4
    frequency:    2.8600808461
  - # 5
    frequency:    3.6849161143
  - # 6
    frequency:    4.3660279136
  - # 7
    frequency:    4.6454472013
  - # 8
    frequency:    5.6187433195
  - # 9
    frequency:    6.3296451698
  - # 10
    frequency:    7.0143952761
  - # 11
    frequency:    9.5140113678
  - # 12
    frequency:   13.3121548115
  - # 13
    frequency:   16.8513777602
  - # 14
    frequency:   23.9361350414
  - # 15
    frequency:   26.6305443360

- q-position: [    0.3300000,    0.0000000,    0.0000000 ]
  distance:    0.0982850
  band:
  - # 1
    frequency:   -0.9243545892
  - # 2
    frequency:    2.0529976547
  - # 3
    frequency:    2.0731136191
  - # 4
    frequency:    2.8920768095
  - # 5
    frequency:    3.6679714324
  - # 6
    frequency:    4.4123270558
  - # 7
    frequency:    4.6928476011
  - # 8
    frequency:    5.6217982385
  - # 9
    frequency:    6.3252090185
  - # 10
    frequency:    6.9833561805
  - # 11
    frequency:    9.3738048851
  - # 12
    frequency:   13.2374659858
  - # 13
    frequency:   16.7433773145
  - # 14
    frequency:   23.9414941731
  - # 15
    frequency:   26.6228650100

- q-position: [    0.3400000,    0.0000000,    0.0000000 ]
  distance:    0.1012634
  band:
  - # 1
    frequency:   -0.7397123094
  - # 2
    frequency:    2.0810329046
  - # 3
    frequency:    2.1313882841
  - # 4
    frequency:    2.9222982187
  - # 5
    frequency:    3.6455414087
  - # 6
    frequency:    4.4591343619
  - # 7
    frequency:    4.7391572846
  - # 8
    frequency:    5.6260918285
  - # 9
    frequency:    6.3227279463
  - # 10
    frequency:    6.9537191404
  - # 11
    frequency:    9.2362104855
  - # 12
    frequency:   13.1563073496
  - # 13
    frequency:   16.6404694221
  - # 14
    frequency:   23.9486144324
  - # 15
    frequency:   26.6110975628

- q-position: [    0.3500000,    0.0000000,    0.0000000 ]
  distance:    0.1042417
  band:
  - # 1
    frequency:   -0.4449475614
  - # 2
    frequency:    2.1087222030
  - # 3
    frequency:    2.1877644264
  - # 4
    frequency:    2.9503871844
  - # 5
    frequency:    3.6187897182
  - # 6
    frequency:    4.5063578415
  - # 7
    frequency:    4.7833829126
  - # 8
    frequency:    5.6308113205
  - # 9
    frequency:    6.3223896351
  - # 10
    frequency:    6.9257255684
  - # 11
    frequency:    9.1016645017
  - # 12
    frequency:   13.0705751930
  - # 13
    frequency:   16.5429566386
  - # 14
    frequency:   23.9573969085
  - # 15
    frequency:   26.5962713796

- q-position: [    0.3600000,    0.0000000,    0.0000000 ]
  distance:    0.1072200
  band:
  - # 1
    frequency:    0.4304923949
  - # 2
    frequency:    2.1359502592
  - # 3
    frequency:    2.2423204417
  - # 4
    frequency:    2.9760053720
  - # 5
    frequency:    3.5886465563
  - # 6
    frequency:    4.5537950965
  - # 7
    frequency:    4.8248755959
  - # 8
    frequency:    5.6351328883
  - # 9
    frequency:    6.3243352701
  - # 10
    frequency:    6.8996549207
  - # 11
    frequency:    8.9706586701
  - # 12
    frequency:   12.9821005485
  - # 13
    frequency:   16.4511351965
  - # 14
    frequency:   23.9676909264
  - # 15
    frequency:   26.5793262084

- q-position: [    0.3700000,    0.0000000,    0.0000000 ]
  distance:    0.1101984
  band:
  - # 1
    frequency:    0.7703041968
  - # 2
    frequency:    2.1625848916
  - # 3
    frequency:    2.2951205240
  - # 4
    frequency:    2.9988593012
  - # 5
    frequency:    3.5558640707
  - # 6
    frequency:    4.6011381152
  - # 7
    frequency:    4.8632591258
  - # 8
    frequency:    5.6382780125
  - # 9
    frequency:    6.3286441712
  - # 10
    frequency:    6.8758109567
  - # 11
    frequency:    8.8437514881
  - # 12
    frequency:   12.8926302489
  - # 13
    frequency:   16.3652771559
  - # 14
    frequency:   23.9792963972
  - # 15
    frequency:   26.5610979490

- q-position: [    0.3800000,    0.0000000,    0.0000000 ]
  distance:    0.1131767
  band:
  - # 1
    frequency:    1.0078686759
  - # 2
    frequency:    2.1884792697
  - # 3
    frequency:    2.3462061707
  - # 4
    frequency:    3.0187243467
  - # 5
    frequency:    3.5210676127
  - # 6
    frequency:    4.6479814949
  - # 7
    frequency:    4.8983591646
  - # 8
    frequency:    5.6395760884
  - # 9
    frequency:    6.3353171932
  - # 10
    frequency:    6.8544984623
  - # 11
    frequency:    8.7215702024
  - # 12
    frequency:   12.8038083929
  - # 13
    frequency:   16.2856151096
  - # 14
    frequency:   23.9919679588
  - # 15
    frequency:   26.5423114866

- q-position: [    0.3900000,    0.0000000,    0.0000000 ]
  distance:    0.1161550
  band:
  - # 1
    frequency:    1.2007717277
  - # 2
    frequency:    2.2134746670
  - # 3
    frequency:    2.3955872235
  - # 4
    frequency:    3.0354678127
  - # 5
    frequency:    3.4847973545
  - # 6
    frequency:    4.6938359687
  - # 7
    frequency:    4.9301417018
  - # 8
    frequency:    5.6385264970
  - # 9
    frequency:    6.3442600982
  - # 10
    frequency:    6.8359913839
  - # 11
    frequency:    8.6048050837
  - # 12
    frequency:   12.7171581225
  - # 13
    frequency:   16.2123313376
  - # 14
    frequency:   24.0054208338
  - # 15
    frequency:   26.5235797241

- q-position: [    0.4000000,    0.0000000,    0.0000000 ]
  distance:    0.1191334
  band:
  - # 1
    frequency:    1.3641633345
  - # 2
    frequency:    2.2374031796
  - # 3
    frequency:    2.4432313128
  - # 4
    frequency:    3.0490715733
  - # 5
    frequency:    3.4475398221
  - # 6
    frequency:    4.7381484006
  - # 7
    frequency:    4.9586633770
  - # 8
    frequency:    5.6348516964
  - # 9
    frequency:    6.3552688881
  - # 10
    frequency:    6.8204958180
  - # 11
    frequency:    8.4941981960
  - # 12
    frequency:   12.6340647046
  - # 13
    frequency:   16.1455523544
  - # 14
    frequency:   24.0193382563
  - # 15
    frequency:   26.5054077223

- q-position: [    0.4100000,    0.0000000,    0.0000000 ]
  distance:    0.1221117
  band:
  - # 1
    frequency:    1.5043852927
  - # 2
    frequency:    2.2600896389
  - # 3
    frequency:    2.4890502579
  - # 4
    frequency:    3.0596545673
  - # 5
    frequency:    3.4097506443
  - # 6
    frequency:    4.7803280139
  - # 7
    frequency:    4.9840333919
  - # 8
    frequency:    5.6285325383
  - # 9
    frequency:    6.3680198290
  - # 10
    frequency:    6.8081135496
  - # 11