nqpoint: 300    
npath: 3      
segment_nqpoint:
- 100
- 100
- 100
labels:
- [ 'G', 'M' ]
- [ 'M', 'K' ]
- [ 'K', 'G' ]
reciprocal_lattice:
- [   0.31466254,   0.18167050,   0.00000000 ] # a*
- [   0.00000000,   0.36334100,   0.00000000 ] # b*
- [   0.00000000,   0.00000000,   0.04166731 ] # c*
natom: 6      
lattice:
- [     3.178007805941452,     0.000000000000000,     0.000000000000000 ] # a
- [    -1.589003902970726,     2.752235493361731,     0.000000000000000 ] # b
- [     0.000000000000000,     0.000000000000000,    23.999630503836475 ] # c
points:
- symbol: Cl # 1
  coordinates: [  0.333332985432215,  0.666666983183674,  0.624994226533558 ]
  mass: 35.453000
- symbol: H # 2
  coordinates: [  0.666666984744047,  0.333332985985145,  0.375005773466441 ]
  mass: 1.007940
- symbol: N # 3
  coordinates: [  0.000000000000000,  0.000000000000000,  0.510771223719991 ]
  mass: 14.006700
- symbol: O # 4
  coordinates: [  0.666666984744047,  0.333332985985145,  0.416137330960534 ]
  mass: 15.999400
- symbol: Ti # 5
  coordinates: [  0.333332985432215,  0.666666983183674,  0.467270988414192 ]
  mass: 47.867000
- symbol: Ti # 6
  coordinates: [  0.666666984744047,  0.333332985985145,  0.554231897454084 ]
  mass: 47.867000

phonon:
- q-position: [    0.0000000,    0.0000000,    0.0000000 ]
  distance:    0.0000000
  band:
  - # 1
    frequency:   -0.0000248878
  - # 2
    frequency:   -0.0000005239
  - # 3
    frequency:    0.0000207095
  - # 4
    frequency:    4.5619366035
  - # 5
    frequency:    4.5619366035
  - # 6
    frequency:    7.2276380086
  - # 7
    frequency:    7.3154927263
  - # 8
    frequency:    7.3154927264
  - # 9
    frequency:    8.8957338056
  - # 10
    frequency:    8.8957338056
  - # 11
    frequency:   11.5439443458
  - # 12
    frequency:   13.9292627022
  - # 13
    frequency:   14.0570565362
  - # 14
    frequency:   14.0570565363
  - # 15
    frequency:   15.9317448203
  - # 16
    frequency:   17.9100949789
  - # 17
    frequency:   17.9100949789
  - # 18
    frequency:  111.3554033085

- q-position: [    0.0050505,    0.0000000,    0.0000000 ]
  distance:    0.0018351
  band:
  - # 1
    frequency:    0.0021904142
  - # 2
    frequency:    0.0910165549
  - # 3
    frequency:    0.1355230176
  - # 4
    frequency:    4.5625580542
  - # 5
    frequency:    4.5636208601
  - # 6
    frequency:    7.2166682635
  - # 7
    frequency:    7.3153192761
  - # 8
    frequency:    7.3268146350
  - # 9
    frequency:    8.8956769910
  - # 10
    frequency:    8.8963436626
  - # 11
    frequency:   11.5431292829
  - # 12
    frequency:   13.9253788617
  - # 13
    frequency:   14.0577264798
  - # 14
    frequency:   14.0607617290
  - # 15
    frequency:   15.9316827911
  - # 16
    frequency:   17.9099622224
  - # 17
    frequency:   17.9103503835
  - # 18
    frequency:  111.3554845808

- q-position: [    0.0101010,    0.0000000,    0.0000000 ]
  distance:    0.0036701
  band:
  - # 1
    frequency:    0.0087510167
  - # 2
    frequency:    0.1819610228
  - # 3
    frequency:    0.2709856396
  - # 4
    frequency:    4.5644203084
  - # 5
    frequency:    4.5686632141
  - # 6
    frequency:    7.1926670689
  - # 7
    frequency:    7.3147988947
  - # 8
    frequency:    7.3518704339
  - # 9
    frequency:    8.8955063504
  - # 10
    frequency:    8.8981718737
  - # 11
    frequency:   11.5406858446
  - # 12
    frequency:   13.9147875020
  - # 13
    frequency:   14.0597346892
  - # 14
    frequency:   14.0708222552
  - # 15
    frequency:   15.9314944103
  - # 16
    frequency:   17.9095651306
  - # 17
    frequency:   17.9111160462
  - # 18
    frequency:  111.3557284202

- q-position: [    0.0151515,    0.0000000,    0.0000000 ]
  distance:    0.0055052
  band:
  - # 1
    frequency:    0.0196496982
  - # 2
    frequency:    0.2727615227
  - # 3
    frequency:    0.4063275258
  - # 4
    frequency:    4.5675170836
  - # 5
    frequency:    4.5770326762
  - # 6
    frequency:    7.1644295533
  - # 7
    frequency:    7.3139314964
  - # 8
    frequency:    7.3818594050
  - # 9
    frequency:    8.8952213017
  - # 10
    frequency:    8.9012143131
  - # 11
    frequency:   11.5366192760
  - # 12
    frequency:   13.8995459843
  - # 13
    frequency:   14.0630763057
  - # 14
    frequency:   14.0851960232
  - # 15
    frequency:   15.9311728612
  - # 16
    frequency:   17.9089072095
  - # 17
    frequency:   17.9123903103
  - # 18
    frequency:  111.3561348944

- q-position: [    0.0202020,    0.0000000,    0.0000000 ]
  distance:    0.0073402
  band:
  - # 1
    frequency:    0.0348338886
  - # 2
    frequency:    0.3633465778
  - # 3
    frequency:    0.5414884567
  - # 4
    frequency:    4.5718379469
  - # 5
    frequency:    4.5886784419
  - # 6
    frequency:    7.1349145469
  - # 7
    frequency:    7.3127169571
  - # 8
    frequency:    7.4138136278
  - # 9
    frequency:    8.8948208994
  - # 10
    frequency:    8.9054639504
  - # 11
    frequency:   11.5309383013
  - # 12
    frequency:   13.8813064428
  - # 13
    frequency:   14.0677432483
  - # 14
    frequency:   14.1022561537
  - # 15
    frequency:   15.9307069883
  - # 16
    frequency:   17.9079942101
  - # 17
    frequency:   17.9141704050
  - # 18
    frequency:  111.3567041173

- q-position: [    0.0252525,    0.0000000,    0.0000000 ]
  distance:    0.0091753
  band:
  - # 1
    frequency:    0.0542317547
  - # 2
    frequency:    0.4536453216
  - # 3
    frequency:    0.6764083843
  - # 4
    frequency:    4.5773683705
  - # 5
    frequency:    4.6035311046
  - # 6
    frequency:    7.1051276795
  - # 7
    frequency:    7.3111551439
  - # 8
    frequency:    7.4467152142
  - # 9
    frequency:    8.8943038709
  - # 10
    frequency:    8.9109106259
  - # 11
    frequency:   11.5236550960
  - # 12
    frequency:   13.8610611247
  - # 13
    frequency:   14.0737242384
  - # 14
    frequency:   14.1210453519
  - # 15
    frequency:   15.9300815995
  - # 16
    frequency:   17.9068339937
  - # 17
    frequency:   17.9164524301
  - # 18
    frequency:  111.3574362496

- q-position: [    0.0303030,    0.0000000,    0.0000000 ]
  distance:    0.0110103
  band:
  - # 1
    frequency:    0.0777538449
  - # 2
    frequency:    0.5435877025
  - # 3
    frequency:    0.8110274816
  - # 4
    frequency:    4.5840898096
  - # 5
    frequency:    4.6215042552
  - # 6
    frequency:    7.0754934683
  - # 7
    frequency:    7.3092459559
  - # 8
    frequency:    7.4801246714
  - # 9
    frequency:    8.8936686660
  - # 10
    frequency:    8.9175407488
  - # 11
    frequency:   11.5147852495
  - # 12
    frequency:   13.8393570778
  - # 13
    frequency:   14.0810048345
  - # 14
    frequency:   14.1410608270
  - # 15
    frequency:   15.9292778773
  - # 16
    frequency:   17.9054363465
  - # 17
    frequency:   17.9192313357
  - # 18
    frequency:  111.3583315009

- q-position: [    0.0353535,    0.0000000,    0.0000000 ]
  distance:    0.0128454
  band:
  - # 1
    frequency:    0.1052950439
  - # 2
    frequency:    0.6331046900
  - # 3
    frequency:    0.9452861841
  - # 4
    frequency:    4.5919797999
  - # 5
    frequency:    4.6424963769
  - # 6
    frequency:    7.0462298889
  - # 7
    frequency:    7.3069893770
  - # 8
    frequency:    7.5138068888
  - # 9
    frequency:    8.8929135163
  - # 10
    frequency:    8.9253369292
  - # 11
    frequency:   11.5043477171
  - # 12
    frequency:   13.8164940901
  - # 13
    frequency:   14.0895674774
  - # 14
    frequency:   14.1620558632
  - # 15
    frequency:   15.9282738858
  - # 16
    frequency:   17.9038127495
  - # 17
    frequency:   17.9225008974
  - # 18
    frequency:  111.3593901312

- q-position: [    0.0404040,    0.0000000,    0.0000000 ]
  distance:    0.0146804
  band:
  - # 1
    frequency:    0.1367367396
  - # 2
    frequency:    0.7221284815
  - # 3
    frequency:    1.0791252225
  - # 4
    frequency:    4.6010120750
  - # 5
    frequency:    4.6663929410
  - # 6
    frequency:    7.0174679116
  - # 7
    frequency:    7.3043855417
  - # 8
    frequency:    7.5476122466
  - # 9
    frequency:    8.8920365049
  - # 10
    frequency:    8.9342775617
  - # 11
    frequency:   11.4923647629
  - # 12
    frequency:   13.7926397840
  - # 13
    frequency:   14.0993915444
  - # 14
    frequency:   14.1839241492
  - # 15
    frequency:   15.9270451599
  - # 16
    frequency:   17.9019761100
  - # 17
    frequency:   17.9262536867
  - # 18
    frequency:  111.3606124531

- q-position: [    0.0454545,    0.0000000,    0.0000000 ]
  distance:    0.0165155
  band:
  - # 1
    frequency:    0.1719491026
  - # 2
    frequency:    0.8105927107
  - # 3
    frequency:    1.2124856455
  - # 4
    frequency:    4.6111567010
  - # 5
    frequency:    4.6930686011
  - # 6
    frequency:    6.9892965176
  - # 7
    frequency:    7.3014348126
  - # 8
    frequency:    7.5814323133
  - # 9
    frequency:    8.8910356412
  - # 10
    frequency:    8.9443363772
  - # 11
    frequency:   11.4788618928
  - # 12
    frequency:   13.7678906280
  - # 13
    frequency:   14.1104534134
  - # 14
    frequency:   14.2066381162
  - # 15
    frequency:   15.9255653602
  - # 16
    frequency:   17.8999404595
  - # 17
    frequency:   17.9304810385
  - # 18
    frequency:  111.3619988341

- q-position: [    0.0505051,    0.0000000,    0.0000000 ]
  distance:    0.0183506
  band:
  - # 1
    frequency:    0.2107933848
  - # 2
    frequency:    0.8984326566
  - # 3
    frequency:    1.3453088308
  - # 4
    frequency:    4.6223802285
  - # 5
    frequency:    4.7223893934
  - # 6
    frequency:    6.9617821007
  - # 7
    frequency:    7.2981378718
  - # 8
    frequency:    7.6151812035
  - # 9
    frequency:    8.8899089404
  - # 10
    frequency:    8.9554819855
  - # 11
    frequency:   11.4638677803
  - # 12
    frequency:   13.7423042802
  - # 13
    frequency:   14.1227265369
  - # 14
    frequency:   14.2302158812
  - # 15
    frequency:   15.9238069761
  - # 16
    frequency:   17.8977206286
  - # 17
    frequency:   17.9351730154
  - # 18
    frequency:  111.3635496987

- q-position: [    0.0555556,    0.0000000,    0.0000000 ]
  distance:    0.0201856
  band:
  - # 1
    frequency:    0.2531241544
  - # 2
    frequency:    0.9855854521
  - # 3
    frequency:    1.4775364829
  - # 4
    frequency:    4.6346458584
  - # 5
    frequency:    4.7542148592
  - # 6
    frequency:    6.9349778013
  - # 7
    frequency:    7.2944958232
  - # 8
    frequency:    7.6487870225
  - # 9
    frequency:    8.8886545040
  - # 10
    frequency:    8.9676774313
  - # 11
    frequency:   11.4474141852
  - # 12
    frequency:   13.7159172200
  - # 13
    frequency:   14.1361815249
  - # 14
    frequency:   14.2547028527
  - # 15
    frequency:   15.9217420566
  - # 16
    frequency:   17.8953319052
  - # 17
    frequency:   17.9403183715
  - # 18
    frequency:  111.3652655303

- q-position: [    0.0606061,    0.0000000,    0.0000000 ]
  distance:    0.0220207
  band:
  - # 1
    frequency:    0.2987914014
  - # 2
    frequency:    1.0719902930
  - # 3
    frequency:    1.6091106173
  - # 4
    frequency:    4.6479136220
  - # 5
    frequency:    4.7884000225
  - # 6
    frequency:    6.9089284444
  - # 7
    frequency:    7.2905103087
  - # 8
    frequency:    7.6821877034
  - # 9
    frequency:    8.8872705985
  - # 10
    frequency:    8.9808797875
  - # 11
    frequency:   11.4295358660
  - # 12
    frequency:   13.6887546954
  - # 13
    frequency:   14.1507862370
  - # 14
    frequency:   14.2801609829
  - # 15
    frequency:   15.9193429535
  - # 16
    frequency:   17.8927896869
  - # 17
    frequency:   17.9459045150
  - # 18
    frequency:  111.3671468737

- q-position: [    0.0656566,    0.0000000,    0.0000000 ]
  distance:    0.0238557
  band:
  - # 1
    frequency:    0.3476424617
  - # 2
    frequency:    1.1575886453
  - # 3
    frequency:    1.7399735304
  - # 4
    frequency:    4.6621405723
  - # 5
    frequency:    4.8247971712
  - # 6
    frequency:    6.8836733896
  - # 7
    frequency:    7.2861836349
  - # 8
    frequency:    7.7153289007
  - # 9
    frequency:    8.8857557294
  - # 10
    frequency:    8.9950398106
  - # 11
    frequency:   11.4102704892
  - # 12
    frequency:   13.6608365184
  - # 13
    frequency:   14.1665058837
  - # 14
    frequency:   14.3066621458
  - # 15
    frequency:   15.9165830546
  - # 16
    frequency:   17.8901091377
  - # 17
    frequency:   17.9519174718
  - # 18
    frequency:  111.3691943358

- q-position: [    0.0707071,    0.0000000,    0.0000000 ]
  distance:    0.0256908
  band:
  - # 1
    frequency:    0.3995237284
  - # 2
    frequency:    1.2423244498
  - # 3
    frequency:    1.8700677524
  - # 4
    frequency:    4.6772809858
  - # 5
    frequency:    4.8632574069
  - # 6
    frequency:    6.8592483230
  - # 7
    frequency:    7.2815189115
  - # 8
    frequency:    7.7481628890
  - # 9
    frequency:    8.8841087096
  - # 10
    frequency:    9.0101016794
  - # 11
    frequency:   11.3896585348
  - # 12
    frequency:   13.6321805306
  - # 13
    frequency:   14.1833031352
  - # 14
    frequency:   14.3342838286
  - # 15
    frequency:   15.9134374941
  - # 16
    frequency:   17.8873048574
  - # 17
    frequency:   17.9583418514
  - # 18
    frequency:  111.3714085867

- q-position: [    0.0757576,    0.0000000,    0.0000000 ]
  distance:    0.0275258
  band:
  - # 1
    frequency:    0.4542821315
  - # 2
    frequency:    1.3261443233
  - # 3
    frequency:    1.9993359852
  - # 4
    frequency:    4.6932865731
  - # 5
    frequency:    4.9036319437
  - # 6
    frequency:    6.8356864859
  - # 7
    frequency:    7.2765201983
  - # 8
    frequency:    7.7806479529
  - # 9
    frequency:    8.8823287171
  - # 10
    frequency:    9.0260028382
  - # 11
    frequency:   11.3677432013
  - # 12
    frequency:   13.6028047143
  - # 13
    frequency:   14.2011382399
  - # 14
    frequency:   14.3631061713
  - # 15
    frequency:   15.9098838215
  - # 16
    frequency:   17.8843905750
  - # 17
    frequency:   17.9651608156
  - # 18
    frequency:  111.3737903601

- q-position: [    0.0808081,    0.0000000,    0.0000000 ]
  distance:    0.0293609
  band:
  - # 1
    frequency:    0.5117663825
  - # 2
    frequency:    1.4089977548
  - # 3
    frequency:    2.1277210227
  - # 4
    frequency:    4.7101066975
  - # 5
    frequency:    4.9457731481
  - # 6
    frequency:    6.8130195930
  - # 7
    frequency:    7.2711926616
  - # 8
    frequency:    7.8127479990
  - # 9
    frequency:    8.8804153435
  - # 10
    frequency:    9.0426739593
  - # 11
    frequency:   11.3445703113
  - # 12
    frequency:   13.5727284873
  - # 13
    frequency:   14.2199691485
  - # 14
    frequency:   14.3932098214
  - # 15
    frequency:   15.9059026176
  - # 16
    frequency:   17.8813788744
  - # 17
    frequency:   17.9723560520
  - # 18
    frequency:  111.3763404521

- q-position: [    0.0858586,    0.0000000,    0.0000000 ]
  distance:    0.0311959
  band:
  - # 1
    frequency:    0.5718279894
  - # 2
    frequency:    1.4908372946
  - # 3
    frequency:    2.2551656544
  - # 4
    frequency:    4.7276885995
  - # 5
    frequency:    4.9895353233
  - # 6
    frequency:    6.7912785790
  - # 7
    frequency:    7.2655427347
  - # 8
    frequency:    7.8444322452
  - # 9
    frequency:    8.8783686285
  - # 10
    frequency:    9.0600390349
  - # 11
    frequency:   11.3201882186
  - # 12
    frequency:   13.5419734923
  - # 13
    frequency:   14.2397516471
  - # 14
    frequency:   14.4246743027
  - # 15
    frequency:   15.9014780464
  - # 16
    frequency:   17.8782809620
  - # 17
    frequency:   17.9799077531
  - # 18
    frequency:  111.3790597199

- q-position: [    0.0909091,    0.0000000,    0.0000000 ]
  distance:    0.0330310
  band:
  - # 1
    frequency:    0.6343220571
  - # 2
    frequency:    1.5716187352
  - # 3
    frequency:    2.3816125511
  - # 4
    frequency:    4.7459776281
  - # 5
    frequency:    5.0347752466
  - # 6
    frequency:    6.7704942540
  - # 7
    frequency:    7.2595782829
  - # 8
    frequency:    7.8756749052
  - # 9
    frequency:    8.8761890816
  - # 10
    frequency:    9.0780156043
  - # 11
    frequency:   11.2946477184
  - # 12
    frequency:   13.5105640621
  - # 13
    frequency:   14.2604394953
  - # 14
    frequency:   14.4575767158
  - # 15
    frequency:   15.8965983357
  - # 16
    frequency:   17.8751064819
  - # 17
    frequency:   17.9877946023
  - # 18
    frequency:  111.3819490786

- q-position: [    0.0959596,    0.0000000,    0.0000000 ]
  distance:    0.0348661
  band:
  - # 1
    frequency:    0.6991078913
  - # 2
    frequency:    1.6513012821
  - # 3
    frequency:    2.5070041327
  - # 4
    frequency:    4.7649174762
  - # 5
    frequency:    5.0813524719
  - # 6
    frequency:    6.7506979185
  - # 7
    frequency:    7.2533087689
  - # 8
    frequency:    7.9064548255
  - # 9
    frequency:    8.8738776898
  - # 10
    frequency:    9.0965151137
  - # 11
    frequency:   11.2680019616
  - # 12
    frequency:   13.4785274742
  - # 13
    frequency:   14.2819845719
  - # 14
    frequency:   14.4919906632
  - # 15
    frequency:   15.8912561823
  - # 16
    frequency:   17.8718633859
  - # 17
    frequency:   17.9959937684
  - # 18
    frequency:  111.3850094968

- q-position: [    0.1010101,    0.0000000,    0.0000000 ]
  distance:    0.0367011
  band:
  - # 1
    frequency:    0.7660494295
  - # 2
    frequency:    1.7298477123
  - # 3
    frequency:    2.6312824184
  - # 4
    frequency:    4.7844504214
  - # 5
    frequency:    5.1291294135
  - # 6
    frequency:    6.7319219730
  - # 7
    frequency:    7.2467454143
  - # 8
    frequency:    7.9367550548
  - # 9
    frequency:    8.8714359108
  - # 10
    frequency:    9.1154434016
  - # 11
    frequency:   11.2403063726
  - # 12
    frequency:   13.4458940638
  - # 13
    frequency:   14.3043370245
  - # 14
    frequency:   14.5279853276
  - # 15
    frequency:   15.8854490809
  - # 16
    frequency:   17.8685578630
  - # 17
    frequency:   18.0044809084
  - # 18
    frequency:  111.3882419916

- q-position: [    0.1060606,    0.0000000,    0.0000000 ]
  distance:    0.0385362
  band:
  - # 1
    frequency:    0.8350155213
  - # 2
    frequency:    1.8072245197
  - # 3
    frequency:    2.7543888581
  - # 4
    frequency:    4.8045175703
  - # 5
    frequency:    5.1779712223
  - # 6
    frequency:    6.7142005507
  - # 7
    frequency:    7.2399013553
  - # 8
    frequency:    7.9665623426
  - # 9
    frequency:    8.8688656515
  - # 10
    frequency:    9.1347012981
  - # 11
    frequency:   11.2116185709
  - # 12
    frequency:   13.4126972396
  - # 13
    frequency:   14.3274454253
  - # 14
    frequency:   14.5656246562
  - # 15
    frequency:   15.8791795822
  - # 16
    frequency:   17.8651943288
  - # 17
    frequency:   18.0132301816
  - # 18
    frequency:  111.3916476206

- q-position: [    0.1111111,    0.0000000,    0.0000000 ]
  distance:    0.0403712
  band:
  - # 1
    frequency:    0.9058800816
  - # 2
    frequency:    1.8834020439
  - # 3
    frequency:    2.8762641458
  - # 4
    frequency:    4.8250591075
  - # 5
    frequency:    5.2277454674
  - # 6
    frequency:    6.6975701973
  - # 7
    frequency:    7.2327917871
  - # 8
    frequency:    7.9958665729
  - # 9
    frequency:    8.8661692348
  - # 10
    frequency:    9.1541853212
  - # 11
    frequency:   11.1819982955
  - # 12
    frequency:   13.3789734328
  - # 13
    frequency:   14.3512569300
  - # 14
    frequency:   14.6049666175
  - # 15
    frequency:   15.8724554870
  - # 16
    frequency:   17.8617754777
  - # 17
    frequency:   18.0222142736
  - # 18
    frequency:  111.3952274736

- q-position: [    0.1161616,    0.0000000,    0.0000000 ]
  distance:    0.0422063
  band:
  - # 1
    frequency:    0.9785221389
  - # 2
    frequency:    1.9583545832
  - # 3
    frequency:    2.9968480143
  - # 4
    frequency:    4.8460145485
  - # 5
    frequency:    5.2783216290
  - # 6
    frequency:    6.6820706216
  - # 7
    frequency:    7.2254340934
  - # 8
    frequency:    8.0246601451
  - # 9
    frequency:    8.8633493526
  - # 10
    frequency:    9.1737884514
  - # 11
    frequency:   11.1515073292
  - # 12
    frequency:   13.3447619969
  - # 13
    frequency:   14.3757174410
  - # 14
    frequency:   14.6460624988
  - # 15
    frequency:   15.8652899934
  - # 16
    frequency:   17.8583023970
  - # 17
    frequency:   18.0314044330
  - # 18
    frequency:  111.3989826620

- q-position: [    0.1212121,    0.0000000,    0.0000000 ]
  distance:    0.0440413
  band:
  - # 1
    frequency:    1.0528257985
  - # 2
    frequency:    2.0320604877
  - # 3
    frequency:    3.1160790110
  - # 4
    frequency:    4.8673229971
  - # 5
    frequency:    5.3295704047
  - # 6
    frequency:    6.6677455423
  - # 7
    frequency:    7.2178479558
  - # 8
    frequency:    8.0529373205
  - # 9
    frequency:    8.8604090096
  - # 10
    frequency:    9.1934009672
  - # 11
    frequency:   11.1202094207
  - # 12
    frequency:   13.3101050728
  - # 13
    frequency:   14.4007717736
  - # 14
    frequency:   14.6889562192
  - # 15
    frequency:   15.8577018161
  - # 16
    frequency:   17.8547747380
  - # 17
    frequency:   18.0407705198
  - # 18
    frequency:  111.4029143065

- q-position: [    0.1262626,    0.0000000,    0.0000000 ]
  distance:    0.0458764
  band:
  - # 1
    frequency:    1.1286801384
  - # 2
    frequency:    2.1045022333
  - # 3
    frequency:    3.2338942553
  - # 4
    frequency:    4.8889234068
  - # 5
    frequency:    5.3813628273
  - # 6
    frequency:    6.6546436574
  - # 7
    frequency:    7.2100554391
  - # 8
    frequency:    8.0806935514
  - # 9
    frequency:    8.8573514578
  - # 10
    frequency:    9.2129113217
  - # 11
    frequency:   11.0881702002
  - # 12
    frequency:   13.2750474261
  - # 13
    frequency:   14.4263638247
  - # 14
    frequency:   14.7336836220
  - # 15
    frequency:   15.8497153116
  - # 16
    frequency:   17.8511909428
  - # 17
    frequency:   18.0502810668
  - # 18
    frequency:  111.4070235232

- q-position: [    0.1313131,    0.0000000,    0.0000000 ]
  distance:    0.0477114
  band:
  - # 1
    frequency:    1.2059790541
  - # 2
    frequency:    2.1756664735
  - # 3
    frequency:    3.3502291768
  - # 4
    frequency:    4.9107548474
  - # 5
    frequency:    5.4335691848
  - # 6
    frequency:    6.6428197653
  - # 7
    frequency:    7.2020810476
  - # 8
    frequency:    8.1079248104
  - # 9
    frequency:    8.8541801239
  - # 10
    frequency:    9.2322070470
  - # 11
    frequency:   11.0554570830
  - # 12
    frequency:   13.2396362634
  - # 13
    frequency:   14.4524367428
  - # 14
    frequency:   14.7802717063
  - # 15
    frequency:   15.8413606545
  - # 16
    frequency:   17.8475485205
  - # 17
    frequency:   18.0599033543
  - # 18
    frequency:  111.4113114074

- q-position: [    0.1363636,    0.0000000,    0.0000000 ]
  distance:    0.0495465
  band:
  - # 1
    frequency:    1.2846210647
  - # 2
    frequency:    2.2455440704
  - # 3
    frequency:    3.4650172356
  - # 4
    frequency:    4.9327567757
  - # 5
    frequency:    5.4860577328
  - # 6
    frequency:    6.6323360654
  - # 7
    frequency:    7.1939517481
  - # 8
    frequency:    8.1346269368
  - # 9
    frequency:    8.8508985329
  - # 10
    frequency:    9.2511756736
  - # 11
    frequency:   11.0221391552
  - # 12
    frequency:   13.2039210303
  - # 13
    frequency:   14.4789331003
  - # 14
    frequency:   14.8287377320
  - # 15
    frequency:   15.8326741302
  - # 16
    frequency:   17.8438443665
  - # 17
    frequency:   18.0696034973
  - # 18
    frequency:  111.4157790167

- q-position: [    0.1414141,    0.0000000,    0.0000000 ]
  distance:    0.0513816
  band:
  - # 1
    frequency:    1.3645090934
  - # 2
    frequency:    2.3141301015
  - # 3
    frequency:    3.5781896240
  - # 4
    frequency:    4.9548693119
  - # 5
    frequency:    5.5386931855
  - # 6
    frequency:    6.6232636669
  - # 7
    frequency:    7.1856969544
  - # 8
    frequency:    8.1607950119
  - # 9
    frequency:    8.8475102284
  - # 10
    frequency:    9.2697056591
  - # 11
    frequency:   10.9882870332
  - # 12
    frequency:   13.1679531941
  - # 13
    frequency:   14.5057950662
  - # 14
    frequency:   14.8790881032
  - # 15
    frequency:   15.8236986502
  - # 16
    frequency:   17.8400751195
  - # 17
    frequency:   18.0793465470
  - # 18
    frequency:  111.4204273510

- q-position: [    0.1464646,    0.0000000,    0.0000000 ]
  distance:    0.0532166
  band:
  - # 1
    frequency:    1.4455502287
  - # 2
    frequency:    2.3814238443
  - # 3
    frequency:    3.6896749520
  - # 4
    frequency:    4.9770335203
  - # 5
    frequency:    5.5913349795
  - # 6
    frequency:    6.6156843222
  - # 7
    frequency:    7.1773484717
  - # 8
    frequency:    8.1864227753
  - # 9
    frequency:    8.8440186935
  - # 10
    frequency:    9.2876873243
  - # 11
    frequency:   10.9539726896
  - # 12
    frequency:   13.1317860117
  - # 13
    frequency:   14.5329645793
  - # 14
    frequency:   14.9313168709
  - # 15
    frequency:   15.8144846499
  - # 16
    frequency:   17.8362375502
  - # 17
    frequency:   18.0890966039
  - # 18
    frequency:  111.4252573322

- q-position: [    0.1515152,    0.0000000,    0.0000000 ]
  distance:    0.0550517
  band:
  - # 1
    frequency:    1.5276554773
  - # 2
    frequency:    2.4474287366
  - # 3
    frequency:    3.7993989186
  - # 4
    frequency:    4.9991916946
  - # 5
    frequency:    5.6438353217
  - # 6
    frequency:    6.6096923859
  - # 7
    frequency:    7.1689403946
  - # 8
    frequency:    8.2115020866
  - # 9
    frequency:    8.8404272730
  - # 10
    frequency:    9.3050138001
  - # 11
    frequency:   10.9192692331
  - # 12
    frequency:   13.0954742830
  - # 13
    frequency:   14.5603835216
  - # 14
    frequency:   14.9854035885
  - # 15
    frequency:   15.8050916446
  - # 16
    frequency:   17.8323289748
  - # 17
    frequency:   18.0988169439
  - # 18
    frequency:  111.4302697811

- q-position: [    0.1565657,    0.0000000,    0.0000000 ]
  distance:    0.0568867
  band:
  - # 1
    frequency:    1.6107395119
  - # 2
    frequency:    2.5121523136
  - # 3
    frequency:    3.9072839714
  - # 4
    frequency:    5.0212876485
  - # 5
    frequency:    5.6960370650
  - # 6
    frequency:    6.6053969557
  - # 7
    frequency:    7.1605089595
  - # 8
    frequency:    8.2360224383
  - # 9
    frequency:    8.8367390996
  - # 10
    frequency:    9.3215819930
  - # 11
    frequency:   10.8842506347
  - # 12
    frequency:   13.0590740913
  - # 13
    frequency:   14.5879938911
  - # 14
    frequency:   15.0413100475
  - # 15
    frequency:   15.7955909175
  - # 16
    frequency:   17.8283476891
  - # 17
    frequency:   18.1084701568
  - # 18
    frequency:  111.4354653940

- q-position: [    0.1616162,    0.0000000,    0.0000000 ]
  distance:    0.0587218
  band:
  - # 1
    frequency:    1.6947204196
  - # 2
    frequency:    2.5756061215
  - # 3
    frequency:    4.0132489621
  - # 4
    frequency:    5.0432670075
  - # 5
    frequency:    5.7477715288
  - # 6
    frequency:    6.6029240869
  - # 7
    frequency:    7.1520923466
  - # 8
    frequency:    8.2599705202
  - # 9
    frequency:    8.8329570263
  - # 10
    frequency:    9.3372935806
  - # 11
    frequency:   10.8489913864
  - # 12
    frequency:   13.0226425280
  - # 13
    frequency:   14.6157379736
  - # 14
    frequency:   15.0989750219
  - # 15
    frequency:   15.7860702164
  - # 16
    frequency:   17.8242934196
  - # 17
    frequency:   18.1180182955
  - # 18
    frequency:  111.4408447172

- q-position: [    0.1666667,    0.0000000,    0.0000000 ]
  distance:    0.0605568
  band:
  - # 1
    frequency:    1.7795194551
  - # 2
    frequency:    2.6378056077
  - # 3
    frequency:    4.1172088044
  - # 4
    frequency:    5.0650775051
  - # 5
    frequency:    5.7988564904
  - # 6
    frequency:    6.6024188459
  - # 7
    frequency:    7.1437304335
  - # 8
    frequency:    8.2833298339
  - # 9
    frequency:    8.8290835646
  - # 10
    frequency:    9.3520560509
  - # 11
    frequency:   10.8135660833
  - # 12
    frequency:   12.9862374030
  - # 13
    frequency:   14.6435585134
  - # 14
    frequency:   15.1583053279
  - # 15
    frequency:   15.7766421508
  - # 16
    frequency:   17.8201677885
  - # 17
    frequency:   18.1274230353
  - # 18
    frequency:  111.4464081208

- q-position: [    0.1717172,    0.0000000,    0.0000000 ]
  distance:    0.0623919
  band:
  - # 1
    frequency:    1.8650608001
  - # 2
    frequency:    2.6987699890
  - # 3
    frequency:    4.2190741478
  - # 4
    frequency:    5.0866692776
  - # 5
    frequency:    5.8490947632
  - # 6
    frequency:    6.6040467847
  - # 7
    frequency:    7.1354644990
  - # 8
    frequency:    8.3060803566
  - # 9
    frequency:    8.8251208325
  - # 10
    frequency:    9.3657837995
  - # 11
    frequency:   10.7780489174
  - # 12
    frequency:   12.9499169404
  - # 13
    frequency:   14.6713988826
  - # 14
    frequency:   15.2191597186
  - # 15
    frequency:   15.7674597684
  - # 16
    frequency:   17.8159747939
  - # 17
    frequency:   18.1366458432
  - # 18
    frequency:  111.4521557709

- q-position: [    0.1767677,    0.0000000,    0.0000000 ]
  distance:    0.0642269
  band:
  - # 1
    frequency:    1.9512713320
  - # 2
    frequency:    2.7585220970
  - # 3
    frequency:    4.3187510863
  - # 4
    frequency:    5.1079951579
  - # 5
    frequency:    5.8982740357
  - # 6
    frequency:    6.6079941435
  - # 7
    frequency:    7.1273368801
  - # 8
    frequency:    8.3281982511
  - # 9
    frequency:    8.8210705101
  - # 10
    frequency:    9.3783992963
  - # 11
    frequency:   10.7425130777
  - # 12
    frequency:   12.9137394578
  - # 13
    frequency:   14.6992032478
  - # 14