nqpoint: 300    
npath: 3      
segment_nqpoint:
- 100
- 100
- 100
labels:
- [ 'G', 'M' ]
- [ 'M', 'K' ]
- [ 'K', 'G' ]
reciprocal_lattice:
- [   0.31466254,   0.18167050,   0.00000000 ] # a*
- [   0.00000000,   0.36334100,   0.00000000 ] # b*
- [   0.00000000,   0.00000000,   0.04166731 ] # c*
natom: 6      
lattice:
- [     3.178007805941452,     0.000000000000000,     0.000000000000000 ] # a
- [    -1.589003902970726,     2.752235493361731,     0.000000000000000 ] # b
- [     0.000000000000000,     0.000000000000000,    23.999630503836475 ] # c
points:
- symbol: Cl # 1
  coordinates: [  0.333332985432215,  0.666666983183674,  0.624994226533558 ]
  mass: 35.453000
- symbol: H # 2
  coordinates: [  0.666666984744047,  0.333332985985145,  0.375005773466441 ]
  mass: 1.007940
- symbol: N # 3
  coordinates: [  0.000000000000000,  0.000000000000000,  0.510771223719991 ]
  mass: 14.006700
- symbol: O # 4
  coordinates: [  0.666666984744047,  0.333332985985145,  0.416137330960534 ]
  mass: 15.999400
- symbol: Ti # 5
  coordinates: [  0.333332985432215,  0.666666983183674,  0.467270988414192 ]
  mass: 47.867000
- symbol: Ti # 6
  coordinates: [  0.666666984744047,  0.333332985985145,  0.554231897454084 ]
  mass: 47.867000

phonon:
- q-position: [    0.0000000,    0.0000000,    0.0000000 ]
  distance:    0.0000000
  band:
  - # 1
    frequency:   -0.0000031432
  - # 2
    frequency:    0.0000010014
  - # 3
    frequency:    0.0000029387
  - # 4
    frequency:    4.6350156671
  - # 5
    frequency:    4.6350156671
  - # 6
    frequency:    7.2781236965
  - # 7
    frequency:    7.3469362026
  - # 8
    frequency:    7.3469362026
  - # 9
    frequency:    8.9333441156
  - # 10
    frequency:    8.9333441156
  - # 11
    frequency:   11.6020911685
  - # 12
    frequency:   14.0025702320
  - # 13
    frequency:   14.6904855312
  - # 14
    frequency:   14.6904855312
  - # 15
    frequency:   15.9480922318
  - # 16
    frequency:   18.0847977013
  - # 17
    frequency:   18.0847977013
  - # 18
    frequency:  111.6373941405

- q-position: [    0.0050505,    0.0000000,    0.0000000 ]
  distance:    0.0018351
  band:
  - # 1
    frequency:   -0.0506941206
  - # 2
    frequency:    0.0966230500
  - # 3
    frequency:    0.1562780328
  - # 4
    frequency:    4.6352168753
  - # 5
    frequency:    4.6367104099
  - # 6
    frequency:    7.2651458276
  - # 7
    frequency:    7.3466262591
  - # 8
    frequency:    7.3604177879
  - # 9
    frequency:    8.9332304964
  - # 10
    frequency:    8.9339857878
  - # 11
    frequency:   11.6011614078
  - # 12
    frequency:   14.0014211391
  - # 13
    frequency:   14.6898461320
  - # 14
    frequency:   14.6903618463
  - # 15
    frequency:   15.9480019010
  - # 16
    frequency:   18.0840522769
  - # 17
    frequency:   18.0848226401
  - # 18
    frequency:  111.6368148361

- q-position: [    0.0101010,    0.0000000,    0.0000000 ]
  distance:    0.0036701
  band:
  - # 1
    frequency:   -0.0470317032
  - # 2
    frequency:    0.1931405084
  - # 3
    frequency:    0.2993424724
  - # 4
    frequency:    4.6358212037
  - # 5
    frequency:    4.6417830369
  - # 6
    frequency:    7.2392289326
  - # 7
    frequency:    7.3456987098
  - # 8
    frequency:    7.3878422754
  - # 9
    frequency:    8.9328899771
  - # 10
    frequency:    8.9359091844
  - # 11
    frequency:   11.5983742604
  - # 12
    frequency:   13.9979676135
  - # 13
    frequency:   14.6879496833
  - # 14
    frequency:   14.6899939289
  - # 15
    frequency:   15.9477274261
  - # 16
    frequency:   18.0818231031
  - # 17
    frequency:   18.0848980575
  - # 18
    frequency:  111.6350815694

- q-position: [    0.0151515,    0.0000000,    0.0000000 ]
  distance:    0.0055052
  band:
  - # 1
    frequency:   -0.0326613752
  - # 2
    frequency:    0.2894471632
  - # 3
    frequency:    0.4445625128
  - # 4
    frequency:    4.6368307684
  - # 5
    frequency:    4.6501990357
  - # 6
    frequency:    7.2102445185
  - # 7
    frequency:    7.3441603722
  - # 8
    frequency:    7.4193275367
  - # 9
    frequency:    8.9323235678
  - # 10
    frequency:    8.9391094287
  - # 11
    frequency:   11.5937361305
  - # 12
    frequency:   13.9921914465
  - # 13
    frequency:   14.6848607535
  - # 14
    frequency:   14.6893911577
  - # 15
    frequency:   15.9472584742
  - # 16
    frequency:   18.0781313926
  - # 17
    frequency:   18.0850257499
  - # 18
    frequency:  111.6322082434

- q-position: [    0.0202020,    0.0000000,    0.0000000 ]
  distance:    0.0073402
  band:
  - # 1
    frequency:    0.0315178118
  - # 2
    frequency:    0.3854385623
  - # 3
    frequency:    0.5901636063
  - # 4
    frequency:    4.6382491122
  - # 5
    frequency:    4.6619018376
  - # 6
    frequency:    7.1806135542
  - # 7
    frequency:    7.3420225208
  - # 8
    frequency:    7.4524350615
  - # 9
    frequency:    8.9315329371
  - # 10
    frequency:    8.9435783370
  - # 11
    frequency:   11.5872576912
  - # 12
    frequency:   13.9840640624
  - # 13
    frequency:   14.6806847031
  - # 14
    frequency:   14.6885690548
  - # 15
    frequency:   15.9465782029
  - # 16
    frequency:   18.0730122128
  - # 17
    frequency:   18.0852086873
  - # 18
    frequency:  111.6282179075

- q-position: [    0.0252525,    0.0000000,    0.0000000 ]
  distance:    0.0091753
  band:
  - # 1
    frequency:    0.0658062062
  - # 2
    frequency:    0.4810113932
  - # 3
    frequency:    0.7355835842
  - # 4
    frequency:    4.6400812258
  - # 5
    frequency:    4.6768141891
  - # 6
    frequency:    7.1510428888
  - # 7
    frequency:    7.3393007570
  - # 8
    frequency:    7.4864337834
  - # 9
    frequency:    8.9305203896
  - # 10
    frequency:    8.9493043335
  - # 11
    frequency:   11.5789538841
  - # 12
    frequency:   13.9735491702
  - # 13
    frequency:   14.6755643308
  - # 14
    frequency:   14.6875491225
  - # 15
    frequency:   15.9456638078
  - # 16
    frequency:   18.0665140576
  - # 17
    frequency:   18.0854509785
  - # 18
    frequency:  111.6231425752

- q-position: [    0.0303030,    0.0000000,    0.0000000 ]
  distance:    0.0110103
  band:
  - # 1
    frequency:    0.0970504483
  - # 2
    frequency:    0.5760638652
  - # 3
    frequency:    0.8805427502
  - # 4
    frequency:    4.6423335739
  - # 5
    frequency:    4.6948399591
  - # 6
    frequency:    7.1218078680
  - # 7
    frequency:    7.3360148277
  - # 8
    frequency:    7.5210178089
  - # 9
    frequency:    8.9292888364
  - # 10
    frequency:    8.9562723272
  - # 11
    frequency:   11.5688439172
  - # 12
    frequency:   13.9606064318
  - # 13
    frequency:   14.6696752594
  - # 14
    frequency:   14.6863586177
  - # 15
    frequency:   15.9444872491
  - # 16
    frequency:   18.0586982494
  - # 17
    frequency:   18.0857578211
  - # 18
    frequency:  111.6170229709

- q-position: [    0.0353535,    0.0000000,    0.0000000 ]
  distance:    0.0128454
  band:
  - # 1
    frequency:    0.1296920446
  - # 2
    frequency:    0.6704960920
  - # 3
    frequency:    1.0248533850
  - # 4
    frequency:    4.6450141223
  - # 5
    frequency:    4.7158662865
  - # 6
    frequency:    7.0930413472
  - # 7
    frequency:    7.3321883963
  - # 8
    frequency:    7.5560178556
  - # 9
    frequency:    8.9278417588
  - # 10
    frequency:    8.9644635495
  - # 11
    frequency:   11.5569512623
  - # 12
    frequency:   13.9451960379
  - # 13
    frequency:   14.6632201987
  - # 14
    frequency:   14.6850302658
  - # 15
    frequency:   15.9430161263
  - # 16
    frequency:   18.0496381747
  - # 17
    frequency:   18.0861354384
  - # 18
    frequency:  111.6099082080

- q-position: [    0.0404040,    0.0000000,    0.0000000 ]
  distance:    0.0146804
  band:
  - # 1
    frequency:    0.1648273524
  - # 2
    frequency:    0.7642104769
  - # 3
    frequency:    1.1683668138
  - # 4
    frequency:    4.6481323600
  - # 5
    frequency:    4.7397659599
  - # 6
    frequency:    7.0648187647
  - # 7
    frequency:    7.3278487673
  - # 8
    frequency:    7.5913167390
  - # 9
    frequency:    8.9261831675
  - # 10
    frequency:    8.9738553486
  - # 11
    frequency:   11.5433036497
  - # 12
    frequency:   13.9272839860
  - # 13
    frequency:   14.6564223249
  - # 14
    frequency:   14.6836019160
  - # 15
    frequency:   15.9412146638
  - # 16
    frequency:   18.0394183582
  - # 17
    frequency:   18.0865910017
  - # 18
    frequency:  111.6018554000

- q-position: [    0.0454545,    0.0000000,    0.0000000 ]
  distance:    0.0165155
  band:
  - # 1
    frequency:    0.2028676735
  - # 2
    frequency:    0.8571121008
  - # 3
    frequency:    1.3109551448
  - # 4
    frequency:    4.6516993116
  - # 5
    frequency:    4.7663999177
  - # 6
    frequency:    7.0371890331
  - # 7
    frequency:    7.3230265685
  - # 8
    frequency:    7.6268191533
  - # 9
    frequency:    8.9243175581
  - # 10
    frequency:    8.9844209392
  - # 11
    frequency:   11.5279330608
  - # 12
    frequency:   13.9068477280
  - # 13
    frequency:   14.6495181352
  - # 14
    frequency:   14.6821161433
  - # 15
    frequency:   15.9390447738
  - # 16
    frequency:   18.0281333803
  - # 17
    frequency:   18.0871325391
  - # 18
    frequency:  111.5929292092

- q-position: [    0.0505051,    0.0000000,    0.0000000 ]
  distance:    0.0183506
  band:
  - # 1
    frequency:    0.2439659123
  - # 2
    frequency:    0.9491091152
  - # 3
    frequency:    1.4525039988
  - # 4
    frequency:    4.6557275333
  - # 5
    frequency:    4.7956197664
  - # 6
    frequency:    7.0101876744
  - # 7
    frequency:    7.3177553949
  - # 8
    frequency:    7.6624393230
  - # 9
    frequency:    8.9222498642
  - # 10
    frequency:    8.9961291065
  - # 11
    frequency:   11.5108757158
  - # 12
    frequency:   13.8838817500
  - # 13
    frequency:   14.6427502428
  - # 14
    frequency:   14.6806197990
  - # 15
    frequency:   15.9364671661
  - # 16
    frequency:   18.0158866485
  - # 17
    frequency:   18.0877688309
  - # 18
    frequency:  111.5832013350

- q-position: [    0.0555556,    0.0000000,    0.0000000 ]
  distance:    0.0201856
  band:
  - # 1
    frequency:    0.2881497826
  - # 2
    frequency:    1.0401131393
  - # 3
    frequency:    1.5929093182
  - # 4
    frequency:    4.6602310845
  - # 5
    frequency:    4.8272702239
  - # 6
    frequency:    6.9838431496
  - # 7
    frequency:    7.3120714183
  - # 8
    frequency:    7.6980955727
  - # 9
    frequency:    8.9199854112
  - # 10
    frequency:    9.0089438646
  - # 11
    frequency:   11.4921720579
  - # 12
    frequency:   13.8584025734
  - # 13
    frequency:   14.6363606373
  - # 14
    frequency:   14.6791635155
  - # 15
    frequency:   15.9334424776
  - # 16
    frequency:   18.0027890317
  - # 17
    frequency:   18.0885092914
  - # 18
    frequency:  111.5727499472

- q-position: [    0.0606061,    0.0000000,    0.0000000 ]
  distance:    0.0220207
  band:
  - # 1
    frequency:    0.3353780394
  - # 2
    frequency:    1.1300396648
  - # 3
    frequency:    1.7320758545
  - # 4
    frequency:    4.6652254688
  - # 5
    frequency:    4.8611914138
  - # 6
    frequency:    6.9581802457
  - # 7
    frequency:    7.3060129689
  - # 8
    frequency:    7.7337079497
  - # 9
    frequency:    8.9175298700
  - # 10
    frequency:    9.0228240737
  - # 11
    frequency:   11.4718667296
  - # 12
    frequency:   13.8304526794
  - # 13
    frequency:   14.6305849212
  - # 14
    frequency:   14.6778011704
  - # 15
    frequency:   15.9299324009
  - # 16
    frequency:   17.9889573754
  - # 17
    frequency:   18.0893638388
  - # 18
    frequency:  111.5616590677

- q-position: [    0.0656566,    0.0000000,    0.0000000 ]
  distance:    0.0238557
  band:
  - # 1
    frequency:    0.3855688762
  - # 2
    frequency:    1.2188084676
  - # 3
    frequency:    1.8699163879
  - # 4
    frequency:    4.6707275356
  - # 5
    frequency:    4.8972209533
  - # 6
    frequency:    6.9332220622
  - # 7
    frequency:    7.2996200946
  - # 8
    frequency:    7.7691973499
  - # 9
    frequency:    8.9148892130
  - # 10
    frequency:    9.0377230235
  - # 11
    frequency:   11.4500085428
  - # 12
    frequency:   13.8001029550
  - # 13
    frequency:   14.6256479296
  - # 14
    frequency:   14.6765893141
  - # 15
    frequency:   15.9259007934
  - # 16
    frequency:   17.9745129143
  - # 17
    frequency:   18.0903427528
  - # 18
    frequency:  111.5500179065

- q-position: [    0.0707071,    0.0000000,    0.0000000 ]
  distance:    0.0256908
  band:
  - # 1
    frequency:    0.4386160393
  - # 2
    frequency:    1.3063440289
  - # 3
    frequency:    2.0063512623
  - # 4
    frequency:    4.6767553369
  - # 5
    frequency:    4.9351957950
  - # 6
    frequency:    6.9089912777
  - # 7
    frequency:    7.2929341047
  - # 8
    frequency:    7.8044854524
  - # 9
    frequency:    8.9120696732
  - # 10
    frequency:    9.0535879925
  - # 11
    frequency:   11.4266504391
  - # 12
    frequency:   13.7674534329
  - # 13
    frequency:   14.6217609603
  - # 14
    frequency:   14.6755865671
  - # 15
    frequency:   15.9213147517
  - # 16
    frequency:   17.9595796089
  - # 17
    frequency:   18.0914565206
  - # 18
    frequency:  111.5379201570

- q-position: [    0.0757576,    0.0000000,    0.0000000 ]
  distance:    0.0275258
  band:
  - # 1
    frequency:    0.4943987271
  - # 2
    frequency:    1.3925759647
  - # 3
    frequency:    2.1413080392
  - # 4
    frequency:    4.6833279302
  - # 5
    frequency:    4.9749538025
  - # 6
    frequency:    6.8855110223
  - # 7
    frequency:    7.2859971051
  - # 8
    frequency:    7.8394951219
  - # 9
    frequency:    8.9090777070
  - # 10
    frequency:    9.0703597998
  - # 11
    frequency:   11.4018494394
  - # 12
    frequency:   13.7326323120
  - # 13
    frequency:   14.6191206266
  - # 14
    frequency:   14.6748529936
  - # 15
    frequency:   15.9161456371
  - # 16
    frequency:   17.9442824310
  - # 17
    frequency:   18.0927156737
  - # 18
    frequency:  111.5254632555

- q-position: [    0.0808081,    0.0000000,    0.0000000 ]
  distance:    0.0293609
  band:
  - # 1
    frequency:    0.5527880138
  - # 2
    frequency:    1.4774394657
  - # 3
    frequency:    2.2747211713
  - # 4
    frequency:    4.6904651244
  - # 5
    frequency:    5.0163350484
  - # 6
    frequency:    6.8628055251
  - # 7
    frequency:    7.2788515335
  - # 8
    frequency:    7.8741510849
  - # 9
    frequency:    8.9059199600
  - # 10
    frequency:    9.0879723696
  - # 11
    frequency:   11.3756665819
  - # 12
    frequency:   13.6957934440
  - # 13
    frequency:   14.6179091424
  - # 14
    frequency:   14.6744494562
  - # 15
    frequency:   15.9103700358
  - # 16
    frequency:   17.9287456342
  - # 17
    frequency:   18.0941306150
  - # 18
    frequency:  111.5127476129

- q-position: [    0.0858586,    0.0000000,    0.0000000 ]
  distance:    0.0311959
  band:
  - # 1
    frequency:    0.6136511708
  - # 2
    frequency:    1.5608757446
  - # 3
    frequency:    2.4065316442
  - # 4
    frequency:    4.6981871643
  - # 5
    frequency:    5.0591828400
  - # 6
    frequency:    6.8409006320
  - # 7
    frequency:    7.2715397004
  - # 8
    frequency:    7.9083807593
  - # 9
    frequency:    8.9026032373
  - # 10
    frequency:    9.1063523312
  - # 11
    frequency:   11.3481668462
  - # 12
    frequency:   13.6571126243
  - # 13
    frequency:   14.6182957010
  - # 14
    frequency:   14.6744369594
  - # 15
    frequency:   15.9039706372
  - # 16
    frequency:   17.9130910437
  - # 17
    frequency:   18.0957114391
  - # 18
    frequency:  111.4998758224

- q-position: [    0.0909091,    0.0000000,    0.0000000 ]
  distance:    0.0330310
  band:
  - # 1
    frequency:    0.6768546386
  - # 2
    frequency:    1.6428324902
  - # 3
    frequency:    2.5366865579
  - # 4
    frequency:    4.7065143495
  - # 5
    frequency:    5.1033444812
  - # 6
    frequency:    6.8198242503
  - # 7
    frequency:    7.2641033457
  - # 8
    frequency:    7.9421151501
  - # 9
    frequency:    8.8991344773
  - # 10
    frequency:    9.1254186831
  - # 11
    frequency:   11.3194190621
  - # 12
    frequency:   13.6167830958
  - # 13
    frequency:   14.6204385388
  - # 14
    frequency:   14.6748759877
  - # 15
    frequency:   15.8969370114
  - # 16
    frequency:   17.8974364063
  - # 17
    frequency:   18.0974677457
  - # 18
    frequency:  111.4869518519

- q-position: [    0.0959596,    0.0000000,    0.0000000 ]
  distance:    0.0348661
  band:
  - # 1
    frequency:    0.7422660842
  - # 2
    frequency:    1.7232643240
  - # 3
    frequency:    2.6651386344
  - # 4
    frequency:    4.7154665925
  - # 5
    frequency:    5.1486717876
  - # 6
    frequency:    6.7996067601
  - # 7
    frequency:    7.2565832164
  - # 8
    frequency:    7.9752897386
  - # 9
    frequency:    8.8955207275
  - # 10
    frequency:    9.1450825486
  - # 11
    frequency:   11.2894958021
  - # 12
    frequency:   13.5750106761
  - # 13
    frequency:   14.6244872762
  - # 14
    frequency:   14.6758258451
  - # 15
    frequency:   15.8892662657
  - # 16
    frequency:   17.8818938409
  - # 17
    frequency:   18.0994084497
  - # 18
    frequency:  111.4740802259

- q-position: [    0.1010101,    0.0000000,    0.0000000 ]
  distance:    0.0367011
  band:
  - # 1
    frequency:    0.8097558171
  - # 2
    frequency:    1.8021332547
  - # 3
    frequency:    2.7918456470
  - # 4
    frequency:    4.7250629144
  - # 5
    frequency:    5.1950213705
  - # 6
    frequency:    6.7802814183
  - # 7
    frequency:    7.2490186729
  - # 8
    frequency:    8.0078453095
  - # 9
    frequency:    8.8917691241
  - # 10
    frequency:    9.1652470524
  - # 11
    frequency:   11.2584732565
  - # 12
    frequency:   13.5320088621
  - # 13
    frequency:   14.6305851903
  - # 14
    frequency:   14.6773440021
  - # 15
    frequency:   15.8809635586
  - # 16
    frequency:   17.8665684314
  - # 17
    frequency:   18.1015415881
  - # 18
    frequency:  111.4613652050

- q-position: [    0.1060606,    0.0000000,    0.0000000 ]
  distance:    0.0385362
  band:
  - # 1
    frequency:    0.8791977376
  - # 2
    frequency:    1.8794091228
  - # 3
    frequency:    2.9167697676
  - # 4
    frequency:    4.7353208887
  - # 5
    frequency:    5.2422547104
  - # 6
    frequency:    6.7618847795
  - # 7
    frequency:    7.2414473310
  - # 8
    frequency:    8.0397286622
  - # 9
    frequency:    8.8878868720
  - # 10
    frequency:    9.1858073443
  - # 11
    frequency:   11.2264310872
  - # 12
    frequency:   13.4879941845
  - # 13
    frequency:   14.6388711592
  - # 14
    frequency:   14.6794854581
  - # 15
    frequency:   15.8720424531
  - # 16
    frequency:   17.8515570001
  - # 17
    frequency:   18.1038741275
  - # 18
    frequency:  111.4489099689

- q-position: [    0.1111111,    0.0000000,    0.0000000 ]
  distance:    0.0403712
  band:
  - # 1
    frequency:    0.9504699400
  - # 2
    frequency:    1.9550700265
  - # 3
    frequency:    3.0398768364
  - # 4
    frequency:    4.7462560409
  - # 5
    frequency:    5.2902380363
  - # 6
    frequency:    6.7444571523
  - # 7
    frequency:    7.2339047424
  - # 8
    frequency:    8.0708931677
  - # 9
    frequency:    8.8838812258
  - # 10
    frequency:    9.2066507930
  - # 11
    frequency:   11.1934522620
  - # 12
    frequency:   13.4431819932
  - # 13
    frequency:   14.6494811125
  - # 14
    frequency:   14.6823021238
  - # 15
    frequency:   15.8625250933
  - # 16
    frequency:   17.8369470947
  - # 17
    frequency:   18.1064117722
  - # 18
    frequency:  111.4368158107

- q-position: [    0.1161616,    0.0000000,    0.0000000 ]
  distance:    0.0422063
  band:
  - # 1
    frequency:    1.0234550528
  - # 2
    frequency:    2.0291027177
  - # 3
    frequency:    3.1611355585
  - # 4
    frequency:    4.7578812167
  - # 5
    frequency:    5.3388420259
  - # 6
    frequency:    6.7280431081
  - # 7
    frequency:    7.2264241208
  - # 8
    frequency:    8.1012991371
  - # 9
    frequency:    8.8797594702
  - # 10
    frequency:    9.2276573664
  - # 11
    frequency:   11.1596228630
  - # 12
    frequency:   13.3977827799
  - # 13
    frequency:   14.6625489017
  - # 14
    frequency:   14.6858422312
  - # 15
    frequency:   15.8524421945
  - # 16
    frequency:   17.8228162182
  - # 17
    frequency:   18.1091587778
  - # 18
    frequency:  111.4251813473

- q-position: [    0.1212121,    0.0000000,    0.0000000 ]
  distance:    0.0440413
  band:
  - # 1
    frequency:    1.0980403813
  - # 2
    frequency:    2.1015029540
  - # 3
    frequency:    3.2805166311
  - # 4
    frequency:    4.7702059378
  - # 5
    frequency:    5.3879413398
  - # 6
    frequency:    6.7126920596
  - # 7
    frequency:    7.2190361146
  - # 8
    frequency:    8.1309139826
  - # 9
    frequency:    8.8755289000
  - # 10
    frequency:    9.2487002086
  - # 11
    frequency:   11.1250318675
  - # 12
    frequency:   13.3519990812
  - # 13
    frequency:   14.6782065723
  - # 14
    frequency:   14.6901497767
  - # 15
    frequency:   15.8418328451
  - # 16
    frequency:   17.8092313181
  - # 17
    frequency:   18.1121177701
  - # 18
    frequency:  111.4141017553

- q-position: [    0.1262626,    0.0000000,    0.0000000 ]
  distance:    0.0458764
  band:
  - # 1
    frequency:    1.1741178976
  - # 2
    frequency:    2.1722757925
  - # 3
    frequency:    3.3979918109
  - # 4
    frequency:    4.7832357604
  - # 5
    frequency:    5.4374140012
  - # 6
    frequency:    6.6984589244
  - # 7
    frequency:    7.2117686292
  - # 8
    frequency:    8.1597121600
  - # 9
    frequency:    8.8711967971
  - # 10
    frequency:    9.2696464186
  - # 11
    frequency:   11.0897708961
  - # 12
    frequency:   13.3060229672
  - # 13
    frequency:   14.6952640031
  - # 14
    frequency:   14.6965840543
  - # 15
    frequency:   15.8307441284
  - # 16
    frequency:   17.7962485449
  - # 17
    frequency:   18.1152895727
  - # 18
    frequency:  111.4036680355

- q-position: [    0.1313131,    0.0000000,    0.0000000 ]
  distance:    0.0477114
  band:
  - # 1
    frequency:    1.2515841159
  - # 2
    frequency:    2.2414358084
  - # 3
    frequency:    3.5135329268
  - # 4
    frequency:    4.7969716611
  - # 5
    frequency:    5.4871406272
  - # 6
    frequency:    6.6854048868
  - # 7
    frequency:    7.2046466996
  - # 8
    frequency:    8.1876748946
  - # 9
    frequency:    8.8667704059
  - # 10
    frequency:    9.2903580277
  - # 11
    frequency:   11.0539339200
  - # 12
    frequency:   13.2600340930
  - # 13
    frequency:   14.7012189254
  - # 14
    frequency:   14.7178083220
  - # 15
    frequency:   15.8192305828
  - # 16
    frequency:   17.7839132781
  - # 17
    frequency:   18.1186730460
  - # 18
    frequency:  111.3939663158

- q-position: [    0.1363636,    0.0000000,    0.0000000 ]
  distance:    0.0495465
  band:
  - # 1
    frequency:    1.3303398819
  - # 2
    frequency:    2.3090072224
  - # 3
    frequency:    3.6271108483
  - # 4
    frequency:    4.8114094712
  - # 5
    frequency:    5.5370035221
  - # 6
    frequency:    6.6735982697
  - # 7
    frequency:    7.1976924125
  - # 8
    frequency:    8.2147897008
  - # 9
    frequency:    8.8622569052
  - # 10
    frequency:    9.3106931691
  - # 11
    frequency:   11.0176169183
  - # 12
    frequency:   13.2141982779
  - # 13
    frequency:   14.7080429059
  - # 14
    frequency:   14.7420020780
  - # 15
    frequency:   15.8073535325
  - # 16
    frequency:   17.7722604071
  - # 17
    frequency:   18.1222649395
  - # 18
    frequency:  111.3850771946

- q-position: [    0.1414141,    0.0000000,    0.0000000 ]
  distance:    0.0513816
  band:
  - # 1
    frequency:    1.4102901001
  - # 2
    frequency:    2.3750239193
  - # 3
    frequency:    3.7386944157
  - # 4
    frequency:    4.8265393822
  - # 5
    frequency:    5.5868856412
  - # 6
    frequency:    6.6631155221
  - # 7
    frequency:    7.1909248783
  - # 8
    frequency:    8.2410497159
  - # 9
    frequency:    8.8576633759
  - # 10
    frequency:    9.3305074324
  - # 11
    frequency:   10.9809174734
  - # 12
    frequency:   13.1686665694
  - # 13
    frequency:   14.7157582825
  - # 14
    frequency:   14.7692820231
  - # 15
    frequency:   15.7951803324
  - # 16
    frequency:   17.7613148461
  - # 17
    frequency:   18.1260597590
  - # 18
    frequency:  111.3770751333

- q-position: [    0.1464646,    0.0000000,    0.0000000 ]
  distance:    0.0532166
  band:
  - # 1
    frequency:    1.4913434195
  - # 2
    frequency:    2.4395293442
  - # 3
    frequency:    3.8482493445
  - # 4
    frequency:    4.8423455437
  - # 5
    frequency:    5.6366694425
  - # 6
    frequency:    6.6540423174
  - # 7
    frequency:    7.1843602484
  - # 8
    frequency:    8.2664528722
  - # 9
    frequency:    8.8529967664
  - # 10
    frequency:    9.3496553931
  - # 11
    frequency:   10.9439342864
  - # 12
    frequency:   13.1235747462
  - # 13
    frequency:   14.7243810539
  - # 14
    frequency:   14.7997567637
  - # 15
    frequency:   15.7827835894
  - # 16
    frequency:   17.7510922549
  - # 17
    frequency:   18.1300496513
  - # 18
    frequency:  111.3700279011

- q-position: [    0.1515152,    0.0000000,    0.0000000 ]
  distance:    0.0550517
  band:
  - # 1
    frequency:    1.5734118942
  - # 2
    frequency:    2.5025762621
  - # 3
    frequency:    3.9557371134
  - # 4
    frequency:    4.8588057742
  - # 5
    frequency:    5.6862356570
  - # 6
    frequency:    6.6464747409
  - # 7
    frequency:    7.1780117777
  - # 8
    frequency:    8.2910009378
  - # 9
    frequency:    8.8482638527
  - # 10
    frequency:    9.3679923129
  - # 11
    frequency:   10.9067665972
  - # 12
    frequency:   13.0790432107
  - # 13
    frequency:   14.7339206257
  - # 14
    frequency:   14.8335243931
  - # 15
    frequency:   15.7702404379
  - # 16
    frequency:   17.7415999300
  - # 17
    frequency:   18.1342243097
  - # 18
    frequency:  111.3639960779

- q-position: [    0.1565657,    0.0000000,    0.0000000 ]
  distance:    0.0568867
  band:
  - # 1
    frequency:    1.6564106336
  - # 2
    frequency:    2.5642263722
  - # 3
    frequency:    4.0611138502
  - # 4
    frequency:    4.8758913995
  - # 5
    frequency:    5.7354620329
  - # 6
    frequency:    6.6405205139
  - # 7
    frequency:    7.1718899265
  - # 8
    frequency:    8.3146984560
  - # 9
    frequency:    8.8434711955
  - # 10
    frequency:    9.3853760065
  - # 11
    frequency:   10.8695134847
  - # 12
    frequency:   13.0351772220
  - # 13
    frequency:   14.7443796188
  - # 14
    frequency:   14.8706697543
  - # 15
    frequency:   15.7576319799
  - # 16
    frequency:   17.7328378309
  - # 17
    frequency:   18.1385708990
  - # 18
    frequency:  111.3590326180

- q-position: [    0.1616162,    0.0000000,    0.0000000 ]
  distance:    0.0587218
  band:
  - # 1
    frequency:    1.7402574546
  - # 2
    frequency:    2.6245497725
  - # 3
    frequency:    4.1643292333
  - # 4
    frequency:    4.8935672301
  - # 5
    frequency:    5.7842221533
  - # 6
    frequency:    6.6363001565
  - # 7
    frequency:    7.1660025004
  - # 8
    frequency:    8.3375516158
  - # 9
    frequency:    8.8386250941
  - # 10
    frequency:    9.4016688767
  - # 11
    frequency:   10.8322730274
  - # 12
    frequency:   12.9920674170
  - # 13
    frequency:   14.7557537426
  - # 14
    frequency:   14.9112613391
  - # 15
    frequency:   15.7450430457
  - # 16
    frequency:   17.7247997031
  - # 17
    frequency:   18.1430740052
  - # 18
    frequency:  111.3551824802

- q-position: [    0.1666667,    0.0000000,    0.0000000 ]
  distance:    0.0605568
  band:
  - # 1
    frequency:    1.8248725479
  - # 2
    frequency:    2.6836242730
  - # 3
    frequency:    4.2653254317
  - # 4
    frequency:    4.9117916844
  - # 5
    frequency:    5.8323844873
  - # 6
    frequency:    6.6339479155
  - # 7
    frequency:    7.1603548220
  - # 8
    frequency:    8.3595670799
  - # 9
    frequency:    8.8337315359
  - # 10
    frequency:    9.4167401226
  - # 11
    frequency:   10.7951413026
  - # 12
    frequency:   12.9497905648
  - # 13
    frequency:   14.7680317346
  - # 14
    frequency:   14.9553476845
  - # 15
    frequency:   15.7325625198
  - # 16
    frequency:   17.7174742642
  - # 17
    frequency:   18.1477156085
  - # 18
    frequency:  111.3524823252

- q-position: [    0.1717172,    0.0000000,    0.0000000 ]
  distance:    0.0623919
  band:
  - # 1
    frequency:    1.9101781667
  - # 2
    frequency:    2.7415345649
  - # 3
    frequency:    4.3640361159
  - # 4
    frequency:    4.9305170557
  - # 5
    frequency:    5.8798119368
  - # 6
    frequency:    6.6336121821
  - # 7
    frequency:    7.1549499320
  - # 8
    frequency:    8.3807508000
  - # 9
    frequency:    8.8287961447
  - # 10
    frequency:    9.4304681203
  - # 11
    frequency:   10.7582112088
  - # 12
    frequency:   12.9084105012
  - # 13
    frequency:   14.7811953658
  - # 14
    frequency:   15.0029529470
  - # 15
    frequency:   15.7202846436
  - # 16
    frequency:   17.7108464215
  - # 17
    frequency:   18.1524750831
  - # 18
    frequency:  111.3509602841

- q-position: [    0.1767677,    0.0000000,    0.0000000 ]
  distance:    0.0642269
  band:
  - # 1
    frequency:    1.9960983466
  - # 2
    frequency:    2.7983712540
  - # 3
    frequency:    4.4603855824
  - # 4
    frequency:    4.9496899201
  - # 5
    frequency:    5.9263622579
  - # 6
    frequency:    6.6354549837
  - # 7
    frequency:    7.1497888146
  - # 8
    frequency:    8.4011068411
  - # 9
    frequency:    8.8238241253
  - # 10
    frequency:    9.4427429753
  - # 11
    frequency:   10.7215711062
  - # 12
    frequency:   12.8679791861
  - # 13
    frequency:   14.7952195131
  - # 14