nqpoint: 300    
npath: 3      
segment_nqpoint:
- 100
- 100
- 100
labels:
- [ 'G', 'M' ]
- [ 'M', 'K' ]
- [ 'K', 'G' ]
reciprocal_lattice:
- [   0.29506798,   0.17035758,   0.00000000 ] # a*
- [   0.00000000,   0.34071516,   0.00000000 ] # b*
- [   0.00000000,   0.00000000,   0.03694356 ] # c*
natom: 8      
lattice:
- [     3.389049489069241,     0.000000000000000,     0.000000000000000 ] # a
- [    -1.694524744534621,     2.935002952181489,     0.000000000000000 ] # b
- [     0.000000000000000,     0.000000000000000,    27.068315897822178 ] # c
points:
- symbol: C # 1
  coordinates: [  0.000000000000000,  0.000000000000000,  0.521494228110222 ]
  mass: 12.010700
- symbol: C # 2
  coordinates: [  0.333332985432215,  0.666666983183674,  0.623014008407913 ]
  mass: 12.010700
- symbol: C # 3
  coordinates: [  0.666666984744047,  0.333332985985145,  0.376988722525916 ]
  mass: 12.010700
- symbol: N # 4
  coordinates: [  0.333332985432215,  0.666666983183674,  0.667507944196702 ]
  mass: 14.006700
- symbol: N # 5
  coordinates: [  0.666666984744047,  0.333332985985145,  0.423086114642704 ]
  mass: 14.006700
- symbol: O # 6
  coordinates: [  0.666666984744047,  0.333332985985145,  0.332492055803298 ]
  mass: 15.999400
- symbol: Zr # 7
  coordinates: [  0.333332985432215,  0.666666983183674,  0.476397664690342 ]
  mass: 91.224000
- symbol: Zr # 8
  coordinates: [  0.666666984744047,  0.333332985985145,  0.567960317572944 ]
  mass: 91.224000

phonon:
- q-position: [    0.0000000,    0.0000000,    0.0000000 ]
  distance:    0.0000000
  band:
  - # 1
    frequency:   -1.9687962497
  - # 2
    frequency:   -1.9687962497
  - # 3
    frequency:   -1.0028874443
  - # 4
    frequency:   -1.0028874443
  - # 5
    frequency:   -0.0000049228
  - # 6
    frequency:    0.0000005100
  - # 7
    frequency:    0.0000049289
  - # 8
    frequency:    4.6939202147
  - # 9
    frequency:    4.6939202147
  - # 10
    frequency:    5.7883476932
  - # 11
    frequency:    6.0367500997
  - # 12
    frequency:    6.0367500997
  - # 13
    frequency:    7.2280451534
  - # 14
    frequency:    7.2280451534
  - # 15
    frequency:    8.4902528618
  - # 16
    frequency:    8.7416438377
  - # 17
    frequency:   16.0895027709
  - # 18
    frequency:   16.4090029478
  - # 19
    frequency:   16.4090029478
  - # 20
    frequency:   17.2880726015
  - # 21
    frequency:   17.2880726015
  - # 22
    frequency:   38.3943926675
  - # 23
    frequency:   60.8351576098
  - # 24
    frequency:   69.0628188405

- q-position: [    0.0050505,    0.0000000,    0.0000000 ]
  distance:    0.0017208
  band:
  - # 1
    frequency:   -1.9677061169
  - # 2
    frequency:   -1.9669427387
  - # 3
    frequency:   -1.0022427725
  - # 4
    frequency:   -1.0013721570
  - # 5
    frequency:   -0.2528193074
  - # 6
    frequency:    0.0742911821
  - # 7
    frequency:    0.2760441075
  - # 8
    frequency:    4.6942462901
  - # 9
    frequency:    4.6946506679
  - # 10
    frequency:    5.7876646501
  - # 11
    frequency:    6.0373017733
  - # 12
    frequency:    6.0385396607
  - # 13
    frequency:    7.2288777496
  - # 14
    frequency:    7.2295379083
  - # 15
    frequency:    8.4900899825
  - # 16
    frequency:    8.7419163147
  - # 17
    frequency:   16.0893185234
  - # 18
    frequency:   16.4104345776
  - # 19
    frequency:   16.4105099678
  - # 20
    frequency:   17.2881427494
  - # 21
    frequency:   17.2883669044
  - # 22
    frequency:   38.3943831905
  - # 23
    frequency:   60.8351339080
  - # 24
    frequency:   69.0613146486

- q-position: [    0.0101010,    0.0000000,    0.0000000 ]
  distance:    0.0034416
  band:
  - # 1
    frequency:   -1.9644432922
  - # 2
    frequency:   -1.9613925889
  - # 3
    frequency:   -1.0003234627
  - # 4
    frequency:   -0.9968301990
  - # 5
    frequency:   -0.3419074958
  - # 6
    frequency:    0.1486625707
  - # 7
    frequency:    0.4075837815
  - # 8
    frequency:    4.6952218009
  - # 9
    frequency:    4.6968378070
  - # 10
    frequency:    5.7856679815
  - # 11
    frequency:    6.0389541066
  - # 12
    frequency:    6.0438499581
  - # 13
    frequency:    7.2313698087
  - # 14
    frequency:    7.2340065788
  - # 15
    frequency:    8.4895982765
  - # 16
    frequency:    8.7427327630
  - # 17
    frequency:   16.0887692438
  - # 18
    frequency:   16.4147144137
  - # 19
    frequency:   16.4150182367
  - # 20
    frequency:   17.2883527314
  - # 21
    frequency:   17.2892485297
  - # 22
    frequency:   38.3943547650
  - # 23
    frequency:   60.8350626848
  - # 24
    frequency:   69.0568067127

- q-position: [    0.0151515,    0.0000000,    0.0000000 ]
  distance:    0.0051624
  band:
  - # 1
    frequency:   -1.9590304142
  - # 2
    frequency:   -1.9521767017
  - # 3
    frequency:   -0.9971717991
  - # 4
    frequency:   -0.9892718979
  - # 5
    frequency:   -0.4001854987
  - # 6
    frequency:    0.2231847351
  - # 7
    frequency:    0.5208112351
  - # 8
    frequency:    4.6968386387
  - # 9
    frequency:    4.7004690617
  - # 10
    frequency:    5.7825008426
  - # 11
    frequency:    6.0416990705
  - # 12
    frequency:    6.0525201752
  - # 13
    frequency:    7.2355041865
  - # 14
    frequency:    7.2414224721
  - # 15
    frequency:    8.4887688298
  - # 16
    frequency:    8.7440900097
  - # 17
    frequency:   16.0878646986
  - # 18
    frequency:   16.4217980275
  - # 19
    frequency:   16.4224895114
  - # 20
    frequency:   17.2887011643
  - # 21
    frequency:   17.2907136359
  - # 22
    frequency:   38.3943074072
  - # 23
    frequency:   60.8349435886
  - # 24
    frequency:   69.0493089274

- q-position: [    0.0202020,    0.0000000,    0.0000000 ]
  distance:    0.0068831
  band:
  - # 1
    frequency:   -1.9515049401
  - # 2
    frequency:   -1.9393457552
  - # 3
    frequency:   -0.9928524962
  - # 4
    frequency:   -0.9787102031
  - # 5
    frequency:   -0.4412090768
  - # 6
    frequency:    0.2979104506
  - # 7
    frequency:    0.6268979968
  - # 8
    frequency:    4.6990834152
  - # 9
    frequency:    4.7055237793
  - # 10
    frequency:    5.7783622181
  - # 11
    frequency:    6.0455233917
  - # 12
    frequency:    6.0643222628
  - # 13
    frequency:    7.2412524563
  - # 14
    frequency:    7.2517380618
  - # 15
    frequency:    8.4875877222
  - # 16
    frequency:    8.7459820448
  - # 17
    frequency:   16.0866192730
  - # 18
    frequency:   16.4316136230
  - # 19
    frequency:   16.4328604844
  - # 20
    frequency:   17.2891857489
  - # 21
    frequency:   17.2927558466
  - # 22
    frequency:   38.3942411459
  - # 23
    frequency:   60.8347760390
  - # 24
    frequency:   69.0388443683

- q-position: [    0.0252525,    0.0000000,    0.0000000 ]
  distance:    0.0086039
  band:
  - # 1
    frequency:   -1.9419187389
  - # 2
    frequency:   -1.9229689853
  - # 3
    frequency:   -0.9874451882
  - # 4
    frequency:   -0.9651553606
  - # 5
    frequency:   -0.4703530407
  - # 6
    frequency:    0.3728691811
  - # 7
    frequency:    0.7298984032
  - # 8
    frequency:    4.7019376479
  - # 9
    frequency:    4.7119736528
  - # 10
    frequency:    5.7734680876
  - # 11
    frequency:    6.0504087121
  - # 12
    frequency:    6.0790003148
  - # 13
    frequency:    7.2485751293
  - # 14
    frequency:    7.2648874278
  - # 15
    frequency:    8.4860373260
  - # 16
    frequency:    8.7483990430
  - # 17
    frequency:   16.0850496961
  - # 18
    frequency:   16.4440648470
  - # 19
    frequency:   16.4460434256
  - # 20
    frequency:   17.2898032796
  - # 21
    frequency:   17.2953662909
  - # 22
    frequency:   38.3941560233
  - # 23
    frequency:   60.8345592344
  - # 24
    frequency:   69.0254451684

- q-position: [    0.0303030,    0.0000000,    0.0000000 ]
  distance:    0.0103247
  band:
  - # 1
    frequency:   -1.9303375288
  - # 2
    frequency:   -1.9031325190
  - # 3
    frequency:   -0.9810359009
  - # 4
    frequency:   -0.9486091169
  - # 5
    frequency:   -0.4902945946
  - # 6
    frequency:    0.4480647938
  - # 7
    frequency:    0.8317004183
  - # 8
    frequency:    4.7053780138
  - # 9
    frequency:    4.7197832811
  - # 10
    frequency:    5.7680219115
  - # 11
    frequency:    6.0563318059
  - # 12
    frequency:    6.0963008098
  - # 13
    frequency:    7.2574219618
  - # 14
    frequency:    7.2807868614
  - # 15
    frequency:    8.4840979309
  - # 16
    frequency:    8.7513261842
  - # 17
    frequency:   16.0831727268
  - # 18
    frequency:   16.4590338433
  - # 19
    frequency:   16.4619270677
  - # 20
    frequency:   17.2905496573
  - # 21
    frequency:   17.2985336598
  - # 22
    frequency:   38.3940520982
  - # 23
    frequency:   60.8342921637
  - # 24
    frequency:   69.0091523470

- q-position: [    0.0353535,    0.0000000,    0.0000000 ]
  distance:    0.0120455
  band:
  - # 1
    frequency:   -1.9168401675
  - # 2
    frequency:   -1.8799373217
  - # 3
    frequency:   -0.9737089032
  - # 4
    frequency:   -0.9290591783
  - # 5
    frequency:   -0.5024302686
  - # 6
    frequency:    0.5234764354
  - # 7
    frequency:    0.9332709222
  - # 8
    frequency:    4.7093766670
  - # 9
    frequency:    4.7289108316
  - # 10
    frequency:    5.7621987401
  - # 11
    frequency:    6.0632648476
  - # 12
    frequency:    6.1159893876
  - # 13
    frequency:    7.2677323474
  - # 14
    frequency:    7.2993356279
  - # 15
    frequency:    8.4817495310
  - # 16
    frequency:    8.7547424328
  - # 17
    frequency:   16.0810032441
  - # 18
    frequency:   16.4763840996
  - # 19
    frequency:   16.4803777252
  - # 20
    frequency:   17.2914199064
  - # 21
    frequency:   17.3022442794
  - # 22
    frequency:   38.3939294486
  - # 23
    frequency:   60.8339736202
  - # 24
    frequency:   68.9900155919

- q-position: [    0.0404040,    0.0000000,    0.0000000 ]
  distance:    0.0137663
  band:
  - # 1
    frequency:   -1.9015178073
  - # 2
    frequency:   -1.8534968506
  - # 3
    frequency:   -0.9655400726
  - # 4
    frequency:   -0.9064738603
  - # 5
    frequency:   -0.5073898724
  - # 6
    frequency:    0.5990619109
  - # 7
    frequency:    1.0351107521
  - # 8
    frequency:    4.7139016116
  - # 9
    frequency:    4.7393087650
  - # 10
    frequency:    5.7561406122
  - # 11
    frequency:    6.0711757249
  - # 12
    frequency:    6.1378564651
  - # 13
    frequency:    7.2794357932
  - # 14
    frequency:    7.3204168701
  - # 15
    frequency:    8.4789736130
  - # 16
    frequency:    8.7586194359
  - # 17
    frequency:   16.0785529657
  - # 18
    frequency:   16.4959628512
  - # 19
    frequency:   16.5012406320
  - # 20
    frequency:   17.2924081961
  - # 21
    frequency:   17.3064822021
  - # 22
    frequency:   38.3937881751
  - # 23
    frequency:   60.8336022187
  - # 24
    frequency:   68.9680929947

- q-position: [    0.0454545,    0.0000000,    0.0000000 ]
  distance:    0.0154871
  band:
  - # 1
    frequency:   -1.8844729302
  - # 2
    frequency:   -1.8239345485
  - # 3
    frequency:   -0.9565924129
  - # 4
    frequency:   -0.8807956091
  - # 5
    frequency:   -0.5052468201
  - # 6
    frequency:    0.6747625671
  - # 7
    frequency:    1.1374597609
  - # 8
    frequency:    4.7189171242
  - # 9
    frequency:    4.7509245865
  - # 10
    frequency:    5.7499587998
  - # 11
    frequency:    6.0800283870
  - # 12
    frequency:    6.1617161015
  - # 13
    frequency:    7.2924524762
  - # 14
    frequency:    7.3438986350
  - # 15
    frequency:    8.4757548014
  - # 16
    frequency:    8.7629206786
  - # 17
    frequency:   16.0758298183
  - # 18
    frequency:   16.5176030058
  - # 19
    frequency:   16.5243414796
  - # 20
    frequency:   17.2935078648
  - # 21
    frequency:   17.3112293156
  - # 22
    frequency:   38.3936284054
  - # 23
    frequency:   60.8331764153
  - # 24
    frequency:   68.9434507439

- q-position: [    0.0505051,    0.0000000,    0.0000000 ]
  distance:    0.0172078
  band:
  - # 1
    frequency:   -1.8658182851
  - # 2
    frequency:   -1.7913813373
  - # 3
    frequency:   -0.9469138227
  - # 4
    frequency:   -0.8519302063
  - # 5
    frequency:   -0.4955876017
  - # 6
    frequency:    0.7505086362
  - # 7
    frequency:    1.2404025808
  - # 8
    frequency:    4.7243842169
  - # 9
    frequency:    4.7637015861
  - # 10
    frequency:    5.7437391210
  - # 11
    frequency:    6.0897832210
  - # 12
    frequency:    6.1874018601
  - # 13
    frequency:    7.3066938768
  - # 14
    frequency:    7.3696349960
  - # 15
    frequency:    8.4720822585
  - # 16
    frequency:    8.7676009980
  - # 17
    frequency:   16.0728378433
  - # 18
    frequency:   16.5411246880
  - # 19
    frequency:   16.5494881368
  - # 20
    frequency:   17.2947114509
  - # 21
    frequency:   17.3164654723
  - # 22
    frequency:   38.3934502980
  - # 23
    frequency:   60.8326945297
  - # 24
    frequency:   68.9161627743

- q-position: [    0.0555556,    0.0000000,    0.0000000 ]
  distance:    0.0189286
  band:
  - # 1
    frequency:   -1.8456757501
  - # 2
    frequency:   -1.7559732848
  - # 3
    frequency:   -0.9365367802
  - # 4
    frequency:   -0.8197257266
  - # 5
    frequency:   -0.4774813069
  - # 6
    frequency:    0.8262242004
  - # 7
    frequency:    1.3439283087
  - # 8
    frequency:    4.7302611319
  - # 9
    frequency:    4.7775795370
  - # 10
    frequency:    5.7375479643
  - # 11
    frequency:    6.1003974468
  - # 12
    frequency:    6.2147619940
  - # 13
    frequency:    7.3220634838
  - # 14
    frequency:    7.3974672402
  - # 15
    frequency:    8.4679507899
  - # 16
    frequency:    8.7726065063
  - # 17
    frequency:   16.0695774716
  - # 18
    frequency:   16.5663365553
  - # 19
    frequency:   16.5764725281
  - # 20
    frequency:   17.2960107277
  - # 21
    frequency:   17.3221686391
  - # 22
    frequency:   38.3932540473
  - # 23
    frequency:   60.8321547696
  - # 24
    frequency:   68.8863103784

- q-position: [    0.0606061,    0.0000000,    0.0000000 ]
  distance:    0.0206494
  band:
  - # 1
    frequency:   -1.8241751520
  - # 2
    frequency:   -1.7178495885
  - # 3
    frequency:   -0.9254793794
  - # 4
    frequency:   -0.7839316045
  - # 5
    frequency:   -0.4493232836
  - # 6
    frequency:    0.9018312687
  - # 7
    frequency:    1.4479662978
  - # 8
    frequency:    4.7365038604
  - # 9
    frequency:    4.7924953261
  - # 10
    frequency:    5.7314378513
  - # 11
    frequency:    6.1118255220
  - # 12
    frequency:    6.2436551048
  - # 13
    frequency:    7.3384575656
  - # 14
    frequency:    7.4272250824
  - # 15
    frequency:    8.4633616549
  - # 16
    frequency:    8.7778749212
  - # 17
    frequency:   16.0660460059
  - # 18
    frequency:   16.5930370235
  - # 19
    frequency:   16.6050726462
  - # 20
    frequency:   17.2973967462
  - # 21
    frequency:   17.3283150711
  - # 22
    frequency:   38.3930398881
  - # 23
    frequency:   60.8315552575
  - # 24
    frequency:   68.8539817793

- q-position: [    0.0656566,    0.0000000,    0.0000000 ]
  distance:    0.0223702
  band:
  - # 1
    frequency:   -1.8014530736
  - # 2
    frequency:   -1.6771509514
  - # 3
    frequency:   -0.9137471147
  - # 4
    frequency:   -0.7441241271
  - # 5
    frequency:   -0.4084147099
  - # 6
    frequency:    0.9772527829
  - # 7
    frequency:    1.5524085526
  - # 8
    frequency:    4.7430666761
  - # 9
    frequency:    4.8083834975
  - # 10
    frequency:    5.7254521012
  - # 11
    frequency:    6.1240195495
  - # 12
    frequency:    6.2739466913
  - # 13
    frequency:    7.3557660007
  - # 14
    frequency:    7.4587278596
  - # 15
    frequency:    8.4583231316
  - # 16
    frequency:    8.7833362669
  - # 17
    frequency:   16.0622381851
  - # 18
    frequency:   16.6210155095
  - # 19
    frequency:   16.6350546726
  - # 20
    frequency:   17.2988598868
  - # 21
    frequency:   17.3348795097
  - # 22
    frequency:   38.3928081004
  - # 23
    frequency:   60.8308940590
  - # 24
    frequency:   68.8192716701

- q-position: [    0.0707071,    0.0000000,    0.0000000 ]
  distance:    0.0240910
  band:
  - # 1
    frequency:   -1.7776516845
  - # 2
    frequency:   -1.6340182950
  - # 3
    frequency:   -0.9013349085
  - # 4
    frequency:   -0.6995811848
  - # 5
    frequency:   -0.3497503294
  - # 6
    frequency:    1.0524146112
  - # 7
    frequency:    1.6571241902
  - # 8
    frequency:    4.7499026767
  - # 9
    frequency:    4.8251766980
  - # 10
    frequency:    5.7196285379
  - # 11
    frequency:    6.1369296793
  - # 12
    frequency:    6.3055066313
  - # 13
    frequency:    7.3738731587
  - # 14
    frequency:    7.4917856538
  - # 15
    frequency:    8.4528509157
  - # 16
    frequency:    8.7889138731
  - # 17
    frequency:   16.0581467467
  - # 18
    frequency:   16.6500537477
  - # 19
    frequency:   16.6661751774
  - # 20
    frequency:   17.3003899233
  - # 21
    frequency:   17.3418354094
  - # 22
    frequency:   38.3925590143
  - # 23
    frequency:   60.8301692126
  - # 24
    frequency:   68.7822807216

- q-position: [    0.0757576,    0.0000000,    0.0000000 ]
  distance:    0.0258118
  band:
  - # 1
    frequency:   -1.7529176284
  - # 2
    frequency:   -1.5885915685
  - # 3
    frequency:   -0.8882290255
  - # 4
    frequency:   -0.6490825075
  - # 5
    frequency:   -0.2612997350
  - # 6
    frequency:    1.1272467210
  - # 7
    frequency:    1.7619690005
  - # 8
    frequency:    4.7569643248
  - # 9
    frequency:    4.8428060217
  - # 10
    frequency:    5.7140023485
  - # 11
    frequency:    6.1505044984
  - # 12
    frequency:    6.3382074787
  - # 13
    frequency:    7.3926588241
  - # 14
    frequency:    7.5262002812
  - # 15
    frequency:    8.4469684545
  - # 16
    frequency:    8.7945255957
  - # 17
    frequency:   16.0537629426
  - # 18
    frequency:   16.6799272063
  - # 19
    frequency:   16.6981833694
  - # 20
    frequency:   17.3019761044
  - # 21
    frequency:   17.3491551960
  - # 22
    frequency:   38.3922930145
  - # 23
    frequency:   60.8293787607
  - # 24
    frequency:   68.7431150618

- q-position: [    0.0808081,    0.0000000,    0.0000000 ]
  distance:    0.0275325
  band:
  - # 1
    frequency:   -1.7274009979
  - # 2
    frequency:   -1.5410081765
  - # 3
    frequency:   -0.8744086677
  - # 4
    frequency:   -0.5905793053
  - # 5
    frequency:   -0.0688945007
  - # 6
    frequency:    1.2016837623
  - # 7
    frequency:    1.8667918628
  - # 8
    frequency:    4.7642039826
  - # 9
    frequency:    4.8612012550
  - # 10
    frequency:    5.7086082468
  - # 11
    frequency:    6.1646914034
  - # 12
    frequency:    6.3719234125
  - # 13
    frequency:    7.4119991514
  - # 14
    frequency:    7.5617660768
  - # 15
    frequency:    8.4407073292
  - # 16
    frequency:    8.8000851772
  - # 17
    frequency:   16.0490769857
  - # 18
    frequency:   16.7104065950
  - # 19
    frequency:   16.7308233623
  - # 20
    frequency:   17.3036072593
  - # 21
    frequency:   17.3568105586
  - # 22
    frequency:   38.3920105446
  - # 23
    frequency:   60.8285207819
  - # 24
    frequency:   68.7018857312

- q-position: [    0.0858586,    0.0000000,    0.0000000 ]
  distance:    0.0292533
  band:
  - # 1
    frequency:   -1.7012544210
  - # 2
    frequency:   -1.4914002860
  - # 3
    frequency:   -0.8598471566
  - # 4
    frequency:   -0.5205407231
  - # 5
    frequency:    0.2606297153
  - # 6
    frequency:    1.2756652722
  - # 7
    frequency:    1.9714390593
  - # 8
    frequency:    4.7715744344
  - # 9
    frequency:    4.8802910332
  - # 10
    frequency:    5.7034820991
  - # 11
    frequency:    6.1794369516
  - # 12
    frequency:    6.4065296787
  - # 13
    frequency:    7.4317676436
  - # 14
    frequency:    7.5982703885
  - # 15
    frequency:    8.4341078014
  - # 16
    frequency:    8.8055036803
  - # 17
    frequency:   16.0440784258
  - # 18
    frequency:   16.7412594462
  - # 19
    frequency:   16.7638364242
  - # 20
    frequency:   17.3052719380
  - # 21
    frequency:   17.3647727791
  - # 22
    frequency:   38.3917121110
  - # 23
    frequency:   60.8275934228
  - # 24
    frequency:   68.6587081162

- q-position: [    0.0909091,    0.0000000,    0.0000000 ]
  distance:    0.0309741
  band:
  - # 1
    frequency:   -1.6746322757
  - # 2
    frequency:   -1.4398900530
  - # 3
    frequency:   -0.8445126842
  - # 4
    frequency:   -0.4322205437
  - # 5
    frequency:    0.3863058961
  - # 6
    frequency:    1.3491356658
  - # 7
    frequency:    2.0757571205
  - # 8
    frequency:    4.7790293917
  - # 9
    frequency:    4.9000029251
  - # 10
    frequency:    5.6986621388
  - # 11
    frequency:    6.1946871860
  - # 12
    frequency:    6.4419023889
  - # 13
    frequency:    7.4518361417
  - # 14
    frequency:    7.6354936779
  - # 15
    frequency:    8.4272196492
  - # 16
    frequency:    8.8106909406
  - # 17
    frequency:   16.0387564590
  - # 18
    frequency:   16.7722517374
  - # 19
    frequency:   16.7969631704
  - # 20
    frequency:   17.3069586004
  - # 21
    frequency:   17.3730131016
  - # 22
    frequency:   38.3913982862
  - # 23
    frequency:   60.8265949315
  - # 24
    frequency:   68.6137013658

- q-position: [    0.0959596,    0.0000000,    0.0000000 ]
  distance:    0.0326949
  band:
  - # 1
    frequency:   -1.6476900389
  - # 2
    frequency:   -1.3865817221
  - # 3
    frequency:   -0.8283686490
  - # 4
    frequency:   -0.3087042460
  - # 5
    frequency:    0.4884545821
  - # 6
    frequency:    1.4220441260
  - # 7
    frequency:    2.1795946030
  - # 8
    frequency:    4.7865239773
  - # 9
    frequency:    4.9202634660
  - # 10
    frequency:    5.6941898733
  - # 11
    frequency:    6.2103879333
  - # 12
    frequency:    6.4779185681
  - # 13
    frequency:    7.4720758156
  - # 14
    frequency:    7.6732091000
  - # 15
    frequency:    8.4201034289
  - # 16
    frequency:    8.8155570024
  - # 17
    frequency:   16.0331001812
  - # 18
    frequency:   16.8031495261
  - # 19
    frequency:   16.8299456595
  - # 20
    frequency:   17.3086558732
  - # 21
    frequency:   17.3815031398
  - # 22
    frequency:   38.3910697118
  - # 23
    frequency:   60.8255236891
  - # 24
    frequency:   68.5669877944

- q-position: [    0.1010101,    0.0000000,    0.0000000 ]
  distance:    0.0344157
  band:
  - # 1
    frequency:   -1.6205837659
  - # 2
    frequency:   -1.3315497280
  - # 3
    frequency:   -0.8113736054
  - # 4
    frequency:    0.0671397003
  - # 5
    frequency:    0.5791772046
  - # 6
    frequency:    1.4943444582
  - # 7
    frequency:    2.2828030663
  - # 8
    frequency:    4.7940151842
  - # 9
    frequency:    4.9409981682
  - # 10
    frequency:    5.6901107525
  - # 11
    frequency:    6.2264850731
  - # 12
    frequency:    6.5144563702
  - # 13
    frequency:    7.4923581461
  - # 14
    frequency:    7.7111814002
  - # 15
    frequency:    8.4128323211
  - # 16
    frequency:    8.8200135172
  - # 17
    frequency:   16.0270987960
  - # 18
    frequency:   16.8337205683
  - # 19
    frequency:   16.8625293414
  - # 20
    frequency:   17.3103529033
  - # 21
    frequency:   17.3902153206
  - # 22
    frequency:   38.3907271006
  - # 23
    frequency:   60.8243782428
  - # 24
    frequency:   68.5186922750

- q-position: [    0.1060606,    0.0000000,    0.0000000 ]
  distance:    0.0361365
  band:
  - # 1
    frequency:   -1.5934696843
  - # 2
    frequency:   -1.2748224421
  - # 3
    frequency:   -0.7934808465
  - # 4
    frequency:    0.3366015941
  - # 5
    frequency:    0.6628404275
  - # 6
    frequency:    1.5659949452
  - # 7
    frequency:    2.3852374421
  - # 8
    frequency:    4.8014623076
  - # 9
    frequency:    4.9621315449
  - # 10
    frequency:    5.6864746440
  - # 11
    frequency:    6.2429247761
  - # 12
    frequency:    6.5513954001
  - # 13
    frequency:    7.5125558879
  - # 14
    frequency:    7.7491649269
  - # 15
    frequency:    8.4054947528
  - # 16
    frequency:    8.8239750981
  - # 17
    frequency:   16.0207417864
  - # 18
    frequency:   16.8637359007
  - # 19
    frequency:   16.8944648068
  - # 20
    frequency:   17.3120398399
  - # 21
    frequency:   17.3991233531
  - # 22
    frequency:   38.3903712379
  - # 23
    frequency:   60.8231573360
  - # 24
    frequency:   68.4689416270

- q-position: [    0.1111111,    0.0000000,    0.0000000 ]
  distance:    0.0378572
  band:
  - # 1
    frequency:   -1.5665038785
  - # 2
    frequency:   -1.2163619485
  - # 3
    frequency:   -0.7746376182
  - # 4
    frequency:    0.4811196738
  - # 5
    frequency:    0.7416304026
  - # 6
    frequency:    1.6369582117
  - # 7
    frequency:    2.4867559434
  - # 8
    frequency:    4.8088273471
  - # 9
    frequency:    4.9835871873
  - # 10
    frequency:    5.6833361319
  - # 11
    frequency:    6.2596537153
  - # 12
    frequency:    6.5886170972
  - # 13
    frequency:    7.5325440043
  - # 14
    frequency:    7.7869005113
  - # 15
    frequency:    8.3981980281
  - # 16
    frequency:    8.8273606342
  - # 17
    frequency:   16.0140190599
  - # 18
    frequency:   16.8929713783
  - # 19
    frequency:   16.9255092736
  - # 20
    frequency:   17.3137084908
  - # 21
    frequency:   17.4082027040
  - # 22
    frequency:   38.3900029823
  - # 23
    frequency:   60.8218599390
  - # 24
    frequency:   68.4178640026

- q-position: [    0.1161616,    0.0000000,    0.0000000 ]
  distance:    0.0395780
  band:
  - # 1
    frequency:   -1.5398420303
  - # 2
    frequency:   -1.1560408308
  - # 3
    frequency:   -0.7547839383
  - # 4
    frequency:    0.5992252471
  - # 5
    frequency:    0.8168825302
  - # 6
    frequency:    1.7072011001
  - # 7
    frequency:    2.5872196335
  - # 8
    frequency:    4.8160753763
  - # 9
    frequency:    5.0052879484
  - # 10
    frequency:    5.6807546355
  - # 11
    frequency:    6.2766192461
  - # 12
    frequency:    6.6260051516
  - # 13
    frequency:    7.5522005659
  - # 14
    frequency:    7.8241109328
  - # 15
    frequency:    8.3910732246
  - # 16
    frequency:    8.8300945795
  - # 17
    frequency:   16.0069210725
  - # 18
    frequency:   16.9212091705
  - # 19
    frequency:   16.9554277466
  - # 20
    frequency:   17.3153532019
  - # 21
    frequency:   17.4174310518
  - # 22
    frequency:   38.3896232655
  - # 23
    frequency:   60.8204852775
  - # 24
    frequency:   68.3655882753

- q-position: [    0.1212121,    0.0000000,    0.0000000 ]
  distance:    0.0412988
  band:
  - # 1
    frequency:   -1.5136391777
  - # 2
    frequency:   -1.0936167095
  - # 3
    frequency:   -0.7338509474
  - # 4
    frequency:    0.7040689353
  - # 5
    frequency:    0.8895542423
  - # 6
    frequency:    1.7766945507
  - # 7
    frequency:    2.6864917561
  - # 8
    frequency:    4.8231748807
  - # 9
    frequency:    5.0271562926
  - # 10
    frequency:    5.6787943214
  - # 11
    frequency:    6.2937695619
  - # 12
    frequency:    6.6634459280
  - # 13
    frequency:    7.5714076048
  - # 14
    frequency:    7.8604947120
  - # 15
    frequency:    8.3842815892
  - # 16
    frequency:    8.8321082380
  - # 17
    frequency:   15.9994389393
  - # 18
    frequency:   16.9482392374
  - # 19
    frequency:   16.9839937869
  - # 20
    frequency:   17.3169720078
  - # 21
    frequency:   17.4267886758
  - # 22
    frequency:   38.3892330911
  - # 23
    frequency:   60.8190328585
  - # 24
    frequency:   68.3122434354

- q-position: [    0.1262626,    0.0000000,    0.0000000 ]
  distance:    0.0430196
  band:
  - # 1
    frequency:   -1.4880494481
  - # 2
    frequency:   -1.0287034577
  - # 3
    frequency:   -0.7117586718
  - # 4
    frequency:    0.8003576942
  - # 5
    frequency:    0.9604406092
  - # 6
    frequency:    1.8454134786
  - # 7
    frequency:    2.7844369100
  - # 8
    frequency:    4.8300980591
  - # 9
    frequency:    5.0491148807
  - # 10
    frequency:    5.6775237611
  - # 11
    frequency:    6.3110538225
  - # 12
    frequency:    6.7008288851
  - # 13
    frequency:    7.5900519184
  - # 14
    frequency:    7.8957181584
  - # 15
    frequency:    8.3780224733
  - # 16
    frequency:    8.8333410775
  - # 17
    frequency:   15.9915645331
  - # 18
    frequency:   16.9738608240
  - # 19
    frequency:   17.0109898484
  - # 20
    frequency:   17.3185680857
  - # 21
    frequency:   17.4362587241
  - # 22
    frequency:   38.3888335328
  - # 23
    frequency:   60.8175024959
  - # 24
    frequency:   68.2579579961

- q-position: [    0.1313131,    0.0000000,    0.0000000 ]
  distance:    0.0447404
  band:
  - # 1
    frequency:   -1.4632257222
  - # 2
    frequency:   -0.9607339300
  - # 3
    frequency:   -0.6884129927
  - # 4
    frequency:    0.8901191617
  - # 5
    frequency:    1.0302895826
  - # 6
    frequency:    1.9133366455
  - # 7
    frequency:    2.8809201411
  - # 8
    frequency:    4.8368210902
  - # 9
    frequency:    5.0710874664
  - # 10
    frequency:    5.6770152714
  - # 11
    frequency:    6.3284222613
  - # 12
    frequency:    6.7380469798
  - # 13
    frequency:    7.6080258176
  - # 14
    frequency:    7.9294061624
  - # 15
    frequency:    8.3725422786
  - # 16
    frequency:    8.8337421114
  - # 17
    frequency:   15.9832905769
  - # 18
    frequency:   16.9978840197
  - # 19
    frequency:   17.0362071973
  - # 20
    frequency:   17.3201514844
  - # 21
    frequency:   17.4458272952
  - # 22
    frequency:   38.3884257318
  - # 23
    frequency:   60.8158943316
  - # 24
    frequency:   68.2028594135

- q-position: [    0.1363636,    0.0000000,    0.0000000 ]
  distance:    0.0464612
  band:
  - # 1
    frequency:   -1.4393191866
  - # 2
    frequency:   -0.8889015742
  - # 3
    frequency:   -0.6637015012
  - # 4
    frequency:    0.9742095468
  - # 5
    frequency:    1.0998497714
  - # 6
    frequency:    1.9804465199
  - # 7