nqpoint: 300    
npath: 3      
segment_nqpoint:
- 100
- 100
- 100
labels:
- [ 'G', 'M' ]
- [ 'M', 'K' ]
- [ 'K', 'G' ]
reciprocal_lattice:
- [   0.29506798,   0.17035758,   0.00000000 ] # a*
- [   0.00000000,   0.34071516,   0.00000000 ] # b*
- [   0.00000000,   0.00000000,   0.03694356 ] # c*
natom: 8      
lattice:
- [     3.389049489069241,     0.000000000000000,     0.000000000000000 ] # a
- [    -1.694524744534621,     2.935002952181489,     0.000000000000000 ] # b
- [     0.000000000000000,     0.000000000000000,    27.068315897822178 ] # c
points:
- symbol: C # 1
  coordinates: [  0.000000000000000,  0.000000000000000,  0.521494228110222 ]
  mass: 12.010700
- symbol: C # 2
  coordinates: [  0.333332985432215,  0.666666983183674,  0.623014008407913 ]
  mass: 12.010700
- symbol: C # 3
  coordinates: [  0.666666984744047,  0.333332985985145,  0.376988722525916 ]
  mass: 12.010700
- symbol: N # 4
  coordinates: [  0.333332985432215,  0.666666983183674,  0.667507944196702 ]
  mass: 14.006700
- symbol: N # 5
  coordinates: [  0.666666984744047,  0.333332985985145,  0.423086114642704 ]
  mass: 14.006700
- symbol: O # 6
  coordinates: [  0.666666984744047,  0.333332985985145,  0.332492055803298 ]
  mass: 15.999400
- symbol: Zr # 7
  coordinates: [  0.333332985432215,  0.666666983183674,  0.476397664690342 ]
  mass: 91.224000
- symbol: Zr # 8
  coordinates: [  0.666666984744047,  0.333332985985145,  0.567960317572944 ]
  mass: 91.224000

phonon:
- q-position: [    0.0000000,    0.0000000,    0.0000000 ]
  distance:    0.0000000
  band:
  - # 1
    frequency:   -0.3718778632
  - # 2
    frequency:   -0.3718778629
  - # 3
    frequency:   -0.1528920936
  - # 4
    frequency:   -0.1528920926
  - # 5
    frequency:   -0.0000363690
  - # 6
    frequency:   -0.0000002705
  - # 7
    frequency:    0.0000280581
  - # 8
    frequency:    4.6549330421
  - # 9
    frequency:    4.6549330422
  - # 10
    frequency:    5.8455141516
  - # 11
    frequency:    6.1347749449
  - # 12
    frequency:    6.1347749450
  - # 13
    frequency:    7.6077331415
  - # 14
    frequency:    7.6077331416
  - # 15
    frequency:    8.4399690283
  - # 16
    frequency:    8.9922140175
  - # 17
    frequency:   16.1349939883
  - # 18
    frequency:   17.0523256695
  - # 19
    frequency:   17.0523256697
  - # 20
    frequency:   17.4105603260
  - # 21
    frequency:   17.4105603262
  - # 22
    frequency:   38.3961311783
  - # 23
    frequency:   60.8490238267
  - # 24
    frequency:   68.9117265616

- q-position: [    0.0050505,    0.0000000,    0.0000000 ]
  distance:    0.0017208
  band:
  - # 1
    frequency:   -0.3726570751
  - # 2
    frequency:   -0.3696655397
  - # 3
    frequency:   -0.1536112382
  - # 4
    frequency:   -0.1445527747
  - # 5
    frequency:    0.0030045649
  - # 6
    frequency:    0.0498198065
  - # 7
    frequency:    0.1109141349
  - # 8
    frequency:    4.6549621444
  - # 9
    frequency:    4.6558522314
  - # 10
    frequency:    5.8446422380
  - # 11
    frequency:    6.1351046444
  - # 12
    frequency:    6.1362791575
  - # 13
    frequency:    7.6078211939
  - # 14
    frequency:    7.6084686870
  - # 15
    frequency:    8.4397549791
  - # 16
    frequency:    8.9919692978
  - # 17
    frequency:   16.1347414626
  - # 18
    frequency:   17.0522133973
  - # 19
    frequency:   17.0523469615
  - # 20
    frequency:   17.4103679147
  - # 21
    frequency:   17.4105306606
  - # 22
    frequency:   38.3961170487
  - # 23
    frequency:   60.8489654199
  - # 24
    frequency:   68.9105755489

- q-position: [    0.0101010,    0.0000000,    0.0000000 ]
  distance:    0.0034416
  band:
  - # 1
    frequency:   -0.3750555873
  - # 2
    frequency:   -0.3638860194
  - # 3
    frequency:   -0.1553177943
  - # 4
    frequency:   -0.1180436772
  - # 5
    frequency:    0.0136805078
  - # 6
    frequency:    0.0993079523
  - # 7
    frequency:    0.2241108922
  - # 8
    frequency:    4.6550496044
  - # 9
    frequency:    4.6586029597
  - # 10
    frequency:    5.8420798188
  - # 11
    frequency:    6.1360931330
  - # 12
    frequency:    6.1407390178
  - # 13
    frequency:    7.6080845842
  - # 14
    frequency:    7.6106716517
  - # 15
    frequency:    8.4391135104
  - # 16
    frequency:    8.9912351179
  - # 17
    frequency:   16.1339842899
  - # 18
    frequency:   17.0518754323
  - # 19
    frequency:   17.0524081377
  - # 20
    frequency:   17.4097928236
  - # 21
    frequency:   17.4104440036
  - # 22
    frequency:   38.3960747069
  - # 23
    frequency:   60.8487903306
  - # 24
    frequency:   68.9071247211

- q-position: [    0.0151515,    0.0000000,    0.0000000 ]
  distance:    0.0051624
  band:
  - # 1
    frequency:   -0.3792135582
  - # 2
    frequency:   -0.3558843399
  - # 3
    frequency:   -0.1574102598
  - # 4
    frequency:   -0.0655966737
  - # 5
    frequency:    0.0479018886
  - # 6
    frequency:    0.1487799205
  - # 7
    frequency:    0.3389986078
  - # 8
    frequency:    4.6551958884
  - # 9
    frequency:    4.6631648256
  - # 10
    frequency:    5.8379750976
  - # 11
    frequency:    6.1377385784
  - # 12
    frequency:    6.1480079237
  - # 13
    frequency:    7.6085210186
  - # 14
    frequency:    7.6143310501
  - # 15
    frequency:    8.4380466731
  - # 16
    frequency:    8.9900114186
  - # 17
    frequency:   16.1327236796
  - # 18
    frequency:   17.0513083370
  - # 19
    frequency:   17.0525011195
  - # 20
    frequency:   17.4088414702
  - # 21
    frequency:   17.4103073628
  - # 22
    frequency:   38.3960042942
  - # 23
    frequency:   60.8484989520
  - # 24
    frequency:   68.9013807034

- q-position: [    0.0202020,    0.0000000,    0.0000000 ]
  distance:    0.0068831
  band:
  - # 1
    frequency:   -0.3852599403
  - # 2
    frequency:   -0.3462183421
  - # 3
    frequency:   -0.1597001559
  - # 4
    frequency:   -0.0325366441
  - # 5
    frequency:    0.1248837560
  - # 6
    frequency:    0.1986590077
  - # 7
    frequency:    0.4546427649
  - # 8
    frequency:    4.6554017903
  - # 9
    frequency:    4.6695042135
  - # 10
    frequency:    5.8325414794
  - # 11
    frequency:    6.1400379154
  - # 12
    frequency:    6.1578750308
  - # 13
    frequency:    7.6091266949
  - # 14
    frequency:    7.6194286677
  - # 15
    frequency:    8.4365579348
  - # 16
    frequency:    8.9882981112
  - # 17
    frequency:   16.1309616343
  - # 18
    frequency:   17.0505064047
  - # 19
    frequency:   17.0526125124
  - # 20
    frequency:   17.4075245113
  - # 21
    frequency:   17.4101323781
  - # 22
    frequency:   38.3959060453
  - # 23
    frequency:   60.8480919381
  - # 24
    frequency:   68.8933545174

- q-position: [    0.0252525,    0.0000000,    0.0000000 ]
  distance:    0.0086039
  band:
  - # 1
    frequency:   -0.3932428604
  - # 2
    frequency:   -0.3348732479
  - # 3
    frequency:   -0.1622188865
  - # 4
    frequency:    0.0133233867
  - # 5
    frequency:    0.1897240645
  - # 6
    frequency:    0.2491510094
  - # 7
    frequency:    0.5704436497
  - # 8
    frequency:    4.6556684572
  - # 9
    frequency:    4.6775748582
  - # 10
    frequency:    5.8260224655
  - # 11
    frequency:    6.1429868305
  - # 12
    frequency:    6.1701002037
  - # 13
    frequency:    7.6098963336
  - # 14
    frequency:    7.6259391960
  - # 15
    frequency:    8.4346522543
  - # 16
    frequency:    8.9860950928
  - # 17
    frequency:   16.1287009317
  - # 18
    frequency:   17.0494616969
  - # 19
    frequency:   17.0527237198
  - # 20
    frequency:   17.4058567813
  - # 21
    frequency:   17.4099352548
  - # 22
    frequency:   38.3957802879
  - # 23
    frequency:   60.8475702014
  - # 24
    frequency:   68.8830615517

- q-position: [    0.0303030,    0.0000000,    0.0000000 ]
  distance:    0.0103247
  band:
  - # 1
    frequency:   -0.4031140416
  - # 2
    frequency:   -0.3217497866
  - # 3
    frequency:   -0.1650289112
  - # 4
    frequency:    0.0468608956
  - # 5
    frequency:    0.2471628445
  - # 6
    frequency:    0.3003002616
  - # 7
    frequency:    0.6861045305
  - # 8
    frequency:    4.6559974238
  - # 9
    frequency:    4.6873186089
  - # 10
    frequency:    5.8186621899
  - # 11
    frequency:    6.1465797395
  - # 12
    frequency:    6.1844432738
  - # 13
    frequency:    7.6108232209
  - # 14
    frequency:    7.6338304086
  - # 15
    frequency:    8.4323361888
  - # 16
    frequency:    8.9834022688
  - # 17
    frequency:   16.1259450986
  - # 18
    frequency:   17.0481641030
  - # 19
    frequency:   17.0528111170
  - # 20
    frequency:   17.4038571996
  - # 21
    frequency:   17.4097366510
  - # 22
    frequency:   38.3956274412
  - # 23
    frequency:   60.8469349103
  - # 24
    frequency:   68.8705215199

- q-position: [    0.0353535,    0.0000000,    0.0000000 ]
  distance:    0.0120455
  band:
  - # 1
    frequency:   -0.4147524779
  - # 2
    frequency:   -0.3068880679
  - # 3
    frequency:   -0.1681633225
  - # 4
    frequency:    0.0757639251
  - # 5
    frequency:    0.3010880329
  - # 6
    frequency:    0.3520910944
  - # 7
    frequency:    0.8014868781
  - # 8
    frequency:    4.6563906549
  - # 9
    frequency:    4.6986663640
  - # 10
    frequency:    5.8106865342
  - # 11
    frequency:    6.1508097595
  - # 12
    frequency:    6.2006826787
  - # 13
    frequency:    7.6118992629
  - # 14
    frequency:    7.6430633640
  - # 15
    frequency:    8.4296180356
  - # 16
    frequency:    8.9802195818
  - # 17
    frequency:   16.1226983798
  - # 18
    frequency:   17.0466014285
  - # 19
    frequency:   17.0528463026
  - # 20
    frequency:   17.4015486401
  - # 21
    frequency:   17.4095615041
  - # 22
    frequency:   38.3954480151
  - # 23
    frequency:   60.8461874848
  - # 24
    frequency:   68.8557584072

- q-position: [    0.0404040,    0.0000000,    0.0000000 ]
  distance:    0.0137663
  band:
  - # 1
    frequency:   -0.4279984817
  - # 2
    frequency:   -0.2905304413
  - # 3
    frequency:   -0.1716177966
  - # 4
    frequency:    0.1073639396
  - # 5
    frequency:    0.3530148568
  - # 6
    frequency:    0.4045027694
  - # 7
    frequency:    0.9165172284
  - # 8
    frequency:    4.6568505935
  - # 9
    frequency:    4.7115391512
  - # 10
    frequency:    5.8022943109
  - # 11
    frequency:    6.1556686764
  - # 12
    frequency:    6.2186240061
  - # 13
    frequency:    7.6131150507
  - # 14
    frequency:    7.6535926202
  - # 15
    frequency:    8.4265080111
  - # 16
    frequency:    8.9765470500
  - # 17
    frequency:   16.1189657024
  - # 18
    frequency:   17.0447595210
  - # 19
    frequency:   17.0527964445
  - # 20
    frequency:   17.3989577564
  - # 21
    frequency:   17.4094387756
  - # 22
    frequency:   38.3952426078
  - # 23
    frequency:   60.8453295924
  - # 24
    frequency:   68.8388004053

- q-position: [    0.0454545,    0.0000000,    0.0000000 ]
  distance:    0.0154871
  band:
  - # 1
    frequency:   -0.4426808187
  - # 2
    frequency:   -0.2730721018
  - # 3
    frequency:   -0.1753563387
  - # 4
    frequency:    0.1425147768
  - # 5
    frequency:    0.4036685151
  - # 6
    frequency:    0.4575281362
  - # 7
    frequency:    1.0311446415
  - # 8
    frequency:    4.6573802150
  - # 9
    frequency:    4.7258493178
  - # 10
    frequency:    5.7936555332
  - # 11
    frequency:    6.1611469070
  - # 12
    frequency:    6.2381014349
  - # 13
    frequency:    7.6144599351
  - # 14
    frequency:    7.6653664416
  - # 15
    frequency:    8.4230184742
  - # 16
    frequency:    8.9723848137
  - # 17
    frequency:   16.1147526351
  - # 18
    frequency:   17.0426224427
  - # 19
    frequency:   17.0526247399
  - # 20
    frequency:   17.3961147526
  - # 21
    frequency:   17.4094010928
  - # 22
    frequency:   38.3950119044
  - # 23
    frequency:   60.8443631428
  - # 24
    frequency:   68.8196798359

- q-position: [    0.0505051,    0.0000000,    0.0000000 ]
  distance:    0.0172078
  band:
  - # 1
    frequency:   -0.4586330343
  - # 2
    frequency:   -0.2548540396
  - # 3
    frequency:   -0.1793193151
  - # 4
    frequency:    0.1810167392
  - # 5
    frequency:    0.4534466687
  - # 6
    frequency:    0.5111754141
  - # 7
    frequency:    1.1453233423
  - # 8
    frequency:    4.6579830829
  - # 9
    frequency:    4.7415018033
  - # 10
    frequency:    5.7849136516
  - # 11
    frequency:    6.1672334589
  - # 12
    frequency:    6.2589752085
  - # 13
    frequency:    7.6159221102
  - # 14
    frequency:    7.6783269784
  - # 15
    frequency:    8.4191641982
  - # 16
    frequency:    8.9677331933
  - # 17
    frequency:   16.1100653465
  - # 18
    frequency:   17.0401727016
  - # 19
    frequency:   17.0522910077
  - # 20
    frequency:   17.3930530911
  - # 21
    frequency:   17.4094842657
  - # 22
    frequency:   38.3947566743
  - # 23
    frequency:   60.8432902813
  - # 24
    frequency:   68.7984330631

- q-position: [    0.0555556,    0.0000000,    0.0000000 ]
  distance:    0.0189286
  band:
  - # 1
    frequency:   -0.4757012722
  - # 2
    frequency:   -0.2358367789
  - # 3
    frequency:   -0.1834307769
  - # 4
    frequency:    0.2221558814
  - # 5
    frequency:    0.5025880301
  - # 6
    frequency:    0.5654644303
  - # 7
    frequency:    1.2590059098
  - # 8
    frequency:    4.6586634057
  - # 9
    frequency:    4.7583954631
  - # 10
    frequency:    5.7761894804
  - # 11
    frequency:    6.1739158860
  - # 12
    frequency:    6.2811274244
  - # 13
    frequency:    7.6174887054
  - # 14
    frequency:    7.6924103933
  - # 15
    frequency:    8.4149627032
  - # 16
    frequency:    8.9625927573
  - # 17
    frequency:   16.1049105612
  - # 18
    frequency:   17.0373915489
  - # 19
    frequency:   17.0517524289
  - # 20
    frequency:   17.3898091282
  - # 21
    frequency:   17.4097266635
  - # 22
    frequency:   38.3944777687
  - # 23
    frequency:   60.8421133823
  - # 24
    frequency:   68.7751003947

- q-position: [    0.0606061,    0.0000000,    0.0000000 ]
  distance:    0.0206494
  band:
  - # 1
    frequency:   -0.4937468915
  - # 2
    frequency:   -0.2153546503
  - # 3
    frequency:   -0.1876043431
  - # 4
    frequency:    0.2650880100
  - # 5
    frequency:    0.5512453567
  - # 6
    frequency:    0.6204221035
  - # 7
    frequency:    1.3721406538
  - # 8
    frequency:    4.6594260912
  - # 9
    frequency:    4.7764244183
  - # 10
    frequency:    5.7675854637
  - # 11
    frequency:    6.1811802448
  - # 12
    frequency:    6.3044575036
  - # 13
    frequency:    7.6191458839
  - # 14
    frequency:    7.7075469122
  - # 15
    frequency:    8.4104346585
  - # 16
    frequency:    8.9569644056
  - # 17
    frequency:   16.0992955160
  - # 18
    frequency:   17.0342593542
  - # 19
    frequency:   17.0509644395
  - # 20
    frequency:   17.3864216699
  - # 21
    frequency:   17.4101684389
  - # 22
    frequency:   38.3941761178
  - # 23
    frequency:   60.8408350416
  - # 24
    frequency:   68.7497259732

- q-position: [    0.0656566,    0.0000000,    0.0000000 ]
  distance:    0.0223702
  band:
  - # 1
    frequency:   -0.5126463722
  - # 2
    frequency:   -0.1920400333
  - # 3
    frequency:   -0.1917475425
  - # 4
    frequency:    0.3091595267
  - # 5
    frequency:    0.5995212520
  - # 6
    frequency:    0.6760786958
  - # 7
    frequency:    1.4846706206
  - # 8
    frequency:    4.6602767967
  - # 9
    frequency:    4.7954794116
  - # 10
    frequency:    5.7591896082
  - # 11
    frequency:    6.1890110487
  - # 12
    frequency:    6.3288780159
  - # 13
    frequency:    7.6208789474
  - # 14
    frequency:    7.7236607675
  - # 15
    frequency:    8.4056043746
  - # 16
    frequency:    8.9508494657
  - # 17
    frequency:   16.0932279183
  - # 18
    frequency:   17.0307560615
  - # 19
    frequency:   17.0498817732
  - # 20
    frequency:   17.3829314434
  - # 21
    frequency:   17.4108506050
  - # 22
    frequency:   38.3938527273
  - # 23
    frequency:   60.8394580682
  - # 24
    frequency:   68.7223576558

- q-position: [    0.0707071,    0.0000000,    0.0000000 ]
  distance:    0.0240910
  band:
  - # 1
    frequency:   -0.5322900037
  - # 2
    frequency:   -0.1957647399
  - # 3
    frequency:   -0.1636219903
  - # 4
    frequency:    0.3540238061
  - # 5
    frequency:    0.6474874523
  - # 6
    frequency:    0.7324650628
  - # 7
    frequency:    1.5965332176
  - # 8
    frequency:    4.6612219705
  - # 9
    frequency:    4.8154491514
  - # 10
    frequency:    5.7510788186
  - # 11
    frequency:    6.1973912253
  - # 12
    frequency:    6.3543111295
  - # 13
    frequency:    7.6226724456
  - # 14
    frequency:    7.7406700028
  - # 15
    frequency:    8.4005004033
  - # 16
    frequency:    8.9442498074
  - # 17
    frequency:   16.0867159064
  - # 18
    frequency:   17.0268617289
  - # 19
    frequency:   17.0484596297
  - # 20
    frequency:   17.3793804847
  - # 21
    frequency:   17.4118139812
  - # 22
    frequency:   38.3935086756
  - # 23
    frequency:   60.8379854752
  - # 24
    frequency:   68.6930468850

- q-position: [    0.0757576,    0.0000000,    0.0000000 ]
  distance:    0.0258118
  band:
  - # 1
    frequency:   -0.5525801601
  - # 2
    frequency:   -0.1995588634
  - # 3
    frequency:   -0.1256560424
  - # 4
    frequency:    0.3995908124
  - # 5
    frequency:    0.6951960096
  - # 6
    frequency:    0.7896107387
  - # 7
    frequency:    1.7076600608
  - # 8
    frequency:    4.6622688840
  - # 9
    frequency:    4.8362216370
  - # 10
    frequency:    5.7433215870
  - # 11
    frequency:    6.2063020759
  - # 12
    frequency:    6.3806857332
  - # 13
    frequency:    7.6245102895
  - # 14
    frequency:    7.7584861016
  - # 15
    frequency:    8.3951562768
  - # 16
    frequency:    8.9371679764
  - # 17
    frequency:   16.0797680144
  - # 18
    frequency:   17.0225571467
  - # 19
    frequency:   17.0466549323
  - # 20
    frequency:   17.3758114477
  - # 21
    frequency:   17.4130980456
  - # 22
    frequency:   38.3931451095
  - # 23
    frequency:   60.8364204703
  - # 24
    frequency:   68.6618485495

- q-position: [    0.0808081,    0.0000000,    0.0000000 ]
  distance:    0.0275325
  band:
  - # 1
    frequency:   -0.5734295520
  - # 2
    frequency:   -0.2030321562
  - # 3
    frequency:   -0.0614634941
  - # 4
    frequency:    0.4459265275
  - # 5
    frequency:    0.7426861852
  - # 6
    frequency:    0.8475426297
  - # 7
    frequency:    1.8179768917
  - # 8
    frequency:    4.6634256496
  - # 9
    frequency:    4.8576854584
  - # 10
    frequency:    5.7359800805
  - # 11
    frequency:    6.2157232406
  - # 12
    frequency:    6.4079351813
  - # 13
    frequency:    7.6263758671
  - # 14
    frequency:    7.7770133939
  - # 15
    frequency:    8.3896114192
  - # 16
    frequency:    8.9296073496
  - # 17
    frequency:   16.0723931421
  - # 18
    frequency:   17.0178245197
  - # 19
    frequency:   17.0444276168
  - # 20
    frequency:   17.3722668501
  - # 21
    frequency:   17.4147397469
  - # 22
    frequency:   38.3927632405
  - # 23
    frequency:   60.8347664457
  - # 24
    frequency:   68.6288208353

- q-position: [    0.0858586,    0.0000000,    0.0000000 ]
  distance:    0.0292533
  band:
  - # 1
    frequency:   -0.5947596273
  - # 2
    frequency:   -0.2060861513
  - # 3
    frequency:    0.0964945759
  - # 4
    frequency:    0.4931678149
  - # 5
    frequency:    0.7899889459
  - # 6
    frequency:    0.9062841280
  - # 7
    frequency:    1.9274035107
  - # 8
    frequency:    4.6647012228
  - # 9
    frequency:    4.8797310722
  - # 10
    frequency:    5.7291117062
  - # 11
    frequency:    6.2256326692
  - # 12
    frequency:    6.4359955752
  - # 13
    frequency:    7.6282521615
  - # 14
    frequency:    7.7961481914
  - # 15
    frequency:    8.3839122758
  - # 16
    frequency:    8.9215723174
  - # 17
    frequency:   16.0646005301
  - # 18
    frequency:   17.0126481949
  - # 19
    frequency:   17.0417418800
  - # 20
    frequency:   17.3687882766
  - # 21
    frequency:   17.4167723450
  - # 22
    frequency:   38.3923643407
  - # 23
    frequency:   60.8330269675
  - # 24
    frequency:   68.5940250689

- q-position: [    0.0909091,    0.0000000,    0.0000000 ]
  distance:    0.0309741
  band:
  - # 1
    frequency:   -0.6164991823
  - # 2
    frequency:   -0.2086210110
  - # 3
    frequency:    0.1531090196
  - # 4
    frequency:    0.5414660526
  - # 5
    frequency:    0.8371300746
  - # 6
    frequency:    0.9658545100
  - # 7
    frequency:    2.0358537103
  - # 8
    frequency:    4.6661053860
  - # 9
    frequency:    4.9022520578
  - # 10
    frequency:    5.7227702331
  - # 11
    frequency:    6.2360066011
  - # 12
    frequency:    6.4648044893
  - # 13
    frequency:    7.6301218693
  - # 14
    frequency:    7.8157775892
  - # 15
    frequency:    8.3781137127
  - # 16
    frequency:    8.9130684955
  - # 17
    frequency:   16.0563997427
  - # 18
    frequency:   17.0070154025
  - # 19
    frequency:   17.0385673124
  - # 20
    frequency:   17.3654155703
  - # 21
    frequency:   17.4192243551
  - # 22
    frequency:   38.3919497382
  - # 23
    frequency:   60.8312057640
  - # 24
    frequency:   68.5575255511

- q-position: [    0.0959596,    0.0000000,    0.0000000 ]
  distance:    0.0326949
  band:
  - # 1
    frequency:   -0.6385831927
  - # 2
    frequency:   -0.2105343036
  - # 3
    frequency:    0.1962711752
  - # 4
    frequency:    0.5909539664
  - # 5
    frequency:    0.8841324790
  - # 6
    frequency:    1.0262685279
  - # 7
    frequency:    2.1432352074
  - # 8
    frequency:    4.6676487116
  - # 9
    frequency:    4.9251463613
  - # 10
    frequency:    5.7170065416
  - # 11
    frequency:    6.2468195547
  - # 12
    frequency:    6.4943000582
  - # 13
    frequency:    7.6319675195
  - # 14
    frequency:    7.8357778696
  - # 15
    frequency:    8.3722807469
  - # 16
    frequency:    8.9041029731
  - # 17
    frequency:   16.0478006566
  - # 18
    frequency:   17.0009169781
  - # 19
    frequency:   17.0348798361
  - # 20
    frequency:   17.3621860484
  - # 21
    frequency:   17.4221186704
  - # 22
    frequency:   38.3915208124
  - # 23
    frequency:   60.8293067146
  - # 24
    frequency:   68.5193893840

- q-position: [    0.1010101,    0.0000000,    0.0000000 ]
  distance:    0.0344157
  band:
  - # 1
    frequency:   -0.6609518492
  - # 2
    frequency:   -0.2117192173
  - # 3
    frequency:    0.2332882458
  - # 4
    frequency:    0.6417282247
  - # 5
    frequency:    0.9310180645
  - # 6
    frequency:    1.0875361338
  - # 7
    frequency:    2.2494495830
  - # 8
    frequency:    4.6693425028
  - # 9
    frequency:    4.9483175349
  - # 10
    frequency:    5.7118690564
  - # 11
    frequency:    6.2580443286
  - # 12
    frequency:    6.5244203523
  - # 13
    frequency:    7.6337715915
  - # 14
    frequency:    7.8560124424
  - # 15
    frequency:    8.3664906626
  - # 16
    frequency:    8.8946846055
  - # 17
    frequency:   16.0388134580
  - # 18
    frequency:   16.9943480241
  - # 19
    frequency:   17.0306623885
  - # 20
    frequency:   17.3591337807
  - # 21
    frequency:   17.4254719228
  - # 22
    frequency:   38.3910789895
  - # 23
    frequency:   60.8273338372
  - # 24
    frequency:   68.4796862901

- q-position: [    0.1060606,    0.0000000,    0.0000000 ]
  distance:    0.0361365
  band:
  - # 1
    frequency:   -0.6835497766
  - # 2
    frequency:   -0.2120621180
  - # 3
    frequency:    0.2664649667
  - # 4
    frequency:    0.6938423183
  - # 5
    frequency:    0.9778094232
  - # 6
    frequency:    1.1496622968
  - # 7
    frequency:    2.3543922378
  - # 8
    frequency:    4.6711987108
  - # 9
    frequency:    4.9716759769
  - # 10
    frequency:    5.7074039096
  - # 11
    frequency:    6.2696520156
  - # 12
    frequency:    6.5551029812
  - # 13
    frequency:    7.6355166313
  - # 14
    frequency:    7.8763292744
  - # 15
    frequency:    8.3608355533
  - # 16
    frequency:    8.8848243586
  - # 17
    frequency:   16.0294486458
  - # 18
    frequency:   16.9873084739
  - # 19
    frequency:   17.0259053085
  - # 20
    frequency:   17.3562889713
  - # 21
    frequency:   17.4292941225
  - # 22
    frequency:   38.3906257370
  - # 23
    frequency:   60.8252912762
  - # 24
    frequency:   68.4384884246

- q-position: [    0.1111111,    0.0000000,    0.0000000 ]
  distance:    0.0378572
  band:
  - # 1
    frequency:   -0.7063254110
  - # 2
    frequency:   -0.2114392420
  - # 3
    frequency:    0.2968546383
  - # 4
    frequency:    0.7473058869
  - # 5
    frequency:    1.0245315426
  - # 6
    frequency:    1.2126468888
  - # 7
    frequency:    2.4579523777
  - # 8
    frequency:    4.6732298292
  - # 9
    frequency:    4.9951401749
  - # 10
    frequency:    5.7036548679
  - # 11
    frequency:    6.2816120303
  - # 12
    frequency:    6.5862848761
  - # 13
    frequency:    7.6371853669
  - # 14
    frequency:    7.8965578171
  - # 15
    frequency:    8.3554252690
  - # 16
    frequency:    8.8745357222
  - # 17
    frequency:   16.0197170420
  - # 18
    frequency:   16.9798035246
  - # 19
    frequency:   17.0206064149
  - # 20
    frequency:   17.3536774745
  - # 21
    frequency:   17.4335885884
  - # 22
    frequency:   38.3901625588
  - # 23
    frequency:   60.8231832890
  - # 24
    frequency:   68.3958701818

- q-position: [    0.1161616,    0.0000000,    0.0000000 ]
  distance:    0.0395780
  band:
  - # 1
    frequency:   -0.7292305118
  - # 2
    frequency:   -0.2097121373
  - # 3
    frequency:    0.3250432440
  - # 4
    frequency:    0.8020876144
  - # 5
    frequency:    1.0712137225
  - # 6
    frequency:    1.2764846212
  - # 7
    frequency:    2.5600130440
  - # 8
    frequency:    4.6754487638
  - # 9
    frequency:    5.0186379443
  - # 10
    frequency:    5.7006630586
  - # 11
    frequency:    6.2938921527
  - # 12
    frequency:    6.6179022101
  - # 13
    frequency:    7.6387608199
  - # 14
    frequency:    7.9165055641
  - # 15
    frequency:    8.3503906216
  - # 16
    frequency:    8.8638352054
  - # 17
    frequency:   16.0096298072
  - # 18
    frequency:   16.9718439150
  - # 19
    frequency:   17.0147707907
  - # 20
    frequency:   17.3513204711
  - # 21
    frequency:   17.4383521525
  - # 22
    frequency:   38.3896909898
  - # 23
    frequency:   60.8210142335
  - # 24
    frequency:   68.3519079955

- q-position: [    0.1212121,    0.0000000,    0.0000000 ]
  distance:    0.0412988
  band:
  - # 1
    frequency:   -0.7522197871
  - # 2
    frequency:   -0.2067211801
  - # 3
    frequency:    0.3514065581
  - # 4
    frequency:    0.8581194564
  - # 5
    frequency:    1.1178919059
  - # 6
    frequency:    1.3411650226
  - # 7
    frequency:    2.6604512085
  - # 8
    frequency:    4.6778686804
  - # 9
    frequency:    5.0421076433
  - # 10
    frequency:    5.6984665252
  - # 11
    frequency:    6.3064585861
  - # 12
    frequency:    6.6498904247
  - # 13
    frequency:    7.6402264150
  - # 14
    frequency:    7.9359546148
  - # 15
    frequency:    8.3458864494
  - # 16
    frequency:    8.8527429419
  - # 17
    frequency:   15.9991984609
  - # 18
    frequency:   16.9634460343
  - # 19
    frequency:   17.0084103136
  - # 20
    frequency:   17.3492343150
  - # 21
    frequency:   17.4435756016
  - # 22
    frequency:   38.3892125903
  - # 23
    frequency:   60.8187885543
  - # 24
    frequency:   68.3066801348

- q-position: [    0.1262626,    0.0000000,    0.0000000 ]
  distance:    0.0430196
  band:
  - # 1
    frequency:   -0.7752506135
  - # 2
    frequency:   -0.2022759668
  - # 3
    frequency:    0.3762143681
  - # 4
    frequency:    0.9153005238
  - # 5
    frequency:    1.1646116707
  - # 6
    frequency:    1.4066724499
  - # 7
    frequency:    2.7591379562
  - # 8
    frequency:    4.6805028323
  - # 9
    frequency:    5.0654993290
  - # 10
    frequency:    5.6970996514
  - # 11
    frequency:    6.3192760318
  - # 12
    frequency:    6.6821843323
  - # 13
    frequency:    7.6415660860
  - # 14
    frequency:    7.9546590510
  - # 15
    frequency:    8.3420937055
  - # 16
    frequency:    8.8412834345
  - # 17
    frequency:   15.9884349042
  - # 18
    frequency:   16.9546318660
  - # 19
    frequency:   17.0015429897
  - # 20
    frequency:   17.3474305506
  - # 21
    frequency:   17.4492442980
  - # 22
    frequency:   38.3887289404
  - # 23
    frequency:   60.8165107696
  - # 24
    frequency:   68.2602664955

- q-position: [    0.1313131,    0.0000000,    0.0000000 ]
  distance:    0.0447404
  band:
  - # 1
    frequency:   -0.7982828346
  - # 2
    frequency:   -0.1961403614
  - # 3
    frequency:    0.3996782190
  - # 4
    frequency:    0.9734994369
  - # 5
    frequency:    1.2114321888
  - # 6
    frequency:    1.4729861276
  - # 7
    frequency:    2.8559387866
  - # 8
    frequency:    4.6833643685
  - # 9
    frequency:    5.0887757995
  - # 10
    frequency:    5.6965924981
  - # 11
    frequency:    6.3323077796
  - # 12
    frequency:    6.7147182757
  - # 13
    frequency:    7.6427643783
  - # 14
    frequency:    7.9723445881
  - # 15
    frequency:    8.3392190660
  - # 16
    frequency:    8.8294864846
  - # 17
    frequency:   15.9773514436
  - # 18
    frequency:   16.9454287769
  - # 19
    frequency:   16.9941921540
  - # 20
    frequency:   17.3459160847
  - # 21
    frequency:   17.4553389190
  - # 22
    frequency:   38.3882416346
  - # 23
    frequency:   60.8141854569
  - # 24
    frequency:   68.2127483875

- q-position: [    0.1363636,    0.0000000,    0.0000000 ]
  distance:    0.0464612
  band:
  - # 1
    frequency:   -0.8212786226
  - # 2
    frequency:   -0.1880078142
  - # 3
    frequency:    0.4219750874
  - # 4
    frequency:    1.0325543557
  - # 5
    frequency:    1.2584315220
  - # 6
    frequency:    1.5400802132
  - # 7