nqpoint: 300    
npath: 3      
segment_nqpoint:
- 100
- 100
- 100
labels:
- [ 'G', 'M' ]
- [ 'M', 'K' ]
- [ 'K', 'G' ]
reciprocal_lattice:
- [   0.30519171,   0.17620251,   0.00000000 ] # a*
- [   0.00000000,   0.35240503,   0.00000000 ] # b*
- [   0.00000000,   0.00000000,   0.03609691 ] # c*
natom: 7      
lattice:
- [     3.276629015244200,     0.000000000000000,     0.000000000000000 ] # a
- [    -1.638314507622100,     2.837643965978499,     0.000000000000000 ] # b
- [     0.000000000000000,     0.000000000000000,    27.703200766684148 ] # c
points:
- symbol: C # 1
  coordinates: [  0.000000000000000,  0.000000000000000,  0.533431832494825 ]
  mass: 12.010700
- symbol: C # 2
  coordinates: [  0.333332985432214,  0.666666983183674,  0.631423025460806 ]
  mass: 12.010700
- symbol: Cl # 3
  coordinates: [  0.666666984744048,  0.333332985985145,  0.324872207937192 ]
  mass: 35.453000
- symbol: Hf # 4
  coordinates: [  0.333332985432214,  0.666666983183674,  0.482135475803232 ]
  mass: 178.490000
- symbol: Hf # 5
  coordinates: [  0.666666984744048,  0.333332985985145,  0.578797471676255 ]
  mass: 178.490000
- symbol: N # 6
  coordinates: [  0.333332985432214,  0.666666983183674,  0.675127792062808 ]
  mass: 14.006700
- symbol: O # 7
  coordinates: [  0.666666984744048,  0.333332985985145,  0.450147591092205 ]
  mass: 15.999400

phonon:
- q-position: [    0.0000000,    0.0000000,    0.0000000 ]
  distance:    0.0000000
  band:
  - # 1
    frequency:   -1.2464145701
  - # 2
    frequency:   -1.2464145701
  - # 3
    frequency:   -0.0000020865
  - # 4
    frequency:    0.0000000650
  - # 5
    frequency:    0.0000018616
  - # 6
    frequency:    1.1830521414
  - # 7
    frequency:    1.8805879372
  - # 8
    frequency:    1.8805879372
  - # 9
    frequency:    2.9700756687
  - # 10
    frequency:    2.9700756687
  - # 11
    frequency:    4.9790447351
  - # 12
    frequency:    8.5057377028
  - # 13
    frequency:    8.5057377028
  - # 14
    frequency:    8.9149649209
  - # 15
    frequency:   12.1090639994
  - # 16
    frequency:   12.1090639994
  - # 17
    frequency:   14.2963786582
  - # 18
    frequency:   15.7217130003
  - # 19
    frequency:   15.7217130003
  - # 20
    frequency:   19.9145954152
  - # 21
    frequency:   59.0957511778

- q-position: [    0.0050505,    0.0000000,    0.0000000 ]
  distance:    0.0017798
  band:
  - # 1
    frequency:   -1.2523601806
  - # 2
    frequency:   -1.2487773243
  - # 3
    frequency:   -0.0023747650
  - # 4
    frequency:    0.0555144100
  - # 5
    frequency:    0.0806314985
  - # 6
    frequency:    1.1836813839
  - # 7
    frequency:    1.8803895412
  - # 8
    frequency:    1.8809140766
  - # 9
    frequency:    2.9701557109
  - # 10
    frequency:    2.9709839772
  - # 11
    frequency:    4.9788026999
  - # 12
    frequency:    8.5058081444
  - # 13
    frequency:    8.5064456496
  - # 14
    frequency:    8.9149579079
  - # 15
    frequency:   12.1067013506
  - # 16
    frequency:   12.1087065746
  - # 17
    frequency:   14.2963038189
  - # 18
    frequency:   15.7212056288
  - # 19
    frequency:   15.7212445468
  - # 20
    frequency:   19.9136269550
  - # 21
    frequency:   59.0953343207

- q-position: [    0.0101010,    0.0000000,    0.0000000 ]
  distance:    0.0035596
  band:
  - # 1
    frequency:   -1.2701379948
  - # 2
    frequency:   -1.2558571992
  - # 3
    frequency:   -0.0091787515
  - # 4
    frequency:    0.1112375761
  - # 5
    frequency:    0.1625032575
  - # 6
    frequency:    1.1855612220
  - # 7
    frequency:    1.8797980608
  - # 8
    frequency:    1.8818809161
  - # 9
    frequency:    2.9703967180
  - # 10
    frequency:    2.9737083238
  - # 11
    frequency:    4.9780762681
  - # 12
    frequency:    8.5060192602
  - # 13
    frequency:    8.5085603673
  - # 14
    frequency:    8.9149422541
  - # 15
    frequency:   12.0996227169
  - # 16
    frequency:   12.1076360734
  - # 17
    frequency:   14.2960766336
  - # 18
    frequency:   15.7196855681
  - # 19
    frequency:   15.7198416651
  - # 20
    frequency:   19.9107265844
  - # 21
    frequency:   59.0940849673

- q-position: [    0.0151515,    0.0000000,    0.0000000 ]
  distance:    0.0053395
  band:
  - # 1
    frequency:   -1.2995229795
  - # 2
    frequency:   -1.2676244736
  - # 3
    frequency:   -0.0195457213
  - # 4
    frequency:    0.1673379585
  - # 5
    frequency:    0.2464325091
  - # 6
    frequency:    1.1886707272
  - # 7
    frequency:    1.8788246996
  - # 8
    frequency:    1.8834545920
  - # 9
    frequency:    2.9708013248
  - # 10
    frequency:    2.9782468442
  - # 11
    frequency:    4.9768644663
  - # 12
    frequency:    8.5063704231
  - # 13
    frequency:    8.5120542260
  - # 14
    frequency:    8.9149343383
  - # 15
    frequency:   12.0878559863
  - # 16
    frequency:   12.1058578118
  - # 17
    frequency:   14.2956891840
  - # 18
    frequency:   15.7171590253
  - # 19
    frequency:   15.7175117816
  - # 20
    frequency:   19.9059092898
  - # 21
    frequency:   59.0920067672

- q-position: [    0.0202020,    0.0000000,    0.0000000 ]
  distance:    0.0071193
  band:
  - # 1
    frequency:   -1.3400278870
  - # 2
    frequency:   -1.2840163427
  - # 3
    frequency:   -0.0322861365
  - # 4
    frequency:    0.2239127329
  - # 5
    frequency:    0.3326199301
  - # 6
    frequency:    1.1929833878
  - # 7
    frequency:    1.8774884026
  - # 8
    frequency:    1.8855815263
  - # 9
    frequency:    2.9713738979
  - # 10
    frequency:    2.9845960164
  - # 11
    frequency:    4.9751656914
  - # 12
    frequency:    8.5068605886
  - # 13
    frequency:    8.5168802959
  - # 14
    frequency:    8.9149622102
  - # 15
    frequency:   12.0714474754
  - # 16
    frequency:   12.1033806344
  - # 17
    frequency:   14.2951285423
  - # 18
    frequency:   15.7136364959
  - # 19
    frequency:   15.7142672415
  - # 20
    frequency:   19.8991999071
  - # 21
    frequency:   59.0891057887

- q-position: [    0.0252525,    0.0000000,    0.0000000 ]
  distance:    0.0088991
  band:
  - # 1
    frequency:   -1.3908520508
  - # 2
    frequency:   -1.3049228359
  - # 3
    frequency:   -0.0461117567
  - # 4
    frequency:    0.2809720611
  - # 5
    frequency:    0.4207269219
  - # 6
    frequency:    1.1984774849
  - # 7
    frequency:    1.8758162759
  - # 8
    frequency:    1.8881925689
  - # 9
    frequency:    2.9721204998
  - # 10
    frequency:    2.9927500757
  - # 11
    frequency:    4.9729777371
  - # 12
    frequency:    8.5074882949
  - # 13
    frequency:    8.5229710049
  - # 14
    frequency:    8.9150667396
  - # 15
    frequency:   12.0504617122
  - # 16
    frequency:   12.1002168915
  - # 17
    frequency:   14.2943771551
  - # 18
    frequency:   15.7091329846
  - # 19
    frequency:   15.7101252600
  - # 20
    frequency:   19.8906329088
  - # 21
    frequency:   59.0853904985

- q-position: [    0.0303030,    0.0000000,    0.0000000 ]
  distance:    0.0106789
  band:
  - # 1
    frequency:   -1.4509243004
  - # 2
    frequency:   -1.3301759763
  - # 3
    frequency:   -0.0597776145
  - # 4
    frequency:    0.3384394698
  - # 5
    frequency:    0.5100930281
  - # 6
    frequency:    1.2051477750
  - # 7
    frequency:    1.8738441915
  - # 8
    frequency:    1.8912085461
  - # 9
    frequency:    2.9730488384
  - # 10
    frequency:    3.0027002689
  - # 11
    frequency:    4.9702978333
  - # 12
    frequency:    8.5082516644
  - # 13
    frequency:    8.5302362264
  - # 14
    frequency:    8.9153032579
  - # 15
    frequency:   12.0249811819
  - # 16
    frequency:   12.0963824069
  - # 17
    frequency:   14.2934133393
  - # 18
    frequency:   15.7036683035
  - # 19
    frequency:   15.7051078537
  - # 20
    frequency:   19.8802521112
  - # 21
    frequency:   59.0808717322

- q-position: [    0.0353535,    0.0000000,    0.0000000 ]
  distance:    0.0124588
  band:
  - # 1
    frequency:   -1.5190150691
  - # 2
    frequency:   -1.3595461302
  - # 3
    frequency:   -0.0721258479
  - # 4
    frequency:    0.3961646158
  - # 5
    frequency:    0.5999406829
  - # 6
    frequency:    1.2130182784
  - # 7
    frequency:    1.8716176003
  - # 8
    frequency:    1.8945470643
  - # 9
    frequency:    2.9741682019
  - # 10
    frequency:    3.0144340131
  - # 11
    frequency:    4.9671226947
  - # 12
    frequency:    8.5091484053
  - # 13
    frequency:    8.5385607933
  - # 14
    frequency:    8.9157436920
  - # 15
    frequency:   11.9951060806
  - # 16
    frequency:   12.0918964371
  - # 17
    frequency:   14.2922118586
  - # 18
    frequency:   15.6972674374
  - # 19
    frequency:   15.6992417534
  - # 20
    frequency:   19.8681103011
  - # 21
    frequency:   59.0755626569

- q-position: [    0.0404040,    0.0000000,    0.0000000 ]
  distance:    0.0142386
  band:
  - # 1
    frequency:   -1.5938602515
  - # 2
    frequency:   -1.3927466090
  - # 3
    frequency:   -0.0820499349
  - # 4
    frequency:    0.4539423735
  - # 5
    frequency:    0.6894913080
  - # 6
    frequency:    1.2221584251
  - # 7
    frequency:    1.8691925711
  - # 8
    frequency:    1.8981305206
  - # 9
    frequency:    2.9754893812
  - # 10
    frequency:    3.0279340326
  - # 11
    frequency:    4.9634485800
  - # 12
    frequency:    8.5101758144
  - # 13
    frequency:    8.5478014941
  - # 14
    frequency:    8.9164791378
  - # 15
    frequency:   11.9609541252
  - # 16
    frequency:   12.0867816199
  - # 17
    frequency:   14.2907445419
  - # 18
    frequency:   15.6899609644
  - # 19
    frequency:   15.6925582954
  - # 20
    frequency:   19.8542687877
  - # 21
    frequency:   59.0694787259

- q-position: [    0.0454545,    0.0000000,    0.0000000 ]
  distance:    0.0160184
  band:
  - # 1
    frequency:   -1.6742554232
  - # 2
    frequency:   -1.4294449153
  - # 3
    frequency:   -0.0883889515
  - # 4
    frequency:    0.5115323696
  - # 5
    frequency:    0.7779880992
  - # 6
    frequency:    1.2327086007
  - # 7
    frequency:    1.8666370824
  - # 8
    frequency:    1.9018954576
  - # 9
    frequency:    2.9770245782
  - # 10
    frequency:    3.0431775541
  - # 11
    frequency:    4.9592713618
  - # 12
    frequency:    8.5113307805
  - # 13
    frequency:    8.5577837200
  - # 14
    frequency:    8.9176226978
  - # 15
    frequency:   11.9226604684
  - # 16
    frequency:   12.0810639154
  - # 17
    frequency:   14.2889809098
  - # 18
    frequency:   15.6817855159
  - # 19
    frequency:   15.6850932943
  - # 20
    frequency:   19.8387968837
  - # 21
    frequency:   59.0626376252

- q-position: [    0.0505051,    0.0000000,    0.0000000 ]
  distance:    0.0177982
  band:
  - # 1
    frequency:   -1.7591089490
  - # 2
    frequency:   -1.4692775909
  - # 3
    frequency:   -0.0897124076
  - # 4
    frequency:    0.5686749584
  - # 5
    frequency:    0.8646432184
  - # 6
    frequency:    1.2449280807
  - # 7
    frequency:    1.8640325853
  - # 8
    frequency:    1.9058037137
  - # 9
    frequency:    2.9787873016
  - # 10
    frequency:    3.0601356288
  - # 11
    frequency:    4.9545866058
  - # 12
    frequency:    8.5126097906
  - # 13
    frequency:    8.5682981550
  - # 14
    frequency:    8.9193121963
  - # 15
    frequency:   11.8803777649
  - # 16
    frequency:   12.0747725361
  - # 17
    frequency:   14.2868887792
  - # 18
    frequency:   15.6727842583
  - # 19
    frequency:   15.6768868948
  - # 20
    frequency:   19.8217713209
  - # 21
    frequency:   59.0550592126

- q-position: [    0.0555556,    0.0000000,    0.0000000 ]
  distance:    0.0195781
  band:
  - # 1
    frequency:   -1.8474613905
  - # 2
    frequency:   -1.5118655709
  - # 3
    frequency:   -0.0837939137
  - # 4
    frequency:    0.6251018960
  - # 5
    frequency:    0.9485096147
  - # 6
    frequency:    1.2592930052
  - # 7
    frequency:    1.8614758449
  - # 8
    frequency:    1.9098562723
  - # 9
    frequency:    2.9807922506
  - # 10
    frequency:    3.0787726433
  - # 11
    frequency:    4.9493896613
  - # 12
    frequency:    8.5140089366
  - # 13
    frequency:    8.5790982419
  - # 14
    frequency:    8.9217120339
  - # 15
    frequency:   11.8342764254
  - # 16
    frequency:   12.0679398682
  - # 17
    frequency:   14.2844348224
  - # 18
    frequency:   15.6630073784
  - # 19
    frequency:   15.6679834032
  - # 20
    frequency:   19.8032756068
  - # 21
    frequency:   59.0467654484

- q-position: [    0.0606061,    0.0000000,    0.0000000 ]
  distance:    0.0213579
  band:
  - # 1
    frequency:   -1.9384837980
  - # 2
    frequency:   -1.5568277798
  - # 3
    frequency:   -0.0656308928
  - # 4
    frequency:    0.6805417612
  - # 5
    frequency:    1.0282365413
  - # 6
    frequency:    1.2767008746
  - # 7
    frequency:    1.8590810444
  - # 8
    frequency:    1.9141113665
  - # 9
    frequency:    2.9830551868
  - # 10
    frequency:    3.0990460596
  - # 11
    frequency:    4.9436757620
  - # 12
    frequency:    8.5155239251
  - # 13
    frequency:    8.5898996364
  - # 14
    frequency:    8.9250129740
  - # 15
    frequency:   11.7845450885
  - # 16
    frequency:   12.0606013837
  - # 17
    frequency:   14.2815850674
  - # 18
    frequency:   15.6525125514
  - # 19
    frequency:   15.6584310991
  - # 20
    frequency:   19.7833993291
  - # 21
    frequency:   59.0377803198

- q-position: [    0.0656566,    0.0000000,    0.0000000 ]
  distance:    0.0231377
  band:
  - # 1
    frequency:   -2.0314654422
  - # 2
    frequency:   -1.6037918016
  - # 3
    frequency:    0.0226435562
  - # 4
    frequency:    0.7347211642
  - # 5
    frequency:    1.1016381609
  - # 6
    frequency:    1.2988572701
  - # 7
    frequency:    1.8569820826
  - # 8
    frequency:    1.9187092553
  - # 9
    frequency:    2.9855927946
  - # 10
    frequency:    3.1209064040
  - # 11
    frequency:    4.9374401391
  - # 12
    frequency:    8.5171500899
  - # 13
    frequency:    8.6003833595
  - # 14
    frequency:    8.9294281535
  - # 15
    frequency:   11.7313913290
  - # 16
    frequency:   12.0527955420
  - # 17
    frequency:   14.2783053328
  - # 18
    frequency:   15.6413653691
  - # 19
    frequency:   15.6482820263
  - # 20
    frequency:   19.7622374159
  - # 21
    frequency:   59.0281297574

- q-position: [    0.0707071,    0.0000000,    0.0000000 ]
  distance:    0.0249175
  band:
  - # 1
    frequency:   -2.1257977757
  - # 2
    frequency:   -1.6524013666
  - # 3
    frequency:    0.0885639212
  - # 4
    frequency:    0.7873631423
  - # 5
    frequency:    1.1652703124
  - # 6
    frequency:    1.3286485461
  - # 7
    frequency:    1.8553349174
  - # 8
    frequency:    1.9239070205
  - # 9
    frequency:    2.9884225319
  - # 10
    frequency:    3.1442974998
  - # 11
    frequency:    4.9306781487
  - # 12
    frequency:    8.5188824070
  - # 13
    frequency:    8.6102045929
  - # 14
    frequency:    8.9351833806
  - # 15
    frequency:   11.6750426059
  - # 16
    frequency:   12.0445636819
  - # 17
    frequency:   14.2745616016
  - # 18
    frequency:   15.6296397050
  - # 19
    frequency:   15.6375917636
  - # 20
    frequency:   19.7398893612
  - # 21
    frequency:   59.0178415449

- q-position: [    0.0757576,    0.0000000,    0.0000000 ]
  distance:    0.0266974
  band:
  - # 1
    frequency:   -2.2209582974
  - # 2
    frequency:   -1.7023209716
  - # 3
    frequency:    0.1344185684
  - # 4
    frequency:    0.8381841384
  - # 5
    frequency:    1.2155753115
  - # 6
    frequency:    1.3689368628
  - # 7
    frequency:    1.8543196731
  - # 8
    frequency:    1.9301270178
  - # 9
    frequency:    2.9915624704
  - # 10
    frequency:    3.1691569190
  - # 11
    frequency:    4.9233854163
  - # 12
    frequency:    8.5207155135
  - # 13
    frequency:    8.6190085159
  - # 14
    frequency:    8.9425003338
  - # 15
    frequency:   11.6157474458
  - # 16
    frequency:   12.0359499039
  - # 17
    frequency:   14.2703203444
  - # 18
    frequency:   15.6174179938
  - # 19
    frequency:   15.6264191754
  - # 20
    frequency:   19.7164584234
  - # 21
    frequency:   59.0069452225

- q-position: [    0.0808081,    0.0000000,    0.0000000 ]
  distance:    0.0284772
  band:
  - # 1
    frequency:   -2.3164959880
  - # 2
    frequency:   -1.7532382094
  - # 3
    frequency:    0.1776054008
  - # 4
    frequency:    0.8868908723
  - # 5
    frequency:    1.2527742308
  - # 6
    frequency:    1.4185965069
  - # 7
    frequency:    1.8541420363
  - # 8
    frequency:    1.9380197521
  - # 9
    frequency:    2.9950311272
  - # 10
    frequency:    3.1954166101
  - # 11
    frequency:    4.9155580022
  - # 12
    frequency:    8.5226437301
  - # 13
    frequency:    8.6264527590
  - # 14
    frequency:    8.9515731061
  - # 15
    frequency:   11.5537768360
  - # 16
    frequency:   12.0270009414
  - # 17
    frequency:   14.2655488078
  - # 18
    frequency:   15.6047913992
  - # 19
    frequency:   15.6148261425
  - # 20
    frequency:   19.6920508076
  - # 21
    frequency:   58.9954719838

- q-position: [    0.0858586,    0.0000000,    0.0000000 ]
  distance:    0.0302570
  band:
  - # 1
    frequency:   -2.4120188700
  - # 2
    frequency:   -1.8048644258
  - # 3
    frequency:    0.2204428800
  - # 4
    frequency:    0.9331783793
  - # 5
    frequency:    1.2812438669
  - # 6
    frequency:    1.4720652492
  - # 7
    frequency:    1.8550332109
  - # 8
    frequency:    1.9485293546
  - # 9
    frequency:    2.9988472886
  - # 10
    frequency:    3.2230036443
  - # 11
    frequency:    4.9071925952
  - # 12
    frequency:    8.5246610873
  - # 13
    frequency:    8.6322330481
  - # 14
    frequency:    8.9625415514
  - # 15
    frequency:   11.4894257886
  - # 16
    frequency:   12.0177660225
  - # 17
    frequency:   14.2602152901
  - # 18
    frequency:   15.5918598465
  - # 19
    frequency:   15.6028772743
  - # 20
    frequency:   19.6667748410
  - # 21
    frequency:   58.9834545665

- q-position: [    0.0909091,    0.0000000,    0.0000000 ]
  distance:    0.0320368
  band:
  - # 1
    frequency:   -2.5071837031
  - # 2
    frequency:   -1.8569342504
  - # 3
    frequency:    0.2636531779
  - # 4
    frequency:    0.9767305488
  - # 5
    frequency:    1.3052117351
  - # 6
    frequency:    1.5236227633
  - # 7
    frequency:    1.8572474136
  - # 8
    frequency:    1.9629156160
  - # 9
    frequency:    3.0030298266
  - # 10
    frequency:    3.2518410215
  - # 11
    frequency:    4.8982867406
  - # 12
    frequency:    8.5267613563
  - # 13
    frequency:    8.6361057891
  - # 14
    frequency:    8.9754677309
  - # 15
    frequency:   11.4230150138
  - # 16
    frequency:   12.0082967194
  - # 17
    frequency:   14.2542894257
  - # 18
    frequency:   15.5787318978
  - # 19
    frequency:   15.5906396012
  - # 20
    frequency:   19.6407401521
  - # 21
    frequency:   58.9709271384

- q-position: [    0.0959596,    0.0000000,    0.0000000 ]
  distance:    0.0338166
  band:
  - # 1
    frequency:   -2.6016875890
  - # 2
    frequency:   -1.9092044356
  - # 3
    frequency:    0.3074883901
  - # 4
    frequency:    1.0172245661
  - # 5
    frequency:    1.3271201911
  - # 6
    frequency:    1.5691483422
  - # 7
    frequency:    1.8610556655
  - # 8
    frequency:    1.9826287751
  - # 9
    frequency:    3.0075975095
  - # 10
    frequency:    3.2818484719
  - # 11
    frequency:    4.8888391156
  - # 12
    frequency:    8.5289380838
  - # 13
    frequency:    8.6379008568
  - # 14
    frequency:    8.9903222585
  - # 15
    frequency:   11.3548926149
  - # 16
    frequency:   11.9986467883
  - # 17
    frequency:   14.2477425017
  - # 18
    frequency:   15.5655244471
  - # 19
    frequency:   15.5781822506
  - # 20
    frequency:   19.6140568632
  - # 21
    frequency:   58.9579251768

- q-position: [    0.1010101,    0.0000000,    0.0000000 ]
  distance:    0.0355965
  band:
  - # 1
    frequency:   -2.6952611948
  - # 2
    frequency:   -1.9614523199
  - # 3
    frequency:    0.3520114144
  - # 4
    frequency:    1.0543405396
  - # 5
    frequency:    1.3482005282
  - # 6
    frequency:    1.6059335760
  - # 7
    frequency:    1.8667346539
  - # 8
    frequency:    2.0089202727
  - # 9
    frequency:    3.0125688089
  - # 10
    frequency:    3.3129431969
  - # 11
    frequency:    4.8788498629
  - # 12
    frequency:    8.5311846315
  - # 13
    frequency:    8.6375209080
  - # 14
    frequency:    9.0069843240
  - # 15
    frequency:   11.2854356831
  - # 16
    frequency:   11.9888719968
  - # 17
    frequency:   14.2405478292
  - # 18
    frequency:   15.5523622176
  - # 19
    frequency:   15.5655761050
  - # 20
    frequency:   19.5868348055
  - # 21
    frequency:   58.9444853444

- q-position: [    0.1060606,    0.0000000,    0.0000000 ]
  distance:    0.0373763
  band:
  - # 1
    frequency:   -2.7876633037
  - # 2
    frequency:   -2.0134741341
  - # 3
    frequency:    0.3971933946
  - # 4
    frequency:    1.0877770199
  - # 5
    frequency:    1.3690759837
  - # 6
    frequency:    1.6326516898
  - # 7
    frequency:    1.8745499628
  - # 8
    frequency:    2.0422687104
  - # 9
    frequency:    3.0179617025
  - # 10
    frequency:    3.3450404983
  - # 11
    frequency:    4.8683210009
  - # 12
    frequency:    8.5334942195
  - # 13
    frequency:    8.6349286362
  - # 14
    frequency:    9.0252541062
  - # 15
    frequency:   11.2150516282
  - # 16
    frequency:   11.9790299399
  - # 17
    frequency:   14.2326811825
  - # 18
    frequency:   15.5393770485
  - # 19
    frequency:   15.5528934464
  - # 20
    frequency:   19.5591827663
  - # 21
    frequency:   58.9306453602

- q-position: [    0.1111111,    0.0000000,    0.0000000 ]
  distance:    0.0391561
  band:
  - # 1
    frequency:   -2.8786764393
  - # 2
    frequency:   -2.0650832935
  - # 3
    frequency:    0.4429534179
  - # 4
    frequency:    1.1172718223
  - # 5
    frequency:    1.3900717700
  - # 6
    frequency:    1.6493824003
  - # 7
    frequency:    1.8847342371
  - # 8
    frequency:    2.0820440364
  - # 9
    frequency:    3.0237934776
  - # 10
    frequency:    3.3780542550
  - # 11
    frequency:    4.8572569299
  - # 12
    frequency:    8.5358599745
  - # 13
    frequency:    8.6301273899
  - # 14
    frequency:    9.0448723337
  - # 15
    frequency:   11.1441790274
  - # 16
    frequency:   11.9691798440
  - # 17
    frequency:   14.2241213213
  - # 18
    frequency:   15.5267069631
  - # 19
    frequency:   15.5402075853
  - # 20
    frequency:   19.5312077772
  - # 21
    frequency:   58.9164438664

- q-position: [    0.1161616,    0.0000000,    0.0000000 ]
  distance:    0.0409359
  band:
  - # 1
    frequency:   -2.9681033486
  - # 2
    frequency:   -2.1161087608
  - # 3
    frequency:    0.4891754096
  - # 4
    frequency:    1.1426256081
  - # 5
    frequency:    1.4113571255
  - # 6
    frequency:    1.6572259337
  - # 7
    frequency:    1.8974627881
  - # 8
    frequency:    2.1267514423
  - # 9
    frequency:    3.0300805344
  - # 10
    frequency:    3.4118972146
  - # 11
    frequency:    4.8456650563
  - # 12
    frequency:    8.5382749815
  - # 13
    frequency:    8.6231414248
  - # 14
    frequency:    9.0655409608
  - # 15
    frequency:   11.0732877098
  - # 16
    frequency:   11.9593823588
  - # 17
    frequency:   14.2148505944
  - # 18
    frequency:   15.5144950207
  - # 19
    frequency:   15.5275924797
  - # 20
    frequency:   19.5030144487
  - # 21
    frequency:   58.9019202924

- q-position: [    0.1212121,    0.0000000,    0.0000000 ]
  distance:    0.0427158
  band:
  - # 1
    frequency:   -3.0557641694
  - # 2
    frequency:   -2.1663935282
  - # 3
    frequency:    0.5357141300
  - # 4
    frequency:    1.1637236511
  - # 5
    frequency:    1.4330084591
  - # 6
    frequency:    1.6576625625
  - # 7
    frequency:    1.9128311789
  - # 8
    frequency:    2.1746098048
  - # 9
    frequency:    3.0368381937
  - # 10
    frequency:    3.4464810787
  - # 11
    frequency:    4.8335565635
  - # 12
    frequency:    8.5407323387
  - # 13
    frequency:    8.6140002722
  - # 14
    frequency:    9.0869407755
  - # 15
    frequency:   11.0028777230
  - # 16
    frequency:   11.9496993359
  - # 17
    frequency:   14.2048556190
  - # 18
    frequency:   15.5028879635
  - # 19
    frequency:   15.5151223428
  - # 20
    frequency:   19.4747043593
  - # 21
    frequency:   58.8871147151

- q-position: [    0.1262626,    0.0000000,    0.0000000 ]
  distance:    0.0444956
  band:
  - # 1
    frequency:   -3.1414941449
  - # 2
    frequency:   -2.2157932422
  - # 3
    frequency:    0.5823946451
  - # 4
    frequency:    1.1805502512
  - # 5
    frequency:    1.4550311320
  - # 6
    frequency:    1.6520853390
  - # 7
    frequency:    1.9308402931
  - # 8
    frequency:    2.2239999353
  - # 9
    frequency:    3.0440805106
  - # 10
    frequency:    3.4817163665
  - # 11
    frequency:    4.8209473554
  - # 12
    frequency:    8.5432252159
  - # 13
    frequency:    8.6027291306
  - # 14
    frequency:    9.1087444074
  - # 15
    frequency:   10.9334767473
  - # 16
    frequency:   11.9401935963
  - # 17
    frequency:   14.1941280155
  - # 18
    frequency:   15.4920346806
  - # 19
    frequency:   15.5028712451
  - # 20
    frequency:   19.4463755033
  - # 21
    frequency:   58.8720677177

- q-position: [    0.1313131,    0.0000000,    0.0000000 ]
  distance:    0.0462754
  band:
  - # 1
    frequency:   -3.2251417733
  - # 2
    frequency:   -2.2641749746
  - # 3
    frequency:    0.6290065288
  - # 4
    frequency:    1.1931913737
  - # 5
    frequency:    1.4773453710
  - # 6
    frequency:    1.6416502651
  - # 7
    frequency:    1.9513932776
  - # 8
    frequency:    2.2736337337
  - # 9
    frequency:    3.0518200972
  - # 10
    frequency:    3.5175120499
  - # 11
    frequency:    4.8078592028
  - # 12
    frequency:    8.5457469146
  - # 13
    frequency:    8.5893452468
  - # 14
    frequency:    9.1306251931
  - # 15
    frequency:   10.8656354627
  - # 16
    frequency:   11.9309286834
  - # 17
    frequency:   14.1826651684
  - # 18
    frequency:   15.4820845247
  - # 19
    frequency:   15.4909127103
  - # 20
    frequency:   19.4181218006
  - # 21
    frequency:   58.8568202454

- q-position: [    0.1363636,    0.0000000,    0.0000000 ]
  distance:    0.0480552
  band:
  - # 1
    frequency:   -3.3065673053
  - # 2
    frequency:   -2.3114161383
  - # 3
    frequency:    0.6752922589
  - # 4
    frequency:    1.2018242814
  - # 5
    frequency:    1.4996976951
  - # 6
    frequency:    1.6273808241
  - # 7
    frequency:    1.9743055680
  - # 8
    frequency:    2.3225473642
  - # 9
    frequency:    3.0600679578
  - # 10
    frequency:    3.5537749578
  - # 11
    frequency:    4.7943211217
  - # 12
    frequency:    8.5482909299
  - # 13
    frequency:    8.5738593246
  - # 14
    frequency:    9.1522633181
  - # 15
    frequency:   10.7999203338
  - # 16
    frequency:   11.9219686051
  - # 17
    frequency:   14.1704709703
  - # 18
    frequency:   15.4731855268
  - # 19
    frequency:   15.4793193112
  - # 20
    frequency:   19.3900326717
  - # 21
    frequency:   58.8414134611

- q-position: [    0.1414141,    0.0000000,    0.0000000 ]
  distance:    0.0498351
  band:
  - # 1
    frequency:   -3.3856415221
  - # 2
    frequency:   -2.3574035383
  - # 3
    frequency:    0.7209275821
  - # 4
    frequency:    1.2066967698
  - # 5
    frequency:    1.5212788769
  - # 6
    frequency:    1.6106306546
  - # 7
    frequency:    1.9993253637
  - # 8
    frequency:    2.3700361460
  - # 9
    frequency:    3.0688333399
  - # 10
    frequency:    3.5904089505
  - # 11
    frequency:    4.7803710053
  - # 12
    frequency:    8.5508510129
  - # 13
    frequency:    8.5562807890
  - # 14
    frequency:    9.1733508263
  - # 15
    frequency:   10.7369033107
  - # 16
    frequency:   11.9133775625
  - # 17
    frequency:   14.1575564997
  - # 18
    frequency:   15.4654825649
  - # 19
    frequency:   15.4681622653
  - # 20
    frequency:   19.3621926785
  - # 21
    frequency:   58.8258885993

- q-position: [    0.1464646,    0.0000000,    0.0000000 ]
  distance:    0.0516149
  band:
  - # 1
    frequency:   -3.4622447382
  - # 2
    frequency:   -2.4020325450
  - # 3
    frequency:    0.7654892915
  - # 4
    frequency:    1.2081012179
  - # 5
    frequency:    1.5386670113
  - # 6
    frequency:    1.5952325008
  - # 7
    frequency:    2.0261593242
  - # 8
    frequency:    2.4155888602
  - # 9
    frequency:    3.0781236028
  - # 10
    frequency:    3.6273138666
  - # 11
    frequency:    4.7660575290
  - # 12
    frequency:    8.5366258226
  - # 13
    frequency:    8.5534212324
  - # 14
    frequency:    9.1935968535
  - # 15
    frequency:   10.6771480815
  - # 16
    frequency:   11.9052196672
  - # 17
    frequency:   14.1439405785
  - # 18
    frequency:   15.4575110362
  - # 19
    frequency:   15.4591155480
  - # 20
    frequency:   19.3346812303
  - # 21
    frequency:   58.8102868202

- q-position: [    0.1515152,    0.0000000,    0.0000000 ]
  distance:    0.0533947
  band:
  - # 1
    frequency:   -3.5362659857
  - # 2
    frequency:   -2.4452063788
  - # 3
    frequency:    0.8084019995
  - # 4
    frequency:    1.2063489922
  - # 5
    frequency:    1.5390907104
  - # 6
    frequency:    1.5943295768
  - # 7
    frequency:    2.0544979339
  - # 8
    frequency:    2.4588382049
  - # 9
    frequency:    3.0879441092
  - # 10
    frequency:    3.6643842397
  - # 11
    frequency:    4.7514423329
  - # 12
    frequency:    8.5149271981
  - # 13
    frequency:    8.5559960347
  - # 14
    frequency:    9.2127340434
  - # 15
    frequency:   10.6211928097
  - # 16
    frequency:   11.8975586473
  - # 17
    frequency:   14.1296501543
  - # 18
    frequency:   15.4474329423
  - # 19
    frequency:   15.4542176778
  - # 20
    frequency:   19.3075723546
  - # 21