nqpoint: 300    
npath: 3      
segment_nqpoint:
- 100
- 100
- 100
labels:
- [ 'G', 'M' ]
- [ 'M', 'K' ]
- [ 'K', 'G' ]
reciprocal_lattice:
- [   0.30843874,   0.17807719,   0.00000000 ] # a*
- [   0.00000000,   0.35615438,   0.00000000 ] # b*
- [   0.00000000,   0.00000000,   0.04249049 ] # c*
natom: 5      
lattice:
- [     3.242134870226039,     0.000000000000000,     0.000000000000000 ] # a
- [    -1.621067435113020,     2.807771160101865,     0.000000000000000 ] # b
- [     0.000000000000000,     0.000000000000000,    23.534675433576169 ] # c
points:
- symbol: C # 1
  coordinates: [  0.000000000000000,  0.000000000000000,  0.500000037761830 ]
  mass: 12.010700
- symbol: Cl # 2
  coordinates: [  0.333332985432215,  0.666666983183674,  0.617585548379393 ]
  mass: 35.453000
- symbol: Cl # 3
  coordinates: [  0.666666984744047,  0.333332985985145,  0.382414451620607 ]
  mass: 35.453000
- symbol: Ti # 4
  coordinates: [  0.333332985432215,  0.666666983183674,  0.453659369834047 ]
  mass: 47.867000
- symbol: Ti # 5
  coordinates: [  0.666666984744047,  0.333332985985145,  0.546340629602333 ]
  mass: 47.867000

phonon:
- q-position: [    0.0000000,    0.0000000,    0.0000000 ]
  distance:    0.0000000
  band:
  - # 1
    frequency:   -0.0000255194
  - # 2
    frequency:    0.0000002466
  - # 3
    frequency:    0.0000161720
  - # 4
    frequency:    4.3445661463
  - # 5
    frequency:    4.3445661463
  - # 6
    frequency:    6.3040521701
  - # 7
    frequency:    6.3040521702
  - # 8
    frequency:    6.4172692089
  - # 9
    frequency:    7.6599968418
  - # 10
    frequency:    7.6599968418
  - # 11
    frequency:    9.8958687958
  - # 12
    frequency:   12.9493509943
  - # 13
    frequency:   17.0275722702
  - # 14
    frequency:   18.0511228053
  - # 15
    frequency:   18.0511228053

- q-position: [    0.0050505,    0.0000000,    0.0000000 ]
  distance:    0.0017988
  band:
  - # 1
    frequency:    0.0024934967
  - # 2
    frequency:    0.0832116983
  - # 3
    frequency:    0.1276086732
  - # 4
    frequency:    4.3449452905
  - # 5
    frequency:    4.3465304784
  - # 6
    frequency:    6.2928274209
  - # 7
    frequency:    6.3041109686
  - # 8
    frequency:    6.4292900038
  - # 9
    frequency:    7.6601964638
  - # 10
    frequency:    7.6603259854
  - # 11
    frequency:    9.8958247358
  - # 12
    frequency:   12.9481500509
  - # 13
    frequency:   17.0271617174
  - # 14
    frequency:   18.0508320224
  - # 15
    frequency:   18.0517006581

- q-position: [    0.0101010,    0.0000000,    0.0000000 ]
  distance:    0.0035975
  band:
  - # 1
    frequency:    0.0099578942
  - # 2
    frequency:    0.1663953282
  - # 3
    frequency:    0.2552070206
  - # 4
    frequency:    4.3460819283
  - # 5
    frequency:    4.3524073427
  - # 6
    frequency:    6.2673831276
  - # 7
    frequency:    6.3042875315
  - # 8
    frequency:    6.4571211458
  - # 9
    frequency:    7.6607945504
  - # 10
    frequency:    7.6613107621
  - # 11
    frequency:    9.8956924858
  - # 12
    frequency:   12.9445494403
  - # 13
    frequency:   17.0259312223
  - # 14
    frequency:   18.0499616848
  - # 15
    frequency:   18.0534302080

- q-position: [    0.0151515,    0.0000000,    0.0000000 ]
  distance:    0.0053963
  band:
  - # 1
    frequency:    0.0223454084
  - # 2
    frequency:    0.2495228927
  - # 3
    frequency:    0.3827844241
  - # 4
    frequency:    4.3479736813
  - # 5
    frequency:    4.3621488381
  - # 6
    frequency:    6.2369069902
  - # 7
    frequency:    6.3045823589
  - # 8
    frequency:    6.4915710674
  - # 9
    frequency:    7.6617887679
  - # 10
    frequency:    7.6629432341
  - # 11
    frequency:    9.8954718409
  - # 12
    frequency:   12.9385558138
  - # 13
    frequency:   17.0238842703
  - # 14
    frequency:   18.0485178134
  - # 15
    frequency:   18.0562994555

- q-position: [    0.0202020,    0.0000000,    0.0000000 ]
  distance:    0.0071950
  band:
  - # 1
    frequency:    0.0395780086
  - # 2
    frequency:    0.3325665360
  - # 3
    frequency:    0.5103296963
  - # 4
    frequency:    4.3506166057
  - # 5
    frequency:    4.3756767438
  - # 6
    frequency:    6.2049848996
  - # 7
    frequency:    6.3049962743
  - # 8
    frequency:    6.5290474203
  - # 9
    frequency:    7.6631752408
  - # 10
    frequency:    7.6652102513
  - # 11
    frequency:    9.8951624762
  - # 12
    frequency:   12.9301802334
  - # 13
    frequency:   17.0210266581
  - # 14
    frequency:   18.0465104014
  - # 15
    frequency:   18.0602884901

- q-position: [    0.0252525,    0.0000000,    0.0000000 ]
  distance:    0.0089938
  band:
  - # 1
    frequency:    0.0615497108
  - # 2
    frequency:    0.4154986124
  - # 3
    frequency:    0.6378307924
  - # 4
    frequency:    4.3540052224
  - # 5
    frequency:    4.3928848190
  - # 6
    frequency:    6.1729309181
  - # 7
    frequency:    6.3055304105
  - # 8
    frequency:    6.5682270779
  - # 9
    frequency:    7.6649485733
  - # 10
    frequency:    7.6680935696
  - # 11
    frequency:    9.8947639715
  - # 12
    frequency:   12.9194381368
  - # 13
    frequency:   17.0173664728
  - # 14
    frequency:   18.0439533512
  - # 15
    frequency:   18.0653696228

- q-position: [    0.0303030,    0.0000000,    0.0000000 ]
  distance:    0.0107926
  band:
  - # 1
    frequency:    0.0881295629
  - # 2
    frequency:    0.4982917529
  - # 3
    frequency:    0.7652745307
  - # 4
    frequency:    4.3581325569
  - # 5
    frequency:    4.4136417976
  - # 6
    frequency:    6.1413144964
  - # 7
    frequency:    6.3061861903
  - # 8
    frequency:    6.6085288958
  - # 9
    frequency:    7.6671018799
  - # 10
    frequency:    7.6715700145
  - # 11
    frequency:    9.8942758450
  - # 12
    frequency:   12.9063492889
  - # 13
    frequency:   17.0129140640
  - # 14
    frequency:   18.0408643879
  - # 15
    frequency:   18.0715075705

- q-position: [    0.0353535,    0.0000000,    0.0000000 ]
  distance:    0.0125913
  band:
  - # 1
    frequency:    0.1191651290
  - # 2
    frequency:    0.5809189283
  - # 3
    frequency:    0.8926463151
  - # 4
    frequency:    4.3629901914
  - # 5
    frequency:    4.4377948826
  - # 6
    frequency:    6.1104285898
  - # 7
    frequency:    6.3069653037
  - # 8
    frequency:    6.6496455680
  - # 9
    frequency:    7.6696268255
  - # 10
    frequency:    7.6756116864
  - # 11
    frequency:    9.8936975950
  - # 12
    frequency:   12.8909377223
  - # 13
    frequency:   17.0076820044
  - # 14
    frequency:   18.0372649482
  - # 15
    frequency:   18.0786596922

- q-position: [    0.0404040,    0.0000000,    0.0000000 ]
  distance:    0.0143901
  band:
  - # 1
    frequency:    0.1544862670
  - # 2
    frequency:    0.6633535100
  - # 3
    frequency:    1.0199298645
  - # 4
    frequency:    4.3685683242
  - # 5
    frequency:    4.4651735350
  - # 6
    frequency:    6.0804472078
  - # 7
    frequency:    6.3078696810
  - # 8
    frequency:    6.6913860457
  - # 9
    frequency:    7.6725136757
  - # 10
    frequency:    7.6801862062
  - # 11
    frequency:    9.8930287489
  - # 12
    frequency:   12.8732316660
  - # 13
    frequency:   17.0016850404
  - # 14
    frequency:   18.0331800465
  - # 15
    frequency:   18.0867762737

- q-position: [    0.0454545,    0.0000000,    0.0000000 ]
  distance:    0.0161888
  band:
  - # 1
    frequency:    0.1939089991
  - # 2
    frequency:    0.7455693247
  - # 3
    frequency:    1.1471069468
  - # 4
    frequency:    4.3748558376
  - # 5
    frequency:    4.4955933557
  - # 6
    frequency:    6.0514862678
  - # 7
    frequency:    6.3089014645
  - # 8
    frequency:    6.7336146498
  - # 9
    frequency:    7.6757513584
  - # 10
    frequency:    7.6852569974
  - # 11
    frequency:    9.8922689183
  - # 12
    frequency:   12.8532634652
  - # 13
    frequency:   16.9949400312
  - # 14
    frequency:   18.0286381189
  - # 15
    frequency:   18.0958008615

- q-position: [    0.0505051,    0.0000000,    0.0000000 ]
  distance:    0.0179876
  band:
  - # 1
    frequency:    0.2372392974
  - # 2
    frequency:    0.8275407062
  - # 3
    frequency:    1.2741571211
  - # 4
    frequency:    4.3818403732
  - # 5
    frequency:    4.5288598804
  - # 6
    frequency:    6.0236300486
  - # 7
    frequency:    6.3100629781
  - # 8
    frequency:    6.7762245829
  - # 9
    frequency:    7.6793275378
  - # 10
    frequency:    7.6907836002
  - # 11
    frequency:    9.8914178580
  - # 12
    frequency:   12.8310694923
  - # 13
    frequency:   16.9874658755
  - # 14
    frequency:   18.0236708461
  - # 15
    frequency:   18.1056706411

- q-position: [    0.0555556,    0.0000000,    0.0000000 ]
  distance:    0.0197864
  band:
  - # 1
    frequency:    0.2842766398
  - # 2
    frequency:    0.9092425406
  - # 3
    frequency:    1.4010574872
  - # 4
    frequency:    4.3895084107
  - # 5
    frequency:    4.5647721428
  - # 6
    frequency:    5.9969438341
  - # 7
    frequency:    6.3113566970
  - # 8
    frequency:    6.8191252512
  - # 9
    frequency:    7.6832287013
  - # 10
    frequency:    7.6967220155
  - # 11
    frequency:    9.8904755284
  - # 12
    frequency:   12.8066900520
  - # 13
    frequency:   16.9792834265
  - # 14
    frequency:   18.0183129557
  - # 15
    frequency:   18.1163168578

- q-position: [    0.0606061,    0.0000000,    0.0000000 ]
  distance:    0.0215851
  band:
  - # 1
    frequency:    0.3348172311
  - # 2
    frequency:    0.9906503072
  - # 3
    frequency:    1.5277824441
  - # 4
    frequency:    4.3978453519
  - # 5
    frequency:    4.6031258989
  - # 6
    frequency:    5.9714804385
  - # 7
    frequency:    6.3127852167
  - # 8
    frequency:    6.8622357088
  - # 9
    frequency:    7.6874402623
  - # 10
    frequency:    7.7030250729
  - # 11
    frequency:    9.8894421588
  - # 12
    frequency:   12.7801692804
  - # 13
    frequency:   16.9704153934
  - # 14
    frequency:   18.0126020071
  - # 15
    frequency:   18.1276652775

- q-position: [    0.0656566,    0.0000000,    0.0000000 ]
  distance:    0.0233839
  band:
  - # 1
    frequency:    0.3886568223
  - # 2
    frequency:    1.0717401126
  - # 3
    frequency:    1.6543034578
  - # 4
    frequency:    4.4068356062
  - # 5
    frequency:    4.6437164429
  - # 6
    frequency:    5.9472837945
  - # 7
    frequency:    6.3143512234
  - # 8
    frequency:    6.9054810427
  - # 9
    frequency:    7.6919466793
  - # 10
    frequency:    7.7096428199
  - # 11
    frequency:    9.8883183098
  - # 12
    frequency:   12.7515550410
  - # 13
    frequency:   16.9608862327
  - # 14
    frequency:   18.0065781585
  - # 15
    frequency:   18.1396366810

- q-position: [    0.0707071,    0.0000000,    0.0000000 ]
  distance:    0.0251826
  band:
  - # 1
    frequency:    0.4455930961
  - # 2
    frequency:    1.1524887190
  - # 3
    frequency:    1.7805888390
  - # 4
    frequency:    4.4164626764
  - # 5
    frequency:    4.6863409815
  - # 6
    frequency:    5.9243910437
  - # 7
    frequency:    6.3160574646
  - # 8
    frequency:    6.9487902644
  - # 9
    frequency:    7.6967315956
  - # 10
    frequency:    7.7165229282
  - # 11
    frequency:    9.8871049327
  - # 12
    frequency:   12.7208988175
  - # 13
    frequency:   16.9507220269
  - # 14
    frequency:   18.0002839186
  - # 15
    frequency:   18.1521473905

- q-position: [    0.0757576,    0.0000000,    0.0000000 ]
  distance:    0.0269814
  band:
  - # 1
    frequency:    0.5054276172
  - # 2
    frequency:    1.2328735671
  - # 3
    frequency:    1.9066035307
  - # 4
    frequency:    4.4267092452
  - # 5
    frequency:    4.7308005620
  - # 6
    frequency:    5.9028338267
  - # 7
    frequency:    6.3179067210
  - # 8
    frequency:    6.9920950101
  - # 9
    frequency:    7.7017780007
  - # 10
    frequency:    7.7236111119
  - # 11
    frequency:    9.8858034248
  - # 12
    frequency:   12.6882556057
  - # 13
    frequency:   16.9399503538
  - # 14
    frequency:   17.9937638850
  - # 15
    frequency:   18.1651098217

- q-position: [    0.0808081,    0.0000000,    0.0000000 ]
  distance:    0.0287802
  band:
  - # 1
    frequency:    0.5679673666
  - # 2
    frequency:    1.3128727922
  - # 3
    frequency:    2.0323089063
  - # 4
    frequency:    4.4375572581
  - # 5
    frequency:    4.7769015696
  - # 6
    frequency:    5.8826391348
  - # 7
    frequency:    6.3199017785
  - # 8
    frequency:    7.0353286913
  - # 9
    frequency:    7.7070684193
  - # 10
    frequency:    7.7308515563
  - # 11
    frequency:    9.8844156761
  - # 12
    frequency:   12.6536838048
  - # 13
    frequency:   16.9286001470
  - # 14
    frequency:   17.9870644699
  - # 15
    frequency:   18.1784330581

- q-position: [    0.0858586,    0.0000000,    0.0000000 ]
  distance:    0.0305789
  band:
  - # 1
    frequency:    0.6330258954
  - # 2
    frequency:    1.3924652343
  - # 3
    frequency:    2.1576625771
  - # 4
    frequency:    4.4489880049
  - # 5
    frequency:    4.8244568256
  - # 6
    frequency:    5.8638299242
  - # 7
    frequency:    6.3220454012
  - # 8
    frequency:    7.0784258984
  - # 9
    frequency:    7.7125851331
  - # 10
    frequency:    7.7381873506
  - # 11
    frequency:    9.8829441083
  - # 12
    frequency:   12.6172451093
  - # 13
    frequency:   16.9167015488
  - # 14
    frequency:   17.9802336164
  - # 15
    frequency:   18.1920234413

- q-position: [    0.0909091,    0.0000000,    0.0000000 ]
  distance:    0.0323777
  band:
  - # 1
    frequency:    0.7004241415
  - # 2
    frequency:    1.4716304431
  - # 3
    frequency:    2.2826182079
  - # 4
    frequency:    4.4609821958
  - # 5
    frequency:    4.8732863232
  - # 6
    frequency:    5.8464256089
  - # 7
    frequency:    6.3243403032
  - # 8
    frequency:    7.1213219426
  - # 9
    frequency:    7.7183104412
  - # 10
    frequency:    7.7455609241
  - # 11
    frequency:    9.8813917007
  - # 12
    frequency:   12.5790044023
  - # 13
    frequency:   16.9042857570
  - # 14
    frequency:   17.9733205069
  - # 15
    frequency:   18.2057851742

- q-position: [    0.0959596,    0.0000000,    0.0000000 ]
  distance:    0.0341764
  band:
  - # 1
    frequency:    0.7699909583
  - # 2
    frequency:    1.5503486766
  - # 3
    frequency:    2.4071253405
  - # 4
    frequency:    4.4735200336
  - # 5
    frequency:    4.9232176409
  - # 6
    frequency:    5.8304425085
  - # 7
    frequency:    6.3267891202
  - # 8
    frequency:    7.1639524620
  - # 9
    frequency:    7.7242269721
  - # 10
    frequency:    7.7529144801
  - # 11
    frequency:    9.8797620029
  - # 12
    frequency:   12.5390296505
  - # 13
    frequency:   16.8913848676
  - # 14
    frequency:   17.9663752647
  - # 15
    frequency:   18.2196209311

- q-position: [    0.1010101,    0.0000000,    0.0000000 ]
  distance:    0.0359752
  band:
  - # 1
    frequency:    0.8415634028
  - # 2
    frequency:    1.6286008950
  - # 3
    frequency:    2.5311292216
  - # 4
    frequency:    4.4865812795
  - # 5
    frequency:    4.9740860687
  - # 6
    frequency:    5.8158943070
  - # 7
    frequency:    6.3293943780
  - # 8
    frequency:    7.2062530413
  - # 9
    frequency:    7.7303180600
  - # 10
    frequency:    7.7601904268
  - # 11
    frequency:    9.8780591313
  - # 12
    frequency:   12.4973918011
  - # 13
    frequency:   16.8780317147
  - # 14
    frequency:   17.9594486524
  - # 15
    frequency:   18.2334324709

- q-position: [    0.1060606,    0.0000000,    0.0000000 ]
  distance:    0.0377739
  band:
  - # 1
    frequency:    0.9149868279
  - # 2
    frequency:    1.7063687500
  - # 3
    frequency:    2.6545706317
  - # 4
    frequency:    4.5001453136
  - # 5
    frequency:    5.0257344721
  - # 6
    frequency:    5.8027925693
  - # 7
    frequency:    6.3321584593
  - # 8
    frequency:    7.2481588008
  - # 9
    frequency:    7.7365682073
  - # 10
    frequency:    7.7673318012
  - # 11
    frequency:    9.8762877466
  - # 12
    frequency:   12.4541646810
  - # 13
    frequency:   16.8642597092
  - # 14
    frequency:   17.9525917680
  - # 15
    frequency:   18.2471212485

- q-position: [    0.1111111,    0.0000000,    0.0000000 ]
  distance:    0.0395727
  band:
  - # 1
    frequency:    0.9901148221
  - # 2
    frequency:    1.7836345691
  - # 3
    frequency:    2.7773857118
  - # 4
    frequency:    4.5141911883
  - # 5
    frequency:    5.0780129045
  - # 6
    frequency:    5.7911473681
  - # 7
    frequency:    6.3350835663
  - # 8
    frequency:    7.2896039099
  - # 9
    frequency:    7.7429636646
  - # 10
    frequency:    7.7742826831
  - # 11
    frequency:    9.8744530114
  - # 12
    frequency:   12.4094248996
  - # 13
    frequency:   16.8501026779
  - # 14
    frequency:   17.9458557414
  - # 15
    frequency:   18.2605890204

- q-position: [    0.1161616,    0.0000000,    0.0000000 ]
  distance:    0.0413715
  band:
  - # 1
    frequency:    1.0668090313
  - # 2
    frequency:    1.8603813367
  - # 3
    frequency:    2.8995057798
  - # 4
    frequency:    4.5286976760
  - # 5
    frequency:    5.1307779542
  - # 6
    frequency:    5.7809680873
  - # 7
    frequency:    6.3381716788
  - # 8
    frequency:    7.3305209703
  - # 9
    frequency:    7.7494931745
  - # 10
    frequency:    7.7809885992
  - # 11
    frequency:    9.8725605240
  - # 12
    frequency:   12.3632517524
  - # 13
    frequency:   16.8355947039
  - # 14
    frequency:   17.9392914333
  - # 15
    frequency:   18.2737384406

- q-position: [    0.1212121,    0.0000000,    0.0000000 ]
  distance:    0.0431702
  band:
  - # 1
    frequency:    1.1449388935
  - # 2
    frequency:    1.9365926717
  - # 3
    frequency:    3.0208571310
  - # 4
    frequency:    4.5436433091
  - # 5
    frequency:    5.1838917692
  - # 6
    frequency:    5.7722645027
  - # 7
    frequency:    6.3414245071
  - # 8
    frequency:    7.3708401920
  - # 9
    frequency:    7.7561489514
  - # 10
    frequency:    7.7873969115
  - # 11
    frequency:    9.8706162282
  - # 12
    frequency:   12.3157271288
  - # 13
    frequency:   16.8207699698
  - # 14
    frequency:   17.9329491378
  - # 15
    frequency:   18.2864736432

- q-position: [    0.1262626,    0.0000000,    0.0000000 ]
  distance:    0.0449690
  band:
  - # 1
    frequency:    1.2243813142
  - # 2
    frequency:    2.0122528025
  - # 3
    frequency:    3.1413608116
  - # 4
    frequency:    4.5590064147
  - # 5
    frequency:    5.2372206351
  - # 6
    frequency:    5.7650483058
  - # 7
    frequency:    6.3448434401
  - # 8
    frequency:    7.4104882495
  - # 9
    frequency:    7.7629280077
  - # 10
    frequency:    7.7934571920
  - # 11
    frequency:    9.8686262962
  - # 12
    frequency:   12.2669354210
  - # 13
    frequency:   16.8056626061
  - # 14
    frequency:   17.9268782916
  - # 15
    frequency:   18.2987008077

- q-position: [    0.1313131,    0.0000000,    0.0000000 ]
  distance:    0.0467677
  band:
  - # 1
    frequency:    1.3050203007
  - # 2
    frequency:    2.0873465392
  - # 3
    frequency:    3.2609323517
  - # 4
    frequency:    4.5747651428
  - # 5
    frequency:    5.2906328461
  - # 6
    frequency:    5.7593353646
  - # 7
    frequency:    6.3484294863
  - # 8
    frequency:    7.4493866410
  - # 9
    frequency:    7.7698340022
  - # 10
    frequency:    7.7991215792
  - # 11
    frequency:    9.8665969833
  - # 12
    frequency:   12.2169634361
  - # 13
    frequency:   16.7903065423
  - # 14
    frequency:   17.9211271914
  - # 15
    frequency:   18.3103287037

- q-position: [    0.1363636,    0.0000000,    0.0000000 ]
  distance:    0.0485665
  band:
  - # 1
    frequency:    1.3867465746
  - # 2
    frequency:    2.1618592453
  - # 3
    frequency:    3.3794814442
  - # 4
    frequency:    4.5908974887
  - # 5
    frequency:    5.3439953458
  - # 6
    frequency:    5.7551492799
  - # 7
    frequency:    6.3521832097
  - # 8
    frequency:    7.4874492694
  - # 9
    frequency:    7.7768798918
  - # 10
    frequency:    7.8043451154
  - # 11
    frequency:    9.8645344524
  - # 12
    frequency:   12.1659003100
  - # 13
    frequency:   16.7747353663
  - # 14
    frequency:   17.9157427205
  - # 15
    frequency:   18.3212692133

- q-position: [    0.1414141,    0.0000000,    0.0000000 ]
  distance:    0.0503653
  band:
  - # 1
    frequency:    1.4694571739
  - # 2
    frequency:    2.2357768069
  - # 3
    frequency:    3.4969115465
  - # 4
    frequency:    4.6073813106
  - # 5
    frequency:    5.3971680424
  - # 6
    frequency:    5.7525273624
  - # 7
    frequency:    6.3561046599
  - # 8
    frequency:    7.5245787912
  - # 9
    frequency:    7.7840918407
  - # 10
    frequency:    7.8090860645
  - # 11
    frequency:    9.8624445690
  - # 12
    frequency:   12.1138374234
  - # 13
    frequency:   16.7589821881
  - # 14
    frequency:   17.9107700877
  - # 15
    frequency:   18.3314378260

- q-position: [    0.1464646,    0.0000000,    0.0000000 ]
  distance:    0.0521640
  band:
  - # 1
    frequency:    1.5530550554
  - # 2
    frequency:    2.3090856022
  - # 3
    frequency:    3.6131193838
  - # 4
    frequency:    4.6241943424
  - # 5
    frequency:    5.4499933896
  - # 6
    frequency:    5.7515314768
  - # 7
    frequency:    6.3601932965
  - # 8
    frequency:    7.5606610021
  - # 9
    frequency:    7.7915151197
  - # 10
    frequency:    7.8133062069
  - # 11
    frequency:    9.8603326638
  - # 12
    frequency:   12.0608683199
  - # 13
    frequency:   16.7430795118
  - # 14
    frequency:   17.9062525784
  - # 15
    frequency:   18.3407541056

- q-position: [    0.1515152,    0.0000000,    0.0000000 ]
  distance:    0.0539628
  band:
  - # 1
    frequency:    1.6374487043
  - # 2
    frequency:    2.3817724706
  - # 3
    frequency:    3.7279943205
  - # 4
    frequency:    4.6413142029
  - # 5
    frequency:    5.5022755275
  - # 6
    frequency:    5.7522694883
  - # 7
    frequency:    6.3644479094
  - # 8
    frequency:    7.5955561065
  - # 9
    frequency:    7.7992231462
  - # 10
    frequency:    7.8169711120
  - # 11
    frequency:    9.8582032651
  - # 12
    frequency:   12.0070886259
  - # 13
    frequency:   16.7270591137
  - # 14
    frequency:   17.9022313209
  - # 15
    frequency:   18.3491421259

- q-position: [    0.1565657,    0.0000000,    0.0000000 ]
  distance:    0.0557615
  band:
  - # 1
    frequency:    1.7225517576
  - # 2
    frequency:    2.4538246813
  - # 3
    frequency:    3.8414175667
  - # 4
    frequency:    4.6587184020
  - # 5
    frequency:    5.5537343038
  - # 6
    frequency:    5.7549420368
  - # 7
    frequency:    6.3688665355
  - # 8
    frequency:    7.6290852108
  - # 9
    frequency:    7.8073313290
  - # 10
    frequency:    7.8200503858
  - # 11
    frequency:    9.8560597995
  - # 12
    frequency:   11.9525959716
  - # 13
    frequency:   16.7109519289
  - # 14
    frequency:   17.8987450673
  - # 15
    frequency:   18.3565308721

- q-position: [    0.1616162,    0.0000000,    0.0000000 ]
  distance:    0.0575603
  band:
  - # 1
    frequency:    1.8082826423
  - # 2
    frequency:    2.5252299025
  - # 3
    frequency:    3.9532611750
  - # 4
    frequency:    4.6763843445
  - # 5
    frequency:    5.6038929109
  - # 6
    frequency:    5.7599559430
  - # 7
    frequency:    6.3734463736
  - # 8
    frequency:    7.6610102155
  - # 9
    frequency:    7.8160175376
  - # 10
    frequency:    7.8225178935
  - # 11
    frequency:    9.8539042655
  - # 12
    frequency:   11.8974899150
  - # 13
    frequency:   16.6947879440
  - # 14
    frequency:   17.8958299924
  - # 15
    frequency:   18.3628546081

- q-position: [    0.1666667,    0.0000000,    0.0000000 ]
  distance:    0.0593591
  band:
  - # 1
    frequency:    1.8945642333
  - # 2
    frequency:    2.5959761716
  - # 3
    frequency:    4.0633867820
  - # 4
    frequency:    4.6942893324
  - # 5
    frequency:    5.6517777795
  - # 6
    frequency:    5.7682256543
  - # 7
    frequency:    6.3781836985
  - # 8
    frequency:    7.6910073599
  - # 9
    frequency:    7.8243519544
  - # 10
    frequency:    7.8255489439
  - # 11
    frequency:    9.8517368785
  - # 12
    frequency:   11.8418718649
  - # 13
    frequency:   16.6785960982
  - # 14
    frequency:   17.8935195090
  - # 15
    frequency:   18.3680532052

- q-position: [    0.1717172,    0.0000000,    0.0000000 ]
  distance:    0.0611578
  band:
  - # 1
    frequency:    1.9813235311
  - # 2
    frequency:    2.6660518655
  - # 3
    frequency:    4.1716440417
  - # 4
    frequency:    4.7124105672
  - # 5
    frequency:    5.6951528816
  - # 6
    frequency:    5.7819406285
  - # 7
    frequency:    6.3830737764
  - # 8
    frequency:    7.7186445767
  - # 9
    frequency:    7.8255355100
  - # 10
    frequency:    7.8363050736
  - # 11
    frequency:    9.8495556960
  - # 12
    frequency:   11.7858450063
  - # 13
    frequency:   16.6624041905
  - # 14
    frequency:   17.8918441026
  - # 15
    frequency:   18.3720724334

- q-position: [    0.1767677,    0.0000000,    0.0000000 ]
  distance:    0.0629566
  band:
  - # 1
    frequency:    2.0684913595
  - # 2
    frequency:    2.7354456712
  - # 3
    frequency:    4.2778687062
  - # 4
    frequency:    4.7307251516
  - # 5
    frequency:    5.7298208137
  - # 6
    frequency:    5.8052663309
  - # 7
    frequency:    6.3881107842
  - # 8
    frequency:    7.7434000307
  - # 9
    frequency:    7.8260562625
  - # 10
    frequency:    7.8487596902
  - # 11
    frequency:    9.8473562235
  - # 12
    frequency:   11.7295142245
  - # 13
    frequency:   16.6462387946
  - # 14
    frequency:   17.8908311847
  - # 15
    frequency:   18.3748642116

- q-position: [    0.1818182,    0.0000000,    0.0000000 ]
  distance:    0.0647553
  band:
  - # 1
    frequency:    2.1560020832
  - # 2
    frequency:    2.8041465580
  - # 3
    frequency:    4.3818803223
  - # 4
    frequency:    4.7492100933
  - # 5
    frequency:    5.7538362980
  - # 6
    frequency:    5.8401332346
  - # 7
    frequency:    6.3932877340
  - # 8
    frequency:    7.7647926142
  - # 9
    frequency:    7.8259067829
  - # 10
    frequency:    7.8633507295
  - # 11
    frequency:    9.8451310126
  - # 12
    frequency:   11.6729860277
  - # 13
    frequency:   16.6301251793
  - # 14
    frequency:   17.8905049657
  - # 15
    frequency:   18.3763868169

- q-position: [    0.1868687,    0.0000000,    0.0000000 ]
  distance:    0.0665541
  band:
  - # 1
    frequency:    2.2437933456
  - # 2
    frequency:    2.8721437491
  - # 3
    frequency:    4.4834795537
  - # 4
    frequency:    4.7678423097
  - # 5
    frequency:    5.7716639594
  - # 6
    frequency:    5.8820819573
  - # 7
    frequency:    6.3985964062
  - # 8
    frequency:    7.7826391149
  - # 9
    frequency:    7.8250845879
  - # 10
    frequency:    7.8802235628
  - # 11
    frequency:    9.8428692575
  - # 12
    frequency:   11.6163684653
  - # 13
    frequency:   16.6140872353
  - # 14
    frequency:   17.8908863479
  - # 15
    frequency:   18.3766050519

- q-position: [    0.1919192,    0.0000000,    0.0000000 ]
  distance:    0.0683529
  band:
  - # 1
    frequency:    2.3318058250
  - # 2
    frequency:    2.9394266940
  - # 3
    frequency:    4.5824452254
  - # 4
    frequency:    4.7865986360
  - # 5
    frequency:    5.7877441074
  - # 6
    frequency:    5.9267007124
  - # 7
    frequency:    6.4040272933
  - # 8
    frequency:    7.7972369634
  - # 9
    frequency:    7.8235921845
  - # 10
    frequency:    7.8990486667
  - # 11
    frequency:    9.8405564036
  - # 12
    frequency:   11.5597710404
  - # 13
    frequency:   16.5981474078
  - # 14
    frequency:   17.8919928380
  - # 15
    frequency:   18.3754903686

- q-position: [    0.1969697,    0.0000000,    0.0000000 ]
  distance:    0.0701516
  band:
  - # 1
    frequency:    2.4199830082
  - # 2
    frequency:    3.0059850408
  - # 3
    frequency:    4.6785313348
  - # 4
    frequency:    4.8054558363
  - # 5
    frequency:    5.8041450982
  - # 6
    frequency:    5.9719762516
  - # 7
    frequency:    6.4095695565
  - # 8
    frequency:    7.8092391294
  - # 9
    frequency:    7.8214370792
  - # 10
    frequency:    7.9191471197
  - # 11
    frequency:    9.8381737803
  - # 12
    frequency:   11.5033046096
  - # 13
    frequency:   16.5823266343
  - # 14
    frequency:   17.8938384804
  - # 15
    frequency:   18.3730209502

- q-position: [    0.2020202,    0.0000000,    0.0000000 ]
  distance:    0.0719504
  band:
  - # 1
    frequency:    2.5082709812
  - # 2
    frequency:    3.0718086078
  - # 3
    frequency:    4.7714645388
  - # 4
    frequency:    4.8243906187
  - # 5
    frequency:    5.8218004327
  - # 6
    frequency:    6.0170596411
  - # 7
    frequency:    6.4152109999
  - # 8
    frequency:    7.8186317530
  - # 9
    frequency:    7.8193575309
  - # 10
    frequency:    7.9397875420
  - # 11
    frequency:    9.8356982775
  - # 12
    frequency:   11.4470812659
  - # 13
    frequency:   16.5666442872
  - # 14
    frequency:   17.8964338100
  - # 15
    frequency:   18.3691817477

- q-position: [    0.2070707,    0.0000000,    0.0000000 ]
  distance:    0.0737491
  band:
  - # 1
    frequency:    2.5966182342
  - # 2
    frequency:    3.1368873552
  - # 3
    frequency:    4.8433796556
  - # 4
    frequency:    4.8609430266
  - # 5
    frequency:    5.8412319165
  - # 6
    frequency:    6.0615446386
  - # 7
    frequency:    6.4209380625
  - # 8
    frequency:    7.8151935978
  - # 9
    frequency:    7.8281740140
  - # 10
    frequency:    7.9603754015
  - # 11
    frequency:    9.8331020823
  - # 12
    frequency:   11.3912141966
  - # 13
    frequency:   16.5511181219
  - # 14
    frequency:   17.8997858255
  - # 15
    frequency:   18.3639644754

- q-position: [    0.2121212,    0.0000000,    0.0000000 ]
  distance:    0.0755479
  band:
  - # 1
    frequency:    2.6849754809