nqpoint: 300    
npath: 3      
segment_nqpoint:
- 100
- 100
- 100
labels:
- [ 'G', 'M' ]
- [ 'M', 'K' ]
- [ 'K', 'G' ]
reciprocal_lattice:
- [   0.30843874,   0.17807719,   0.00000000 ] # a*
- [   0.00000000,   0.35615438,   0.00000000 ] # b*
- [   0.00000000,   0.00000000,   0.04249049 ] # c*
natom: 5      
lattice:
- [     3.242134870226039,     0.000000000000000,     0.000000000000000 ] # a
- [    -1.621067435113020,     2.807771160101865,     0.000000000000000 ] # b
- [     0.000000000000000,     0.000000000000000,    23.534675433576169 ] # c
points:
- symbol: C # 1
  coordinates: [  0.000000000000000,  0.000000000000000,  0.500000037761830 ]
  mass: 12.010700
- symbol: Cl # 2
  coordinates: [  0.333332985432215,  0.666666983183674,  0.617585548379393 ]
  mass: 35.453000
- symbol: Cl # 3
  coordinates: [  0.666666984744047,  0.333332985985145,  0.382414451620607 ]
  mass: 35.453000
- symbol: Ti # 4
  coordinates: [  0.333332985432215,  0.666666983183674,  0.453659369834047 ]
  mass: 47.867000
- symbol: Ti # 5
  coordinates: [  0.666666984744047,  0.333332985985145,  0.546340629602333 ]
  mass: 47.867000

phonon:
- q-position: [    0.0000000,    0.0000000,    0.0000000 ]
  distance:    0.0000000
  band:
  - # 1
    frequency:   -0.0000025897
  - # 2
    frequency:   -0.0000003799
  - # 3
    frequency:    0.0000026271
  - # 4
    frequency:    4.0957909430
  - # 5
    frequency:    4.0957909430
  - # 6
    frequency:    6.2485801739
  - # 7
    frequency:    6.2485801739
  - # 8
    frequency:    6.4719881850
  - # 9
    frequency:    7.7395314314
  - # 10
    frequency:    7.7395314314
  - # 11
    frequency:    9.8664343327
  - # 12
    frequency:   13.0151547705
  - # 13
    frequency:   16.9967270795
  - # 14
    frequency:   17.6905710398
  - # 15
    frequency:   17.6905710398

- q-position: [    0.0050505,    0.0000000,    0.0000000 ]
  distance:    0.0017988
  band:
  - # 1
    frequency:   -0.0263755559
  - # 2
    frequency:    0.0849141407
  - # 3
    frequency:    0.1294961061
  - # 4
    frequency:    4.0964383769
  - # 5
    frequency:    4.0981216267
  - # 6
    frequency:    6.2433775250
  - # 7
    frequency:    6.2486118010
  - # 8
    frequency:    6.4778773428
  - # 9
    frequency:    7.7395988502
  - # 10
    frequency:    7.7396055217
  - # 11
    frequency:    9.8664740047
  - # 12
    frequency:   13.0138008429
  - # 13
    frequency:   16.9963798477
  - # 14
    frequency:   17.6910223259
  - # 15
    frequency:   17.6917040287

- q-position: [    0.0101010,    0.0000000,    0.0000000 ]
  distance:    0.0035975
  band:
  - # 1
    frequency:   -0.0518117344
  - # 2
    frequency:    0.1698025971
  - # 3
    frequency:    0.2589732177
  - # 4
    frequency:    4.0983782591
  - # 5
    frequency:    4.1050917746
  - # 6
    frequency:    6.2291784086
  - # 7
    frequency:    6.2487068758
  - # 8
    frequency:    6.4941352502
  - # 9
    frequency:    7.7398005186
  - # 10
    frequency:    7.7398275380
  - # 11
    frequency:    9.8665924368
  - # 12
    frequency:   13.0097423844
  - # 13
    frequency:   16.9953385508
  - # 14
    frequency:   17.6923727604
  - # 15
    frequency:   17.6950952405

- q-position: [    0.0151515,    0.0000000,    0.0000000 ]
  distance:    0.0053963
  band:
  - # 1
    frequency:   -0.0753357719
  - # 2
    frequency:    0.2546397739
  - # 3
    frequency:    0.3884121503
  - # 4
    frequency:    4.1016033534
  - # 5
    frequency:    4.1166365052
  - # 6
    frequency:    6.2088785955
  - # 7
    frequency:    6.2488659797
  - # 8
    frequency:    6.5178639370
  - # 9
    frequency:    7.7401346771
  - # 10
    frequency:    7.7401967125
  - # 11
    frequency:    9.8667878783
  - # 12
    frequency:   13.0029893513
  - # 13
    frequency:   16.9936044291
  - # 14
    frequency:   17.6946121027
  - # 15
    frequency:   17.7007214341

- q-position: [    0.0202020,    0.0000000,    0.0000000 ]
  distance:    0.0071950
  band:
  - # 1
    frequency:   -0.0958970813
  - # 2
    frequency:    0.3394002517
  - # 3
    frequency:    0.5177933392
  - # 4
    frequency:    4.1061016730
  - # 5
    frequency:    4.1326503701
  - # 6
    frequency:    6.1850237480
  - # 7
    frequency:    6.2490900833
  - # 8
    frequency:    6.5465141029
  - # 9
    frequency:    7.7405984107
  - # 10
    frequency:    7.7407117544
  - # 11
    frequency:    9.8670574186
  - # 12
    frequency:   12.9935582820
  - # 13
    frequency:   16.9911796916
  - # 14
    frequency:   17.6977233894
  - # 15
    frequency:   17.7085439607

- q-position: [    0.0252525,    0.0000000,    0.0000000 ]
  distance:    0.0089938
  band:
  - # 1
    frequency:   -0.1122943896
  - # 2
    frequency:    0.4240588693
  - # 3
    frequency:    0.6470966480
  - # 4
    frequency:    4.1118565899
  - # 5
    frequency:    4.1529911375
  - # 6
    frequency:    6.1593002958
  - # 7
    frequency:    6.2493805505
  - # 8
    frequency:    6.5783942817
  - # 9
    frequency:    7.7411876738
  - # 10
    frequency:    7.7413708334
  - # 11
    frequency:    9.8673969982
  - # 12
    frequency:   12.9814722158
  - # 13
    frequency:   16.9880677044
  - # 14
    frequency:   17.7016830888
  - # 15
    frequency:   17.7185089129

- q-position: [    0.0303030,    0.0000000,    0.0000000 ]
  distance:    0.0107926
  band:
  - # 1
    frequency:   -0.1230368907
  - # 2
    frequency:    0.5085907990
  - # 3
    frequency:    0.7763011761
  - # 4
    frequency:    4.1188469845
  - # 5
    frequency:    4.1774846336
  - # 6
    frequency:    6.1327351541
  - # 7
    frequency:    6.2497391413
  - # 8
    frequency:    6.6124711762
  - # 9
    frequency:    7.7418973254
  - # 10
    frequency:    7.7421715594
  - # 11
    frequency:    9.8678014242
  - # 12
    frequency:   12.9667605810
  - # 13
    frequency:   16.9842732150
  - # 14
    frequency:   17.7064613163
  - # 15
    frequency:   17.7305473673

- q-position: [    0.0353535,    0.0000000,    0.0000000 ]
  distance:    0.0125913
  band:
  - # 1
    frequency:   -0.1260361825
  - # 2
    frequency:    0.5929716138
  - # 3
    frequency:    0.9053850636
  - # 4
    frequency:    4.1270474347
  - # 5
    frequency:    4.2059302672
  - # 6
    frequency:    6.1059548868
  - # 7
    frequency:    6.2501680170
  - # 8
    frequency:    6.6481105569
  - # 9
    frequency:    7.7427211733
  - # 10
    frequency:    7.7431109593
  - # 11
    frequency:    9.8682643918
  - # 12
    frequency:   12.9494590560
  - # 13
    frequency:   16.9798025781
  - # 14
    frequency:   17.7120221074
  - # 15
    frequency:   17.7445757445

- q-position: [    0.0404040,    0.0000000,    0.0000000 ]
  distance:    0.0143901
  band:
  - # 1
    frequency:   -0.1177553397
  - # 2
    frequency:    0.6771773439
  - # 3
    frequency:    1.0343252939
  - # 4
    frequency:    4.1364284392
  - # 5
    frequency:    4.2381068551
  - # 6
    frequency:    6.0793556388
  - # 7
    frequency:    6.2506697432
  - # 8
    frequency:    6.6849074004
  - # 9
    frequency:    7.7436520255
  - # 10
    frequency:    7.7441854540
  - # 11
    frequency:    9.8687785112
  - # 12
    frequency:   12.9296094053
  - # 13
    frequency:   16.9746639568
  - # 14
    frequency:   17.7183237465
  - # 15
    frequency:   17.7604963079

- q-position: [    0.0454545,    0.0000000,    0.0000000 ]
  distance:    0.0161888
  band:
  - # 1
    frequency:   -0.0896333490
  - # 2
    frequency:    0.7611845220
  - # 3
    frequency:    1.1630974945
  - # 4
    frequency:    4.1469566733
  - # 5
    frequency:    4.2737783941
  - # 6
    frequency:    6.0531997184
  - # 7
    frequency:    6.2512472938
  - # 8
    frequency:    6.7225893783
  - # 9
    frequency:    7.7446817504
  - # 10
    frequency:    7.7453908375
  - # 11
    frequency:    9.8693353421
  - # 12
    frequency:   12.9072592933
  - # 13
    frequency:   16.9688674763
  - # 14
    frequency:   17.7253191489
  - # 15
    frequency:   17.7781978107

- q-position: [    0.0505051,    0.0000000,    0.0000000 ]
  distance:    0.0179876
  band:
  - # 1
    frequency:    0.0519250778
  - # 2
    frequency:    0.8449702159
  - # 3
    frequency:    1.2916757320
  - # 4
    frequency:    4.1585952716
  - # 5
    frequency:    4.3126994922
  - # 6
    frequency:    6.0276692142
  - # 7
    frequency:    6.2519040521
  - # 8
    frequency:    6.7609633121
  - # 9
    frequency:    7.7458013423
  - # 10
    frequency:    7.7467222620
  - # 11
    frequency:    9.8699254347
  - # 12
    frequency:   12.8824620802
  - # 13
    frequency:   16.9624253164
  - # 14
    frequency:   17.7329562917
  - # 15
    frequency:   17.7975562964

- q-position: [    0.0555556,    0.0000000,    0.0000000 ]
  distance:    0.0197864
  band:
  - # 1
    frequency:    0.1393688081
  - # 2
    frequency:    0.9285120476
  - # 3
    frequency:    1.4200323055
  - # 4
    frequency:    4.1713041348
  - # 5
    frequency:    4.3546202475
  - # 6
    frequency:    6.0028962453
  - # 7
    frequency:    6.2526438106
  - # 8
    frequency:    6.7998849893
  - # 9
    frequency:    7.7470009933
  - # 10
    frequency:    7.7481742310
  - # 11
    frequency:    9.8705383800
  - # 12
    frequency:   12.8552766018
  - # 13
    frequency:   16.9553517386
  - # 14
    frequency:   17.7411786900
  - # 15
    frequency:   17.8184360446

- q-position: [    0.0606061,    0.0000000,    0.0000000 ]
  distance:    0.0215851
  band:
  - # 1
    frequency:    0.2079450831
  - # 2
    frequency:    1.0117881989
  - # 3
    frequency:    1.5481375331
  - # 4
    frequency:    4.1850402546
  - # 5
    frequency:    4.3992904437
  - # 6
    frequency:    5.9789805483
  - # 7
    frequency:    6.2534707672
  - # 8
    frequency:    6.8392416364
  - # 9
    frequency:    7.7482701692
  - # 10
    frequency:    7.7497406041
  - # 11
    frequency:    9.8711628676
  - # 12
    frequency:   12.8257669362
  - # 13
    frequency:   16.9476630499
  - # 14
    frequency:   17.7499259152
  - # 15
    frequency:   17.8406906466

- q-position: [    0.0656566,    0.0000000,    0.0000000 ]
  distance:    0.0233839
  band:
  - # 1
    frequency:    0.2742603409
  - # 2
    frequency:    1.0947774041
  - # 3
    frequency:    1.6759595342
  - # 4
    frequency:    4.1997580529
  - # 5
    frequency:    4.4464630086
  - # 6
    frequency:    5.9560000584
  - # 7
    frequency:    6.2543895178
  - # 8
    frequency:    6.8789413860
  - # 9
    frequency:    7.7495976891
  - # 10
    frequency:    7.7514146165
  - # 11
    frequency:    9.8717867545
  - # 12
    frequency:   12.7940021608
  - # 13
    frequency:   16.9393775109
  - # 14
    frequency:   17.7591341485
  - # 15
    frequency:   17.8641641939

- q-position: [    0.0707071,    0.0000000,    0.0000000 ]
  distance:    0.0251826
  band:
  - # 1
    frequency:    0.3411595758
  - # 2
    frequency:    1.1774589288
  - # 3
    frequency:    1.8034640044
  - # 4
    frequency:    4.2154097316
  - # 5
    frequency:    4.4958967354
  - # 6
    frequency:    5.9340175043
  - # 7
    frequency:    6.2554050448
  - # 8
    frequency:    6.9189067204
  - # 9
    frequency:    7.7509718076
  - # 10
    frequency:    7.7531889153
  - # 11
    frequency:    9.8723971429
  - # 12
    frequency:   12.7600561007
  - # 13
    frequency:   16.9305151987
  - # 14
    frequency:   17.7687367666
  - # 15
    frequency:   17.8886925542

- q-position: [    0.0757576,    0.0000000,    0.0000000 ]
  distance:    0.0269814
  band:
  - # 1
    frequency:    0.4095616609
  - # 2
    frequency:    1.2598125373
  - # 3
    frequency:    1.9306139832
  - # 4
    frequency:    4.2319456269
  - # 5
    frequency:    4.5473583138
  - # 6
    frequency:    5.9130846664
  - # 7
    frequency:    6.2565226999
  - # 8
    frequency:    6.9590702388
  - # 9
    frequency:    7.7523802993
  - # 10
    frequency:    7.7550556154
  - # 11
    frequency:    9.8729804683
  - # 12
    frequency:   12.7240070706
  - # 13
    frequency:   16.9210978348
  - # 14
    frequency:   17.7786649534
  - # 15
    frequency:   17.9141047142

- q-position: [    0.0808081,    0.0000000,    0.0000000 ]
  distance:    0.0287802
  band:
  - # 1
    frequency:    0.4797942299
  - # 2
    frequency:    1.3418184485
  - # 3
    frequency:    2.0573696124
  - # 4
    frequency:    4.2493145655
  - # 5
    frequency:    4.6006237435
  - # 6
    frequency:    5.8932452293
  - # 7
    frequency:    6.2577481813
  - # 8
    frequency:    6.9993718210
  - # 9
    frequency:    7.7538105432
  - # 10
    frequency:    7.7570063769
  - # 11
    frequency:    9.8735225980
  - # 12
    frequency:   12.6859376121
  - # 13
    frequency:   16.9111485902
  - # 14
    frequency:   17.7888483315
  - # 15
    frequency:   17.9402241662

- q-position: [    0.0858586,    0.0000000,    0.0000000 ]
  distance:    0.0305789
  band:
  - # 1
    frequency:    0.5519469445
  - # 2
    frequency:    1.4234572819
  - # 3
    frequency:    2.1836878829
  - # 4
    frequency:    4.2674642183
  - # 5
    frequency:    4.6554792169
  - # 6
    frequency:    5.8745367672
  - # 7
    frequency:    6.2590875046
  - # 8
    frequency:    7.0397566501
  - # 9
    frequency:    7.7552496080
  - # 10
    frequency:    7.7590325061
  - # 11
    frequency:    9.8740089395
  - # 12
    frequency:   12.6459342265
  - # 13
    frequency:   16.9006918752
  - # 14
    frequency:   17.7992156089
  - # 15
    frequency:   17.9668703182

- q-position: [    0.0909091,    0.0000000,    0.0000000 ]
  distance:    0.0323777
  band:
  - # 1
    frequency:    0.6259995698
  - # 2
    frequency:    1.5047099962
  - # 3
    frequency:    2.3095223686
  - # 4
    frequency:    4.2863414477
  - # 5
    frequency:    4.7117215604
  - # 6
    frequency:    5.8569921857
  - # 7
    frequency:    6.2605469674
  - # 8
    frequency:    7.0801737763
  - # 9
    frequency:    7.7566843373
  - # 10
    frequency:    7.7611250800
  - # 11
    frequency:    9.8744245584
  - # 12
    frequency:   12.6040871044
  - # 13
    frequency:   16.8897531216
  - # 14
    frequency:   17.8096952337
  - # 15
    frequency:   17.9938599118

- q-position: [    0.0959596,    0.0000000,    0.0000000 ]
  distance:    0.0341764
  band:
  - # 1
    frequency:    0.7018775078
  - # 2
    frequency:    1.5855578210
  - # 3
    frequency:    2.4348229439
  - # 4
    frequency:    4.3058926466
  - # 5
    frequency:    4.7691583195
  - # 6
    frequency:    5.8406408220
  - # 7
    frequency:    6.2621331059
  - # 8
    frequency:    7.1205750274
  - # 9
    frequency:    7.7581014324
  - # 10
    frequency:    7.7632750968
  - # 11
    frequency:    9.8747543047
  - # 12
    frequency:   12.5604898526
  - # 13
    frequency:   16.8783585644
  - # 14
    frequency:   17.8202160520
  - # 15
    frequency:   18.0210084298

- q-position: [    0.1010101,    0.0000000,    0.0000000 ]
  distance:    0.0359752
  band:
  - # 1
    frequency:    0.7794788130
  - # 2
    frequency:    1.6659821837
  - # 3
    frequency:    2.5595354797
  - # 4
    frequency:    4.3260640651
  - # 5
    frequency:    4.8276075676
  - # 6
    frequency:    5.8255093310
  - # 7
    frequency:    6.2638526452
  - # 8
    frequency:    7.1609141460
  - # 9
    frequency:    7.7594875354
  - # 10
    frequency:    7.7654736512
  - # 11
    frequency:    9.8749829465
  - # 12
    frequency:   12.5152392177
  - # 13
    frequency:   16.8665350254
  - # 14
    frequency:   17.8307079615
  - # 15
    frequency:   18.0481314825

- q-position: [    0.1060606,    0.0000000,    0.0000000 ]
  distance:    0.0377739
  band:
  - # 1
    frequency:    0.8586883848
  - # 2
    frequency:    1.7459646353
  - # 3
    frequency:    2.6836015152
  - # 4
    frequency:    4.3468021230
  - # 5
    frequency:    4.8868975010
  - # 6
    frequency:    5.8116224454
  - # 7
    frequency:    6.2657124424
  - # 8
    frequency:    7.2011460788
  - # 9
    frequency:    7.7608293090
  - # 10
    frequency:    7.7677121364
  - # 11
    frequency:    9.8750953095
  - # 12
    frequency:   12.4684348079
  - # 13
    frequency:   16.8543097037
  - # 14
    frequency:   17.8411025561
  - # 15
    frequency:   18.0750461611

- q-position: [    0.1111111,    0.0000000,    0.0000000 ]
  distance:    0.0395727
  band:
  - # 1
    frequency:    0.9393858055
  - # 2
    frequency:    1.8254867739
  - # 3
    frequency:    2.8069578963
  - # 4
    frequency:    4.3680537067
  - # 5
    frequency:    4.9468658764
  - # 6
    frequency:    5.7990036736
  - # 7
    frequency:    6.2677194219
  - # 8
    frequency:    7.2412263676
  - # 9
    frequency:    7.7621135149
  - # 10
    frequency:    7.7699824726
  - # 11
    frequency:    9.8750764206
  - # 12
    frequency:   12.4201788111
  - # 13
    frequency:   16.8417099737
  - # 14
    frequency:   17.8513337543
  - # 15
    frequency:   18.1015723482

- q-position: [    0.1161616,    0.0000000,    0.0000000 ]
  distance:    0.0413715
  band:
  - # 1
    frequency:    1.0214497904
  - # 2
    frequency:    1.9045301713
  - # 3
    frequency:    2.9295363752
  - # 4
    frequency:    4.3897664481
  - # 5
    frequency:    5.0073593308
  - # 6
    frequency:    5.7876759858
  - # 7
    frequency:    6.2698805049
  - # 8
    frequency:    7.2811106126
  - # 9
    frequency:    7.7633270899
  - # 10
    frequency:    7.7722773632
  - # 11
    frequency:    9.8749116528
  - # 12
    frequency:   12.3705757117
  - # 13
    frequency:   16.8287631933
  - # 14
    frequency:   17.8613384073
  - # 15
    frequency:   18.1275339773

- q-position: [    0.1212121,    0.0000000,    0.0000000 ]
  distance:    0.0431702
  band:
  - # 1
    frequency:    1.1047607348
  - # 2
    frequency:    1.9830763016
  - # 3
    frequency:    3.0512631580
  - # 4
    frequency:    4.4118889850
  - # 5
    frequency:    5.0682326083
  - # 6
    frequency:    5.7776625369
  - # 7
    frequency:    6.2722025316
  - # 8
    frequency:    7.3207539829
  - # 9
    frequency:    7.7644572187
  - # 10
    frequency:    7.7745905829
  - # 11
    frequency:    9.8745868700
  - # 12
    frequency:   12.3197320040
  - # 13
    frequency:   16.8154965234
  - # 14
    frequency:   17.8710568786
  - # 15
    frequency:   18.1527602355

- q-position: [    0.1262626,    0.0000000,    0.0000000 ]
  distance:    0.0449690
  band:
  - # 1
    frequency:    1.1892021454
  - # 2
    frequency:    2.0611064752
  - # 3
    frequency:    3.1720583888
  - # 4
    frequency:    4.4343712014
  - # 5
    frequency:    5.1293477038
  - # 6
    frequency:    5.7689874763
  - # 7
    frequency:    6.2746921785
  - # 8
    frequency:    7.3601107565
  - # 9
    frequency:    7.7654914050
  - # 10
    frequency:    7.7769173025
  - # 11
    frequency:    9.8740885676
  - # 12
    frequency:   12.2677559031
  - # 13
    frequency:   16.8019367590
  - # 14
    frequency:   17.8804335930
  - # 15
    frequency:   18.1770867006

- q-position: [    0.1313131,    0.0000000,    0.0000000 ]
  distance:    0.0467677
  band:
  - # 1
    frequency:    1.2746614035
  - # 2
    frequency:    2.1386017800
  - # 3
    frequency:    3.2918355539
  - # 4
    frequency:    4.4571644476
  - # 5
    frequency:    5.1905729068
  - # 6
    frequency:    5.7616769156
  - # 7
    frequency:    6.2773558702
  - # 8
    frequency:    7.3991338699
  - # 9
    frequency:    7.7664175392
  - # 10
    frequency:    7.7792544622
  - # 11
    frequency:    9.8734040073
  - # 12
    frequency:   12.2147570537
  - # 13
    frequency:   16.7881101743
  - # 14
    frequency:   17.8894175467
  - # 15
    frequency:   18.2003564096

- q-position: [    0.1363636,    0.0000000,    0.0000000 ]
  distance:    0.0485665
  band:
  - # 1
    frequency:    1.3610301190
  - # 2
    frequency:    2.2155430289
  - # 3
    frequency:    3.4105007840
  - # 4
    frequency:    4.4802217393
  - # 5
    frequency:    5.2517816872
  - # 6
    frequency:    5.7557601580
  - # 7
    frequency:    6.2801996868
  - # 8
    frequency:    7.4377744482
  - # 9
    frequency:    7.7672239636
  - # 10
    frequency:    7.7816012184
  - # 11
    frequency:    9.8725213417
  - # 12
    frequency:   12.1608462372
  - # 13
    frequency:   16.7740423811
  - # 14
    frequency:   17.8979627770
  - # 15
    frequency:   18.2224208531

- q-position: [    0.1414141,    0.0000000,    0.0000000 ]
  distance:    0.0503653
  band:
  - # 1
    frequency:    1.4482042385
  - # 2
    frequency:    2.2919107175
  - # 3
    frequency:    3.5279520308
  - # 4
    frequency:    4.5034979354
  - # 5
    frequency:    5.3128512830
  - # 6
    frequency:    5.7512713763
  - # 7
    frequency:    6.2832292682
  - # 8
    frequency:    7.4759812684
  - # 9
    frequency:    7.7678995347
  - # 10
    frequency:    7.7839595061
  - # 11
    frequency:    9.8714297272
  - # 12
    frequency:   12.1061350761
  - # 13
    frequency:   16.7597582017
  - # 14
    frequency:   17.9060287844
  - # 15
    frequency:   18.2431408900

- q-position: [    0.1464646,    0.0000000,    0.0000000 ]
  distance:    0.0521640
  band:
  - # 1
    frequency:    1.5360840039
  - # 2
    frequency:    2.3676849912
  - # 3
    frequency:    3.6440780870
  - # 4
    frequency:    4.5269498950
  - # 5
    frequency:    5.3736606636
  - # 6
    frequency:    5.7482521127
  - # 7
    frequency:    6.2864497166
  - # 8
    frequency:    7.5137000603
  - # 9
    frequency:    7.7684336830
  - # 10
    frequency:    7.7863348099
  - # 11
    frequency:    9.8701194204
  - # 12
    frequency:   12.0507357381
  - # 13
    frequency:   16.7452815578
  - # 14
    frequency:   17.9135809051
  - # 15
    frequency:   18.2623875804

- q-position: [    0.1515152,    0.0000000,    0.0000000 ]
  distance:    0.0539628
  band:
  - # 1
    frequency:    1.6245738281
  - # 2
    frequency:    2.4428456219
  - # 3
    frequency:    3.7587574136
  - # 4
    frequency:    4.5505366124
  - # 5
    frequency:    5.4340870706
  - # 6
    frequency:    5.7467554430
  - # 7
    frequency:    6.2898654974
  - # 8
    frequency:    7.5508724554
  - # 9
    frequency:    7.7688164693
  - # 10
    frequency:    7.7887373327
  - # 11
    frequency:    9.8685818548
  - # 12
    frequency:   11.9947606390
  - # 13
    frequency:   16.7306353756
  - # 14
    frequency:   17.9205906303
  - # 15
    frequency:   18.2800429318

- q-position: [    0.1565657,    0.0000000,    0.0000000 ]
  distance:    0.0557615
  band:
  - # 1
    frequency:    1.7135821264
  - # 2
    frequency:    2.5173719966
  - # 3
    frequency:    3.8718567349
  - # 4
    frequency:    4.5742193313
  - # 5
    frequency:    5.4939990001
  - # 6
    frequency:    5.7468539966
  - # 7
    frequency:    6.2934803404
  - # 8
    frequency:    7.5874341539
  - # 9
    frequency:    7.7690386392
  - # 10
    frequency:    7.7911839870
  - # 11
    frequency:    9.8668096972
  - # 12
    frequency:   11.9383221452
  - # 13
    frequency:   16.7158415073
  - # 14
    frequency:   17.9270358686
  - # 15
    frequency:   18.2960005569

- q-position: [    0.1616162,    0.0000000,    0.0000000 ]
  distance:    0.0575603
  band:
  - # 1
    frequency:    1.8030211337
  - # 2
    frequency:    2.5912431153
  - # 3
    frequency:    3.9832293579
  - # 4
    frequency:    4.5979616375
  - # 5
    frequency:    5.5532390056
  - # 6
    frequency:    5.7486584987
  - # 7
    frequency:    6.2972971426
  - # 8
    frequency:    7.6233112712
  - # 9
    frequency:    7.7690916739
  - # 10
    frequency:    7.7937022457
  - # 11
    frequency:    9.8647968770
  - # 12
    frequency:   11.8815322767
  - # 13
    frequency:   16.7009206701
  - # 14
    frequency:   17.9329011491
  - # 15
    frequency:   18.3101662385

- q-position: [    0.1666667,    0.0000000,    0.0000000 ]
  distance:    0.0593591
  band:
  - # 1
    frequency:    1.8928067208
  - # 2
    frequency:    2.6644376003
  - # 3
    frequency:    4.0927131782
  - # 4
    frequency:    4.6217295307
  - # 5
    frequency:    5.6115713037
  - # 6
    frequency:    5.7523719030
  - # 7
    frequency:    6.3013178737
  - # 8
    frequency:    7.6584120506
  - # 9
    frequency:    7.7689678392
  - # 10
    frequency:    7.7963386625
  - # 11
    frequency:    9.8625385903
  - # 12
    frequency:   11.8245024112
  - # 13
    frequency:   16.6858924038
  - # 14
    frequency:   17.9381777645
  - # 15
    frequency:   18.3224584005

- q-position: [    0.1717172,    0.0000000,    0.0000000 ]
  distance:    0.0611578
  band:
  - # 1
    frequency:    1.9828582241
  - # 2
    frequency:    2.7369337152
  - # 3
    frequency:    4.2001283457
  - # 4
    frequency:    4.6454914746
  - # 5
    frequency:    5.6684668780
  - # 6
    frequency:    5.7585064492
  - # 7
    frequency:    6.3055434863
  - # 8
    frequency:    7.6926051213
  - # 9
    frequency:    7.7686602305
  - # 10
    frequency:    7.7991808751
  - # 11
    frequency:    9.8600312731
  - # 12
    frequency:   11.7673429889
  - # 13
    frequency:   16.6707750460
  - # 14
    frequency:   17.9428638517
  - # 15
    frequency:   18.3328084816

- q-position: [    0.1767677,    0.0000000,    0.0000000 ]
  distance:    0.0629566
  band:
  - # 1
    frequency:    2.0730982923
  - # 2
    frequency:    2.8087093934
  - # 3
    frequency:    4.3052746034
  - # 4
    frequency:    4.6692184270
  - # 5
    frequency:    5.7217188351
  - # 6
    frequency:    5.7692708906
  - # 7
    frequency:    6.3099738309
  - # 8
    frequency:    7.7256507256
  - # 9
    frequency:    7.7681628160
  - # 10
    frequency:    7.8024266636
  - # 11
    frequency:    9.8572725452
  - # 12
    frequency:   11.7101632188
  - # 13
    frequency:   16.6555857253
  - # 14
    frequency:   17.9469644081
  - # 15
    frequency:   18.3411612109

- q-position: [    0.1818182,    0.0000000,    0.0000000 ]
  distance:    0.0647553
  band:
  - # 1
    frequency:    2.1634527563
  - # 2
    frequency:    2.8797422752
  - # 3
    frequency:    4.4079283777
  - # 4
    frequency:    4.6928838476
  - # 5
    frequency:    5.7587924831
  - # 6
    frequency:    5.7972233464
  - # 7
    frequency:    6.3146075787
  - # 8
    frequency:    7.7569193953
  - # 9
    frequency:    7.7674704768
  - # 10
    frequency:    7.8066655718
  - # 11
    frequency:    9.8542611228
  - # 12
    frequency:   11.6530707872
  - # 13
    frequency:   16.6403403739
  - # 14
    frequency:   17.9504912462
  - # 15
    frequency:   18.3474747827

- q-position: [    0.1868687,    0.0000000,    0.0000000 ]
  distance:    0.0665541
  band:
  - # 1
    frequency:    2.2538505205
  - # 2
    frequency:    2.9500097526
  - # 3
    frequency:    4.5078398340
  - # 4
    frequency:    4.7164636863
  - # 5
    frequency:    5.7760098979
  - # 6
    frequency:    5.8460898138
  - # 7
    frequency:    6.3194421524
  - # 8
    frequency:    7.7665790437
  - # 9
    frequency:    7.7839174523
  - # 10
    frequency:    7.8143537087
  - # 11
    frequency:    9.8509967007
  - # 12
    frequency:   11.5961715663
  - # 13
    frequency:   16.6250537567
  - # 14
    frequency:   17.9534628829
  - # 15
    frequency:   18.3517209298

- q-position: [    0.1919192,    0.0000000,    0.0000000 ]
  distance:    0.0683529
  band:
  - # 1
    frequency:    2.3442234787
  - # 2
    frequency:    3.0194890209
  - # 3
    frequency:    4.6047303254
  - # 4
    frequency:    4.7399363493
  - # 5
    frequency:    5.7905951691
  - # 6
    frequency:    5.8987217298
  - # 7
    frequency:    6.3244736671
  - # 8
    frequency:    7.7654853318
  - # 9
    frequency:    7.7997498150
  - # 10
    frequency:    7.8323512320
  - # 11
    frequency:    9.8474798068
  - # 12
    frequency:   11.5395693238
  - # 13
    frequency:   16.6097395186
  - # 14
    frequency:   17.9559043680
  - # 15
    frequency:   18.3538848944

- q-position: [    0.1969697,    0.0000000,    0.0000000 ]
  distance:    0.0701516
  band:
  - # 1
    frequency:    2.4345064508
  - # 2
    frequency:    3.0881571356
  - # 3
    frequency:    4.6982910071
  - # 4
    frequency:    4.7632826457
  - # 5
    frequency:    5.8065655747
  - # 6
    frequency:    5.9512065726
  - # 7
    frequency:    6.3296968820
  - # 8
    frequency:    7.7641871711
  - # 9
    frequency:    7.8066165177
  - # 10
    frequency:    7.8584260916
  - # 11
    frequency:    9.8437116317
  - # 12
    frequency:   11.4833654322
  - # 13
    frequency:   16.5944102477
  - # 14
    frequency:   17.9578470492
  - # 15
    frequency:   18.3539652956

- q-position: [    0.2020202,    0.0000000,    0.0000000 ]
  distance:    0.0719504
  band:
  - # 1
    frequency:    2.5246371402
  - # 2
    frequency:    3.1559910745
  - # 3
    frequency:    4.7864857125
  - # 4
    frequency:    4.7881838661
  - # 5
    frequency:    5.8247912482
  - # 6
    frequency:    6.0028077039
  - # 7
    frequency:    6.3351051645
  - # 8
    frequency:    7.7626834343
  - # 9
    frequency:    7.8111865293
  - # 10
    frequency:    7.8858804284
  - # 11
    frequency:    9.8396938394
  - # 12
    frequency:   11.4276585748
  - # 13
    frequency:   16.5790775535
  - # 14
    frequency:   17.9593282792
  - # 15
    frequency:   18.3519738944

- q-position: [    0.2070707,    0.0000000,    0.0000000 ]
  distance:    0.0737491
  band:
  - # 1
    frequency:    2.6145561084
  - # 2
    frequency:    3.2229678026
  - # 3
    frequency:    4.8095309199
  - # 4
    frequency:    4.8740469864
  - # 5
    frequency:    5.8456869118
  - # 6
    frequency:    6.0532680699
  - # 7
    frequency:    6.3406904673
  - # 8
    frequency:    7.7609740616
  - # 9
    frequency:    7.8152700867
  - # 10
    frequency:    7.9128783921
  - # 11
    frequency:    9.8354283665
  - # 12
    frequency:   11.3725444483
  - # 13
    frequency:   16.5637521581
  - # 14
    frequency:   17.9603910642
  - # 15
    frequency:   18.3479352560

- q-position: [    0.2121212,    0.0000000,    0.0000000 ]
  distance:    0.0755479
  band:
  - # 1
    frequency:    2.7042067657