nqpoint: 300    
npath: 3      
segment_nqpoint:
- 100
- 100
- 100
labels:
- [ 'G', 'M' ]
- [ 'M', 'K' ]
- [ 'K', 'G' ]
reciprocal_lattice:
- [   0.29691186,   0.17142214,   0.00000000 ] # a*
- [   0.00000000,   0.34284428,   0.00000000 ] # b*
- [   0.00000000,   0.00000000,   0.03917463 ] # c*
natom: 7      
lattice:
- [     3.368002885014410,     0.000000000000000,     0.000000000000000 ] # a
- [    -1.684001442507205,     2.916776058439416,     0.000000000000000 ] # b
- [     0.000000000000000,     0.000000000000000,    25.526726131132790 ] # c
points:
- symbol: C # 1
  coordinates: [  0.000000000000000,  0.000000000000000,  0.491698669512273 ]
  mass: 12.010700
- symbol: C # 2
  coordinates: [  0.333332985432215,  0.666666983183674,  0.600247688925525 ]
  mass: 12.010700
- symbol: H # 3
  coordinates: [  0.666666984744048,  0.333332985985145,  0.352571651913618 ]
  mass: 1.007940
- symbol: N # 4
  coordinates: [  0.333332985432215,  0.666666983183674,  0.647428348086382 ]
  mass: 14.006700
- symbol: O # 5
  coordinates: [  0.666666984744048,  0.333332985985145,  0.391213480234783 ]
  mass: 15.999400
- symbol: Zr # 6
  coordinates: [  0.333332985432215,  0.666666983183674,  0.443909967159620 ]
  mass: 91.224000
- symbol: Zr # 7
  coordinates: [  0.666666984744048,  0.333332985985145,  0.541532467416540 ]
  mass: 91.224000

phonon:
- q-position: [    0.0000000,    0.0000000,    0.0000000 ]
  distance:    0.0000000
  band:
  - # 1
    frequency:   -0.0000100365
  - # 2
    frequency:   -0.0000003599
  - # 3
    frequency:    0.0000078880
  - # 4
    frequency:    1.5947951227
  - # 5
    frequency:    1.5947951227
  - # 6
    frequency:    4.6898441617
  - # 7
    frequency:    4.6898441617
  - # 8
    frequency:    6.5767981605
  - # 9
    frequency:    7.0976541698
  - # 10
    frequency:    7.0976541698
  - # 11
    frequency:    7.8305570700
  - # 12
    frequency:    7.8305570700
  - # 13
    frequency:    8.7973691557
  - # 14
    frequency:   11.4835435363
  - # 15
    frequency:   14.2426540478
  - # 16
    frequency:   14.2426540478
  - # 17
    frequency:   16.5624166702
  - # 18
    frequency:   17.7797792692
  - # 19
    frequency:   17.7797792692
  - # 20
    frequency:   60.7947390028
  - # 21
    frequency:  112.5998873846

- q-position: [    0.0050505,    0.0000000,    0.0000000 ]
  distance:    0.0017315
  band:
  - # 1
    frequency:    0.0017553025
  - # 2
    frequency:    0.0566897236
  - # 3
    frequency:    0.1123200181
  - # 4
    frequency:    1.5944612556
  - # 5
    frequency:    1.5953334215
  - # 6
    frequency:    4.6899856892
  - # 7
    frequency:    4.6907118230
  - # 8
    frequency:    6.5765796442
  - # 9
    frequency:    7.0978665241
  - # 10
    frequency:    7.0983296346
  - # 11
    frequency:    7.8306214088
  - # 12
    frequency:    7.8313005393
  - # 13
    frequency:    8.7972851103
  - # 14
    frequency:   11.4836131096
  - # 15
    frequency:   14.2424112896
  - # 16
    frequency:   14.2427884774
  - # 17
    frequency:   16.5622615187
  - # 18
    frequency:   17.7791314579
  - # 19
    frequency:   17.7793927143
  - # 20
    frequency:   60.7946805047
  - # 21
    frequency:  112.5988193227

- q-position: [    0.0101010,    0.0000000,    0.0000000 ]
  distance:    0.0034631
  band:
  - # 1
    frequency:    0.0070123159
  - # 2
    frequency:    0.1134096024
  - # 3
    frequency:    0.2245644872
  - # 4
    frequency:    1.5934613778
  - # 5
    frequency:    1.5969509353
  - # 6
    frequency:    4.6904102214
  - # 7
    frequency:    4.6933103452
  - # 8
    frequency:    6.5759261728
  - # 9
    frequency:    7.0985030799
  - # 10
    frequency:    7.1003530388
  - # 11
    frequency:    7.8308139323
  - # 12
    frequency:    7.8335283004
  - # 13
    frequency:    8.7970322620
  - # 14
    frequency:   11.4838195062
  - # 15
    frequency:   14.2416874684
  - # 16
    frequency:   14.2431921799
  - # 17
    frequency:   16.5617951525
  - # 18
    frequency:   17.7771910089
  - # 19
    frequency:   17.7782337670
  - # 20
    frequency:   60.7945051369
  - # 21
    frequency:  112.5956192154

- q-position: [    0.0151515,    0.0000000,    0.0000000 ]
  distance:    0.0051946
  band:
  - # 1
    frequency:    0.0157441628
  - # 2
    frequency:    0.1701889983
  - # 3
    frequency:    0.3366523914
  - # 4
    frequency:    1.5918007193
  - # 5
    frequency:    1.5996567178
  - # 6
    frequency:    4.6911176061
  - # 7
    frequency:    4.6976264102
  - # 8
    frequency:    6.5748439444
  - # 9
    frequency:    7.0995623137
  - # 10
    frequency:    7.1037154324
  - # 11
    frequency:    7.8311331667
  - # 12
    frequency:    7.8372324419
  - # 13
    frequency:    8.7966084911
  - # 14
    frequency:   11.4841557693
  - # 15
    frequency:   14.2404959316
  - # 16
    frequency:   14.2438663926
  - # 17
    frequency:   16.5610148523
  - # 18
    frequency:   17.7739668530
  - # 19
    frequency:   17.7763045811
  - # 20
    frequency:   60.7942132793
  - # 21
    frequency:  112.5902992817

- q-position: [    0.0202020,    0.0000000,    0.0000000 ]
  distance:    0.0069261
  band:
  - # 1
    frequency:    0.0279069497
  - # 2
    frequency:    0.2270556516
  - # 3
    frequency:    0.4484908498
  - # 4
    frequency:    1.5894881998
  - # 5
    frequency:    1.6034700787
  - # 6
    frequency:    4.6921075830
  - # 7
    frequency:    4.7036380433
  - # 8
    frequency:    6.5733431765
  - # 9
    frequency:    7.1010416769
  - # 10
    frequency:    7.1084019651
  - # 11
    frequency:    7.8315766716
  - # 12
    frequency:    7.8423998736
  - # 13
    frequency:    8.7960103219
  - # 14
    frequency:   11.4846103464
  - # 15
    frequency:   14.2388588842
  - # 16
    frequency:   14.2448131649
  - # 17
    frequency:   16.5599161388
  - # 18
    frequency:   17.7694737962
  - # 19
    frequency:   17.7736087493
  - # 20
    frequency:   60.7938055639
  - # 21
    frequency:  112.5828798362

- q-position: [    0.0252525,    0.0000000,    0.0000000 ]
  distance:    0.0086577
  band:
  - # 1
    frequency:    0.0434408920
  - # 2
    frequency:    0.2840347840
  - # 3
    frequency:    0.5599665559
  - # 4
    frequency:    1.5865367548
  - # 5
    frequency:    1.6084277652
  - # 6
    frequency:    4.6933797757
  - # 7
    frequency:    4.7113149384
  - # 8
    frequency:    6.5714379424
  - # 9
    frequency:    7.1029375831
  - # 10
    frequency:    7.1143919855
  - # 11
    frequency:    7.8321410638
  - # 12
    frequency:    7.8490124642
  - # 13
    frequency:    8.7952330085
  - # 14
    frequency:   11.4851671550
  - # 15
    frequency:   14.2368073254
  - # 16
    frequency:   14.2460353382
  - # 17
    frequency:   16.5584928528
  - # 18
    frequency:   17.7637324029
  - # 19
    frequency:   17.7701513091
  - # 20
    frequency:   60.7932828722
  - # 21
    frequency:  112.5733892124

- q-position: [    0.0303030,    0.0000000,    0.0000000 ]
  distance:    0.0103892
  band:
  - # 1
    frequency:    0.0622718242
  - # 2
    frequency:    0.3411480822
  - # 3
    frequency:    0.6709331221
  - # 4
    frequency:    1.5829638398
  - # 5
    frequency:    1.6145960925
  - # 6
    frequency:    4.6949336796
  - # 7
    frequency:    4.7206188998
  - # 8
    frequency:    6.5691459535
  - # 9
    frequency:    7.1052453892
  - # 10
    frequency:    7.1216591782
  - # 11
    frequency:    7.8328220509
  - # 12
    frequency:    7.8570472219
  - # 13
    frequency:    8.7942706529
  - # 14
    frequency:   11.4858056762
  - # 15
    frequency:   14.2343809566
  - # 16
    frequency:   14.2475365187
  - # 17
    frequency:   16.5567372646
  - # 18
    frequency:   17.7567688323
  - # 19
    frequency:   17.7659387496
  - # 20
    frequency:   60.7926463333
  - # 21
    frequency:  112.5618636571

- q-position: [    0.0353535,    0.0000000,    0.0000000 ]
  distance:    0.0121208
  band:
  - # 1
    frequency:    0.0843129418
  - # 2
    frequency:    0.3984124994
  - # 3
    frequency:    0.7811909161
  - # 4
    frequency:    1.5787921671
  - # 5
    frequency:    1.6220911663
  - # 6
    frequency:    4.6967686482
  - # 7
    frequency:    4.7315043852
  - # 8
    frequency:    6.5664882957
  - # 9
    frequency:    7.1079593714
  - # 10
    frequency:    7.1301717381
  - # 11
    frequency:    7.8336144726
  - # 12
    frequency:    7.8664765098
  - # 13
    frequency:    8.7931163551
  - # 14
    frequency:   11.4865010787
  - # 15
    frequency:   14.2316280582
  - # 16
    frequency:   14.2493210428
  - # 17
    frequency:   16.5546402135
  - # 18
    frequency:   17.7486146303
  - # 19
    frequency:   17.7609790201
  - # 20
    frequency:   60.7918973194
  - # 21
    frequency:  112.5483471939

- q-position: [    0.0404040,    0.0000000,    0.0000000 ]
  distance:    0.0138523
  band:
  - # 1
    frequency:    0.1094666637
  - # 2
    frequency:    0.4558387802
  - # 3
    frequency:    0.8904529847
  - # 4
    frequency:    1.5740507627
  - # 5
    frequency:    1.6311133906
  - # 6
    frequency:    4.6988838777
  - # 7
    frequency:    4.7439191356
  - # 8
    frequency:    6.5634891334
  - # 9
    frequency:    7.1110726970
  - # 10
    frequency:    7.1398925800
  - # 11
    frequency:    7.8345123518
  - # 12
    frequency:    7.8772682831
  - # 13
    frequency:    8.7917623946
  - # 14
    frequency:   11.4872243779
  - # 15
    frequency:   14.2286053304
  - # 16
    frequency:   14.2513939348
  - # 17
    frequency:   16.5521912754
  - # 18
    frequency:   17.7393064779
  - # 19
    frequency:   17.7552815407
  - # 20
    frequency:   60.7910374425
  - # 21
    frequency:  112.5328914579

- q-position: [    0.0454545,    0.0000000,    0.0000000 ]
  distance:    0.0155838
  band:
  - # 1
    frequency:    0.1376265103
  - # 2
    frequency:    0.5134295719
  - # 3
    frequency:    0.9982845692
  - # 4
    frequency:    1.5687764766
  - # 5
    frequency:    1.6420085919
  - # 6
    frequency:    4.7012783902
  - # 7
    frequency:    4.7578048743
  - # 8
    frequency:    6.5601753893
  - # 9
    frequency:    7.1145773907
  - # 10
    frequency:    7.1507795811
  - # 11
    frequency:    7.8355089524
  - # 12
    frequency:    7.8893863363
  - # 13
    frequency:    8.7902004405
  - # 14
    frequency:   11.4879426304
  - # 15
    frequency:   14.2253776934
  - # 16
    frequency:   14.2537608576
  - # 17
    frequency:   16.5493789569
  - # 18
    frequency:   17.7288858977
  - # 19
    frequency:   17.7488572139
  - # 20
    frequency:   60.7900685485
  - # 21
    frequency:  112.5155555019

- q-position: [    0.0505051,    0.0000000,    0.0000000 ]
  distance:    0.0173154
  band:
  - # 1
    frequency:    0.1686789080
  - # 2
    frequency:    0.5711769134
  - # 3
    frequency:    1.1039915147
  - # 4
    frequency:    1.5630161534
  - # 5
    frequency:    1.6553803331
  - # 6
    frequency:    4.7039510174
  - # 7
    frequency:    4.7730980561
  - # 8
    frequency:    6.5565764137
  - # 9
    frequency:    7.1184642970
  - # 10
    frequency:    7.1627858546
  - # 11
    frequency:    7.8365968458
  - # 12
    frequency:    7.9027905489
  - # 13
    frequency:    8.7884217904
  - # 14
    frequency:   11.4886191707
  - # 15
    frequency:   14.2220180425
  - # 16
    frequency:   14.2564280569
  - # 17
    frequency:   16.5461909130
  - # 18
    frequency:   17.7173989197
  - # 19
    frequency:   17.7417184362
  - # 20
    frequency:   60.7889927117
  - # 21
    frequency:  112.4964055735

- q-position: [    0.0555556,    0.0000000,    0.0000000 ]
  distance:    0.0190469
  band:
  - # 1
    frequency:    0.2025048512
  - # 2
    frequency:    0.6290587734
  - # 3
    frequency:    1.2064110874
  - # 4
    frequency:    1.5568297864
  - # 5
    frequency:    1.6722998168
  - # 6
    frequency:    4.7069003844
  - # 7
    frequency:    4.7897306505
  - # 8
    frequency:    6.5527236525
  - # 9
    frequency:    7.1227230391
  - # 10
    frequency:    7.1758600524
  - # 11
    frequency:    7.8377679828
  - # 12
    frequency:    7.9174371176
  - # 13
    frequency:    8.7864176360
  - # 14
    frequency:   11.4892138910
  - # 15
    frequency:   14.2186069514
  - # 16
    frequency:   14.2594022983
  - # 17
    frequency:   16.5426141873
  - # 18
    frequency:   17.7048957112
  - # 19
    frequency:   17.7338791119
  - # 20
    frequency:   60.7878122285
  - # 21
    frequency:  112.4755148656

- q-position: [    0.0606061,    0.0000000,    0.0000000 ]
  distance:    0.0207784
  band:
  - # 1
    frequency:    0.2389813749
  - # 2
    frequency:    0.6870341235
  - # 3
    frequency:    1.3035385234
  - # 4
    frequency:    1.5502951723
  - # 5
    frequency:    1.6946799975
  - # 6
    frequency:    4.7101248944
  - # 7
    frequency:    4.8076309405
  - # 8
    frequency:    6.5486503220
  - # 9
    frequency:    7.1273419736
  - # 10
    frequency:    7.1899466931
  - # 11
    frequency:    7.8390137733
  - # 12
    frequency:    7.9332787643
  - # 13
    frequency:    8.7841793557
  - # 14
    frequency:   11.4896835692
  - # 15
    frequency:   14.2152323193
  - # 16
    frequency:   14.2626907994
  - # 17
    frequency:   16.5386354705
  - # 18
    frequency:   17.6914301709
  - # 19
    frequency:   17.7253546646
  - # 20
    frequency:   60.7865296099
  - # 21
    frequency:  112.4529632393

- q-position: [    0.0656566,    0.0000000,    0.0000000 ]
  distance:    0.0225100
  band:
  - # 1
    frequency:    0.2779828107
  - # 2
    frequency:    0.7450357031
  - # 3
    frequency:    1.3920179726
  - # 4
    frequency:    1.5435149049
  - # 5
    frequency:    1.7257852148
  - # 6
    frequency:    4.7136227147
  - # 7
    frequency:    4.8267243220
  - # 8
    frequency:    6.5443910985
  - # 9
    frequency:    7.1323081444
  - # 10
    frequency:    7.2049865133
  - # 11
    frequency:    7.8403251701
  - # 12
    frequency:    7.9502649114
  - # 13
    frequency:    8.7816988333
  - # 14
    frequency:   11.4899822477
  - # 15
    frequency:   14.2119889555
  - # 16
    frequency:   14.2663011556
  - # 17
    frequency:   16.5342413754
  - # 18
    frequency:   17.6770594934
  - # 19
    frequency:   17.7161620506
  - # 20
    frequency:   60.7851475739
  - # 21
    frequency:  112.4288369216

- q-position: [    0.0707071,    0.0000000,    0.0000000 ]
  distance:    0.0242415
  band:
  - # 1
    frequency:    0.3193818135
  - # 2
    frequency:    0.8029590974
  - # 3
    frequency:    1.4671658688
  - # 4
    frequency:    1.5366270877
  - # 5
    frequency:    1.7702083072
  - # 6
    frequency:    4.7173917645
  - # 7
    frequency:    4.8469340900
  - # 8
    frequency:    6.5399818275
  - # 9
    frequency:    7.1376072341
  - # 10
    frequency:    7.2209168386
  - # 11
    frequency:    7.8416927583
  - # 12
    frequency:    7.9683418145
  - # 13
    frequency:    8.7789688053
  - # 14
    frequency:   11.4900616652
  - # 15
    frequency:   14.2089780960
  - # 16
    frequency:   14.2702412606
  - # 17
    frequency:   16.5294187235
  - # 18
    frequency:   17.6618437062
  - # 19
    frequency:   17.7063197695
  - # 20
    frequency:   60.7836690367
  - # 21
    frequency:  112.4032281780

- q-position: [    0.0757576,    0.0000000,    0.0000000 ]
  distance:    0.0259731
  band:
  - # 1
    frequency:    0.3630501608
  - # 2
    frequency:    0.8606458150
  - # 3
    frequency:    1.5252510355
  - # 4
    frequency:    1.5298220764
  - # 5
    frequency:    1.8315909091
  - # 6
    frequency:    4.7214297039
  - # 7
    frequency:    4.8681822013
  - # 8
    frequency:    6.5354592548
  - # 9
    frequency:    7.1432235160
  - # 10
    frequency:    7.2376719727
  - # 11
    frequency:    7.8431068487
  - # 12
    frequency:    7.9874526450
  - # 13
    frequency:    8.7759832374
  - # 14
    frequency:   11.4898717432
  - # 15
    frequency:   14.2063068490
  - # 16
    frequency:   14.2745192233
  - # 17
    frequency:   16.5241548396
  - # 18
    frequency:   17.6458451852
  - # 19
    frequency:   17.6958478739
  - # 20
    frequency:   60.7820971041
  - # 21
    frequency:  112.3762349613

- q-position: [    0.0808081,    0.0000000,    0.0000000 ]
  distance:    0.0277046
  band:
  - # 1
    frequency:    0.4088593294
  - # 2
    frequency:    0.9178565035
  - # 3
    frequency:    1.5233691126
  - # 4
    frequency:    1.5670593461
  - # 5
    frequency:    1.9090591310
  - # 6
    frequency:    4.7257339244
  - # 7
    frequency:    4.8903900015
  - # 8
    frequency:    6.5308607838
  - # 9
    frequency:    7.1491398067
  - # 10
    frequency:    7.2551835996
  - # 11
    frequency:    7.8445575741
  - # 12
    frequency:    8.0075375141
  - # 13
    frequency:    8.7727377374
  - # 14
    frequency:   11.4893611257
  - # 15
    frequency:   14.2040875665
  - # 16
    frequency:   14.2791432799
  - # 17
    frequency:   16.5184378506
  - # 18
    frequency:   17.6291281542
  - # 19
    frequency:   17.6847679772
  - # 20
    frequency:   60.7804350616
  - # 21
    frequency:  112.3479605380

- q-position: [    0.0858586,    0.0000000,    0.0000000 ]
  distance:    0.0294361
  band:
  - # 1
    frequency:    0.4566808599
  - # 2
    frequency:    0.9742279683
  - # 3
    frequency:    1.5176591817
  - # 4
    frequency:    1.5971192409
  - # 5
    frequency:    1.9979983520
  - # 6
    frequency:    4.7303015405
  - # 7
    frequency:    4.9134789117
  - # 8
    frequency:    6.5262242566
  - # 9
    frequency:    7.1553374224
  - # 10
    frequency:    7.2733811964
  - # 11
    frequency:    7.8460349884
  - # 12
    frequency:    8.0285334283
  - # 13
    frequency:    8.7692300097
  - # 14
    frequency:   11.4884777716
  - # 15
    frequency:   14.2024371391
  - # 16
    frequency:   14.2841217028
  - # 17
    frequency:   16.5122569820
  - # 18
    frequency:   17.6117581731
  - # 19
    frequency:   17.6731032583
  - # 20
    frequency:   60.7786863642
  - # 21
    frequency:  112.3185130930

- q-position: [    0.0909091,    0.0000000,    0.0000000 ]
  distance:    0.0311677
  band:
  - # 1
    frequency:    0.5063865151
  - # 2
    frequency:    1.0292044235
  - # 3
    frequency:    1.5132736644
  - # 4
    frequency:    1.6199496804
  - # 5
    frequency:    2.0938055769
  - # 6
    frequency:    4.7351293816
  - # 7
    frequency:    4.9373710673
  - # 8
    frequency:    6.5215877594
  - # 9
    frequency:    7.1617961391
  - # 10
    frequency:    7.2921924551
  - # 11
    frequency:    7.8475291670
  - # 12
    frequency:    8.0503741639
  - # 13
    frequency:    8.7654603641
  - # 14
    frequency:   11.4871695937
  - # 15
    frequency:   14.2014762179
  - # 16
    frequency:   14.2894627076
  - # 17
    frequency:   16.5056028477
  - # 18
    frequency:   17.5938016241
  - # 19
    frequency:   17.6608784625
  - # 20
    frequency:   60.7768546258
  - # 21
    frequency:  112.2880053146

- q-position: [    0.0959596,    0.0000000,    0.0000000 ]
  distance:    0.0328992
  band:
  - # 1
    frequency:    0.5578482346
  - # 2
    frequency:    1.0819320064
  - # 3
    frequency:    1.5110897490
  - # 4
    frequency:    1.6385320997
  - # 5
    frequency:    2.1934178339
  - # 6
    frequency:    4.7402139841
  - # 7
    frequency:    4.9619899054
  - # 8
    frequency:    6.5169894514
  - # 9
    frequency:    7.1684941597
  - # 10
    frequency:    7.3115437076
  - # 11
    frequency:    7.8490303076
  - # 12
    frequency:    8.0729900437
  - # 13
    frequency:    8.7614322952
  - # 14
    frequency:   11.4853851390
  - # 15
    frequency:   14.2013283642
  - # 16
    frequency:   14.2951743572
  - # 17
    frequency:   16.4984677263
  - # 18
    frequency:   17.5753252012
  - # 19
    frequency:   17.6481198991
  - # 20
    frequency:   60.7749436082
  - # 21
    frequency:  112.2565539610

- q-position: [    0.1010101,    0.0000000,    0.0000000 ]
  distance:    0.0346307
  band:
  - # 1
    frequency:    0.6109378782
  - # 2
    frequency:    1.1311180976
  - # 3
    frequency:    1.5124210599
  - # 4
    frequency:    1.6545963404
  - # 5
    frequency:    2.2950266813
  - # 6
    frequency:    4.7455515819
  - # 7
    frequency:    4.9872606974
  - # 8
    frequency:    6.5124674129
  - # 9
    frequency:    7.1754080897
  - # 10
    frequency:    7.3313603527
  - # 11
    frequency:    7.8505288305
  - # 12
    frequency:    8.0963075930
  - # 13
    frequency:    8.7571531577
  - # 14
    frequency:   11.4830742985
  - # 15
    frequency:   14.2021191361
  - # 16
    frequency:   14.3012644651
  - # 17
    frequency:   16.4908458182
  - # 18
    frequency:   17.5563954124
  - # 19
    frequency:   17.6348554340
  - # 20
    frequency:   60.7729572095
  - # 21
    frequency:  112.2242794091

- q-position: [    0.1060606,    0.0000000,    0.0000000 ]
  distance:    0.0363623
  band:
  - # 1
    frequency:    0.6655267399
  - # 2
    frequency:    1.1749194067
  - # 3
    frequency:    1.5191295403
  - # 4
    frequency:    1.6691384360
  - # 5
    frequency:    2.3975610006
  - # 6
    frequency:    4.7511380965
  - # 7
    frequency:    5.0131110244
  - # 8
    frequency:    6.5080595118
  - # 9
    frequency:    7.1825129236
  - # 10
    frequency:    7.3515672820
  - # 11
    frequency:    7.8520154768
  - # 12
    frequency:    8.1202490414
  - # 13
    frequency:    8.7526349701
  - # 14
    frequency:   11.4801890364
  - # 15
    frequency:   14.2039751200
  - # 16
    frequency:   14.3077404982
  - # 17
    frequency:   16.4827334755
  - # 18
    frequency:   17.5370781030
  - # 19
    frequency:   17.6211144761
  - # 20
    frequency:   60.7708994523
  - # 21
    frequency:  112.1913051889

- q-position: [    0.1111111,    0.0000000,    0.0000000 ]
  distance:    0.0380938
  band:
  - # 1
    frequency:    0.7214847932
  - # 2
    frequency:    1.2110807054
  - # 3
    frequency:    1.5334867056
  - # 4
    frequency:    1.6827560177
  - # 5
    frequency:    2.5003523750
  - # 6
    frequency:    4.7569691244
  - # 7
    frequency:    5.0394711941
  - # 8
    frequency:    6.5038032841
  - # 9
    frequency:    7.1897820447
  - # 10
    frequency:    7.3720893006
  - # 11
    frequency:    7.8534814033
  - # 12
    frequency:    8.1447316224
  - # 13
    frequency:    8.7478953991
  - # 14
    frequency:   11.4766841200
  - # 15
    frequency:   14.2070229200
  - # 16
    frequency:   14.3146094803
  - # 17
    frequency:   16.4741293991
  - # 18
    frequency:   17.5174380089
  - # 19
    frequency:   17.6069279587
  - # 20
    frequency:   60.7687744715
  - # 21
    frequency:  112.1577575034

- q-position: [    0.1161616,    0.0000000,    0.0000000 ]
  distance:    0.0398253
  band:
  - # 1
    frequency:    0.7786796100
  - # 2
    frequency:    1.2376491096
  - # 3
    frequency:    1.5574593621
  - # 4
    frequency:    1.6958310723
  - # 5
    frequency:    2.6029534078
  - # 6
    frequency:    4.7630399217
  - # 7
    frequency:    5.0662745967
  - # 8
    frequency:    6.4997358255
  - # 9
    frequency:    7.1971872401
  - # 10
    frequency:    7.3928515415
  - # 11
    frequency:    7.8549182722
  - # 12
    frequency:    8.1696666049
  - # 13
    frequency:    8.7429589917
  - # 14
    frequency:   11.4725178365
  - # 15
    frequency:   14.2113881206
  - # 16
    frequency:   14.3218778959
  - # 17
    frequency:   16.4650347947
  - # 18
    frequency:   17.4975383489
  - # 19
    frequency:   17.5923283139
  - # 20
    frequency:   60.7665865015
  - # 21
    frequency:  112.1237647365

- q-position: [    0.1212121,    0.0000000,    0.0000000 ]
  distance:    0.0415569
  band:
  - # 1
    frequency:    0.8369748595
  - # 2
    frequency:    1.2540554830
  - # 3
    frequency:    1.5916282185
  - # 4
    frequency:    1.7086276274
  - # 5
    frequency:    2.7050415182
  - # 6
    frequency:    4.7693453860
  - # 7
    frequency:    5.0934579977
  - # 8
    frequency:    6.4958936908
  - # 9
    frequency:    7.2046987340
  - # 10
    frequency:    7.4137798691
  - # 11
    frequency:    7.8563183340
  - # 12
    frequency:    8.1949579583
  - # 13
    frequency:    8.7378587545
  - # 14
    frequency:   11.4676526729
  - # 15
    frequency:   14.2171942404
  - # 16
    frequency:   14.3295515961
  - # 17
    frequency:   16.4554534821
  - # 18
    frequency:   17.4774404653
  - # 19
    frequency:   17.5773494387
  - # 20
    frequency:   60.7643398641
  - # 21
    frequency:  112.0894569510

- q-position: [    0.1262626,    0.0000000,    0.0000000 ]
  distance:    0.0432884
  band:
  - # 1
    frequency:    0.8962282502
  - # 2
    frequency:    1.2614483455
  - # 3
    frequency:    1.6348540011
  - # 4
    frequency:    1.7213457661
  - # 5
    frequency:    2.8063669673
  - # 6
    frequency:    4.7758800350
  - # 7
    frequency:    5.1209617658
  - # 8
    frequency:    6.4923127968
  - # 9
    frequency:    7.2122852411
  - # 10
    frequency:    7.4348012719
  - # 11
    frequency:    7.8576745017
  - # 12
    frequency:    8.2205005176
  - # 13
    frequency:    8.7326382181
  - # 14
    frequency:   11.4620559417
  - # 15
    frequency:   14.2245616962
  - # 16
    frequency:   14.3376357079
  - # 17
    frequency:   16.4453919503
  - # 18
    frequency:   17.4572035200
  - # 19
    frequency:   17.5620266548
  - # 20
    frequency:   60.7620389552
  - # 21
    frequency:  112.0549653785

- q-position: [    0.1313131,    0.0000000,    0.0000000 ]
  distance:    0.0450200
  band:
  - # 1
    frequency:    0.9562887146
  - # 2
    frequency:    1.2618611921
  - # 3
    frequency:    1.6851101682
  - # 4
    frequency:    1.7341534474
  - # 5
    frequency:    2.9067238562
  - # 6
    frequency:    4.7826379821
  - # 7
    frequency:    5.1487300331
  - # 8
    frequency:    6.4890283252
  - # 9
    frequency:    7.2199140435
  - # 10
    frequency:    7.4558442395
  - # 11
    frequency:    7.8589804131
  - # 12
    frequency:    8.2461774583
  - # 13
    frequency:    8.7273541759
  - # 14
    frequency:   11.4557003289
  - # 15
    frequency:   14.2336067966
  - # 16
    frequency:   14.3461345452
  - # 17
    frequency:   16.4348593547
  - # 18
    frequency:   17.4368842555
  - # 19
    frequency:   17.5463966587
  - # 20
    frequency:   60.7596882316
  - # 21
    frequency:  112.0204219019

- q-position: [    0.1363636,    0.0000000,    0.0000000 ]
  distance:    0.0467515
  band:
  - # 1
    frequency:    1.0169925519
  - # 2
    frequency:    1.2572474884
  - # 3
    frequency:    1.7404479543
  - # 4
    frequency:    1.7472071136
  - # 5
    frequency:    3.0059334150
  - # 6
    frequency:    4.7896129087
  - # 7
    frequency:    5.1767107828
  - # 8
    frequency:    6.4860746201
  - # 9
    frequency:    7.2275510916
  - # 10
    frequency:    7.4768391241
  - # 11
    frequency:    7.8602304803
  - # 12
    frequency:    8.2718568262
  - # 13
    frequency:    8.7220803575
  - # 14
    frequency:   11.4485643469
  - # 15
    frequency:   14.2444407852
  - # 16
    frequency:   14.3550515256
  - # 17
    frequency:   16.4238674511
  - # 18
    frequency:   17.4165368252
  - # 19
    frequency:   17.5304974631
  - # 20
    frequency:   60.7572921985
  - # 21
    frequency:  111.9859585351

- q-position: [    0.1414141,    0.0000000,    0.0000000 ]
  distance:    0.0484830
  band:
  - # 1
    frequency:    1.0781581243
  - # 2
    frequency:    1.2490876117
  - # 3
    frequency:    1.7606669562
  - # 4
    frequency:    1.7993894709
  - # 5
    frequency:    3.1038341279
  - # 6
    frequency:    4.7967980349
  - # 7
    frequency:    5.2048558623
  - # 8
    frequency:    6.4834850764
  - # 9
    frequency:    7.2351611332
  - # 10
    frequency:    7.4977184833
  - # 11
    frequency:    7.8614199220
  - # 12
    frequency:    8.2973867866
  - # 13
    frequency:    8.7169123704
  - # 14
    frequency:   11.4406326727
  - # 15
    frequency:   14.2571689509
  - # 16
    frequency:   14.3643890907
  - # 17
    frequency:   16.4124304640
  - # 18
    frequency:   17.3962126990
  - # 19
    frequency:   17.5143683295
  - # 20
    frequency:   60.7548553956
  - # 21
    frequency:  111.9517068992

- q-position: [    0.1464646,    0.0000000,    0.0000000 ]
  distance:    0.0502146
  band:
  - # 1
    frequency:    1.1395785600
  - # 2
    frequency:    1.2384014743
  - # 3
    frequency:    1.7747102770
  - # 4
    frequency:    1.8609151302
  - # 5
    frequency:    3.2002758216
  - # 6
    frequency:    4.8041860882
  - # 7
    frequency:    5.2331209160
  - # 8
    frequency:    6.4812920116
  - # 9
    frequency:    7.2427078713
  - # 10
    frequency:    7.5184174032
  - # 11
    frequency:    7.8625447778
  - # 12
    frequency:    8.3225892019
  - # 13
    frequency:    8.7119743037
  - # 14
    frequency:   11.4318963601
  - # 15
    frequency:   14.2718898203
  - # 16
    frequency:   14.3741486321
  - # 17
    frequency:   16.4005648905
  - # 18
    frequency:   17.3759606462
  - # 19
    frequency:   17.4980496904
  - # 20
    frequency:   60.7523823844
  - # 21
    frequency:  111.9177976989

- q-position: [    0.1515152,    0.0000000,    0.0000000 ]
  distance:    0.0519461
  band:
  - # 1
    frequency:    1.2010117583
  - # 2
    frequency:    1.2258743288
  - # 3
    frequency:    1.7895452222
  - # 4
    frequency:    1.9243378860
  - # 5
    frequency:    3.2951161560
  - # 6
    frequency:    4.8117692722
  - # 7
    frequency:    5.2614652350
  - # 8
    frequency:    6.4795265167
  - # 9
    frequency:    7.2501541526
  - # 10
    frequency:    7.5388738012
  - # 11
    frequency:    7.8636018998
  - # 12
    frequency:    8.3472511815
  - # 13
    frequency:    8.7074273515
  - # 14
    frequency:   11.4223529135
  - # 15
    frequency:   14.2886944421
  - # 16
    frequency:   14.3843304239
  - # 17
    frequency:   16.3882892384
  - # 18
    frequency:   17.3558267967
  - # 19
    frequency:   17.4815830619
  - # 20
    frequency:   60.7498777350
  - # 21
    frequency:  111.8843602009
