nqpoint: 300    
npath: 3      
segment_nqpoint:
- 100
- 100
- 100
labels:
- [ 'G', 'M' ]
- [ 'M', 'K' ]
- [ 'K', 'G' ]
reciprocal_lattice:
- [   0.29691186,   0.17142214,   0.00000000 ] # a*
- [   0.00000000,   0.34284428,   0.00000000 ] # b*
- [   0.00000000,   0.00000000,   0.03917463 ] # c*
natom: 7      
lattice:
- [     3.368002885014410,     0.000000000000000,     0.000000000000000 ] # a
- [    -1.684001442507205,     2.916776058439416,     0.000000000000000 ] # b
- [     0.000000000000000,     0.000000000000000,    25.526726131132790 ] # c
points:
- symbol: C # 1
  coordinates: [  0.000000000000000,  0.000000000000000,  0.491698669512273 ]
  mass: 12.010700
- symbol: C # 2
  coordinates: [  0.333332985432215,  0.666666983183674,  0.600247688925525 ]
  mass: 12.010700
- symbol: H # 3
  coordinates: [  0.666666984744048,  0.333332985985145,  0.352571651913618 ]
  mass: 1.007940
- symbol: N # 4
  coordinates: [  0.333332985432215,  0.666666983183674,  0.647428348086382 ]
  mass: 14.006700
- symbol: O # 5
  coordinates: [  0.666666984744048,  0.333332985985145,  0.391213480234783 ]
  mass: 15.999400
- symbol: Zr # 6
  coordinates: [  0.333332985432215,  0.666666983183674,  0.443909967159620 ]
  mass: 91.224000
- symbol: Zr # 7
  coordinates: [  0.666666984744048,  0.333332985985145,  0.541532467416540 ]
  mass: 91.224000

phonon:
- q-position: [    0.0000000,    0.0000000,    0.0000000 ]
  distance:    0.0000000
  band:
  - # 1
    frequency:   -0.8900860863
  - # 2
    frequency:   -0.8900860863
  - # 3
    frequency:   -0.0000013473
  - # 4
    frequency:   -0.0000003686
  - # 5
    frequency:    0.0000013726
  - # 6
    frequency:    4.7786564883
  - # 7
    frequency:    4.7786564883
  - # 8
    frequency:    6.5136834295
  - # 9
    frequency:    7.2297333304
  - # 10
    frequency:    7.2297333304
  - # 11
    frequency:    7.5685403191
  - # 12
    frequency:    7.5685403191
  - # 13
    frequency:    8.6646259488
  - # 14
    frequency:   11.4128536706
  - # 15
    frequency:   13.9065537674
  - # 16
    frequency:   13.9065537674
  - # 17
    frequency:   16.4934193634
  - # 18
    frequency:   17.0999597584
  - # 19
    frequency:   17.0999597584
  - # 20
    frequency:   60.7803390695
  - # 21
    frequency:  112.0156049719

- q-position: [    0.0050505,    0.0000000,    0.0000000 ]
  distance:    0.0017315
  band:
  - # 1
    frequency:   -0.8885605396
  - # 2
    frequency:   -0.8866636082
  - # 3
    frequency:   -0.2032716127
  - # 4
    frequency:    0.0765857230
  - # 5
    frequency:    0.2326871426
  - # 6
    frequency:    4.7789143707
  - # 7
    frequency:    4.7793145147
  - # 8
    frequency:    6.5137079473
  - # 9
    frequency:    7.2299419495
  - # 10
    frequency:    7.2302496316
  - # 11
    frequency:    7.5691459625
  - # 12
    frequency:    7.5698812357
  - # 13
    frequency:    8.6648983900
  - # 14
    frequency:   11.4131950507
  - # 15
    frequency:   13.9066335788
  - # 16
    frequency:   13.9070892148
  - # 17
    frequency:   16.4934238519
  - # 18
    frequency:   17.1005879064
  - # 19
    frequency:   17.1007898300
  - # 20
    frequency:   60.7803157418
  - # 21
    frequency:  112.0159032026

- q-position: [    0.0101010,    0.0000000,    0.0000000 ]
  distance:    0.0034631
  band:
  - # 1
    frequency:   -0.8839906398
  - # 2
    frequency:   -0.8763678775
  - # 3
    frequency:   -0.2685993097
  - # 4
    frequency:    0.1531991147
  - # 5
    frequency:    0.3514544890
  - # 6
    frequency:    4.7796863067
  - # 7
    frequency:    4.7812861351
  - # 8
    frequency:    6.5137809562
  - # 9
    frequency:    7.2305666520
  - # 10
    frequency:    7.2317959290
  - # 11
    frequency:    7.5709590790
  - # 12
    frequency:    7.5738966929
  - # 13
    frequency:    8.6657111029
  - # 14
    frequency:   11.4142157314
  - # 15
    frequency:   13.9068755881
  - # 16
    frequency:   13.9086930951
  - # 17
    frequency:   16.4934353997
  - # 18
    frequency:   17.1024678310
  - # 19
    frequency:   17.1032727450
  - # 20
    frequency:   60.7802456383
  - # 21
    frequency:  112.0167924071

- q-position: [    0.0151515,    0.0000000,    0.0000000 ]
  distance:    0.0051946
  band:
  - # 1
    frequency:   -0.8763953609
  - # 2
    frequency:   -0.8591040889
  - # 3
    frequency:   -0.3074884371
  - # 4
    frequency:    0.2298625324
  - # 5
    frequency:    0.4587223494
  - # 6
    frequency:    4.7809671853
  - # 7
    frequency:    4.7845640260
  - # 8
    frequency:    6.5139008339
  - # 9
    frequency:    7.2316039968
  - # 10
    frequency:    7.2343644905
  - # 11
    frequency:    7.5739682409
  - # 12
    frequency:    7.5805648247
  - # 13
    frequency:    8.6670503402
  - # 14
    frequency:   11.4159053284
  - # 15
    frequency:   13.9072875660
  - # 16
    frequency:   13.9113580525
  - # 17
    frequency:   16.4934482851
  - # 18
    frequency:   17.1055859626
  - # 19
    frequency:   17.1073866656
  - # 20
    frequency:   60.7801283992
  - # 21
    frequency:  112.0182561846

- q-position: [    0.0202020,    0.0000000,    0.0000000 ]
  distance:    0.0069261
  band:
  - # 1
    frequency:   -0.8658023115
  - # 2
    frequency:   -0.8346809044
  - # 3
    frequency:   -0.3319900932
  - # 4
    frequency:    0.3065884652
  - # 5
    frequency:    0.5629283379
  - # 6
    frequency:    4.7827485599
  - # 7
    frequency:    4.7891361529
  - # 8
    frequency:    6.5140649159
  - # 9
    frequency:    7.2330483269
  - # 10
    frequency:    7.2379427018
  - # 11
    frequency:    7.5781544501
  - # 12
    frequency:    7.5898492366
  - # 13
    frequency:    8.6688934716
  - # 14
    frequency:   11.4182465138
  - # 15
    frequency:   13.9078826091
  - # 16
    frequency:   13.9150719235
  - # 17
    frequency:   16.4934530744
  - # 18
    frequency:   17.1099196511
  - # 19
    frequency:   17.1130954036
  - # 20
    frequency:   60.7799634301
  - # 21
    frequency:  112.0202674072

- q-position: [    0.0252525,    0.0000000,    0.0000000 ]
  distance:    0.0086577
  band:
  - # 1
    frequency:   -0.8522421794
  - # 2
    frequency:   -0.8027585040
  - # 3
    frequency:   -0.3469994457
  - # 4
    frequency:    0.3833763504
  - # 5
    frequency:    0.6667668641
  - # 6
    frequency:    4.7850187553
  - # 7
    frequency:    4.7949860176
  - # 8
    frequency:    6.5142695547
  - # 9
    frequency:    7.2348918781
  - # 10
    frequency:    7.2425134274
  - # 11
    frequency:    7.5834912156
  - # 12
    frequency:    7.6016991194
  - # 13
    frequency:    8.6712093991
  - # 14
    frequency:   11.4212149916
  - # 15
    frequency:   13.9086793457
  - # 16
    frequency:   13.9198178788
  - # 17
    frequency:   16.4934367731
  - # 18
    frequency:   17.1154371252
  - # 19
    frequency:   17.1203487313
  - # 20
    frequency:   60.7797499097
  - # 21
    frequency:  112.0227885283

- q-position: [    0.0303030,    0.0000000,    0.0000000 ]
  distance:    0.0103892
  band:
  - # 1
    frequency:   -0.8357417695
  - # 2
    frequency:   -0.7627681573
  - # 3
    frequency:   -0.3549166061
  - # 4
    frequency:    0.4602111267
  - # 5
    frequency:    0.7712241200
  - # 6
    frequency:    4.7877630143
  - # 7
    frequency:    4.8020929835
  - # 8
    frequency:    6.5145102008
  - # 9
    frequency:    7.2371249214
  - # 10
    frequency:    7.2480554332
  - # 11
    frequency:    7.5899446713
  - # 12
    frequency:    7.6160494760
  - # 13
    frequency:    8.6739591259
  - # 14
    frequency:   11.4247794737
  - # 15
    frequency:   13.9097022026
  - # 16
    frequency:   13.9255746165
  - # 17
    frequency:   16.4933830294
  - # 18
    frequency:   17.1220974533
  - # 19
    frequency:   17.1290828142
  - # 20
    frequency:   60.7794868002
  - # 21
    frequency:  112.0257720098

- q-position: [    0.0353535,    0.0000000,    0.0000000 ]
  distance:    0.0121208
  band:
  - # 1
    frequency:   -0.8163161827
  - # 2
    frequency:   -0.7137857576
  - # 3
    frequency:   -0.3568713225
  - # 4
    frequency:    0.5370635675
  - # 5
    frequency:    0.8766097869
  - # 6
    frequency:    4.7909636809
  - # 7
    frequency:    4.8104326626
  - # 8
    frequency:    6.5147815070
  - # 9
    frequency:    7.2397359261
  - # 10
    frequency:    7.2545438098
  - # 11
    frequency:    7.5974737442
  - # 12
    frequency:    7.6328215053
  - # 13
    frequency:    8.6770964646
  - # 14
    frequency:   11.4289016678
  - # 15
    frequency:   13.9109817101
  - # 16
    frequency:   13.9323166003
  - # 17
    frequency:   16.4932723836
  - # 18
    frequency:   17.1298505252
  - # 19
    frequency:   17.1392207634
  - # 20
    frequency:   60.7791728613
  - # 21
    frequency:  112.0291608630

- q-position: [    0.0404040,    0.0000000,    0.0000000 ]
  distance:    0.0138523
  band:
  - # 1
    frequency:   -0.7939604813
  - # 2
    frequency:   -0.6543200985
  - # 3
    frequency:   -0.3531237337
  - # 4
    frequency:    0.6138921306
  - # 5
    frequency:    0.9829371046
  - # 6
    frequency:    4.7946004177
  - # 7
    frequency:    4.8199773432
  - # 8
    frequency:    6.5150774517
  - # 9
    frequency:    7.2427117343
  - # 10
    frequency:    7.2619503486
  - # 11
    frequency:    7.6060303775
  - # 12
    frequency:    7.6519231763
  - # 13
    frequency:    8.6805688690
  - # 14
    frequency:   11.4335362890
  - # 15
    frequency:   13.9125548213
  - # 16
    frequency:   13.9400143381
  - # 17
    frequency:   16.4930825571
  - # 18
    frequency:   17.1386370720
  - # 19
    frequency:   17.1506733037
  - # 20
    frequency:   60.7788066659
  - # 21
    frequency:  112.0328892997

- q-position: [    0.0454545,    0.0000000,    0.0000000 ]
  distance:    0.0155838
  band:
  - # 1
    frequency:   -0.7686407971
  - # 2
    frequency:   -0.5819512475
  - # 3
    frequency:   -0.3429898899
  - # 4
    frequency:    0.6906458314
  - # 5
    frequency:    1.0900896298
  - # 6
    frequency:    4.7986504527
  - # 7
    frequency:    4.8306964369
  - # 8
    frequency:    6.5153914818
  - # 9
    frequency:    7.2460377376
  - # 10
    frequency:    7.2702438364
  - # 11
    frequency:    7.6155598183
  - # 12
    frequency:    7.6732500036
  - # 13
    frequency:    8.6843183718
  - # 14
    frequency:   11.4386311100
  - # 15
    frequency:   13.9144652177
  - # 16
    frequency:   13.9486346928
  - # 17
    frequency:   16.4927887705
  - # 18
    frequency:   17.1483887468
  - # 19
    frequency:   17.1633395539
  - # 20
    frequency:   60.7783866196
  - # 21
    frequency:  112.0368834851

- q-position: [    0.0505051,    0.0000000,    0.0000000 ]
  distance:    0.0173154
  band:
  - # 1
    frequency:   -0.7402842537
  - # 2
    frequency:   -0.4929827398
  - # 3
    frequency:   -0.3235027009
  - # 4
    frequency:    0.7672675697
  - # 5
    frequency:    1.1979005774
  - # 6
    frequency:    4.8030888524
  - # 7
    frequency:    4.8425569270
  - # 8
    frequency:    6.5157166702
  - # 9
    frequency:    7.2496980472
  - # 10
    frequency:    7.2793902557
  - # 11
    frequency:    7.6260009712
  - # 12
    frequency:    7.6966860172
  - # 13
    frequency:    8.6882826091
  - # 14
    frequency:   11.4441270652
  - # 15
    frequency:   13.9167635723
  - # 16
    frequency:   13.9581412182
  - # 17
    frequency:   16.4923640829
  - # 18
    frequency:   17.1590282851
  - # 19
    frequency:   17.1771079130
  - # 20
    frequency:   60.7779109819
  - # 21
    frequency:  112.0410623847

- q-position: [    0.0555556,    0.0000000,    0.0000000 ]
  distance:    0.0190469
  band:
  - # 1
    frequency:   -0.7087662945
  - # 2
    frequency:   -0.3880547240
  - # 3
    frequency:   -0.2768657512
  - # 4
    frequency:    0.8436973862
  - # 5
    frequency:    1.3061913257
  - # 6
    frequency:    4.8078888146
  - # 7
    frequency:    4.8555237980
  - # 8
    frequency:    6.5160458868
  - # 9
    frequency:    7.2536756527
  - # 10
    frequency:    7.2893528952
  - # 11
    frequency:    7.6372868194
  - # 12
    frequency:    7.7221048988
  - # 13
    frequency:    8.6923959079
  - # 14
    frequency:   11.4499584244
  - # 15
    frequency:   13.9195077433
  - # 16
    frequency:   13.9684945120
  - # 17
    frequency:   16.4917797449
  - # 18
    frequency:   17.1704697642
  - # 19
    frequency:   17.1918570452
  - # 20
    frequency:   60.7773778899
  - # 21
    frequency:  112.0453386988

- q-position: [    0.0606061,    0.0000000,    0.0000000 ]
  distance:    0.0207784
  band:
  - # 1
    frequency:   -0.6738928559
  - # 2
    frequency:   -0.3118949118
  - # 3
    frequency:    0.0459157748
  - # 4
    frequency:    0.9198752800
  - # 5
    frequency:    1.4147894199
  - # 6
    frequency:    4.8130219797
  - # 7
    frequency:    4.8695604330
  - # 8
    frequency:    6.5163719771
  - # 9
    frequency:    7.2579525654
  - # 10
    frequency:    7.3000923876
  - # 11
    frequency:    7.6493449124
  - # 12
    frequency:    7.7493712429
  - # 13
    frequency:    8.6965904209
  - # 14
    frequency:   11.4560530497
  - # 15
    frequency:   13.9227628692
  - # 16
    frequency:   13.9796525793
  - # 17
    frequency:   16.4910055558
  - # 18
    frequency:   17.1826189752
  - # 19
    frequency:   17.2074569577
  - # 20
    frequency:   60.7767853838
  - # 21
    frequency:  112.0496198720

- q-position: [    0.0656566,    0.0000000,    0.0000000 ]
  distance:    0.0225100
  band:
  - # 1
    frequency:   -0.6353728552
  - # 2
    frequency:   -0.2605657304
  - # 3
    frequency:    0.3409971807
  - # 4
    frequency:    0.9957433896
  - # 5
    frequency:    1.5235359727
  - # 6
    frequency:    4.8184587518
  - # 7
    frequency:    4.8846289684
  - # 8
    frequency:    6.5166879469
  - # 9
    frequency:    7.2625099462
  - # 10
    frequency:    7.3115666995
  - # 11
    frequency:    7.6620979132
  - # 12
    frequency:    7.7783418962
  - # 13
    frequency:    8.7007972839
  - # 14
    frequency:   11.4623327516
  - # 15
    frequency:   13.9266013456
  - # 16
    frequency:   13.9915711992
  - # 17
    frequency:   16.4900102199
  - # 18
    frequency:   17.1953739197
  - # 19
    frequency:   17.2237701599
  - # 20
    frequency:   60.7761314349
  - # 21
    frequency:  112.0538091707

- q-position: [    0.0707071,    0.0000000,    0.0000000 ]
  distance:    0.0242415
  band:
  - # 1
    frequency:   -0.5927725094
  - # 2
    frequency:   -0.1960764797
  - # 3
    frequency:    0.4916873960
  - # 4
    frequency:    1.0712475008
  - # 5
    frequency:    1.6322876236
  - # 6
    frequency:    4.8241686294
  - # 7
    frequency:    4.9006905971
  - # 8
    frequency:    6.5169871479
  - # 9
    frequency:    7.2673282183
  - # 10
    frequency:    7.3237310997
  - # 11
    frequency:    7.6754641998
  - # 12
    frequency:    7.8088673240
  - # 13
    frequency:    8.7049477824
  - # 14
    frequency:   11.4687137530
  - # 15
    frequency:   13.9311026611
  - # 16
    frequency:   14.0042042879
  - # 17
    frequency:   16.4887616954
  - # 18
    frequency:   17.2086254367
  - # 19
    frequency:   17.2406528958
  - # 20
    frequency:   60.7754139743
  - # 21
    frequency:  112.0578068151

- q-position: [    0.0757576,    0.0000000,    0.0000000 ]
  distance:    0.0259731
  band:
  - # 1
    frequency:   -0.5454340581
  - # 2
    frequency:   -0.0702021753
  - # 3
    frequency:    0.6119115832
  - # 4
    frequency:    1.1463379478
  - # 5
    frequency:    1.7409158293
  - # 6
    frequency:    4.8301205376
  - # 7
    frequency:    4.9177058192
  - # 8
    frequency:    6.5172634611
  - # 9
    frequency:    7.2723871667
  - # 10
    frequency:    7.3365381299
  - # 11
    frequency:    7.6893585100
  - # 12
    frequency:    7.8407929558
  - # 13
    frequency:    8.7089745107
  - # 14
    frequency:   11.4751072703
  - # 15
    frequency:   13.9363530819
  - # 16
    frequency:   14.0175042539
  - # 17
    frequency:   16.4872275326
  - # 18
    frequency:   17.2222579594
  - # 19
    frequency:   17.2579564367
  - # 20
    frequency:   60.7746309235
  - # 21
    frequency:  112.0615111560

- q-position: [    0.0808081,    0.0000000,    0.0000000 ]
  distance:    0.0277046
  band:
  - # 1
    frequency:   -0.4923187021
  - # 2
    frequency:    0.1838376598
  - # 3
    frequency:    0.7162955804
  - # 4
    frequency:    1.2209700280
  - # 5
    frequency:    1.8493049865
  - # 6
    frequency:    4.8362831611
  - # 7
    frequency:    4.9356346391
  - # 8
    frequency:    6.5175114760
  - # 9
    frequency:    7.2776660287
  - # 10
    frequency:    7.3499375976
  - # 11
    frequency:    7.7036926211
  - # 12
    frequency:    7.8739604666
  - # 13
    frequency:    8.7128125146
  - # 14
    frequency:   11.4814202152
  - # 15
    frequency:   13.9424451745
  - # 16
    frequency:   14.0314223390
  - # 17
    frequency:   16.4853751962
  - # 18
    frequency:   17.2361503985
  - # 19
    frequency:   17.2755284229
  - # 20
    frequency:   60.7737802261
  - # 21
    frequency:  112.0648198838

- q-position: [    0.0858586,    0.0000000,    0.0000000 ]
  distance:    0.0294361
  band:
  - # 1
    frequency:   -0.4316665456
  - # 2
    frequency:    0.2798866958
  - # 3
    frequency:    0.8105376016
  - # 4
    frequency:    1.2951040637
  - # 5
    frequency:    1.9573501734
  - # 6
    frequency:    4.8426252715
  - # 7
    frequency:    4.9544367136
  - # 8
    frequency:    6.5177266625
  - # 9
    frequency:    7.2831435764
  - # 10
    frequency:    7.3638766067
  - # 11
    frequency:    7.7183760525
  - # 12
    frequency:    7.9082089517
  - # 13
    frequency:    8.7164004127
  - # 14
    frequency:   11.4875560161
  - # 15
    frequency:   13.9494771674
  - # 16
    frequency:   14.0459089443
  - # 17
    frequency:   16.4831723733
  - # 18
    frequency:   17.2501771429
  - # 19
    frequency:   17.2932142418
  - # 20
    frequency:   60.7728598794
  - # 21
    frequency:  112.0676312580

- q-position: [    0.0909091,    0.0000000,    0.0000000 ]
  distance:    0.0311677
  band:
  - # 1
    frequency:   -0.3601222443
  - # 2
    frequency:    0.3593525903
  - # 3
    frequency:    0.8975240379
  - # 4
    frequency:    1.3687052297
  - # 5
    frequency:    2.0649549054
  - # 6
    frequency:    4.8491160482
  - # 7
    frequency:    4.9740714552
  - # 8
    frequency:    6.5179055340
  - # 9
    frequency:    7.2887981966
  - # 10
    frequency:    7.3782996342
  - # 11
    frequency:    7.7333167815
  - # 12
    frequency:    7.9433759605
  - # 13
    frequency:    8.7196815002
  - # 14
    frequency:   11.4934155523
  - # 15
    frequency:   13.9575521559
  - # 16
    frequency:   14.0609139352
  - # 17
    frequency:   16.4805872629
  - # 18
    frequency:   17.2642091631
  - # 19
    frequency:   17.3108584276
  - # 20
    frequency:   60.7718679675
  - # 21
    frequency:  112.0698453447

- q-position: [    0.0959596,    0.0000000,    0.0000000 ]
  distance:    0.0328992
  band:
  - # 1
    frequency:   -0.2697109707
  - # 2
    frequency:    0.4319124916
  - # 3
    frequency:    0.9789377505
  - # 4
    frequency:    1.4417432432
  - # 5
    frequency:    2.1720290813
  - # 6
    frequency:    4.8557253873
  - # 7
    frequency:    4.9944980979
  - # 8
    frequency:    6.5180458022
  - # 9
    frequency:    7.2946079683
  - # 10
    frequency:    7.3931486578
  - # 11
    frequency:    7.7484219624
  - # 12
    frequency:    7.9792983496
  - # 13
    frequency:    8.7226048459
  - # 14
    frequency:   11.4988981903
  - # 15
    frequency:   13.9667771628
  - # 16
    frequency:   14.0763869270
  - # 17
    frequency:   16.4775888481
  - # 18
    frequency:   17.2781152023
  - # 19
    frequency:   17.3283060702
  - # 20
    frequency:   60.7708026934
  - # 21
    frequency:  112.0713652498

- q-position: [    0.1010101,    0.0000000,    0.0000000 ]
  distance:    0.0346307
  band:
  - # 1
    frequency:   -0.1257320348
  - # 2
    frequency:    0.5008773410
  - # 3
    frequency:    1.0558542221
  - # 4
    frequency:    1.5141919862
  - # 5
    frequency:    2.2784871834
  - # 6
    frequency:    4.8624241983
  - # 7
    frequency:    5.0156757349
  - # 8
    frequency:    6.5181465217
  - # 9
    frequency:    7.3005507420
  - # 10
    frequency:    7.4083633363
  - # 11
    frequency:    7.7635986389
  - # 12
    frequency:    8.0158129174
  - # 13
    frequency:    8.7251264076
  - # 14
    frequency:   11.5039029023
  - # 15
    frequency:   13.9772620729
  - # 16
    frequency:   14.0922775480
  - # 17
    frequency:   16.4741471521
  - # 18
    frequency:   17.2917630348
  - # 19
    frequency:   17.3454042181
  - # 20
    frequency:   60.7696624120
  - # 21
    frequency:  112.0720983355

- q-position: [    0.1060606,    0.0000000,    0.0000000 ]
  distance:    0.0363623
  band:
  - # 1
    frequency:    0.2020409642
  - # 2
    frequency:    0.5677750118
  - # 3
    frequency:    1.1290088390
  - # 4
    frequency:    1.5860291072
  - # 5
    frequency:    2.3842467359
  - # 6
    frequency:    4.8691846847
  - # 7
    frequency:    5.0375633334
  - # 8
    frequency:    6.5182082251
  - # 9
    frequency:    7.3066042200
  - # 10
    frequency:    7.4238812399
  - # 11
    frequency:    7.7787544417
  - # 12
    frequency:    8.0527567716
  - # 13
    frequency:    8.7272102041
  - # 14
    frequency:   11.5083294460
  - # 15
    frequency:   13.9891184653
  - # 16
    frequency:   14.1085356814
  - # 17
    frequency:   16.4702334774
  - # 18
    frequency:   17.3050207714
  - # 19
    frequency:   17.3620032634
  - # 20
    frequency:   60.7684456617
  - # 21
    frequency:  112.0719574081

- q-position: [    0.1111111,    0.0000000,    0.0000000 ]
  distance:    0.0380938
  band:
  - # 1
    frequency:    0.3112129524
  - # 2
    frequency:    0.6334113796
  - # 3
    frequency:    1.1989327509
  - # 4
    frequency:    1.6572356339
  - # 5
    frequency:    2.4892270040
  - # 6
    frequency:    4.8759806063
  - # 7
    frequency:    5.0601197360
  - # 8
    frequency:    6.5182330494
  - # 9
    frequency:    7.3127460397
  - # 10
    frequency:    7.4396381275
  - # 11
    frequency:    7.7937982648
  - # 12
    frequency:    8.0899673680
  - # 13
    frequency:    8.7288296051
  - # 14
    frequency:   11.5120795767
  - # 15
    frequency:   14.0024583732
  - # 16
    frequency:   14.1251116850
  - # 17
    frequency:   16.4658206297
  - # 18
    frequency:   17.3177581904
  - # 19
    frequency:   17.3779582929
  - # 20
    frequency:   60.7671511952
  - # 21
    frequency:  112.0708618649

- q-position: [    0.1161616,    0.0000000,    0.0000000 ]
  distance:    0.0398253
  band:
  - # 1
    frequency:    0.3898843098
  - # 2
    frequency:    0.6982377201
  - # 3
    frequency:    1.2660284899
  - # 4
    frequency:    1.7277956109
  - # 5
    frequency:    2.5933479038
  - # 6
    frequency:    4.8827875232
  - # 7
    frequency:    5.0833036556
  - # 8
    frequency:    6.5182248532
  - # 9
    frequency:    7.3189538600
  - # 10
    frequency:    7.4555682657
  - # 11
    frequency:    7.8086409127
  - # 12
    frequency:    8.1272821333
  - # 13
    frequency:    8.7299688284
  - # 14
    frequency:   11.5150582601
  - # 15
    frequency:   14.0173930021
  - # 16
    frequency:   14.1419565920
  - # 17
    frequency:   16.4608831285
  - # 18
    frequency:   17.3298480725
  - # 19
    frequency:   17.3931303949
  - # 20
    frequency:   60.7657780092
  - # 21
    frequency:  112.0687387894

- q-position: [    0.1212121,    0.0000000,    0.0000000 ]
  distance:    0.0415569
  band:
  - # 1
    frequency:    0.4538934233
  - # 2
    frequency:    0.7625080519
  - # 3
    frequency:    1.3306151071
  - # 4
    frequency:    1.7976957747
  - # 5
    frequency:    2.6965290966
  - # 6
    frequency:    4.8895830172
  - # 7
    frequency:    5.1070736674
  - # 8
    frequency:    6.5181893256
  - # 9
    frequency:    7.3252054496
  - # 10
    frequency:    7.4716047838
  - # 11
    frequency:    7.8231957145
  - # 12
    frequency:    8.1645375483
  - # 13
    frequency:    8.7306247767
  - # 14
    frequency:   11.5171748537
  - # 15
    frequency:   14.0340314408
  - # 16
    frequency:   14.1590222916
  - # 17
    frequency:   16.4553974034
  - # 18
    frequency:   17.3411675190
  - # 19
    frequency:   17.4073879079
  - # 20
    frequency:   60.7643253731
  - # 21
    frequency:  112.0655239822

- q-position: [    0.1262626,    0.0000000,    0.0000000 ]
  distance:    0.0432884
  band:
  - # 1
    frequency:    0.5085501197
  - # 2
    frequency:    0.8263562721
  - # 3
    frequency:    1.3929566877
  - # 4
    frequency:    1.8669252651
  - # 5
    frequency:    2.7986892417
  - # 6
    frequency:    4.8963468917
  - # 7
    frequency:    5.1313882049
  - # 8
    frequency:    6.5181340847
  - # 9
    frequency:    7.3314787773
  - # 10
    frequency:    7.4876800594
  - # 11
    frequency:    7.8373791004
  - # 12
    frequency:    8.2015675086
  - # 13
    frequency:    8.7308094069
  - # 14
    frequency:   11.5183442225
  - # 15
    frequency:   14.0524794007
  - # 16
    frequency:   14.1762616928
  - # 17
    frequency:   16.4493419787
  - # 18
    frequency:   17.3515992340
  - # 19
    frequency:   17.4206076004
  - # 20
    frequency:   60.7627928547
  - # 21
    frequency:  112.0611629192

- q-position: [    0.1313131,    0.0000000,    0.0000000 ]
  distance:    0.0450200
  band:
  - # 1
    frequency:    0.5563950612
  - # 2
    frequency:    0.8898376542
  - # 3
    frequency:    1.4532812540
  - # 4
    frequency:    1.9354753759
  - # 5
    frequency:    2.8997453893
  - # 6
    frequency:    4.9030613470
  - # 7
    frequency:    5.1562055606
  - # 8
    frequency:    6.5180687665
  - # 9
    frequency:    7.3377521030
  - # 10
    frequency:    7.5037261296
  - # 11
    frequency:    7.8511111357
  - # 12
    frequency:    8.2382006914
  - # 13
    frequency:    8.7305529157
  - # 14
    frequency:   11.5184877572
  - # 15
    frequency:   14.0728380123
  - # 16
    frequency:   14.1936288725
  - # 17
    frequency:   16.4426976461
  - # 18
    frequency:   17.3610327527
  - # 19
    frequency:   17.4326757709
  - # 20
    frequency:   60.7611803449
  - # 21
    frequency:  112.0556116250

- q-position: [    0.1363636,    0.0000000,    0.0000000 ]
  distance:    0.0467515
  band:
  - # 1
    frequency:    0.5988680382
  - # 2
    frequency:    0.9529526919
  - # 3
    frequency:    1.5117938345
  - # 4
    frequency:    2.0033393399
  - # 5
    frequency:    2.9996124991
  - # 6
    frequency:    4.9097111309
  - # 7
    frequency:    5.1814838939
  - # 8
    frequency:    6.5180051003
  - # 9
    frequency:    7.3440040687
  - # 10
    frequency:    7.5196751217
  - # 11
    frequency:    7.8643160117
  - # 12
    frequency:    8.2742565312
  - # 13
    frequency:    8.7299081540
  - # 14
    frequency:   11.5175342686
  - # 15
    frequency:   14.0952027110
  - # 16
    frequency:   14.2110792102
  - # 17
    frequency:   16.4354476258
  - # 18
    frequency:   17.3693655993
  - # 19
    frequency:   17.4434892591
  - # 20
    frequency:   60.7594880791
  - # 21
    frequency:  112.0488374545

- q-position: [    0.1414141,    0.0000000,    0.0000000 ]
  distance:    0.0484830
  band:
  - # 1
    frequency:    0.6368724513
  - # 2
    frequency:    1.0156614554
  - # 3
    frequency:    1.5686858369
  - # 4
    frequency:    2.0705121474
  - # 5
    frequency:    3.0982030760
  - # 6
    frequency:    4.9162836619
  - # 7
    frequency:    5.2071812451
  - # 8
    frequency:    6.5179569687
  - # 9
    frequency:    7.3502137870
  - # 10
    frequency:    7.5354596989
  - # 11
    frequency:    7.8769224906
  - # 12
    frequency:    8.3095392248
  - # 13
    frequency:    8.7289568624
  - # 14
    frequency:   11.5154207342
  - # 15
    frequency:   14.1196622312
  - # 16
    frequency:   14.2285695099
  - # 17
    frequency:   16.4275777170
  - # 18
    frequency:   17.3765043615
  - # 19
    frequency:   17.4529563591
  - # 20
    frequency:   60.7577166565
  - # 21
    frequency:  112.0408197717

- q-position: [    0.1464646,    0.0000000,    0.0000000 ]
  distance:    0.0502146
  band:
  - # 1
    frequency:    0.6710154071
  - # 2
    frequency:    1.0778925397
  - # 3
    frequency:    1.6241419646
  - # 4
    frequency:    2.1369903921
  - # 5
    frequency:    3.1954269175
  - # 6
    frequency:    4.9227691268
  - # 7
    frequency:    5.2332555540
  - # 8
    frequency:    6.5179404475
  - # 9
    frequency:    7.3563609283
  - # 10
    frequency:    7.5510135187
  - # 11
    frequency:    7.8888643016
  - # 12
    frequency:    8.3438289674
  - # 13
    frequency:    8.7278185427
  - # 14
    frequency:   11.5120928836
  - # 15
    frequency:   14.1462977266
  - # 16
    frequency:   14.2460581124
  - # 17
    frequency:   16.4190764373
  - # 18
    frequency:   17.3823656700
  - # 19
    frequency:   17.4609976280
  - # 20
    frequency:   60.7558670564
  - # 21
    frequency:  112.0315505215

- q-position: [    0.1515152,    0.0000000,    0.0000000 ]
  distance:    0.0519461
  band:
  - # 1
    frequency:    0.7017256267
  - # 2
    frequency:    1.1395488288
  - # 3
    frequency:    1.6783453937
  - # 4
    frequency:    2.2027721436
  - # 5
    frequency:    3.2911909739
  - # 6
    frequency:    4.9291605481
  - # 7
    frequency:    5.2596646800
  - # 8
    frequency:    6.5179738196
  - # 9
    frequency:    7.3624258026
  - # 10
    frequency:    7.5662716979
  - # 11
    frequency:    7.9000804908
  - # 12
    frequency:    8.3768694289
  - # 13
    frequency:    8.7266629684
  - # 14
    frequency:   11.5075056156
  - # 15
    frequency:   14.1751820236
  - # 16
    frequency:   14.2635049993
  - # 17
    frequency:   16.4099351505
  - # 18
    frequency:   17.3868770724
  - # 19
    frequency:   17.4675465820
  - # 20
    frequency:   60.7539406508
  - # 21
    frequency:  112.0210346847
