nqpoint: 300    
npath: 3      
segment_nqpoint:
- 100
- 100
- 100
labels:
- [ 'G', 'M' ]
- [ 'M', 'K' ]
- [ 'K', 'G' ]
reciprocal_lattice:
- [   0.32565968,   0.18801971,   0.00000000 ] # a*
- [   0.00000000,   0.37603941,   0.00000000 ] # b*
- [   0.00000000,   0.00000000,   0.04056030 ] # c*
natom: 6      
lattice:
- [     3.070690190342348,     0.000000000000000,     0.000000000000000 ] # a
- [    -1.535345095171174,     2.659295711987982,     0.000000000000000 ] # b
- [     0.000000000000000,     0.000000000000000,    24.654648902844485 ] # c
points:
- symbol: N # 1
  coordinates: [  0.000000000000000,  0.000000000000000,  0.452835480146614 ]
  mass: 14.006700
- symbol: O # 2
  coordinates: [  0.333332985432215,  0.666666983183674,  0.634957283899442 ]
  mass: 15.999400
- symbol: O # 3
  coordinates: [  0.666666984744048,  0.333332985985145,  0.365042716100558 ]
  mass: 15.999400
- symbol: P # 4
  coordinates: [  0.333332985432215,  0.666666983183674,  0.574553472449576 ]
  mass: 30.973762
- symbol: Ti # 5
  coordinates: [  0.333332985432215,  0.666666983183674,  0.401848492697160 ]
  mass: 47.867000
- symbol: Ti # 6
  coordinates: [  0.666666984744048,  0.333332985985145,  0.499860057990254 ]
  mass: 47.867000

phonon:
- q-position: [    0.0000000,    0.0000000,    0.0000000 ]
  distance:    0.0000000
  band:
  - # 1
    frequency:   -1.0515444652
  - # 2
    frequency:   -1.0515444652
  - # 3
    frequency:   -0.0000032649
  - # 4
    frequency:    0.0000001365
  - # 5
    frequency:    0.0000024742
  - # 6
    frequency:    2.4932748897
  - # 7
    frequency:    2.4932748898
  - # 8
    frequency:    4.7485442590
  - # 9
    frequency:    4.7485442590
  - # 10
    frequency:    6.7343799088
  - # 11
    frequency:    9.6691606757
  - # 12
    frequency:    9.6691606757
  - # 13
    frequency:   11.6862535319
  - # 14
    frequency:   14.4648857994
  - # 15
    frequency:   14.4648857994
  - # 16
    frequency:   16.6353330262
  - # 17
    frequency:   17.3769456705
  - # 18
    frequency:   34.7517470610

- q-position: [    0.0050505,    0.0000000,    0.0000000 ]
  distance:    0.0018992
  band:
  - # 1
    frequency:   -1.0656899661
  - # 2
    frequency:   -1.0535075335
  - # 3
    frequency:    0.0025011169
  - # 4
    frequency:    0.1323579413
  - # 5
    frequency:    0.1673866960
  - # 6
    frequency:    2.4972461923
  - # 7
    frequency:    2.5011292638
  - # 8
    frequency:    4.7489398818
  - # 9
    frequency:    4.7491531810
  - # 10
    frequency:    6.7347365176
  - # 11
    frequency:    9.6683651075
  - # 12
    frequency:    9.6684736797
  - # 13
    frequency:   11.6861765166
  - # 14
    frequency:   14.4646246680
  - # 15
    frequency:   14.4647453175
  - # 16
    frequency:   16.6346159181
  - # 17
    frequency:   17.3766671597
  - # 18
    frequency:   34.7515250442

- q-position: [    0.0101010,    0.0000000,    0.0000000 ]
  distance:    0.0037984
  band:
  - # 1
    frequency:   -1.1043274791
  - # 2
    frequency:   -1.0582555732
  - # 3
    frequency:    0.0099913328
  - # 4
    frequency:    0.2536763563
  - # 5
    frequency:    0.3314519919
  - # 6
    frequency:    2.5090711703
  - # 7
    frequency:    2.5244821121
  - # 8
    frequency:    4.7501261388
  - # 9
    frequency:    4.7509671931
  - # 10
    frequency:    6.7358199165
  - # 11
    frequency:    9.6659813108
  - # 12
    frequency:    9.6664168127
  - # 13
    frequency:   11.6859422295
  - # 14
    frequency:   14.4638421947
  - # 15
    frequency:   14.4643248919
  - # 16
    frequency:   16.6324653225
  - # 17
    frequency:   17.3758346186
  - # 18
    frequency:   34.7508593679

- q-position: [    0.0151515,    0.0000000,    0.0000000 ]
  distance:    0.0056976
  band:
  - # 1
    frequency:   -1.1594502367
  - # 2
    frequency:   -1.0631059872
  - # 3
    frequency:    0.0224347173
  - # 4
    frequency:    0.3582952604
  - # 5
    frequency:    0.4902446664
  - # 6
    frequency:    2.5284898972
  - # 7
    frequency:    2.5627270878
  - # 8
    frequency:    4.7521012134
  - # 9
    frequency:    4.7539484332
  - # 10
    frequency:    6.7376705284
  - # 11
    frequency:    9.6620180690
  - # 12
    frequency:    9.6630024249
  - # 13
    frequency:   11.6855410123
  - # 14
    frequency:   14.4625411395
  - # 15
    frequency:   14.4636275798
  - # 16
    frequency:   16.6288834725
  - # 17
    frequency:   17.3744569450
  - # 18
    frequency:   34.7497511545

- q-position: [    0.0202020,    0.0000000,    0.0000000 ]
  distance:    0.0075968
  band:
  - # 1
    frequency:   -1.2237895752
  - # 2
    frequency:   -1.0651412409
  - # 3
    frequency:    0.0397797643
  - # 4
    frequency:    0.4455725740
  - # 5
    frequency:    0.6433454198
  - # 6
    frequency:    2.5550911768
  - # 7
    frequency:    2.6149285593
  - # 8
    frequency:    4.7548621315
  - # 9
    frequency:    4.7580351249
  - # 10
    frequency:    6.7403547393
  - # 11
    frequency:    9.6564902216
  - # 12
    frequency:    9.6582510587
  - # 13
    frequency:   11.6849569835
  - # 14
    frequency:   14.4607260913
  - # 15
    frequency:   14.4626584645
  - # 16
    frequency:   16.6238742443
  - # 17
    frequency:   17.3725487153
  - # 18
    frequency:   34.7482022710

- q-position: [    0.0252525,    0.0000000,    0.0000000 ]
  distance:    0.0094959
  band:
  - # 1
    frequency:   -1.2924416699
  - # 2
    frequency:   -1.0619136779
  - # 3
    frequency:    0.0619704956
  - # 4
    frequency:    0.5171687469
  - # 5
    frequency:    0.7912319972
  - # 6
    frequency:    2.5883425899
  - # 7
    frequency:    2.6799138233
  - # 8
    frequency:    4.7584048427
  - # 9
    frequency:    4.7631435550
  - # 10
    frequency:    6.7439634169
  - # 11
    frequency:    9.6494189586
  - # 12
    frequency:    9.6521913851
  - # 13
    frequency:   11.6841683567
  - # 14
    frequency:   14.4584034513
  - # 15
    frequency:   14.4614246382
  - # 16
    frequency:   16.6174433818
  - # 17
    frequency:   17.3701298140
  - # 18
    frequency:   34.7462153246

- q-position: [    0.0303030,    0.0000000,    0.0000000 ]
  distance:    0.0113951
  band:
  - # 1
    frequency:   -1.3624416631
  - # 2
    frequency:   -1.0514970641
  - # 3
    frequency:    0.0889599346
  - # 4
    frequency:    0.5753062357
  - # 5
    frequency:    0.9346737994
  - # 6
    frequency:    2.6276268752
  - # 7
    frequency:    2.7563706833
  - # 8
    frequency:    4.7627243304
  - # 9
    frequency:    4.7691708148
  - # 10
    frequency:    6.7486098310
  - # 11
    frequency:    9.6408322234
  - # 12
    frequency:    9.6448601165
  - # 13
    frequency:   11.6831478791
  - # 14
    frequency:   14.4555814101
  - # 15
    frequency:   14.4599351780
  - # 16
    frequency:   16.6095988001
  - # 17
    frequency:   17.3672249275
  - # 18
    frequency:   34.7437936553

- q-position: [    0.0353535,    0.0000000,    0.0000000 ]
  distance:    0.0132943
  band:
  - # 1
    frequency:   -1.4320458604
  - # 2
    frequency:   -1.0322756822
  - # 3
    frequency:    0.1207266625
  - # 4
    frequency:    0.6221133099
  - # 5
    frequency:    1.0744143745
  - # 6
    frequency:    2.6722798851
  - # 7
    frequency:    2.8429340302
  - # 8
    frequency:    4.7678147512
  - # 9
    frequency:    4.7759982844
  - # 10
    frequency:    6.7544269794
  - # 11
    frequency:    9.6307652132
  - # 12
    frequency:    9.6363018924
  - # 13
    frequency:   11.6818633793
  - # 14
    frequency:   14.4522699180
  - # 15
    frequency:   14.4582011171
  - # 16
    frequency:   16.6003509537
  - # 17
    frequency:   17.3638629203
  - # 18
    frequency:   34.7409413276

- q-position: [    0.0404040,    0.0000000,    0.0000000 ]
  distance:    0.0151935
  band:
  - # 1
    frequency:   -1.5002261554
  - # 2
    frequency:   -1.0026957575
  - # 3
    frequency:    0.1572979378
  - # 4
    frequency:    0.6594608013
  - # 5
    frequency:    1.2110621766
  - # 6
    frequency:    2.7216255914
  - # 7
    frequency:    2.9382522731
  - # 8
    frequency:    4.7736696010
  - # 9
    frequency:    4.7834958316
  - # 10
    frequency:    6.7615643284
  - # 11
    frequency:    9.6192609680
  - # 12
    frequency:    9.6265691403
  - # 13
    frequency:   11.6802784163
  - # 14
    frequency:   14.4484806492
  - # 15
    frequency:   14.4562354111
  - # 16
    frequency:   16.5897132556
  - # 17
    frequency:   17.3600761100
  - # 18
    frequency:   34.7376631194

- q-position: [    0.0454545,    0.0000000,    0.0000000 ]
  distance:    0.0170927
  band:
  - # 1
    frequency:   -1.5663715105
  - # 2
    frequency:   -0.9610219404
  - # 3
    frequency:    0.1987876418
  - # 4
    frequency:    0.6889614635
  - # 5
    frequency:    1.3450793535
  - # 6
    frequency:    2.7750048052
  - # 7
    frequency:    3.0410314872
  - # 8
    frequency:    4.7802819052
  - # 9
    frequency:    4.7915267059
  - # 10
    frequency:    6.7701839995
  - # 11
    frequency:    9.6063710349
  - # 12
    frequency:    9.6157219094
  - # 13
    frequency:   11.6783530159
  - # 14
    frequency:   14.4442269600
  - # 15
    frequency:   14.4540529007
  - # 16
    frequency:   16.5777025276
  - # 17
    frequency:   17.3558994642
  - # 18
    frequency:   34.7339645097

- q-position: [    0.0505051,    0.0000000,    0.0000000 ]
  distance:    0.0189919
  band:
  - # 1
    frequency:   -1.6301183135
  - # 2
    frequency:   -0.9050575969
  - # 3
    frequency:    0.2454670686
  - # 4
    frequency:    0.7120103121
  - # 5
    frequency:    1.4768049250
  - # 6
    frequency:    2.8317959699
  - # 7
    frequency:    3.1500598330
  - # 8
    frequency:    4.7876444325
  - # 9
    frequency:    4.7999531172
  - # 10
    frequency:    6.7804564501
  - # 11
    frequency:    9.5921561984
  - # 12
    frequency:    9.6038276792
  - # 13
    frequency:   11.6760444803
  - # 14
    frequency:   14.4395238402
  - # 15
    frequency:   14.4516702706
  - # 16
    frequency:   16.5643394619
  - # 17
    frequency:   17.3513697450
  - # 18
    frequency:   34.7298516644

- q-position: [    0.0555556,    0.0000000,    0.0000000 ]
  distance:    0.0208911
  band:
  - # 1
    frequency:   -1.6912531810
  - # 2
    frequency:   -0.8317334333
  - # 3
    frequency:    0.2979097744
  - # 4
    frequency:    0.7298291279
  - # 5
    frequency:    1.6064844580
  - # 6
    frequency:    2.8914279990
  - # 7
    frequency:    3.2642168235
  - # 8
    frequency:    4.7957499286
  - # 9
    frequency:    4.8086425237
  - # 10
    frequency:    6.7925557307
  - # 11
    frequency:    9.5766872637
  - # 12
    frequency:    9.5909611390
  - # 13
    frequency:   11.6733082571
  - # 14
    frequency:   14.4343878593
  - # 15
    frequency:   14.4491060066
  - # 16
    frequency:   16.5496490723
  - # 17
    frequency:   17.3465246267
  - # 18
    frequency:   34.7253314197

- q-position: [    0.0606061,    0.0000000,    0.0000000 ]
  distance:    0.0227903
  band:
  - # 1
    frequency:   -1.7496559455
  - # 2
    frequency:   -0.7363607159
  - # 3
    frequency:    0.3573109203
  - # 4
    frequency:    0.7435060358
  - # 5
    frequency:    1.7342961972
  - # 6
    frequency:    2.9533862600
  - # 7
    frequency:    3.3824720736
  - # 8
    frequency:    4.8045913703
  - # 9
    frequency:    4.8174747292
  - # 10
    frequency:    6.8066544270
  - # 11
    frequency:    9.5600458844
  - # 12
    frequency:    9.5772039423
  - # 13
    frequency:   11.6700988507
  - # 14
    frequency:   14.4288371073
  - # 15
    frequency:   14.4463803492
  - # 16
    frequency:   16.5336611109
  - # 17
    frequency:   17.3414018164
  - # 18
    frequency:   34.7204112646

- q-position: [    0.0656566,    0.0000000,    0.0000000 ]
  distance:    0.0246895
  band:
  - # 1
    frequency:   -1.8052653412
  - # 2
    frequency:   -0.6109769984
  - # 3
    frequency:    0.4262249730
  - # 4
    frequency:    0.7540288234
  - # 5
    frequency:    1.8603711666
  - # 6
    frequency:    3.0172133383
  - # 7
    frequency:    3.5038771528
  - # 8
    frequency:    4.8141622374
  - # 9
    frequency:    4.8263500369
  - # 10
    frequency:    6.8229184309
  - # 11
    frequency:    9.5423254240
  - # 12
    frequency:    9.5626444316
  - # 13
    frequency:   11.6663707612
  - # 14
    frequency:   14.4228911292
  - # 15
    frequency:   14.4435152450
  - # 16
    frequency:   16.5164104290
  - # 17
    frequency:   17.3360382045
  - # 18
    frequency:   34.7150993215

- q-position: [    0.0707071,    0.0000000,    0.0000000 ]
  distance:    0.0265886
  band:
  - # 1
    frequency:   -1.8580579014
  - # 2
    frequency:   -0.4390390679
  - # 3
    frequency:    0.5101277929
  - # 4
    frequency:    0.7623122679
  - # 5
    frequency:    1.9848075690
  - # 6
    frequency:    3.0825062726
  - # 7
    frequency:    3.6275527158
  - # 8
    frequency:    4.8244568026
  - # 9
    frequency:    4.8351990137
  - # 10
    frequency:    6.8415017083
  - # 11
    frequency:    9.5236318412
  - # 12
    frequency:    9.5473773364
  - # 13
    frequency:   11.6620794342
  - # 14
    frequency:   14.4165708551
  - # 15
    frequency:   14.4405342943
  - # 16
    frequency:   16.4979372635
  - # 17
    frequency:   17.3304690706
  - # 18
    frequency:   34.7094043249

- q-position: [    0.0757576,    0.0000000,    0.0000000 ]
  distance:    0.0284878
  band:
  - # 1
    frequency:   -1.9080347975
  - # 2
    frequency:   -0.1350522422
  - # 3
    frequency:    0.6185373808
  - # 4
    frequency:    0.7692197197
  - # 5
    frequency:    2.1076806404
  - # 6
    frequency:    3.1489117088
  - # 7
    frequency:    3.7526714538
  - # 8
    frequency:    4.8354704394
  - # 9
    frequency:    4.8439950238
  - # 10
    frequency:    6.8625412448
  - # 11
    frequency:    9.5040845903
  - # 12
    frequency:    9.5315034421
  - # 13
    frequency:   11.6571822085
  - # 14
    frequency:   14.4098985253
  - # 15
    frequency:   14.4374626951
  - # 16
    frequency:   16.4782874295
  - # 17
    frequency:   17.3247273682
  - # 18
    frequency:   34.7033355989

- q-position: [    0.0808081,    0.0000000,    0.0000000 ]
  distance:    0.0303870
  band:
  - # 1
    frequency:   -1.9552135958
  - # 2
    frequency:    0.3588022364
  - # 3
    frequency:    0.7561457661
  - # 4
    frequency:    0.7755788766
  - # 5
    frequency:    2.2290491816
  - # 6
    frequency:    3.2161200740
  - # 7
    frequency:    3.8784354123
  - # 8
    frequency:    4.8471999476
  - # 9
    frequency:    4.8527719118
  - # 10
    frequency:    6.8861523535
  - # 11
    frequency:    9.4838175225
  - # 12
    frequency:    9.5151292308
  - # 13
    frequency:   11.6516392475
  - # 14
    frequency:   14.4028976114
  - # 15
    frequency:   14.4343271803
  - # 16
    frequency:   16.4575124088
  - # 17
    frequency:   17.3188431066
  - # 18
    frequency:   34.6969030333

- q-position: [    0.0858586,    0.0000000,    0.0000000 ]
  distance:    0.0322862
  band:
  - # 1
    frequency:   -1.9996231354
  - # 2
    frequency:    0.4991619865
  - # 3
    frequency:    0.7821914373
  - # 4
    frequency:    0.9100211386
  - # 5
    frequency:    2.3489597899
  - # 6
    frequency:    3.2838595179
  - # 7
    frequency:    4.0040431622
  - # 8
    frequency:    4.8596438979
  - # 9
    frequency:    4.8616517810
  - # 10
    frequency:    6.9124245054
  - # 11
    frequency:    9.4629797731
  - # 12
    frequency:    9.4983664940
  - # 13
    frequency:   11.6454144449
  - # 14
    frequency:   14.3955927324
  - # 15
    frequency:   14.4311559487
  - # 16
    frequency:   16.4356693254
  - # 17
    frequency:   17.3128428447
  - # 18
    frequency:   34.6901170580

- q-position: [    0.0909091,    0.0000000,    0.0000000 ]
  distance:    0.0341854
  band:
  - # 1
    frequency:   -2.0413004189
  - # 2
    frequency:    0.6001236998
  - # 3
    frequency:    0.7898362798
  - # 4
    frequency:    1.0657815945
  - # 5
    frequency:    2.4674495710
  - # 6
    frequency:    3.3518900856
  - # 7
    frequency:    4.1286364399
  - # 8
    frequency:    4.8708934023
  - # 9
    frequency:    4.8728029953
  - # 10
    frequency:    6.9414178143
  - # 11
    frequency:    9.4417366113
  - # 12
    frequency:    9.4813319162
  - # 13
    frequency:   11.6384762947
  - # 14
    frequency:   14.3880095677
  - # 15
    frequency:   14.4279785864
  - # 16
    frequency:   16.4128208037
  - # 17
    frequency:   17.3067493028
  - # 18
    frequency:   34.6829886168

- q-position: [    0.0959596,    0.0000000,    0.0000000 ]
  distance:    0.0360846
  band:
  - # 1
    frequency:   -2.0802888050
  - # 2
    frequency:    0.6882569480
  - # 3
    frequency:    0.7992660237
  - # 4
    frequency:    1.2182609958
  - # 5
    frequency:    2.5845478785
  - # 6
    frequency:    3.4199983678
  - # 7
    frequency:    4.2512030001
  - # 8
    frequency:    4.8809845371
  - # 9
    frequency:    4.8866804613
  - # 10
    frequency:    6.9731602567
  - # 11
    frequency:    9.4202702230
  - # 12
    frequency:    9.4641466320
  - # 13
    frequency:   11.6307987202
  - # 14
    frequency:   14.3801747673
  - # 15
    frequency:   14.4248259775
  - # 16
    frequency:   16.3890347141
  - # 17
    frequency:   17.3005810994
  - # 18
    frequency:   34.6755291390

- q-position: [    0.1010101,    0.0000000,    0.0000000 ]
  distance:    0.0379838
  band:
  - # 1
    frequency:   -2.1166370315
  - # 2
    frequency:    0.7718475289
  - # 3
    frequency:    0.8111973587
  - # 4
    frequency:    1.3667566877
  - # 5
    frequency:    2.7002774551
  - # 6
    frequency:    3.4879927337
  - # 7
    frequency:    4.3703826856
  - # 8
    frequency:    4.8928311702
  - # 9
    frequency:    4.9012824362
  - # 10
    frequency:    7.0076456626
  - # 11
    frequency:    9.3987803797
  - # 12
    frequency:    9.4469357548
  - # 13
    frequency:   11.6223618589
  - # 14
    frequency:   14.3721158578
  - # 15
    frequency:   14.4217302032
  - # 16
    frequency:   16.3643838085
  - # 17
    frequency:   17.2943526082
  - # 18
    frequency:   34.6677505111

- q-position: [    0.1060606,    0.0000000,    0.0000000 ]
  distance:    0.0398830
  band:
  - # 1
    frequency:   -2.1503987392
  - # 2
    frequency:    0.8262963140
  - # 3
    frequency:    0.8540302310
  - # 4
    frequency:    1.5117163453
  - # 5
    frequency:    2.8146552042
  - # 6
    frequency:    3.5556991608
  - # 7
    frequency:    4.4840590322
  - # 8
    frequency:    4.9081613579
  - # 9
    frequency:    4.9166183959
  - # 10
    frequency:    7.0448324708
  - # 11
    frequency:    9.3774849347
  - # 12
    frequency:    9.4298278806
  - # 13
    frequency:   11.6131528016
  - # 14
    frequency:   14.3638611473
  - # 15
    frequency:   14.4187244267
  - # 16
    frequency:   16.3389452588
  - # 17
    frequency:   17.2880739317
  - # 18
    frequency:   34.6596650466

- q-position: [    0.1111111,    0.0000000,    0.0000000 ]
  distance:    0.0417822
  band:
  - # 1
    frequency:   -2.1816322630
  - # 2
    frequency:    0.8451605500
  - # 3
    frequency:    0.9361309218
  - # 4
    frequency:    1.6537449388
  - # 5
    frequency:    2.9276927228
  - # 6
    frequency:    3.6229576300
  - # 7
    frequency:    4.5885386886
  - # 8
    frequency:    4.9303414820
  - # 9
    frequency:    4.9327015814
  - # 10
    frequency:    7.0846432181
  - # 11
    frequency:    9.3566200623
  - # 12
    frequency:    9.4129545660
  - # 13
    frequency:   11.6031662884
  - # 14
    frequency:   14.3554396270
  - # 15
    frequency:   14.4158427646
  - # 16
    frequency:   16.3128001067
  - # 17
    frequency:   17.2817509815
  - # 18
    frequency:   34.6512854553

- q-position: [    0.1161616,    0.0000000,    0.0000000 ]
  distance:    0.0436813
  band:
  - # 1
    frequency:   -2.2104005121
  - # 2
    frequency:    0.8683014803
  - # 3
    frequency:    1.0187319330
  - # 4
    frequency:    1.7933694236
  - # 5
    frequency:    3.0393966426
  - # 6
    frequency:    3.6896190279
  - # 7
    frequency:    4.6775067957
  - # 8
    frequency:    4.9495494299
  - # 9
    frequency:    4.9654168760
  - # 10
    frequency:    7.1269647339
  - # 11
    frequency:    9.3364401287
  - # 12
    frequency:    9.3964497841
  - # 13
    frequency:   11.5924053641
  - # 14
    frequency:   14.3468808726
  - # 15
    frequency:   14.4131201445
  - # 16
    frequency:   16.2860326423
  - # 17
    frequency:   17.2753856554
  - # 18
    frequency:   34.6426248118

- q-position: [    0.1212121,    0.0000000,    0.0000000 ]
  distance:    0.0455805
  band:
  - # 1
    frequency:   -2.2367708044
  - # 2
    frequency:    0.8961292676
  - # 3
    frequency:    1.1020689235
  - # 4
    frequency:    1.9310026239
  - # 5
    frequency:    3.1497687606
  - # 6
    frequency:    3.7555425026
  - # 7
    frequency:    4.7436003600
  - # 8
    frequency:    4.9671839933
  - # 9
    frequency:    5.0205349432
  - # 10
    frequency:    7.1716490368
  - # 11
    frequency:    9.3172170523
  - # 12
    frequency:    9.3804493581
  - # 13
    frequency:   11.5808820006
  - # 14
    frequency:   14.3382149427
  - # 15
    frequency:   14.4105921489
  - # 16
    frequency:   16.2587297237
  - # 17
    frequency:   17.2689760966
  - # 18
    frequency:   34.6336965234

- q-position: [    0.1262626,    0.0000000,    0.0000000 ]
  distance:    0.0474797
  band:
  - # 1
    frequency:   -2.2608145535
  - # 2
    frequency:    0.9289432672
  - # 3
    frequency:    1.1861985815
  - # 4
    frequency:    2.0669544295
  - # 5
    frequency:    3.2588058708
  - # 6
    frequency:    3.8205932193
  - # 7
    frequency:    4.7858458748
  - # 8
    frequency:    4.9856323210
  - # 9
    frequency:    5.0965047040
  - # 10
    frequency:    7.2185149798
  - # 11
    frequency:    9.2992389710
  - # 12
    frequency:    9.3650903768
  - # 13
    frequency:   11.5686176920
  - # 14
    frequency:   14.3294722779
  - # 15
    frequency:   14.4082948491
  - # 16
    frequency:   16.2309800528
  - # 17
    frequency:   17.2625170236
  - # 18
    frequency:   34.6245142972

- q-position: [    0.1313131,    0.0000000,    0.0000000 ]
  distance:    0.0493789
  band:
  - # 1
    frequency:   -2.2826067304
  - # 2
    frequency:    0.9669293862
  - # 3
    frequency:    1.2710771654
  - # 4
    frequency:    2.2014505135
  - # 5
    frequency:    3.3664991278
  - # 6
    frequency:    3.8846404850
  - # 7
    frequency:    4.8114456441
  - # 8
    frequency:    5.0049267738
  - # 9
    frequency:    5.1860085540
  - # 10
    frequency:    7.2673507514
  - # 11
    frequency:    9.2828079991
  - # 12
    frequency:    9.3505105935
  - # 13
    frequency:   11.5556440332
  - # 14
    frequency:   14.3206835985
  - # 15
    frequency:   14.4062646291
  - # 16
    frequency:   16.2028734215
  - # 17
    frequency:   17.2560001162
  - # 18
    frequency:   34.6150921071

- q-position: [    0.1363636,    0.0000000,    0.0000000 ]
  distance:    0.0512781
  band:
  - # 1
    frequency:   -2.3022250531
  - # 2
    frequency:    1.0101644141
  - # 3
    frequency:    1.3566006080
  - # 4
    frequency:    2.3346487828
  - # 5
    frequency:    3.4728326584
  - # 6
    frequency:    3.9475562289
  - # 7
    frequency:    4.8278983306
  - # 8
    frequency:    5.0251052207
  - # 9
    frequency:    5.2814810340
  - # 10
    frequency:    7.3179174017
  - # 11
    frequency:    9.2682368195
  - # 12
    frequency:    9.3368478114
  - # 13
    frequency:   11.5420032895
  - # 14
    frequency:   14.3118798022
  - # 15
    frequency:   14.4045380061
  - # 16
    frequency:   16.1744999428
  - # 17
    frequency:   17.2494144450
  - # 18
    frequency:   34.6054441600

- q-position: [    0.1414141,    0.0000000,    0.0000000 ]
  distance:    0.0531773
  band:
  - # 1
    frequency:   -2.3197488820
  - # 2
    frequency:    1.0586261155
  - # 3
    frequency:    1.4426266419
  - # 4
    frequency:    2.4666518453
  - # 5
    frequency:    3.5777809748
  - # 6
    frequency:    4.0092138528
  - # 7
    frequency:    4.8396691335
  - # 8
    frequency:    5.0462110578
  - # 9
    frequency:    5.3784396656
  - # 10
    frequency:    7.3699536010
  - # 11
    frequency:    9.2558438387
  - # 12
    frequency:    9.3242392589
  - # 13
    frequency:   11.5277489691
  - # 14
    frequency:   14.3030918621
  - # 15
    frequency:   14.4031514490
  - # 16
    frequency:   16.1459492762
  - # 17
    frequency:   17.2427469321
  - # 18
    frequency:   34.5955848623

- q-position: [    0.1464646,    0.0000000,    0.0000000 ]
  distance:    0.0550765
  band:
  - # 1
    frequency:   -2.3352578301
  - # 2
    frequency:    1.1122071071
  - # 3
    frequency:    1.5289879553
  - # 4
    frequency:    2.5975158473
  - # 5
    frequency:    3.6813044793
  - # 6
    frequency:    4.0694874872
  - # 7
    frequency:    4.8491262297
  - # 8
    frequency:    5.0682929664
  - # 9
    frequency:    5.4745519282
  - # 10
    frequency:    7.4231818392
  - # 11
    frequency:    9.2459466421
  - # 12
    frequency:    9.3128209563
  - # 13
    frequency:   11.5129464085
  - # 14
    frequency:   14.2943507247
  - # 15
    frequency:   14.4021412017
  - # 16
    frequency:   16.1173098613
  - # 17
    frequency:   17.2359828317
  - # 18
    frequency:   34.5855287860

- q-position: [    0.1515152,    0.0000000,    0.0000000 ]
  distance:    0.0569757
  band:
  - # 1
    frequency:   -2.3488301255
  - # 2
    frequency:    1.1707303886
  - # 3
    frequency:    1.6155006539
  - # 4
    frequency:    2.7272564215
  - # 5
    frequency:    3.7833419473
  - # 6
    frequency:    4.1282517181
  - # 7
    frequency:    4.8576077256
  - # 8
    frequency:    5.0914043181
  - # 9
    frequency:    5.5685752460
  - # 10
    frequency:    7.4773162106
  - # 11
    frequency:    9.2388535401
  - # 12
    frequency:    9.3027270799
  - # 13
    frequency:   11.4976733794
  - # 14
    frequency:   14.2856872094
  - # 15
    frequency:   14.4015431151
  - # 16
    frequency:   16.0886681685
  - # 17
    frequency:   17.2291062201
  - # 18
    frequency:   34.5752906346

- q-position: [    0.1565657,    0.0000000,    0.0000000 ]
  distance:    0.0588749
  band:
  - # 1
    frequency:   -2.3605407935
  - # 2
    frequency:    1.2339647274
  - # 3
    frequency:    1.7019701766
  - # 4
    frequency:    2.8558524491
  - # 5
    frequency:    3.8837982303
  - # 6
    frequency:    4.1853818619
  - # 7
    frequency:    4.8659813492
  - # 8
    frequency:    5.1156021189
  - # 9
    frequency:    5.6598095178
  - # 10
    frequency:    7.5320717898
  - # 11
    frequency:    9.2348531246
  - # 12
    frequency:    9.2940893234
  - # 13
    frequency:   11.4820207266
  - # 14
    frequency:   14.2771319077
  - # 15
    frequency:   14.4013924933
  - # 16
    frequency:   16.0601079759
  - # 17
    frequency:   17.2221004866
  - # 18
    frequency:   34.5648852098

- q-position: [    0.1616162,    0.0000000,    0.0000000 ]
  distance:    0.0607740
  band:
  - # 1
    frequency:   -2.3704597483
  - # 2
    frequency:    1.3016386809
  - # 3
    frequency:    1.7881957986
  - # 4
    frequency:    2.9832482141
  - # 5
    frequency:    3.9825244284
  - # 6
    frequency:    4.2407548743
  - # 7
    frequency:    4.8749184595
  - # 8
    frequency:    5.1409453906
  - # 9
    frequency:    5.7478433794
  - # 10
    frequency:    7.5871753754
  - # 11
    frequency:    9.2342019635
  - # 12
    frequency:    9.2870362606
  - # 13
    frequency:   11.4660930411
  - # 14
    frequency:   14.2687150847
  - # 15
    frequency:   14.4017239582
  - # 16
    frequency:   16.0317096805
  - # 17
    frequency:   17.2149488158
  - # 18
    frequency:   34.5543273780

- q-position: [    0.1666667,    0.0000000,    0.0000000 ]
  distance:    0.0626732
  band:
  - # 1
    frequency:   -2.3786498979
  - # 2
    frequency:    1.3734526340
  - # 3
    frequency:    1.8739743346
  - # 4
    frequency:    3.1093544195
  - # 5
    frequency:    4.0792863293
  - # 6
    frequency:    4.2942509572
  - # 7
    frequency:    4.8850468529
  - # 8
    frequency:    5.1674929090
  - # 9
    frequency:    5.8324339289
  - # 10
    frequency:    7.6423770746
  - # 11
    frequency:    9.2371108601
  - # 12
    frequency:    9.2816927122
  - # 13
    frequency:   11.4500093708
  - # 14
    frequency:   14.2604665812
  - # 15
    frequency:   14.4025713368
  - # 16
    frequency:   16.0035496522
  - # 17
    frequency:   17.2076346553
  - # 18
    frequency:   34.5436320366

- q-position: [    0.1717172,    0.0000000,    0.0000000 ]
  distance:    0.0645724
  band:
  - # 1
    frequency:   -2.3851653756
  - # 2
    frequency:    1.4490887074
  - # 3
    frequency:    1.9591033773
  - # 4
    frequency:    3.2340484518
  - # 5
    frequency:    4.1737151368
  - # 6
    frequency:    4.3457558873
  - # 7
    frequency:    4.8970616397
  - # 8
    frequency:    5.1953002711
  - # 9
    frequency:    5.9134466081
  - # 10
    frequency:    7.6974618607
  - # 11
    frequency:    9.2437304697
  - # 12
    frequency:    9.2781791171
  - # 13
    frequency:   11.4339039619
  - # 14
    frequency:   14.2524157174
  - # 15
    frequency:   14.4039675738
  - # 16
    frequency:   15.9756996379
  - # 17
    frequency:   17.2001421618
  - # 18
    frequency:   34.5328140824

- q-position: [    0.1767677,    0.0000000,    0.0000000 ]
  distance:    0.0664716
  band:
  - # 1
    frequency:   -2.3900499993
  - # 2
    frequency:    1.5282186881
  - # 3
    frequency:    2.0433842440
  - # 4
    frequency:    3.3571742015
  - # 5
    frequency:    4.2652335879
  - # 6
    frequency:    4.3951640040
  - # 7
    frequency:    4.9118328037
  - # 8
    frequency:    5.2244163473
  - # 9
    frequency:    5.9908234755
  - # 10
    frequency:    7.7522599235
  - # 11
    frequency:    9.2541374273
  - # 12
    frequency:    9.2766109101
  - # 13
    frequency:   11.4179270166
  - # 14