nqpoint: 300    
npath: 3      
segment_nqpoint:
- 100
- 100
- 100
labels:
- [ 'G', 'M' ]
- [ 'M', 'K' ]
- [ 'K', 'G' ]
reciprocal_lattice:
- [   0.32009508,   0.18480698,   0.00000000 ] # a*
- [   0.00000000,   0.36961396,   0.00000000 ] # b*
- [   0.00000000,   0.00000000,   0.03998334 ] # c*
natom: 7      
lattice:
- [     3.124071791342557,     0.000000000000000,     0.000000000000000 ] # a
- [    -1.562035895671278,     2.705525534536986,     0.000000000000000 ] # b
- [     0.000000000000000,     0.000000000000000,    25.010418184866531 ] # c
points:
- symbol: C # 1
  coordinates: [  0.000000000000000,  0.000000000000000,  0.443316094762764 ]
  mass: 12.010700
- symbol: C # 2
  coordinates: [  0.333332985432215,  0.666666983183674,  0.592024217789900 ]
  mass: 12.010700
- symbol: H # 3
  coordinates: [  0.666666984744047,  0.333332985985145,  0.359850040630100 ]
  mass: 1.007940
- symbol: N # 4
  coordinates: [  0.333332985432215,  0.666666983183674,  0.542210615317486 ]
  mass: 14.006700
- symbol: O # 5
  coordinates: [  0.333332985432215,  0.666666983183674,  0.640149959369900 ]
  mass: 15.999400
- symbol: Ti # 6
  coordinates: [  0.333332985432215,  0.666666983183674,  0.398059120985374 ]
  mass: 47.867000
- symbol: Ti # 7
  coordinates: [  0.666666984744047,  0.333332985985145,  0.488587371654341 ]
  mass: 47.867000

phonon:
- q-position: [    0.0000000,    0.0000000,    0.0000000 ]
  distance:    0.0000000
  band:
  - # 1
    frequency:   -1.3238890682
  - # 2
    frequency:   -1.3238890682
  - # 3
    frequency:   -0.0000040980
  - # 4
    frequency:   -0.0000004174
  - # 5
    frequency:    0.0000039038
  - # 6
    frequency:    6.1901165212
  - # 7
    frequency:    6.1901165212
  - # 8
    frequency:    7.6297372508
  - # 9
    frequency:    7.9367394033
  - # 10
    frequency:    7.9367394033
  - # 11
    frequency:   11.9030410818
  - # 12
    frequency:   17.1535287524
  - # 13
    frequency:   17.1535287524
  - # 14
    frequency:   18.3001510161
  - # 15
    frequency:   18.3001510161
  - # 16
    frequency:   18.5427357509
  - # 17
    frequency:   27.9880662917
  - # 18
    frequency:   27.9880662917
  - # 19
    frequency:   28.9449257283
  - # 20
    frequency:   38.5608951273
  - # 21
    frequency:   69.4921158269

- q-position: [    0.0050505,    0.0000000,    0.0000000 ]
  distance:    0.0018667
  band:
  - # 1
    frequency:   -1.3225293907
  - # 2
    frequency:   -1.3209981856
  - # 3
    frequency:   -0.2972142624
  - # 4
    frequency:    0.1058350727
  - # 5
    frequency:    0.3390260763
  - # 6
    frequency:    6.1905158759
  - # 7
    frequency:    6.1915901408
  - # 8
    frequency:    7.6269528749
  - # 9
    frequency:    7.9372461889
  - # 10
    frequency:    7.9406005571
  - # 11
    frequency:   11.9024400238
  - # 12
    frequency:   17.1537841719
  - # 13
    frequency:   17.1541061357
  - # 14
    frequency:   18.3013247995
  - # 15
    frequency:   18.3014748324
  - # 16
    frequency:   18.5422760551
  - # 17
    frequency:   27.9882665669
  - # 18
    frequency:   27.9886657900
  - # 19
    frequency:   28.9450371307
  - # 20
    frequency:   38.5608832676
  - # 21
    frequency:   69.4905083289

- q-position: [    0.0101010,    0.0000000,    0.0000000 ]
  distance:    0.0037335
  band:
  - # 1
    frequency:   -1.3184896944
  - # 2
    frequency:   -1.3123659385
  - # 3
    frequency:   -0.3927982097
  - # 4
    frequency:    0.2118710531
  - # 5
    frequency:    0.5107865580
  - # 6
    frequency:    6.1917129445
  - # 7
    frequency:    6.1960034152
  - # 8
    frequency:    7.6189864224
  - # 9
    frequency:    7.9387635363
  - # 10
    frequency:    7.9517925435
  - # 11
    frequency:   11.9006377941
  - # 12
    frequency:   17.1545475599
  - # 13
    frequency:   17.1558344723
  - # 14
    frequency:   18.3048377523
  - # 15
    frequency:   18.3054354214
  - # 16
    frequency:   18.5408991018
  - # 17
    frequency:   27.9888651919
  - # 18
    frequency:   27.9904604435
  - # 19
    frequency:   28.9453697526
  - # 20
    frequency:   38.5608477232
  - # 21
    frequency:   69.4856904881

- q-position: [    0.0151515,    0.0000000,    0.0000000 ]
  distance:    0.0056002
  band:
  - # 1
    frequency:   -1.3118827862
  - # 2
    frequency:   -1.2981035976
  - # 3
    frequency:   -0.4489687165
  - # 4
    frequency:    0.3182823499
  - # 5
    frequency:    0.6649650596
  - # 6
    frequency:    6.1937047404
  - # 7
    frequency:    6.2033336707
  - # 8
    frequency:    7.6067971567
  - # 9
    frequency:    7.9412824574
  - # 10
    frequency:    7.9693418089
  - # 11
    frequency:   11.8976372129
  - # 12
    frequency:   17.1558104056
  - # 13
    frequency:   17.1587024079
  - # 14
    frequency:   18.3106646898
  - # 15
    frequency:   18.3120000442
  - # 16
    frequency:   18.5386114993
  - # 17
    frequency:   27.9898555812
  - # 18
    frequency:   27.9934387368
  - # 19
    frequency:   28.9459188799
  - # 20
    frequency:   38.5607885986
  - # 21
    frequency:   69.4776762403

- q-position: [    0.0202020,    0.0000000,    0.0000000 ]
  distance:    0.0074669
  band:
  - # 1
    frequency:   -1.3028802055
  - # 2
    frequency:   -1.2783675596
  - # 3
    frequency:   -0.4828770036
  - # 4
    frequency:    0.4251944888
  - # 5
    frequency:    0.8140098009
  - # 6
    frequency:    6.1964862890
  - # 7
    frequency:    6.2135433793
  - # 8
    frequency:    7.5915159417
  - # 9
    frequency:    7.9447881061
  - # 10
    frequency:    7.9920940371
  - # 11
    frequency:   11.8934429359
  - # 12
    frequency:   17.1575588550
  - # 13
    frequency:   17.1626912982
  - # 14
    frequency:   18.3187636682
  - # 15
    frequency:   18.3211135181
  - # 16
    frequency:   18.5354250413
  - # 17
    frequency:   27.9912268132
  - # 18
    frequency:   27.9975815067
  - # 19
    frequency:   28.9466767935
  - # 20
    frequency:   38.5607060686
  - # 21
    frequency:   69.4664887322

- q-position: [    0.0252525,    0.0000000,    0.0000000 ]
  distance:    0.0093337
  band:
  - # 1
    frequency:   -1.2916904728
  - # 2
    frequency:   -1.2533280465
  - # 3
    frequency:   -0.5012401950
  - # 4
    frequency:    0.5326692786
  - # 5
    frequency:    0.9619771331
  - # 6
    frequency:    6.2000506329
  - # 7
    frequency:    6.2265805293
  - # 8
    frequency:    7.5741514246
  - # 9
    frequency:    7.9492599752
  - # 10
    frequency:    8.0190085109
  - # 11
    frequency:   11.8880613895
  - # 12
    frequency:   17.1597741817
  - # 13
    frequency:   17.1677756105
  - # 14
    frequency:   18.3290760511
  - # 15
    frequency:   18.3326969158
  - # 16
    frequency:   18.5313582606
  - # 17
    frequency:   27.9929637117
  - # 18
    frequency:   28.0028619854
  - # 19
    frequency:   28.9476329753
  - # 20
    frequency:   38.5606003795
  - # 21
    frequency:   69.4521602030

- q-position: [    0.0303030,    0.0000000,    0.0000000 ]
  distance:    0.0112004
  band:
  - # 1
    frequency:   -1.2785341492
  - # 2
    frequency:   -1.2231441578
  - # 3
    frequency:   -0.5070592166
  - # 4
    frequency:    0.6406995629
  - # 5
    frequency:    1.1104009181
  - # 6
    frequency:    6.2043888400
  - # 7
    frequency:    6.2423791037
  - # 8
    frequency:    7.5554860030
  - # 9
    frequency:    7.9546721640
  - # 10
    frequency:    8.0492629067
  - # 11
    frequency:   11.8815006850
  - # 12
    frequency:   17.1624333999
  - # 13
    frequency:   17.1739234537
  - # 14
    frequency:   18.3415266387
  - # 15
    frequency:   18.3466446773
  - # 16
    frequency:   18.5264396896
  - # 17
    frequency:   27.9950469586
  - # 18
    frequency:   28.0092458577
  - # 19
    frequency:   28.9487743941
  - # 20
    frequency:   38.5604718508
  - # 21
    frequency:   69.4347318190

- q-position: [    0.0353535,    0.0000000,    0.0000000 ]
  distance:    0.0130672
  band:
  - # 1
    frequency:   -1.2636200508
  - # 2
    frequency:   -1.1879542020
  - # 3
    frequency:   -0.5012968614
  - # 4
    frequency:    0.7492136066
  - # 5
    frequency:    1.2597929767
  - # 6
    frequency:    6.2094900180
  - # 7
    frequency:    6.2608596270
  - # 8
    frequency:    7.5360871504
  - # 9
    frequency:    7.9609937093
  - # 10
    frequency:    8.0822429478
  - # 11
    frequency:   11.8737705139
  - # 12
    frequency:   17.1655099810
  - # 13
    frequency:   17.1810972051
  - # 14
    frequency:   18.3560238907
  - # 15
    frequency:   18.3628179292
  - # 16
    frequency:   18.5207150486
  - # 17
    frequency:   27.9974532372
  - # 18
    frequency:   28.0166913311
  - # 19
    frequency:   28.9500858693
  - # 20
    frequency:   38.5603208771
  - # 21
    frequency:   69.4142534631

- q-position: [    0.0404040,    0.0000000,    0.0000000 ]
  distance:    0.0149339
  band:
  - # 1
    frequency:   -1.2471263592
  - # 2
    frequency:   -1.1478846116
  - # 3
    frequency:   -0.4833248158
  - # 4
    frequency:    0.8580871240
  - # 5
    frequency:    1.4102031842
  - # 6
    frequency:    6.2153413342
  - # 7
    frequency:    6.2819297280
  - # 8
    frequency:    7.5163563803
  - # 9
    frequency:    7.9681889706
  - # 10
    frequency:    8.1174946401
  - # 11
    frequency:   11.8648820314
  - # 12
    frequency:   17.1689746267
  - # 13
    frequency:   17.1892542038
  - # 14
    frequency:   18.3724602759
  - # 15
    frequency:   18.3810276452
  - # 16
    frequency:   18.5142647428
  - # 17
    frequency:   28.0001554045
  - # 18
    frequency:   28.0251492157
  - # 19
    frequency:   28.9515505098
  - # 20
    frequency:   38.5601479303
  - # 21
    frequency:   69.3907834803

- q-position: [    0.0454545,    0.0000000,    0.0000000 ]
  distance:    0.0168006
  band:
  - # 1
    frequency:   -1.2291887714
  - # 2
    frequency:   -1.1030741534
  - # 3
    frequency:   -0.4507158283
  - # 4
    frequency:    0.9671595753
  - # 5
    frequency:    1.5614716896
  - # 6
    frequency:    6.2219280447
  - # 7
    frequency:    6.3054846624
  - # 8
    frequency:    7.4965784430
  - # 9
    frequency:    7.9762180596
  - # 10
    frequency:    8.1546765078
  - # 11
    frequency:   11.8548477313
  - # 12
    frequency:   17.1727960573
  - # 13
    frequency:   17.1983474778
  - # 14
    frequency:   18.3907127789
  - # 15
    frequency:   18.4009862164
  - # 16
    frequency:   18.5072531119
  - # 17
    frequency:   28.0031226926
  - # 18
    frequency:   28.0345630111
  - # 19
    frequency:   28.9531502235
  - # 20
    frequency:   38.5599535615
  - # 21
    frequency:   69.3643883805

- q-position: [    0.0505051,    0.0000000,    0.0000000 ]
  distance:    0.0186674
  band:
  - # 1
    frequency:   -1.2098958511
  - # 2
    frequency:   -1.0537015350
  - # 3
    frequency:   -0.3980625210
  - # 4
    frequency:    1.0762511083
  - # 5
    frequency:    1.7133525187
  - # 6
    frequency:    6.2292335336
  - # 7
    frequency:    6.3314077191
  - # 8
    frequency:    7.4769600143
  - # 9
    frequency:    7.9850373036
  - # 10
    frequency:    8.1935225900
  - # 11
    frequency:   11.8436813178
  - # 12
    frequency:   17.1769417749
  - # 13
    frequency:   17.2083264725
  - # 14
    frequency:   18.4106435869
  - # 15
    frequency:   18.4221380026
  - # 16
    frequency:   18.5000988709
  - # 17
    frequency:   28.0063209352
  - # 18
    frequency:   28.0448689979
  - # 19
    frequency:   28.9548662936
  - # 20
    frequency:   38.5597384040
  - # 21
    frequency:   69.3351425012

- q-position: [    0.0555556,    0.0000000,    0.0000000 ]
  distance:    0.0205341
  band:
  - # 1
    frequency:   -1.1892901434
  - # 2
    frequency:   -0.9999904074
  - # 3
    frequency:   -0.3124076636
  - # 4
    frequency:    1.1851773171
  - # 5
    frequency:    1.8655751205
  - # 6
    frequency:    6.2372393635
  - # 7
    frequency:    6.3595704291
  - # 8
    frequency:    7.4576576988
  - # 9
    frequency:    7.9945997311
  - # 10
    frequency:    8.2338164110
  - # 11
    frequency:   11.8313975803
  - # 12
    frequency:   17.1813787662
  - # 13
    frequency:   17.2191377570
  - # 14
    frequency:   18.4321009744
  - # 15
    frequency:   18.4428865573
  - # 16
    frequency:   18.4942490493
  - # 17
    frequency:   28.0097128192
  - # 18
    frequency:   28.0559963312
  - # 19
    frequency:   28.9566800152
  - # 20
    frequency:   38.5595031753
  - # 21
    frequency:   69.3031276313

- q-position: [    0.0606061,    0.0000000,    0.0000000 ]
  distance:    0.0224008
  band:
  - # 1
    frequency:   -1.1673728380
  - # 2
    frequency:   -0.9421462914
  - # 3
    frequency:   -0.1357884270
  - # 4
    frequency:    1.2937603067
  - # 5
    frequency:    2.0178737890
  - # 6
    frequency:    6.2459253406
  - # 7
    frequency:    6.3898324713
  - # 8
    frequency:    7.4387978986
  - # 9
    frequency:    8.0048555702
  - # 10
    frequency:    8.2753734314
  - # 11
    frequency:   11.8180122748
  - # 12
    frequency:   17.1860741238
  - # 13
    frequency:   17.2307256862
  - # 14
    frequency:   18.4549203906
  - # 15
    frequency:   18.4570615647
  - # 16
    frequency:   18.4957133900
  - # 17
    frequency:   28.0132581581
  - # 18
    frequency:   28.0678671345
  - # 19
    frequency:   28.9585733851
  - # 20
    frequency:   38.5592486792
  - # 21
    frequency:   69.2684325992

- q-position: [    0.0656566,    0.0000000,    0.0000000 ]
  distance:    0.0242676
  band:
  - # 1
    frequency:   -1.1441097969
  - # 2
    frequency:   -0.8801706478
  - # 3
    frequency:    0.2845499373
  - # 4
    frequency:    1.4018357978
  - # 5
    frequency:    2.1700001627
  - # 6
    frequency:    6.2552695930
  - # 7
    frequency:    6.4220411482
  - # 8
    frequency:    7.4204911541
  - # 9
    frequency:    8.0157527486
  - # 10
    frequency:    8.3180294618
  - # 11
    frequency:   11.8035420170
  - # 12
    frequency:   17.1909955669
  - # 13
    frequency:   17.2430330053
  - # 14
    frequency:   18.4564661656
  - # 15
    frequency:   18.4789257464
  - # 16
    frequency:   18.5125185176
  - # 17
    frequency:   28.0169141862
  - # 18
    frequency:   28.0803965945
  - # 19
    frequency:   28.9605298358
  - # 20
    frequency:   38.5589758079
  - # 21
    frequency:   69.2311528273

- q-position: [    0.0707071,    0.0000000,    0.0000000 ]
  distance:    0.0261343
  band:
  - # 1
    frequency:   -1.1194372778
  - # 2
    frequency:   -0.8135268895
  - # 3
    frequency:    0.4493165874
  - # 4
    frequency:    1.5092568217
  - # 5
    frequency:    2.3217269818
  - # 6
    frequency:    6.2652486649
  - # 7
    frequency:    6.4560302663
  - # 8
    frequency:    7.4028430052
  - # 9
    frequency:    8.0272373873
  - # 10
    frequency:    8.3616331187
  - # 11
    frequency:   11.7880041904
  - # 12
    frequency:   17.1961118587
  - # 13
    frequency:   17.2560013882
  - # 14
    frequency:   18.4479604725
  - # 15
    frequency:   18.5039308861
  - # 16
    frequency:   18.5376260600
  - # 17
    frequency:   28.0206358702
  - # 18
    frequency:   28.0934930584
  - # 19
    frequency:   28.9625350016
  - # 20
    frequency:   38.5586855431
  - # 21
    frequency:   69.1913898562

- q-position: [    0.0757576,    0.0000000,    0.0000000 ]
  distance:    0.0280011
  band:
  - # 1
    frequency:   -1.0932663095
  - # 2
    frequency:   -0.7406866445
  - # 3
    frequency:    0.5869950019
  - # 4
    frequency:    1.6158949064
  - # 5
    frequency:    2.4728475715
  - # 6
    frequency:    6.2758376266
  - # 7
    frequency:    6.4916182076
  - # 8
    frequency:    7.3859628946
  - # 9
    frequency:    8.0392542790
  - # 10
    frequency:    8.4060409930
  - # 11
    frequency:   11.7714168723
  - # 12
    frequency:   17.2013931186
  - # 13
    frequency:   17.2695719081
  - # 14
    frequency:   18.4367870566
  - # 15
    frequency:   18.5297412237
  - # 16
    frequency:   18.5656089196
  - # 17
    frequency:   28.0243762350
  - # 18
    frequency:   28.1070581394
  - # 19
    frequency:   28.9645775038
  - # 20
    frequency:   38.5583789571
  - # 21
    frequency:   69.1492508412

- q-position: [    0.0808081,    0.0000000,    0.0000000 ]
  distance:    0.0298678
  band:
  - # 1
    frequency:   -1.0654851890
  - # 2
    frequency:   -0.6585287035
  - # 3
    frequency:    0.7129239342
  - # 4
    frequency:    1.7216396515
  - # 5
    frequency:    2.6231734455
  - # 6
    frequency:    6.2870101998
  - # 7
    frequency:    6.5286049043
  - # 8
    frequency:    7.3699722743
  - # 9
    frequency:    8.0517473450
  - # 10
    frequency:    8.4511146322
  - # 11
    frequency:   11.7537987796
  - # 12
    frequency:   17.2068110391
  - # 13
    frequency:   17.2836854411
  - # 14
    frequency:   18.4242425514
  - # 15
    frequency:   18.5561555145
  - # 16
    frequency:   18.5949815230
  - # 17
    frequency:   28.0280867039
  - # 18
    frequency:   28.1209868379
  - # 19
    frequency:   28.9666497352
  - # 20
    frequency:   38.5580572126
  - # 21
    frequency:   69.1048480248

- q-position: [    0.0858586,    0.0000000,    0.0000000 ]
  distance:    0.0317345
  band:
  - # 1
    frequency:   -1.0359598614
  - # 2
    frequency:   -0.5611454904
  - # 3
    frequency:    0.8316084143
  - # 4
    frequency:    1.8263974208
  - # 5
    frequency:    2.7725312721
  - # 6
    frequency:    6.2987388982
  - # 7
    frequency:    6.5667673439
  - # 8
    frequency:    7.3550128763
  - # 9
    frequency:    8.0646600654
  - # 10
    frequency:    8.4967187416
  - # 11
    frequency:   11.7351692360
  - # 12
    frequency:   17.2123390175
  - # 13
    frequency:   17.2982830094
  - # 14
    frequency:   18.4107219643
  - # 15
    frequency:   18.5829677310
  - # 16
    frequency:   18.6251574327
  - # 17
    frequency:   28.0317174464
  - # 18
    frequency:   28.1351676941
  - # 19
    frequency:   28.9687486210
  - # 20
    frequency:   38.5577215627
  - # 21
    frequency:   69.0582981884

- q-position: [    0.0909091,    0.0000000,    0.0000000 ]
  distance:    0.0336013
  band:
  - # 1
    frequency:   -1.0045320263
  - # 2
    frequency:   -0.4358740935
  - # 3
    frequency:    0.9449021089
  - # 4
    frequency:    1.9300896610
  - # 5
    frequency:    2.9207598002
  - # 6
    frequency:    6.3109951822
  - # 7
    frequency:    6.6058531205
  - # 8
    frequency:    7.3412560241
  - # 9
    frequency:    8.0779358779
  - # 10
    frequency:    8.5427202029
  - # 11
    frequency:   11.7155481616
  - # 12
    frequency:   17.2179522175
  - # 13
    frequency:   17.3133060700
  - # 14
    frequency:   18.3963925786
  - # 15
    frequency:   18.6099690098
  - # 16
    frequency:   18.6557774049
  - # 17
    frequency:   28.0352177348
  - # 18
    frequency:   28.1494829913
  - # 19
    frequency:   28.9708763284
  - # 20
    frequency:   38.5573733487
  - # 21
    frequency:   69.0097220860

- q-position: [    0.0959596,    0.0000000,    0.0000000 ]
  distance:    0.0354680
  band:
  - # 1
    frequency:   -0.9710147184
  - # 2
    frequency:   -0.2382111838
  - # 3
    frequency:    1.0537781271
  - # 4
    frequency:    2.0326511617
  - # 5
    frequency:    3.0677070033
  - # 6
    frequency:    6.3237496273
  - # 7
    frequency:    6.6455714690
  - # 8
    frequency:    7.3289138212
  - # 9
    frequency:    8.0915185431
  - # 10
    frequency:    8.5889876407
  - # 11
    frequency:   11.6949560836
  - # 12
    frequency:   17.2236275751
  - # 13
    frequency:   17.3286967575
  - # 14
    frequency:   18.3813468477
  - # 15
    frequency:   18.6369496346
  - # 16
    frequency:   18.6865584711
  - # 17
    frequency:   28.0385363032
  - # 18
    frequency:   28.1638090368
  - # 19
    frequency:   28.9730408870
  - # 20
    frequency:   38.5570139980
  - # 21
    frequency:   68.9592438654

- q-position: [    0.1010101,    0.0000000,    0.0000000 ]
  distance:    0.0373347
  band:
  - # 1
    frequency:   -0.9351848261
  - # 2
    frequency:    0.2946622690
  - # 3
    frequency:    1.1588663381
  - # 4
    frequency:    2.1340284297
  - # 5
    frequency:    3.2132275226
  - # 6
    frequency:    6.3369721032
  - # 7
    frequency:    6.6855812460
  - # 8
    frequency:    7.3182529427
  - # 9
    frequency:    8.1053524740
  - # 10
    frequency:    8.6353913507
  - # 11
    frequency:   11.6734141685
  - # 12
    frequency:   17.2293437632
  - # 13
    frequency:   17.3443980888
  - # 14
    frequency:   18.3656475269
  - # 15
    frequency:   18.6637010250
  - # 16
    frequency:   18.7172507644
  - # 17
    frequency:   28.0416217092
  - # 18
    frequency:   28.1780165579
  - # 19
    frequency:   28.9752566779
  - # 20
    frequency:   38.5566450205
  - # 21
    frequency:   68.9069904785

- q-position: [    0.1060606,    0.0000000,    0.0000000 ]
  distance:    0.0392015
  band:
  - # 1
    frequency:   -0.8967715136
  - # 2
    frequency:    0.4923742064
  - # 3
    frequency:    1.2606360191
  - # 4
    frequency:    2.2341782527
  - # 5
    frequency:    3.3571804018
  - # 6
    frequency:    6.3506319630
  - # 7
    frequency:    6.7254757066
  - # 8
    frequency:    7.3096113204
  - # 9
    frequency:    8.1193830289
  - # 10
    frequency:    8.6818034633
  - # 11
    frequency:   11.6509442743
  - # 12
    frequency:   17.2350811284
  - # 13
    frequency:   17.3603541364
  - # 14
    frequency:   18.3493439666
  - # 15
    frequency:   18.6900177007
  - # 16
    frequency:   18.7476231470
  - # 17
    frequency:   28.0444226933
  - # 18
    frequency:   28.1919712548
  - # 19
    frequency:   28.9775447391
  - # 20
    frequency:   38.5562680038
  - # 21
    frequency:   68.8530910859

- q-position: [    0.1111111,    0.0000000,    0.0000000 ]
  distance:    0.0410682
  band:
  - # 1
    frequency:   -0.8554386384
  - # 2
    frequency:    0.6414973201
  - # 3
    frequency:    1.3594626936
  - # 4
    frequency:    2.3330664731
  - # 5
    frequency:    3.4994270737
  - # 6
    frequency:    6.3646982400
  - # 7
    frequency:    6.7647651795
  - # 8
    frequency:    7.3034167211
  - # 9
    frequency:    8.1335567690
  - # 10
    frequency:    8.7280982526
  - # 11
    frequency:   11.6275690214
  - # 12
    frequency:   17.2408216103
  - # 13
    frequency:   17.3765101770
  - # 14
    frequency:   18.3324789141
  - # 15
    frequency:   18.7156991939
  - # 16
    frequency:   18.7774582674
  - # 17
    frequency:   28.0468885334
  - # 18
    frequency:   28.2055345638
  - # 19
    frequency:   28.9799328303
  - # 20
    frequency:   38.5558846078
  - # 21
    frequency:   68.7976764594

- q-position: [    0.1161616,    0.0000000,    0.0000000 ]
  distance:    0.0429350
  band:
  - # 1
    frequency:   -0.8107576576
  - # 2
    frequency:    0.7715560180
  - # 3
    frequency:    1.4556559281
  - # 4
    frequency:    2.4306669608
  - # 5
    frequency:    3.6398295439
  - # 6
    frequency:    6.3791398490
  - # 7
    frequency:    6.8028617883
  - # 8
    frequency:    7.3002031498
  - # 9
    frequency:    8.1478216791
  - # 10
    frequency:    8.7741525296
  - # 11
    frequency:   11.6033118800
  - # 12
    frequency:   17.2465486535
  - # 13
    frequency:   17.3928128185
  - # 14
    frequency:   18.3150916777
  - # 15
    frequency:   18.7405518884
  - # 16
    frequency:   18.8065511766
  - # 17
    frequency:   28.0489693936
  - # 18
    frequency:   28.2185646859
  - # 19
    frequency:   28.9824551933
  - # 20
    frequency:   38.5554965574
  - # 21
    frequency:   68.7408783859

- q-position: [    0.1212121,    0.0000000,    0.0000000 ]
  distance:    0.0448017
  band:
  - # 1
    frequency:   -0.7621644010
  - # 2
    frequency:    0.8915094574
  - # 3
    frequency:    1.5494737216
  - # 4
    frequency:    2.5269607610
  - # 5
    frequency:    3.7782487163
  - # 6
    frequency:    6.3939257913
  - # 7
    frequency:    6.8390763317
  - # 8
    frequency:    7.3006150262
  - # 9
    frequency:    8.1621273558
  - # 10
    frequency:    8.8198460756
  - # 11
    frequency:   11.5781972727
  - # 12
    frequency:   17.2522471181
  - # 13
    frequency:   17.4092101091
  - # 14
    frequency:   18.2972197280
  - # 15
    frequency:   18.7643907657
  - # 16
    frequency:   18.8347094093
  - # 17
    frequency:   28.0506166621
  - # 18
    frequency:   28.2309179354
  - # 19
    frequency:   28.9851519499
  - # 20
    frequency:   38.5551056354
  - # 21
    frequency:   68.6828290768

- q-position: [    0.1262626,    0.0000000,    0.0000000 ]
  distance:    0.0466684
  band:
  - # 1
    frequency:   -0.7088864638
  - # 2
    frequency:    1.0054051403
  - # 3
    frequency:    1.6411319566
  - # 4
    frequency:    2.6219353874
  - # 5
    frequency:    3.9145428121
  - # 6
    frequency:    6.4090253582
  - # 7
    frequency:    6.8726460054
  - # 8
    frequency:    7.3053804995
  - # 9
    frequency:    8.1764251617
  - # 10
    frequency:    8.8650620871
  - # 11
    frequency:   11.5522506893
  - # 12
    frequency:   17.2579031945
  - # 13
    frequency:   17.4256516270
  - # 14
    frequency:   18.2788995687
  - # 15
    frequency:   18.7870410410
  - # 16
    frequency:   18.8617536880
  - # 17
    frequency:   28.0517832776
  - # 18
    frequency:   28.2424504559
  - # 19
    frequency:   28.9880680843
  - # 20
    frequency:   38.5547136725
  - # 21
    frequency:   68.6236605865

- q-position: [    0.1313131,    0.0000000,    0.0000000 ]
  distance:    0.0485352
  band:
  - # 1
    frequency:   -0.6498124909
  - # 2
    frequency:    1.1154163909
  - # 3
    frequency:    1.7308116563
  - # 4
    frequency:    2.7155842352
  - # 5
    frequency:    4.0485658422
  - # 6
    frequency:    6.4244083332
  - # 7
    frequency:    6.9028166660
  - # 8
    frequency:    7.3152302387
  - # 9
    frequency:    8.1906683495
  - # 10
    frequency:    8.9096876115
  - # 11
    frequency:   11.5254988136
  - # 12
    frequency:   17.2635043251
  - # 13
    frequency:   17.4420885524
  - # 14
    frequency:   18.2601672456
  - # 15
    frequency:   18.8083396776
  - # 16
    frequency:   18.8875188686
  - # 17
    frequency:   28.0524240408
  - # 18
    frequency:   28.2530203276
  - # 19
    frequency:   28.9912519820
  - # 20
    frequency:   38.5543225385
  - # 21
    frequency:   68.5635042442

- q-position: [    0.1363636,    0.0000000,    0.0000000 ]
  distance:    0.0504019
  band:
  - # 1
    frequency:   -0.5832337192
  - # 2
    frequency:    1.2228273262
  - # 3
    frequency:    1.8186649433
  - # 4
    frequency:    2.8079060873
  - # 5
    frequency:    4.1801661035
  - # 6
    frequency:    6.4400451875
  - # 7
    frequency:    6.9289887845
  - # 8
    frequency:    7.3307525750
  - # 9
    frequency:    8.2048121582
  - # 10
    frequency:    8.9536139599
  - # 11
    frequency:   11.4979696575
  - # 12
    frequency:   17.2690391349
  - # 13
    frequency:   17.4584737154
  - # 14
    frequency:   18.2410586719
  - # 15
    frequency:   18.8281367688
  - # 16
    frequency:   18.9118549439
  - # 17
    frequency:   28.0524959096
  - # 18
    frequency:   28.2624900604
  - # 19
    frequency:   28.9947535296
  - # 20
    frequency:   38.5539341310
  - # 21
    frequency:   68.5024901017

- q-position: [    0.1414141,    0.0000000,    0.0000000 ]
  distance:    0.0522686
  band:
  - # 1
    frequency:   -0.5062605190
  - # 2
    frequency:    1.3284412937
  - # 3
    frequency:    1.9048200351
  - # 4
    frequency:    2.8989046958
  - # 5
    frequency:    4.3091846816
  - # 6
    frequency:    6.4559072675
  - # 7
    frequency:    6.9508889652
  - # 8
    frequency:    7.3522231335
  - # 9
    frequency:    8.2188138812
  - # 10
    frequency:    8.9967370898
  - # 11
    frequency:   11.4696927035
  - # 12
    frequency:   17.2744973725
  - # 13
    frequency:   17.4747616160
  - # 14
    frequency:   18.2216098620
  - # 15
    frequency:   18.8462967796
  - # 16
    frequency:   18.9346280089
  - # 17
    frequency:   28.0519582752
  - # 18
    frequency:   28.2707294151
  - # 19
    frequency:   28.9986218261
  - # 20
    frequency:   38.5535503640
  - # 21
    frequency:   68.4407464022

- q-position: [    0.1464646,    0.0000000,    0.0000000 ]
  distance:    0.0541354
  band:
  - # 1
    frequency:   -0.4132062457
  - # 2
    frequency:    1.4327778305
  - # 3
    frequency:    1.9893854528
  - # 4
    frequency:    2.9885884201
  - # 5
    frequency:    4.4354539621
  - # 6
    frequency:    6.4719669707
  - # 7
    frequency:    6.9686774397
  - # 8
    frequency:    7.3794985395
  - # 9
    frequency:    8.2326329114
  - # 10
    frequency:    9.0389579522
  - # 11
    frequency:   11.4406990522
  - # 12
    frequency:   17.2798698595
  - # 13
    frequency:   17.4909084079
  - # 14
    frequency:   18.2018571297
  - # 15
    frequency:   18.8626996420
  - # 16
    frequency:   18.9557211310
  - # 17
    frequency:   28.0507732188
  - # 18
    frequency:   28.2776184434
  - # 19
    frequency:   29.0029026180
  - # 20
    frequency:   38.5531731567
  - # 21
    frequency:   68.3783990710

- q-position: [    0.1515152,    0.0000000,    0.0000000 ]
  distance:    0.0560021
  band:
  - # 1
    frequency:   -0.2890564302
  - # 2
    frequency:    1.5361779645
  - # 3
    frequency:    2.0724535758
  - # 4
    frequency:    3.0769699098
  - # 5
    frequency:    4.5587961742
  - # 6
    frequency:    6.4881979074
  - # 7
    frequency:    6.9829177762
  - # 8
    frequency:    7.4120479325
  - # 9
    frequency:    8.2462307635
  - # 10
    frequency:    9.0801828008
  - # 11
    frequency:   11.4110215730
  - # 12
    frequency:   17.2851484493
  - # 13
    frequency:   17.5068718333
  - # 14
    frequency:   18.1818372849
  - # 15
    frequency:   18.8772417009
  - # 16
    frequency:   18.9750350960
  - # 17
    frequency:   28.0489057450
  - # 18
    frequency:   28.2830505776
  - # 19
    frequency:   29.0076356215
  - # 20
    frequency:   38.5528044201
  - # 21
    frequency:   68.3155712343
