nqpoint: 300    
npath: 3      
segment_nqpoint:
- 100
- 100
- 100
labels:
- [ 'G', 'M' ]
- [ 'M', 'K' ]
- [ 'K', 'G' ]
reciprocal_lattice:
- [   0.27748141,   0.16020397,   0.00000000 ] # a*
- [   0.00000000,   0.32040794,   0.00000000 ] # b*
- [   0.00000000,   0.00000000,   0.03920525 ] # c*
natom: 6      
lattice:
- [     3.603845011497343,     0.000000000000000,     0.000000000000000 ] # a
- [    -1.801922505748672,     3.121021331287456,     0.000000000000000 ] # b
- [     0.000000000000000,     0.000000000000000,    25.506787391089716 ] # c
points:
- symbol: C # 1
  coordinates: [  0.000000000000000,  0.000000000000000,  0.452180134966691 ]
  mass: 12.010700
- symbol: F # 2
  coordinates: [  0.666666984744047,  0.333332985985144,  0.352847258339714 ]
  mass: 18.998403
- symbol: O # 3
  coordinates: [  0.333332985432215,  0.666666983183674,  0.647152741660286 ]
  mass: 15.999400
- symbol: P # 4
  coordinates: [  0.333332985432215,  0.666666983183674,  0.588443651457528 ]
  mass: 30.973762
- symbol: Y # 5
  coordinates: [  0.333332985432215,  0.666666983183674,  0.397971209618186 ]
  mass: 88.905850
- symbol: Y # 6
  coordinates: [  0.666666984744047,  0.333332985985144,  0.504704873805860 ]
  mass: 88.905850

phonon:
- q-position: [    0.0000000,    0.0000000,    0.0000000 ]
  distance:    0.0000000
  band:
  - # 1
    frequency:   -0.0000230589
  - # 2
    frequency:   -0.0000002031
  - # 3
    frequency:    0.0000230900
  - # 4
    frequency:    1.5131736893
  - # 5
    frequency:    1.5131736894
  - # 6
    frequency:    3.9926765335
  - # 7
    frequency:    3.9926765336
  - # 8
    frequency:    4.5179111941
  - # 9
    frequency:    4.5179111941
  - # 10
    frequency:    4.7884089659
  - # 11
    frequency:    6.1955968328
  - # 12
    frequency:    6.1955968329
  - # 13
    frequency:    6.8346313023
  - # 14
    frequency:    9.9096318450
  - # 15
    frequency:   10.5941293629
  - # 16
    frequency:   10.5941293630
  - # 17
    frequency:   16.4696581972
  - # 18
    frequency:   33.8296077279

- q-position: [    0.0050505,    0.0000000,    0.0000000 ]
  distance:    0.0016182
  band:
  - # 1
    frequency:    0.0015186247
  - # 2
    frequency:    0.0606682539
  - # 3
    frequency:    0.0965573796
  - # 4
    frequency:    1.5133639336
  - # 5
    frequency:    1.5146281656
  - # 6
    frequency:    3.9926352990
  - # 7
    frequency:    3.9930748653
  - # 8
    frequency:    4.5171411562
  - # 9
    frequency:    4.5176561559
  - # 10
    frequency:    4.7884874434
  - # 11
    frequency:    6.1955524359
  - # 12
    frequency:    6.1956143922
  - # 13
    frequency:    6.8351445458
  - # 14
    frequency:    9.9085027123
  - # 15
    frequency:   10.5941733384
  - # 16
    frequency:   10.5971040164
  - # 17
    frequency:   16.4687346925
  - # 18
    frequency:   33.8293925156

- q-position: [    0.0101010,    0.0000000,    0.0000000 ]
  distance:    0.0032364
  band:
  - # 1
    frequency:    0.0060575265
  - # 2
    frequency:    0.1212965431
  - # 3
    frequency:    0.1929626676
  - # 4
    frequency:    1.5139315379
  - # 5
    frequency:    1.5189717239
  - # 6
    frequency:    3.9925115663
  - # 7
    frequency:    3.9942666372
  - # 8
    frequency:    4.5148374586
  - # 9
    frequency:    4.5168915150
  - # 10
    frequency:    4.7887195195
  - # 11
    frequency:    6.1954139838
  - # 12
    frequency:    6.1956675659
  - # 13
    frequency:    6.8366767658
  - # 14
    frequency:    9.9051470702
  - # 15
    frequency:   10.5943049049
  - # 16
    frequency:   10.6059922194
  - # 17
    frequency:   16.4659664460
  - # 18
    frequency:   33.8287471698

- q-position: [    0.0151515,    0.0000000,    0.0000000 ]
  distance:    0.0048547
  band:
  - # 1
    frequency:    0.0135667900
  - # 2
    frequency:    0.1818445416
  - # 3
    frequency:    0.2890587722
  - # 4
    frequency:    1.5148671797
  - # 5
    frequency:    1.5261467935
  - # 6
    frequency:    3.9923052532
  - # 7
    frequency:    3.9962421459
  - # 8
    frequency:    4.5110189648
  - # 9
    frequency:    4.5156186952
  - # 10
    frequency:    4.7890955295
  - # 11
    frequency:    6.1951660646
  - # 12
    frequency:    6.1957578340
  - # 13
    frequency:    6.8392054603
  - # 14
    frequency:    9.8996549202
  - # 15
    frequency:   10.5945229850
  - # 16
    frequency:   10.6206918113
  - # 17
    frequency:   16.4613602609
  - # 18
    frequency:   33.8276725638

- q-position: [    0.0202020,    0.0000000,    0.0000000 ]
  distance:    0.0064729
  band:
  - # 1
    frequency:    0.0239667157
  - # 2
    frequency:    0.2422711927
  - # 3
    frequency:    0.3846780359
  - # 4
    frequency:    1.5161555294
  - # 5
    frequency:    1.5360641533
  - # 6
    frequency:    3.9920162374
  - # 7
    frequency:    3.9989850933
  - # 8
    frequency:    4.5057159160
  - # 9
    frequency:    4.5138400770
  - # 10
    frequency:    4.7896006442
  - # 11
    frequency:    6.1947841909
  - # 12
    frequency:    6.1958876433
  - # 13
    frequency:    6.8426932465
  - # 14
    frequency:    9.8921604831
  - # 15
    frequency:   10.5948257916
  - # 16
    frequency:   10.6410477994
  - # 17
    frequency:   16.4549274780
  - # 18
    frequency:   33.8261701511

- q-position: [    0.0252525,    0.0000000,    0.0000000 ]
  distance:    0.0080911
  band:
  - # 1
    frequency:    0.0371525166
  - # 2
    frequency:    0.3025342650
  - # 3
    frequency:    0.4796355047
  - # 4
    frequency:    1.5177755757
  - # 5
    frequency:    1.5486128160
  - # 6
    frequency:    3.9916443774
  - # 7
    frequency:    4.0024723645
  - # 8
    frequency:    4.4989684157
  - # 9
    frequency:    4.5115590091
  - # 10
    frequency:    4.7902165509
  - # 11
    frequency:    6.1942364725
  - # 12
    frequency:    6.1960603775
  - # 13
    frequency:    6.8470881015
  - # 14
    frequency:    9.8828237585
  - # 15
    frequency:   10.5952108407
  - # 16
    frequency:   10.6668700741
  - # 17
    frequency:   16.4466839791
  - # 18
    frequency:   33.8242419635

- q-position: [    0.0303030,    0.0000000,    0.0000000 ]
  distance:    0.0097093
  band:
  - # 1
    frequency:    0.0530000057
  - # 2
    frequency:    0.3625898221
  - # 3
    frequency:    0.5737202583
  - # 4
    frequency:    1.5197011055
  - # 5
    frequency:    1.5636736120
  - # 6
    frequency:    3.9911895405
  - # 7
    frequency:    4.0066736403
  - # 8
    frequency:    4.4908247956
  - # 9
    frequency:    4.5087798261
  - # 10
    frequency:    4.7909234102
  - # 11
    frequency:    6.1934857228
  - # 12
    frequency:    6.1962803157
  - # 13
    frequency:    6.8523238112
  - # 14
    frequency:    9.8718124626
  - # 15
    frequency:   10.5956749688
  - # 16
    frequency:   10.6979505200
  - # 17
    frequency:   16.4366501921
  - # 18
    frequency:   33.8218906079

- q-position: [    0.0353535,    0.0000000,    0.0000000 ]
  distance:    0.0113276
  band:
  - # 1
    frequency:    0.0713716106
  - # 2
    frequency:    0.4223915521
  - # 3
    frequency:    0.6666838300
  - # 4
    frequency:    1.5219013694
  - # 5
    frequency:    1.5811365508
  - # 6
    frequency:    3.9906516350
  - # 7
    frequency:    4.0115507614
  - # 8
    frequency:    4.4813402221
  - # 9
    frequency:    4.5055078728
  - # 10
    frequency:    4.7917018315
  - # 11
    frequency:    6.1924918054
  - # 12
    frequency:    6.1965525811
  - # 13
    frequency:    6.8583207031
  - # 14
    frequency:    9.8592877446
  - # 15
    frequency:   10.5962143556
  - # 16
    frequency:   10.7340761873
  - # 17
    frequency:   16.4248511004
  - # 18
    frequency:   33.8191192615

- q-position: [    0.0404040,    0.0000000,    0.0000000 ]
  distance:    0.0129458
  band:
  - # 1
    frequency:    0.0921221289
  - # 2
    frequency:    0.4818898986
  - # 3
    frequency:    0.7582244778
  - # 4
    frequency:    1.5243419794
  - # 5
    frequency:    1.6009224054
  - # 6
    frequency:    3.9900306444
  - # 7
    frequency:    4.0170567165
  - # 8
    frequency:    4.4705758822
  - # 9
    frequency:    4.5017495364
  - # 10
    frequency:    4.7925346687
  - # 11
    frequency:    6.1912140212
  - # 12
    frequency:    6.1968830784
  - # 13
    frequency:    6.8649867288
  - # 14
    frequency:    9.8453950341
  - # 15
    frequency:   10.5968245507
  - # 16
    frequency:   10.7750372398
  - # 17
    frequency:   16.4113162552
  - # 18
    frequency:   33.8159316674

- q-position: [    0.0454545,    0.0000000,    0.0000000 ]
  distance:    0.0145640
  band:
  - # 1
    frequency:    0.1151037857
  - # 2
    frequency:    0.5410309064
  - # 3
    frequency:    0.8479658488
  - # 4
    frequency:    1.5269861098
  - # 5
    frequency:    1.6230093576
  - # 6
    frequency:    3.9893266611
  - # 7
    frequency:    4.0231340686
  - # 8
    frequency:    4.4585990713
  - # 9
    frequency:    4.4975122894
  - # 10
    frequency:    4.7934085196
  - # 11
    frequency:    6.1896133557
  - # 12
    frequency:    6.1972784235
  - # 13
    frequency:    6.8722189302
  - # 14
    frequency:    9.8302597185
  - # 15
    frequency:   10.5975005049
  - # 16
    frequency:   10.8206300627
  - # 17
    frequency:   16.3960797945
  - # 18
    frequency:   33.8123321275

- q-position: [    0.0505051,    0.0000000,    0.0000000 ]
  distance:    0.0161822
  band:
  - # 1
    frequency:    0.1401703337
  - # 2
    frequency:    0.5997546652
  - # 3
    frequency:    0.9354287063
  - # 4
    frequency:    1.5297961070
  - # 5
    frequency:    1.6474656085
  - # 6
    frequency:    3.9885399144
  - # 7
    frequency:    4.0297125394
  - # 8
    frequency:    4.4454845148
  - # 9
    frequency:    4.4928047440
  - # 10
    frequency:    4.7943148920
  - # 11
    frequency:    6.1876544436
  - # 12
    frequency:    6.1977458643
  - # 13
    frequency:    6.8799052828
  - # 14
    frequency:    9.8139864895
  - # 15
    frequency:   10.5982366055
  - # 16
    frequency:   10.8706567672
  - # 17
    frequency:   16.3791804688
  - # 18
    frequency:   33.8083254962

- q-position: [    0.0555556,    0.0000000,    0.0000000 ]
  distance:    0.0178004
  band:
  - # 1
    frequency:    0.1671800955
  - # 2
    frequency:    0.6579931744
  - # 3
    frequency:    1.0199956172
  - # 4
    frequency:    1.5327356692
  - # 5
    frequency:    1.6744878065
  - # 6
    frequency:    3.9876707905
  - # 7
    frequency:    4.0367053337
  - # 8
    frequency:    4.4313173442
  - # 9
    frequency:    4.4876367220
  - # 10
    frequency:    4.7952510540
  - # 11
    frequency:    6.1853071575
  - # 12
    frequency:    6.1982931952
  - # 13
    frequency:    6.8879268650
  - # 14
    frequency:    9.7966610200
  - # 15
    frequency:   10.5990267151
  - # 16
    frequency:   10.9249225099
  - # 17
    frequency:   16.3606616762
  - # 18
    frequency:   33.8039171716

- q-position: [    0.0606061,    0.0000000,    0.0000000 ]
  distance:    0.0194187
  band:
  - # 1
    frequency:    0.1959979818
  - # 2
    frequency:    0.7156673766
  - # 3
    frequency:    1.1008724441
  - # 4
    frequency:    1.5357728369
  - # 5
    frequency:    1.7044413388
  - # 6
    frequency:    3.9867198372
  - # 7
    frequency:    4.0440035665
  - # 8
    frequency:    4.4161983305
  - # 9
    frequency:    4.4820193422
  - # 10
    frequency:    4.7962206196
  - # 11
    frequency:    6.1825477793
  - # 12
    frequency:    6.1989286654
  - # 13
    frequency:    6.8961602658
  - # 14
    frequency:    9.7783528364
  - # 15
    frequency:   10.5998642137
  - # 16
    frequency:   10.9832318264
  - # 17
    frequency:   16.3405715096
  - # 18
    frequency:   33.7991130868

- q-position: [    0.0656566,    0.0000000,    0.0000000 ]
  distance:    0.0210369
  band:
  - # 1
    frequency:    0.2264965953
  - # 2
    frequency:    0.7726829794
  - # 3
    frequency:    1.1770596648
  - # 4
    frequency:    1.5388841593
  - # 5
    frequency:    1.7378894356
  - # 6
    frequency:    3.9856877503
  - # 7
    frequency:    4.0514678216
  - # 8
    frequency:    4.4002523057
  - # 9
    frequency:    4.4759651289
  - # 10
    frequency:    4.7972339307
  - # 11
    frequency:    6.1793597564
  - # 12
    frequency:    6.1996608828
  - # 13
    frequency:    6.9044801142
  - # 14
    frequency:    9.7591185829
  - # 15
    frequency:   10.6007420443
  - # 16
    frequency:   11.0453848353
  - # 17
    frequency:   16.3189628176
  - # 18
    frequency:   33.7939196993

- q-position: [    0.0707071,    0.0000000,    0.0000000 ]
  distance:    0.0226551
  band:
  - # 1
    frequency:    0.2585565713
  - # 2
    frequency:    0.8289244980
  - # 3
    frequency:    1.2473622106
  - # 4
    frequency:    1.5420605912
  - # 5
    frequency:    1.7755824065
  - # 6
    frequency:    3.9845753333
  - # 7
    frequency:    4.0589153969
  - # 8
    frequency:    4.3836411853
  - # 9
    frequency:    4.4694881463
  - # 10
    frequency:    4.7983082927
  - # 11
    frequency:    6.1757340832
  - # 12
    frequency:    6.2004987154
  - # 13
    frequency:    6.9127616035
  - # 14
    frequency:    9.7390051860
  - # 15
    frequency:   10.6016527602
  - # 16
    frequency:   11.1111738412
  - # 17
    frequency:   16.2958932830
  - # 18
    frequency:   33.7883439798

- q-position: [    0.0757576,    0.0000000,    0.0000000 ]
  distance:    0.0242733
  band:
  - # 1
    frequency:    0.2920663062
  - # 2
    frequency:    0.8842466663
  - # 3
    frequency:    1.3104805373
  - # 4
    frequency:    1.5453159550
  - # 5
    frequency:    1.8183642977
  - # 6
    frequency:    3.9833834255
  - # 7
    frequency:    4.0661012137
  - # 8
    frequency:    4.3665835963
  - # 9
    frequency:    4.4626041611
  - # 10
    frequency:    4.7994681082
  - # 11
    frequency:    6.1716693673
  - # 12
    frequency:    6.2014511904
  - # 13
    frequency:    6.9208828876
  - # 14
    frequency:    9.7180526619
  - # 15
    frequency:   10.6025885749
  - # 16
    frequency:   11.1803806088
  - # 17
    frequency:   16.2714255216
  - # 18
    frequency:   33.7823934003

- q-position: [    0.0808081,    0.0000000,    0.0000000 ]
  distance:    0.0258916
  band:
  - # 1
    frequency:    0.3269212061
  - # 2
    frequency:    0.9384619574
  - # 3
    frequency:    1.3652094559
  - # 4
    frequency:    1.5486992116
  - # 5
    frequency:    1.8669704124
  - # 6
    frequency:    3.9821127925
  - # 7
    frequency:    4.0726900334
  - # 8
    frequency:    4.3493834714
  - # 9
    frequency:    4.4553308395
  - # 10
    frequency:    4.8007449409
  - # 11
    frequency:    6.1671716512
  - # 12
    frequency:    6.2025273921
  - # 13
    frequency:    6.9287272415
  - # 14
    frequency:    9.6962964665
  - # 15
    frequency:   10.6035414143
  - # 16
    frequency:   11.2527744064
  - # 17
    frequency:   16.2456272055
  - # 18
    frequency:   33.7760759202

- q-position: [    0.0858586,    0.0000000,    0.0000000 ]
  distance:    0.0275098
  band:
  - # 1
    frequency:    0.3630225442
  - # 2
    frequency:    0.9913224086
  - # 3
    frequency:    1.4106938271
  - # 4
    frequency:    1.5523123233
  - # 5
    frequency:    1.9217664861
  - # 6
    frequency:    3.9807639700
  - # 7
    frequency:    4.0782188207
  - # 8
    frequency:    4.3324687956
  - # 9
    frequency:    4.4476879816
  - # 10
    frequency:    4.8021775254
  - # 11
    frequency:    6.1622540581
  - # 12
    frequency:    6.2037363620
  - # 13
    frequency:    6.9361849058
  - # 14
    frequency:    9.6737693787
  - # 15
    frequency:   10.6045029686
  - # 16
    frequency:   11.3281108053
  - # 17
    frequency:   16.2185712139
  - # 18
    frequency:   33.7693999725

- q-position: [    0.0909091,    0.0000000,    0.0000000 ]
  distance:    0.0291280
  band:
  - # 1
    frequency:    0.4002759601
  - # 2
    frequency:    1.0424934002
  - # 3
    frequency:    1.4465956090
  - # 4
    frequency:    1.5563360381
  - # 5
    frequency:    1.9825748442
  - # 6
    frequency:    3.9793370586
  - # 7
    frequency:    4.0820543755
  - # 8
    frequency:    4.3164354283
  - # 9
    frequency:    4.4396977977
  - # 10
    frequency:    4.8038117266
  - # 11
    frequency:    6.1569363230
  - # 12
    frequency:    6.2050869993
  - # 13
    frequency:    6.9431545652
  - # 14
    frequency:    9.6505029564
  - # 15
    frequency:   10.6054647470
  - # 16
    frequency:   11.4061311595
  - # 17
    frequency:   16.1903358170
  - # 18
    frequency:   33.7623744477

- q-position: [    0.0959596,    0.0000000,    0.0000000 ]
  distance:    0.0307462
  band:
  - # 1
    frequency:    0.4385895586
  - # 2
    frequency:    1.0915169962
  - # 3
    frequency:    1.4730486169
  - # 4
    frequency:    1.5610659566
  - # 5
    frequency:    2.0487108729
  - # 6
    frequency:    3.9778314606
  - # 7
    frequency:    4.0833695787
  - # 8
    frequency:    4.3020727162
  - # 9
    frequency:    4.4313852294
  - # 10
    frequency:    4.8057004418
  - # 11
    frequency:    6.1512442576
  - # 12
    frequency:    6.2065879651
  - # 13
    frequency:    6.9495444401
  - # 14
    frequency:    9.6265286232
  - # 15
    frequency:   10.6064181315
  - # 16
    frequency:   11.4865626549
  - # 17
    frequency:   16.1610048957
  - # 18
    frequency:   33.7550086779

- q-position: [    0.1010101,    0.0000000,    0.0000000 ]
  distance:    0.0323644
  band:
  - # 1
    frequency:    0.4778714470
  - # 2
    frequency:    1.1377645754
  - # 3
    frequency:    1.4904367579
  - # 4
    frequency:    1.5669591194
  - # 5
    frequency:    2.1191935981
  - # 6
    frequency:    3.9762455590
  - # 7
    frequency:    4.0811943699
  - # 8
    frequency:    4.2903148587
  - # 9
    frequency:    4.4227783184
  - # 10
    frequency:    4.8079034279
  - # 11
    frequency:    6.1452091842
  - # 12
    frequency:    6.2082475907
  - # 13
    frequency:    6.9552729992
  - # 14
    frequency:    9.6018784498
  - # 15
    frequency:   10.6073544314
  - # 16
    frequency:   11.5691188087
  - # 17
    frequency:   16.1306682030
  - # 18
    frequency:   33.7473124192

- q-position: [    0.1060606,    0.0000000,    0.0000000 ]
  distance:    0.0339827
  band:
  - # 1
    frequency:    0.5180263599
  - # 2
    frequency:    1.1803866679
  - # 3
    frequency:    1.4991437393
  - # 4
    frequency:    1.5746831536
  - # 5
    frequency:    2.1929817403
  - # 6
    frequency:    3.9745763339
  - # 7
    frequency:    4.0746107474
  - # 8
    frequency:    4.2820488221
  - # 9
    frequency:    4.4139086210
  - # 10
    frequency:    4.8104870281
  - # 11
    frequency:    6.1388673623
  - # 12
    frequency:    6.2100737898
  - # 13
    frequency:    6.9602693214
  - # 14
    frequency:    9.5765856875
  - # 15
    frequency:   10.6082649373
  - # 16
    frequency:   11.6535002953
  - # 17
    frequency:   16.0994216703
  - # 18
    frequency:   33.7392958328

- q-position: [    0.1111111,    0.0000000,    0.0000000 ]
  distance:    0.0356009
  band:
  - # 1
    frequency:    0.5589506618
  - # 2
    frequency:    1.2182884673
  - # 3
    frequency:    1.4993807095
  - # 4
    frequency:    1.5851394496
  - # 5
    frequency:    2.2691279490
  - # 6
    frequency:    3.9728189218
  - # 7
    frequency:    4.0630646696
  - # 8
    frequency:    4.2778060225
  - # 9
    frequency:    4.4048116673
  - # 10
    frequency:    4.8135237666
  - # 11
    frequency:    6.1322594215
  - # 12
    frequency:    6.2120739775
  - # 13
    frequency:    6.9644731502
  - # 14
    frequency:    9.5506851062
  - # 15
    frequency:   10.6091409739
  - # 16
    frequency:   11.7393959870
  - # 17
    frequency:   16.0673677631
  - # 18
    frequency:   33.7309694661

- q-position: [    0.1161616,    0.0000000,    0.0000000 ]
  distance:    0.0372191
  band:
  - # 1
    frequency:    0.6005242838
  - # 2
    frequency:    1.2501921707
  - # 3
    frequency:    1.4911035584
  - # 4
    frequency:    1.5993991379
  - # 5
    frequency:    2.3468384623
  - # 6
    frequency:    3.9709661240
  - # 7
    frequency:    4.0465805773
  - # 8
    frequency:    4.2775521567
  - # 9
    frequency:    4.3955274549
  - # 10
    frequency:    4.8170917722
  - # 11
    frequency:    6.1254298045
  - # 12
    frequency:    6.2142549948
  - # 13
    frequency:    6.9678346932
  - # 14
    frequency:    9.5242131794
  - # 15
    frequency:   10.6099739530
  - # 16
    frequency:   11.8264841085
  - # 17
    frequency:   16.0346158881
  - # 18
    frequency:   33.7223442320

- q-position: [    0.1212121,    0.0000000,    0.0000000 ]
  distance:    0.0388373
  band:
  - # 1
    frequency:    0.6425965161
  - # 2
    frequency:    1.2748558906
  - # 3
    frequency:    1.4739844030
  - # 4
    frequency:    1.6184820156
  - # 5
    frequency:    2.4254726808
  - # 6
    frequency:    3.9690078776
  - # 7
    frequency:    4.0256837659
  - # 8
    frequency:    4.2807700597
  - # 9
    frequency:    4.3861009635
  - # 10
    frequency:    4.8212739901
  - # 11
    frequency:    6.1184262234
  - # 12
    frequency:    6.2166230398
  - # 13
    frequency:    6.9703142236
  - # 14
    frequency:    9.4972081495
  - # 15
    frequency:   10.6107554233
  - # 16
    frequency:   11.9144334188
  - # 17
    frequency:   16.0012828536
  - # 18
    frequency:   33.7134313878

- q-position: [    0.1262626,    0.0000000,    0.0000000 ]
  distance:    0.0404555
  band:
  - # 1
    frequency:    0.6849585910
  - # 2
    frequency:    1.2914207493
  - # 3
    frequency:    1.4474030281
  - # 4
    frequency:    1.6430066712
  - # 5
    frequency:    2.5045170039
  - # 6
    frequency:    3.9669307153
  - # 7
    frequency:    4.0011319603
  - # 8
    frequency:    4.2867343491
  - # 9
    frequency:    4.3765826680
  - # 10
    frequency:    4.8261571424
  - # 11
    frequency:    6.1112991256
  - # 12
    frequency:    6.2191836067
  - # 13
    frequency:    6.9718815357
  - # 14
    frequency:    9.4697100032
  - # 15
    frequency:   10.6114771200
  - # 16
    frequency:   12.0029043539
  - # 17
    frequency:   15.9674933809
  - # 18
    frequency:   33.7042425129

- q-position: [    0.1313131,    0.0000000,    0.0000000 ]
  distance:    0.0420738
  band:
  - # 1
    frequency:    0.7272852074
  - # 2
    frequency:    1.2996693620
  - # 3
    frequency:    1.4104438949
  - # 4
    frequency:    1.6729283970
  - # 5
    frequency:    2.5835526309
  - # 6
    frequency:    3.9647172468
  - # 7
    frequency:    3.9736904343
  - # 8
    frequency:    4.2947436588
  - # 9
    frequency:    4.3670290131
  - # 10
    frequency:    4.8318304037
  - # 11
    frequency:    6.1041011677
  - # 12
    frequency:    6.2219414315
  - # 13
    frequency:    6.9725153069
  - # 14
    frequency:    9.4417603763
  - # 15
    frequency:   10.6121310115
  - # 16
    frequency:   12.0915500809
  - # 17
    frequency:   15.9333806618
  - # 18
    frequency:   33.6947894862

- q-position: [    0.1363636,    0.0000000,    0.0000000 ]
  distance:    0.0436920
  band:
  - # 1
    frequency:    0.7689940483
  - # 2
    frequency:    1.2999705215
  - # 3
    frequency:    1.3619177025
  - # 4
    frequency:    1.7075897945
  - # 5
    frequency:    2.6622252112
  - # 6
    frequency:    3.9440396752
  - # 7
    frequency:    3.9623457131
  - # 8
    frequency:    4.3042216840
  - # 9
    frequency:    4.3575028024
  - # 10
    frequency:    4.8383837745
  - # 11
    frequency:    6.0968866972
  - # 12
    frequency:    6.2249004454
  - # 13
    frequency:    6.9722024087
  - # 14
    frequency:    9.4134024064
  - # 15
    frequency:   10.6127093442
  - # 16
    frequency:   12.1800174316
  - # 17
    frequency:   15.8990869505
  - # 18
    frequency:   33.6850844624

- q-position: [    0.1414141,    0.0000000,    0.0000000 ]
  distance:    0.0453102
  band:
  - # 1
    frequency:    0.8088531301
  - # 2
    frequency:    1.2929704095
  - # 3
    frequency:    1.3005261208
  - # 4
    frequency:    1.7460233368
  - # 5
    frequency:    2.7402178141
  - # 6
    frequency:    3.9127745102
  - # 7
    frequency:    3.9597896797
  - # 8
    frequency:    4.3147285351
  - # 9
    frequency:    4.3480734351
  - # 10
    frequency:    4.8459061607
  - # 11
    frequency:    6.0897112398
  - # 12
    frequency:    6.2280637363
  - # 13
    frequency:    6.9709372020
  - # 14
    frequency:    9.3846805460
  - # 15
    frequency:   10.6132046842
  - # 16
    frequency:   12.2679477079
  - # 17
    frequency:   15.8647641700
  - # 18
    frequency:   33.6751398477

- q-position: [    0.1464646,    0.0000000,    0.0000000 ]
  distance:    0.0469284
  band:
  - # 1
    frequency:    0.8436431437
  - # 2
    frequency:    1.2257488317
  - # 3
    frequency:    1.2792821554
  - # 4
    frequency:    1.7872534547
  - # 5
    frequency:    2.8172256853
  - # 6
    frequency:    3.8804394713
  - # 7
    frequency:    3.9570179518
  - # 8
    frequency:    4.3259384633
  - # 9
    frequency:    4.3388169085
  - # 10
    frequency:    4.8544832013
  - # 11
    frequency:    6.0826309973
  - # 12
    frequency:    6.2314335174
  - # 13
    frequency:    6.9687208474
  - # 14
    frequency:    9.3556403471
  - # 15
    frequency:   10.6136099570
  - # 16
    frequency:   12.3549773696
  - # 17
    frequency:   15.8305745036
  - # 18
    frequency:   33.6649682756

- q-position: [    0.1515152,    0.0000000,    0.0000000 ]
  distance:    0.0485467
  band:
  - # 1
    frequency:    0.8624662743
  - # 2
    frequency:    1.1425601679
  - # 3
    frequency:    1.2593148651
  - # 4
    frequency:    1.8304560983
  - # 5
    frequency:    2.8929295758
  - # 6
    frequency:    3.8475726431
  - # 7
    frequency:    3.9539948098
  - # 8
    frequency:    4.3298154883
  - # 9
    frequency:    4.3376134292
  - # 10
    frequency:    4.8641949307
  - # 11
    frequency:    6.0757023584
  - # 12
    frequency:    6.2350111031
  - # 13
    frequency:    6.9655606501
  - # 14
    frequency:    9.3263282252
  - # 15
    frequency:   10.6139184836
  - # 16
    frequency:   12.4407386400
  - # 17
    frequency:   15.7966909235
  - # 18
    frequency:   33.6545825810

- q-position: [    0.1565657,    0.0000000,    0.0000000 ]
  distance:    0.0501649
  band:
  - # 1
    frequency:    0.8257809071
  - # 2
    frequency:    1.0799168065
  - # 3
    frequency:    1.2332217320
  - # 4
    frequency:    1.8749947021
  - # 5
    frequency:    2.9669626298
  - # 6
    frequency:    3.8147519127
  - # 7
    frequency:    3.9506806702
  - # 8
    frequency:    4.3211569396
  - # 9
    frequency:    4.3495820589
  - # 10
    frequency:    4.8751134033
  - # 11
    frequency:    6.0689814291
  - # 12
    frequency:    6.2387968928
  - # 13
    frequency:    6.9614694548
  - # 14
    frequency:    9.2967912096
  - # 15
    frequency:   10.6141240143
  - # 16
    frequency:   12.5248600935
  - # 17
    frequency:   15.7632975918
  - # 18
    frequency:   33.6439957757

- q-position: [    0.1616162,    0.0000000,    0.0000000 ]
  distance:    0.0517831
  band:
  - # 1
    frequency:    0.6731230786
  - # 2
    frequency:    1.0746080346
  - # 3
    frequency:    1.2008999406
  - # 4
    frequency:    1.9203974782
  - # 5
    frequency:    3.0388627125
  - # 6
    frequency:    3.7826493740
  - # 7
    frequency:    3.9470332704
  - # 8
    frequency:    4.3129332209
  - # 9
    frequency:    4.3617250605
  - # 10
    frequency:    4.8873004452
  - # 11
    frequency:    6.0625235897
  - # 12
    frequency:    6.2427903612
  - # 13
    frequency:    6.9564651002
  - # 14
    frequency:    9.2670766867
  - # 15
    frequency:   10.6142207582
  - # 16
    frequency:   12.6069673165
  - # 17
    frequency:   15.7305900430
  - # 18
    frequency:   33.6332210217

- q-position: [    0.1666667,    0.0000000,    0.0000000 ]
  distance:    0.0534013
  band:
  - # 1
    frequency:    0.3317541498
  - # 2
    frequency:    1.1025510094
  - # 3
    frequency:    1.1619945959
  - # 4
    frequency:    1.9663197916
  - # 5
    frequency:    3.1079963372
  - # 6
    frequency:    3.7521082260
  - # 7
    frequency:    3.9430094447
  - # 8
    frequency:    4.3052385707
  - # 9
    frequency:    4.3739657087
  - # 10
    frequency:    4.9008057127
  - # 11
    frequency:    6.0563830850
  - # 12
    frequency:    6.2469900557
  - # 13
    frequency:    6.9505699375
  - # 14
    frequency:    9.2372321397
  - # 15
    frequency:   10.6142034105
  - # 16
    frequency:   12.6866837690
  - # 17
    frequency:   15.6987750277
  - # 18
    frequency:   33.6222716063

- q-position: [    0.1717172,    0.0000000,    0.0000000 ]
  distance:    0.0550195
  band:
  - # 1
    frequency:   -0.5516464809
  - # 2
    frequency:    1.1158813551
  - # 3
    frequency:    1.1415357880
  - # 4
    frequency:    2.0125098120
  - # 5
    frequency:    3.1734311695
  - # 6
    frequency:    3.7242664510
  - # 7
    frequency:    3.9385675009
  - # 8
    frequency:    4.2981669719
  - # 9
    frequency:    4.3862637295
  - # 10
    frequency:    4.9156652253
  - # 11
    frequency:    6.0506126535
  - # 12
    frequency:    6.2513935999
  - # 13
    frequency:    6.9438104150
  - # 14
    frequency:    9.2073048907
  - # 15
    frequency:   10.6140671755
  - # 16
    frequency:   12.7636320085
  - # 17
    frequency:   15.6680698642
  - # 18
    frequency:   33.6111609157

- q-position: [    0.1767677,    0.0000000,    0.0000000 ]
  distance:    0.0566378
  band:
  - # 1
    frequency:   -0.8826453782
  - # 2
    frequency:    1.0616097255
  - # 3
    frequency:    1.1847762239
  - # 4
    frequency:    2.0587820231
  - # 5
    frequency:    3.2337269386
  - # 6
    frequency:    3.7007588803
  - # 7
    frequency:    3.9336701154
  - # 8
    frequency:    4.2918090748
  - # 9
    frequency:    4.3986112588
  - # 10
    frequency:    4.9319004969
  - # 11
    frequency:    6.0452632025
  - # 12
    frequency:    6.2559977038
  - # 13
    frequency:    6.9362167258
  - # 14