nqpoint: 300    
npath: 3      
segment_nqpoint:
- 100
- 100
- 100
labels:
- [ 'G', 'M' ]
- [ 'M', 'K' ]
- [ 'K', 'G' ]
reciprocal_lattice:
- [   0.30268316,   0.17475420,   0.00000000 ] # a*
- [   0.00000000,   0.34950841,   0.00000000 ] # b*
- [   0.00000000,   0.00000000,   0.03936128 ] # c*
natom: 7      
lattice:
- [     3.303784702598640,     0.000000000000000,     0.000000000000000 ] # a
- [    -1.651892351299320,     2.861161481074495,     0.000000000000000 ] # b
- [     0.000000000000000,     0.000000000000000,    25.405679044235661 ] # c
points:
- symbol: C # 1
  coordinates: [  0.000000000000000,  0.000000000000000,  0.551321330735478 ]
  mass: 12.010700
- symbol: C # 2
  coordinates: [  0.666666984744047,  0.333332985985145,  0.401102515538008 ]
  mass: 12.010700
- symbol: N # 3
  coordinates: [  0.666666984744047,  0.333332985985145,  0.354251503544914 ]
  mass: 14.006700
- symbol: O # 4
  coordinates: [  0.333332985432215,  0.666666983183674,  0.645748496455086 ]
  mass: 15.999400
- symbol: O # 5
  coordinates: [  0.666666984744047,  0.333332985985145,  0.453457531628357 ]
  mass: 15.999400
- symbol: Sc # 6
  coordinates: [  0.333332985432215,  0.666666983183674,  0.504263210378024 ]
  mass: 44.955912
- symbol: Sc # 7
  coordinates: [  0.666666984744047,  0.333332985985145,  0.618167542662299 ]
  mass: 44.955912

phonon:
- q-position: [    0.0000000,    0.0000000,    0.0000000 ]
  distance:    0.0000000
  band:
  - # 1
    frequency:   -0.8048829772
  - # 2
    frequency:   -0.8048829770
  - # 3
    frequency:   -0.0000271638
  - # 4
    frequency:   -0.0000003334
  - # 5
    frequency:    0.0000181930
  - # 6
    frequency:    2.9862933027
  - # 7
    frequency:    2.9862933029
  - # 8
    frequency:    5.2736388822
  - # 9
    frequency:    6.4690450369
  - # 10
    frequency:    6.4690450370
  - # 11
    frequency:    9.2994965836
  - # 12
    frequency:   10.2544568781
  - # 13
    frequency:   10.2544568782
  - # 14
    frequency:   13.5505363669
  - # 15
    frequency:   13.5505363669
  - # 16
    frequency:   14.1488435772
  - # 17
    frequency:   14.1488435773
  - # 18
    frequency:   14.3429618120
  - # 19
    frequency:   16.7152192186
  - # 20
    frequency:   31.7211473041
  - # 21
    frequency:   66.3579181706

- q-position: [    0.0050505,    0.0000000,    0.0000000 ]
  distance:    0.0017652
  band:
  - # 1
    frequency:   -0.8062876736
  - # 2
    frequency:   -0.8025881344
  - # 3
    frequency:   -0.0683146270
  - # 4
    frequency:    0.0025434454
  - # 5
    frequency:    0.0971190259
  - # 6
    frequency:    2.9866005507
  - # 7
    frequency:    2.9891139764
  - # 8
    frequency:    5.2724394240
  - # 9
    frequency:    6.4692133711
  - # 10
    frequency:    6.4696259979
  - # 11
    frequency:    9.2969098789
  - # 12
    frequency:   10.2544425285
  - # 13
    frequency:   10.2579648923
  - # 14
    frequency:   13.5491304055
  - # 15
    frequency:   13.5503040056
  - # 16
    frequency:   14.1489069623
  - # 17
    frequency:   14.1490649286
  - # 18
    frequency:   14.3441658035
  - # 19
    frequency:   16.7152276027
  - # 20
    frequency:   31.7209903246
  - # 21
    frequency:   66.3579411435

- q-position: [    0.0101010,    0.0000000,    0.0000000 ]
  distance:    0.0035304
  band:
  - # 1
    frequency:   -0.8107084919
  - # 2
    frequency:   -0.7955905186
  - # 3
    frequency:   -0.1351199388
  - # 4
    frequency:    0.0102795718
  - # 5
    frequency:    0.1938632695
  - # 6
    frequency:    2.9875243274
  - # 7
    frequency:    2.9975529599
  - # 8
    frequency:    5.2688568017
  - # 9
    frequency:    6.4697172205
  - # 10
    frequency:    6.4713636310
  - # 11
    frequency:    9.2892588097
  - # 12
    frequency:   10.2544009784
  - # 13
    frequency:   10.2683629518
  - # 14
    frequency:   13.5449405560
  - # 15
    frequency:   13.5496073994
  - # 16
    frequency:   14.1490970544
  - # 17
    frequency:   14.1497295935
  - # 18
    frequency:   14.3477552750
  - # 19
    frequency:   16.7152534967
  - # 20
    frequency:   31.7205196870
  - # 21
    frequency:   66.3580099629

- q-position: [    0.0151515,    0.0000000,    0.0000000 ]
  distance:    0.0052956
  band:
  - # 1
    frequency:   -0.8187697621
  - # 2
    frequency:   -0.7835670328
  - # 3
    frequency:   -0.1987856294
  - # 4
    frequency:    0.0232257276
  - # 5
    frequency:    0.2899176430
  - # 6
    frequency:    2.9890707145
  - # 7
    frequency:    3.0115421637
  - # 8
    frequency:    5.2629378107
  - # 9
    frequency:    6.4705531427
  - # 10
    frequency:    6.4742424804
  - # 11
    frequency:    9.2768502216
  - # 12
    frequency:   10.2543367085
  - # 13
    frequency:   10.2852936857
  - # 14
    frequency:   13.5380486334
  - # 15
    frequency:   13.5484479785
  - # 16
    frequency:   14.1494136645
  - # 17
    frequency:   14.1508392721
  - # 18
    frequency:   14.3536650797
  - # 19
    frequency:   16.7152991376
  - # 20
    frequency:   31.7197362925
  - # 21
    frequency:   66.3581243314

- q-position: [    0.0202020,    0.0000000,    0.0000000 ]
  distance:    0.0070608
  band:
  - # 1
    frequency:   -0.8315031182
  - # 2
    frequency:   -0.7660241120
  - # 3
    frequency:   -0.2574789172
  - # 4
    frequency:    0.0414848333
  - # 5
    frequency:    0.3850643307
  - # 6
    frequency:    2.9912497863
  - # 7
    frequency:    3.0309714058
  - # 8
    frequency:    5.2547589468
  - # 9
    frequency:    6.4717154539
  - # 10
    frequency:    6.4782377260
  - # 11
    frequency:    9.2601358729
  - # 12
    frequency:   10.2542571358
  - # 13
    frequency:   10.3082220817
  - # 14
    frequency:   13.5285838488
  - # 15
    frequency:   13.5468281188
  - # 16
    frequency:   14.1498564757
  - # 17
    frequency:   14.1523964033
  - # 18
    frequency:   14.3617939826
  - # 19
    frequency:   16.7153682923
  - # 20
    frequency:   31.7186416393
  - # 21
    frequency:   66.3582837547

- q-position: [    0.0252525,    0.0000000,    0.0000000 ]
  distance:    0.0088260
  band:
  - # 1
    frequency:   -0.8502518224
  - # 2
    frequency:   -0.7423423158
  - # 3
    frequency:   -0.3091923789
  - # 4
    frequency:    0.0652501054
  - # 5
    frequency:    0.4791906159
  - # 6
    frequency:    2.9940755163
  - # 7
    frequency:    3.0556930001
  - # 8
    frequency:    5.2444243097
  - # 9
    frequency:    6.4731963088
  - # 10
    frequency:    6.4833164806
  - # 11
    frequency:    9.2396457362
  - # 12
    frequency:   10.2541725384
  - # 13
    frequency:   10.3365035834
  - # 14
    frequency:   13.5167136110
  - # 15
    frequency:   13.5447511288
  - # 16
    frequency:   14.1504250404
  - # 17
    frequency:   14.1544037091
  - # 18
    frequency:   14.3720140140
  - # 19
    frequency:   16.7154663140
  - # 20
    frequency:   31.7172378158
  - # 21
    frequency:   66.3584875424

- q-position: [    0.0303030,    0.0000000,    0.0000000 ]
  distance:    0.0105912
  band:
  - # 1
    frequency:   -0.8763922578
  - # 2
    frequency:   -0.7118153346
  - # 3
    frequency:   -0.3519726715
  - # 4
    frequency:    0.0948669849
  - # 5
    frequency:    0.5722740185
  - # 6
    frequency:    2.9975656436
  - # 7
    frequency:    3.0855275232
  - # 8
    frequency:    5.2320629356
  - # 9
    frequency:    6.4749858094
  - # 10
    frequency:    6.4894393984
  - # 11
    frequency:    9.2159263695
  - # 12
    frequency:   10.2540959512
  - # 13
    frequency:   10.3694476169
  - # 14
    frequency:   13.5026331497
  - # 15
    frequency:   13.5422212340
  - # 16
    frequency:   14.1511187767
  - # 17
    frequency:   14.1568637517
  - # 18
    frequency:   14.3841808619
  - # 19
    frequency:   16.7156002191
  - # 20
    frequency:   31.7155274924
  - # 21
    frequency:   66.3587348111

- q-position: [    0.0353535,    0.0000000,    0.0000000 ]
  distance:    0.0123564
  band:
  - # 1
    frequency:   -0.9108608816
  - # 2
    frequency:   -0.6736942858
  - # 3
    frequency:   -0.3843558025
  - # 4
    frequency:    0.1309313415
  - # 5
    frequency:    0.6643575322
  - # 6
    frequency:    3.0017414972
  - # 7
    frequency:    3.1202702416
  - # 8
    frequency:    5.2178257778
  - # 9
    frequency:    6.4770721408
  - # 10
    frequency:    6.4965624368
  - # 11
    frequency:    9.1894955927
  - # 12
    frequency:   10.2540430350
  - # 13
    frequency:   10.4063652559
  - # 14
    frequency:   13.4865554820
  - # 15
    frequency:   13.5392435550
  - # 16
    frequency:   14.1519369640
  - # 17
    frequency:   14.1597785761
  - # 18
    frequency:   14.3981437021
  - # 19
    frequency:   16.7157787816
  - # 20
    frequency:   31.7135139104
  - # 21
    frequency:   66.3590244865

- q-position: [    0.0404040,    0.0000000,    0.0000000 ]
  distance:    0.0141216
  band:
  - # 1
    frequency:   -0.9537106164
  - # 2
    frequency:   -0.6272832434
  - # 3
    frequency:   -0.4057797951
  - # 4
    frequency:    0.1744332780
  - # 5
    frequency:    0.7555249290
  - # 6
    frequency:    3.0066277761
  - # 7
    frequency:    3.1596976915
  - # 8
    frequency:    5.2018825524
  - # 9
    frequency:    6.4794417324
  - # 10
    frequency:    6.5046386165
  - # 11
    frequency:    9.1608159522
  - # 12
    frequency:   10.2540319209
  - # 13
    frequency:   10.4465984790
  - # 14
    frequency:   13.4687028009
  - # 15
    frequency:   13.5358240837
  - # 16
    frequency:   14.1528787361
  - # 17
    frequency:   14.1631494549
  - # 18
    frequency:   14.4137533658
  - # 19
    frequency:   16.7160126427
  - # 20
    frequency:   31.7112008685
  - # 21
    frequency:   66.3593553071

- q-position: [    0.0454545,    0.0000000,    0.0000000 ]
  distance:    0.0158867
  band:
  - # 1
    frequency:   -1.0040384682
  - # 2
    frequency:   -0.5721895374
  - # 3
    frequency:   -0.4166283874
  - # 4
    frequency:    0.2269140176
  - # 5
    frequency:    0.8458808679
  - # 6
    frequency:    3.0122522848
  - # 7
    frequency:    3.2035739685
  - # 8
    frequency:    5.1844186459
  - # 9
    frequency:    6.4820794383
  - # 10
    frequency:    6.5136196528
  - # 11
    frequency:    9.1302838560
  - # 12
    frequency:   10.2540830315
  - # 13
    frequency:   10.4895340732
  - # 14
    frequency:   13.4492998192
  - # 15
    frequency:   13.5319696551
  - # 16
    frequency:   14.1539430754
  - # 17
    frequency:   14.1669767076
  - # 18
    frequency:   14.4308683271
  - # 19
    frequency:   16.7163144307
  - # 20
    frequency:   31.7085927076
  - # 21
    frequency:   66.3597258284

- q-position: [    0.0505051,    0.0000000,    0.0000000 ]
  distance:    0.0176519
  band:
  - # 1
    frequency:   -1.0603350937
  - # 2
    frequency:   -0.5088726105
  - # 3
    frequency:   -0.4178502247
  - # 4
    frequency:    0.2904189058
  - # 5
    frequency:    0.9355366843
  - # 6
    frequency:    3.0186456232
  - # 7
    frequency:    3.2516563960
  - # 8
    frequency:    5.1656322447
  - # 9
    frequency:    6.4849687372
  - # 10
    frequency:    6.5234573655
  - # 11
    frequency:    9.0982293589
  - # 12
    frequency:   10.2542188829
  - # 13
    frequency:   10.5346071398
  - # 14
    frequency:   13.4285691351
  - # 15
    frequency:   13.5276879167
  - # 16
    frequency:   14.1551288042
  - # 17
    frequency:   14.1712595555
  - # 18
    frequency:   14.4493584764
  - # 19
    frequency:   16.7166988877
  - # 20
    frequency:   31.7056942934
  - # 21
    frequency:   66.3601344273

- q-position: [    0.0555556,    0.0000000,    0.0000000 ]
  distance:    0.0194171
  band:
  - # 1
    frequency:   -1.1209493270
  - # 2
    frequency:   -0.4393047052
  - # 3
    frequency:   -0.4104539846
  - # 4
    frequency:    0.3666131749
  - # 5
    frequency:    1.0246009384
  - # 6
    frequency:    3.0258408315
  - # 7
    frequency:    3.3037003550
  - # 8
    frequency:    5.1457317976
  - # 9
    frequency:    6.4880919436
  - # 10
    frequency:    6.5341048179
  - # 11
    frequency:    9.0649219879
  - # 12
    frequency:   10.2544638700
  - # 13
    frequency:   10.5812987556
  - # 14
    frequency:   13.4067283744
  - # 15
    frequency:   13.5229872960
  - # 16
    frequency:   14.1564345763
  - # 17
    frequency:   14.1759959744
  - # 18
    frequency:   14.4691069489
  - # 19
    frequency:   16.7171829974
  - # 20
    frequency:   31.7025109967
  - # 21
    frequency:   66.3605793076

- q-position: [    0.0606061,    0.0000000,    0.0000000 ]
  distance:    0.0211823
  band:
  - # 1
    frequency:   -1.1843929700
  - # 2
    frequency:   -0.3951428308
  - # 3
    frequency:   -0.3662034537
  - # 4
    frequency:    0.4546740476
  - # 5
    frequency:    1.1131733805
  - # 6
    frequency:    3.0338729931
  - # 7
    frequency:    3.3594631672
  - # 8
    frequency:    5.1249338855
  - # 9
    frequency:    6.4914304304
  - # 10
    frequency:    6.5455171681
  - # 11
    frequency:    9.0305792636
  - # 12
    frequency:   10.2548440377
  - # 13
    frequency:   10.6291310856
  - # 14
    frequency:   13.3839887204
  - # 15
    frequency:   13.5178769652
  - # 16
    frequency:   14.1578588674
  - # 17
    frequency:   14.1811825225
  - # 18
    frequency:   14.4900104135
  - # 19
    frequency:   16.7177861084
  - # 20
    frequency:   31.6990486727
  - # 21
    frequency:   66.3610585057

- q-position: [    0.0656566,    0.0000000,    0.0000000 ]
  distance:    0.0229475
  band:
  - # 1
    frequency:   -1.2494473007
  - # 2
    frequency:   -0.3721032858
  - # 3
    frequency:   -0.2888940231
  - # 4
    frequency:    0.5503009089
  - # 5
    frequency:    1.2013411733
  - # 6
    frequency:    3.0427787983
  - # 7
    frequency:    3.4187070124
  - # 8
    frequency:    5.1034615297
  - # 9
    frequency:    6.4949648549
  - # 10
    frequency:    6.5576522481
  - # 11
    frequency:    8.9953758388
  - # 12
    frequency:   10.2553868429
  - # 13
    frequency:   10.6776619843
  - # 14
    frequency:   13.3605544094
  - # 15
    frequency:   13.5123668060
  - # 16
    frequency:   14.1593999652
  - # 17
    frequency:   14.1868141352
  - # 18
    frequency:   14.5119782401
  - # 19
    frequency:   16.7185300456
  - # 20
    frequency:   31.6953136376
  - # 21
    frequency:   66.3615698973

- q-position: [    0.0707071,    0.0000000,    0.0000000 ]
  distance:    0.0247127
  band:
  - # 1
    frequency:   -1.3151534022
  - # 2
    frequency:   -0.3408093226
  - # 3
    frequency:   -0.1959905683
  - # 4
    frequency:    0.6483331107
  - # 5
    frequency:    1.2891765531
  - # 6
    frequency:    3.0525960735
  - # 7
    frequency:    3.4812009189
  - # 8
    frequency:    5.0815429495
  - # 9
    frequency:    6.4986753878
  - # 10
    frequency:    6.5704708996
  - # 11
    frequency:    8.9594521310
  - # 12
    frequency:   10.2561209100
  - # 13
    frequency:   10.7264801833
  - # 14
    frequency:   13.3366228168
  - # 15
    frequency:   13.5064673727
  - # 16
    frequency:   14.1610559587
  - # 17
    frequency:   14.1928838873
  - # 18
    frequency:   14.5349309144
  - # 19
    frequency:   16.7194392029
  - # 20
    frequency:   31.6913126454
  - # 21
    frequency:   66.3621112045

- q-position: [    0.0757576,    0.0000000,    0.0000000 ]
  distance:    0.0264779
  band:
  - # 1
    frequency:   -1.3807617497
  - # 2
    frequency:   -0.2995992694
  - # 3
    frequency:    0.0690473260
  - # 4
    frequency:    0.7454447257
  - # 5
    frequency:    1.3767354177
  - # 6
    frequency:    3.0633632830
  - # 7
    frequency:    3.5467218972
  - # 8
    frequency:    5.0594107630
  - # 9
    frequency:    6.5025419374
  - # 10
    frequency:    6.5839371105
  - # 11
    frequency:    8.9229219371
  - # 12
    frequency:   10.2570757837
  - # 13
    frequency:   10.7752015535
  - # 14
    frequency:   13.3123848241
  - # 15
    frequency:   13.5001898546
  - # 16
    frequency:   14.1628247284
  - # 17
    frequency:   14.1993827342
  - # 18
    frequency:   14.5587979932
  - # 19
    frequency:   16.7205406089
  - # 20
    frequency:   31.6870528612
  - # 21
    frequency:   66.3626800035

- q-position: [    0.0808081,    0.0000000,    0.0000000 ]
  distance:    0.0282431
  band:
  - # 1
    frequency:   -1.4456788802
  - # 2
    frequency:   -0.2443502873
  - # 3
    frequency:    0.2215290618
  - # 4
    frequency:    0.8402300786
  - # 5
    frequency:    1.4640565494
  - # 6
    frequency:    3.0751190083
  - # 7
    frequency:    3.6150552970
  - # 8
    frequency:    5.0373016225
  - # 9
    frequency:    6.5065443690
  - # 10
    frequency:    6.5980179947
  - # 11
    frequency:    8.8858788797
  - # 12
    frequency:   10.2582816829
  - # 13
    frequency:   10.8234665843
  - # 14
    frequency:   13.2880252343
  - # 15
    frequency:   13.4935460391
  - # 16
    frequency:   14.1647039356
  - # 17
    frequency:   14.2062992458
  - # 18
    frequency:   14.5835158220
  - # 19
    frequency:   16.7218639548
  - # 20
    frequency:   31.6825418359
  - # 21
    frequency:   66.3632737329

- q-position: [    0.0858586,    0.0000000,    0.0000000 ]
  distance:    0.0300083
  band:
  - # 1
    frequency:   -1.5094236928
  - # 2
    frequency:   -0.1622101979
  - # 3
    frequency:    0.3107112736
  - # 4
    frequency:    0.9323214516
  - # 5
    frequency:    1.5511613111
  - # 6
    frequency:    3.0879014141
  - # 7
    frequency:    3.6859944446
  - # 8
    frequency:    5.0154562905
  - # 9
    frequency:    6.5106627135
  - # 10
    frequency:    6.6126836558
  - # 11
    frequency:    8.8484017162
  - # 12
    frequency:   10.2597692594
  - # 13
    frequency:   10.8709390357
  - # 14
    frequency:   13.2637230661
  - # 15
    frequency:   13.4865482741
  - # 16
    frequency:   14.1666910130
  - # 17
    frequency:   14.2136193509
  - # 18
    frequency:   14.6090251709
  - # 19
    frequency:   16.7234415767
  - # 20
    frequency:   31.6777874779
  - # 21
    frequency:   66.3638897026

- q-position: [    0.0909091,    0.0000000,    0.0000000 ]
  distance:    0.0317735
  band:
  - # 1
    frequency:   -1.5715949078
  - # 2
    frequency:    0.1008992013
  - # 3
    frequency:    0.3853645574
  - # 4
    frequency:    1.0217710763
  - # 5
    frequency:    1.6380537305
  - # 6
    frequency:    3.1017477089
  - # 7
    frequency:    3.7593395831
  - # 8
    frequency:    4.9941201920
  - # 9
    frequency:    6.5148773623
  - # 10
    frequency:    6.6279069728
  - # 11
    frequency:    8.8105586299
  - # 12
    frequency:   10.2615693648
  - # 13
    frequency:   10.9173056403
  - # 14
    frequency:   13.2396516118
  - # 15
    frequency:   13.4792094310
  - # 16
    frequency:   14.1687831566
  - # 17
    frequency:   14.2213261104
  - # 18
    frequency:   14.6352689061
  - # 19
    frequency:   16.7253083788
  - # 20
    frequency:   31.6727980254
  - # 21
    frequency:   66.3645251032

- q-position: [    0.0959596,    0.0000000,    0.0000000 ]
  distance:    0.0335387
  band:
  - # 1
    frequency:   -1.6318477602
  - # 2
    frequency:    0.2226690976
  - # 3
    frequency:    0.4537283091
  - # 4
    frequency:    1.1087666677
  - # 5
    frequency:    1.7247209089
  - # 6
    frequency:    3.1166936065
  - # 7
    frequency:    3.8348960575
  - # 8
    frequency:    4.9735445397
  - # 9
    frequency:    6.5191692476
  - # 10
    frequency:    6.6436633332
  - # 11
    frequency:    8.7724106506
  - # 12
    frequency:   10.2637128279
  - # 13
    frequency:   10.9622766934
  - # 14
    frequency:   13.2159781862
  - # 15
    frequency:   13.4715428681
  - # 16
    frequency:   14.1709773176
  - # 17
    frequency:   14.2293995377
  - # 18
    frequency:   14.6621897779
  - # 19
    frequency:   16.7275016880
  - # 20
    frequency:   31.6675820176
  - # 21
    frequency:   66.3651770161

- q-position: [    0.1010101,    0.0000000,    0.0000000 ]
  distance:    0.0353039
  band:
  - # 1
    frequency:   -1.6898775117
  - # 2
    frequency:    0.3028866308
  - # 3
    frequency:    0.5188974749
  - # 4
    frequency:    1.1935204762
  - # 5
    frequency:    1.8111336998
  - # 6
    frequency:    3.1327728002
  - # 7
    frequency:    3.9124715659
  - # 8
    frequency:    4.9539882391
  - # 9
    frequency:    6.5235200039
  - # 10
    frequency:    6.6599303374
  - # 11
    frequency:    8.7340143513
  - # 12
    frequency:   10.2662302469
  - # 13
    frequency:   11.0055873658
  - # 14
    frequency:   13.1928635249
  - # 15
    frequency:   13.4635623942
  - # 16
    frequency:   14.1732701975
  - # 17
    frequency:   14.2378164827
  - # 18
    frequency:   14.6897283945
  - # 19
    frequency:   16.7300610249
  - # 20
    frequency:   31.6621482656
  - # 21
    frequency:   66.3658424242

- q-position: [    0.1060606,    0.0000000,    0.0000000 ]
  distance:    0.0370691
  band:
  - # 1
    frequency:   -1.7454077644
  - # 2
    frequency:    0.3695071970
  - # 3
    frequency:    0.5823200753
  - # 4
    frequency:    1.2762310733
  - # 5
    frequency:    1.8972475942
  - # 6
    frequency:    3.1500164540
  - # 7
    frequency:    3.9918720763
  - # 8
    frequency:    4.9357209889
  - # 9
    frequency:    6.5279121097
  - # 10
    frequency:    6.6766874870
  - # 11
    frequency:    8.6954239587
  - # 12
    frequency:   10.2691517981
  - # 13
    frequency:   11.0469995686
  - # 14
    frequency:   13.1704608258
  - # 15
    frequency:   13.4552822326
  - # 16
    frequency:   14.1756582440
  - # 17
    frequency:   14.2465505950
  - # 18
    frequency:   14.7178214349
  - # 19
    frequency:   16.7330277809
  - # 20
    frequency:   31.6565058233
  - # 21
    frequency:   66.3665182223

- q-position: [    0.1111111,    0.0000000,    0.0000000 ]
  distance:    0.0388343
  band:
  - # 1
    frequency:   -1.7981820878
  - # 2
    frequency:    0.4287968171
  - # 3
    frequency:    0.6447448138
  - # 4
    frequency:    1.3570731005
  - # 5
    frequency:    1.9830037438
  - # 6
    frequency:    3.1684527206
  - # 7
    frequency:    4.0728955910
  - # 8
    frequency:    4.9190283923
  - # 9
    frequency:    6.5323290082
  - # 10
    frequency:    6.6939158664
  - # 11
    frequency:    8.6566929954
  - # 12
    frequency:   10.2725070623
  - # 13
    frequency:   11.0863041993
  - # 14
    frequency:   13.1489144533
  - # 15
    frequency:   13.4467169860
  - # 16
    frequency:   14.1781376497
  - # 17
    frequency:   14.2555723735
  - # 18
    frequency:   14.7464001543
  - # 19
    frequency:   16.7364447869
  - # 20
    frequency:   31.6506639586
  - # 21
    frequency:   66.3672012295

- q-position: [    0.1161616,    0.0000000,    0.0000000 ]
  distance:    0.0405995
  band:
  - # 1
    frequency:   -1.8479579136
  - # 2
    frequency:    0.4833717372
  - # 3
    frequency:    0.7065752476
  - # 4
    frequency:    1.4361970003
  - # 5
    frequency:    2.0683300595
  - # 6
    frequency:    3.1881062934
  - # 7
    frequency:    4.1553221113
  - # 8
    frequency:    4.9042207171
  - # 9
    frequency:    6.5367552065
  - # 10
    frequency:    6.7115978200
  - # 11
    frequency:    8.6178755576
  - # 12
    frequency:   10.2763248718
  - # 13
    frequency:   11.1233235958
  - # 14
    frequency:   13.1283583558
  - # 15
    frequency:   13.4378816011
  - # 16
    frequency:   14.1807043535
  - # 17
    frequency:   14.2648493124
  - # 18
    frequency:   14.7753892288
  - # 19
    frequency:   16.7403557638
  - # 20
    frequency:   31.6446321238
  - # 21
    frequency:   66.3678882004

- q-position: [    0.1212121,    0.0000000,    0.0000000 ]
  distance:    0.0423647
  band:
  - # 1
    frequency:   -1.8945019738
  - # 2
    frequency:    0.5346078148
  - # 3
    frequency:    0.7680279686
  - # 4
    frequency:    1.5137318036
  - # 5
    frequency:    2.1531423275
  - # 6
    frequency:    3.2089979965
  - # 7
    frequency:    4.2388963736
  - # 8
    frequency:    4.8916487084
  - # 9
    frequency:    6.5411763517
  - # 10
    frequency:    6.7297166230
  - # 11
    frequency:    8.5790273151
  - # 12
    frequency:   10.2806331787
  - # 13
    frequency:   11.1579140146
  - # 14
    frequency:   13.1089142814
  - # 15
    frequency:   13.4287913335
  - # 16
    frequency:   14.1833540445
  - # 17
    frequency:   14.2743461409
  - # 18
    frequency:   14.8047059828
  - # 19
    frequency:   16.7448046432
  - # 20
    frequency:   31.6384199273
  - # 21
    frequency:   66.3685758379

- q-position: [    0.1262626,    0.0000000,    0.0000000 ]
  distance:    0.0441298
  band:
  - # 1
    frequency:   -1.9375867801
  - # 2
    frequency:    0.5833280944
  - # 3
    frequency:    0.8292120908
  - # 4
    frequency:    1.5897884201
  - # 5
    frequency:    2.2373453120
  - # 6
    frequency:    3.2311444214
  - # 7
    frequency:    4.3232958682
  - # 8
    frequency:    4.8817339104
  - # 9
    frequency:    6.5455792860
  - # 10
    frequency:    6.7482561429
  - # 11
    frequency:    8.5402063083
  - # 12
    frequency:   10.2854589439
  - # 13
    frequency:   11.1899679445
  - # 14
    frequency:   13.0906899037
  - # 15
    frequency:   13.4194617132
  - # 16
    frequency:   14.1860821688
  - # 17
    frequency:   14.2840251536
  - # 18
    frequency:   14.8342600356
  - # 19
    frequency:   16.7498347536
  - # 20
    frequency:   31.6320371054
  - # 21
    frequency:   66.3692608058

- q-position: [    0.1313131,    0.0000000,    0.0000000 ]
  distance:    0.0458950
  band:
  - # 1
    frequency:   -1.9769877933
  - # 2
    frequency:    0.6300676385
  - # 3
    frequency:    0.8901728456
  - # 4
    frequency:    1.6644625849
  - # 5
    frequency:    2.3208338352
  - # 6
    frequency:    3.2545576113
  - # 7
    frequency:    4.4080667377
  - # 8
    frequency:    4.8750308586
  - # 9
    frequency:    6.5499520799
  - # 10
    frequency:    6.7672004800
  - # 11
    frequency:    8.5014736080
  - # 12
    frequency:   10.2908280482
  - # 13
    frequency:   11.2194160585
  - # 14
    frequency:   13.0737770005
  - # 15
    frequency:   13.4099085092
  - # 16
    frequency:   14.1888839394
  - # 17
    frequency:   14.2938466225
  - # 18
    frequency:   14.8639533939
  - # 19
    frequency:   16.7554878684
  - # 20
    frequency:   31.6254934950
  - # 21
    frequency:   66.3699397418

- q-position: [    0.1363636,    0.0000000,    0.0000000 ]
  distance:    0.0476602
  band:
  - # 1
    frequency:   -2.0124810251
  - # 2
    frequency:    0.6751951084
  - # 3
    frequency:    0.9509172460
  - # 4
    frequency:    1.7378372612
  - # 5
    frequency:    2.4034938635
  - # 6
    frequency:    3.2792447996
  - # 7
    frequency:    4.4924845131
  - # 8
    frequency:    4.8723641303
  - # 9
    frequency:    6.5542840450
  - # 10
    frequency:    6.7865335779
  - # 11
    frequency:    8.4628938924
  - # 12
    frequency:   10.2967652239
  - # 13
    frequency:   11.2462286150
  - # 14
    frequency:   13.0582498440
  - # 15
    frequency:   13.4001476948
  - # 16
    frequency:   14.1917543495
  - # 17
    frequency:   14.3037692760
  - # 18
    frequency:   14.8936809998
  - # 19
    frequency:   16.7618031215
  - # 20
    frequency:   31.6187990065
  - # 21
    frequency:   66.3706092711

- q-position: [    0.1414141,    0.0000000,    0.0000000 ]
  distance:    0.0494254
  band:
  - # 1
    frequency:   -2.0438408800
  - # 2
    frequency:    0.7189755894
  - # 3
    frequency:    1.0114301430
  - # 4
    frequency:    1.8099845272
  - # 5
    frequency:    2.4852036525
  - # 6
    frequency:    3.3052082031
  - # 7
    frequency:    4.5752296331
  - # 8
    frequency:    4.8751502521
  - # 9
    frequency:    6.5585657280
  - # 10
    frequency:    6.8062387867
  - # 11
    frequency:    8.4245359948
  - # 12
    frequency:   10.3032940065
  - # 13
    frequency:   11.2704161299
  - # 14
    frequency:   13.0441639668
  - # 15
    frequency:   13.3901954122
  - # 16
    frequency:   14.1946881885
  - # 17
    frequency:   14.3137508291
  - # 18
    frequency:   14.9233317287
  - # 19
    frequency:   16.7688158015
  - # 20
    frequency:   31.6119635980
  - # 21
    frequency:   66.3712660200

- q-position: [    0.1464646,    0.0000000,    0.0000000 ]
  distance:    0.0511906
  band:
  - # 1
    frequency:   -2.0708380816
  - # 2
    frequency:    0.7616059777
  - # 3
    frequency:    1.0716848225
  - # 4
    frequency:    1.8809670417
  - # 5
    frequency:    2.5658350387
  - # 6
    frequency:    3.3324448707
  - # 7
    frequency:    4.6536280636
  - # 8
    frequency:    4.8861540883
  - # 9
    frequency:    6.5627888870
  - # 10
    frequency:    6.8262983626
  - # 11
    frequency:    8.3864734680
  - # 12
    frequency:   10.3104367048
  - # 13
    frequency:   11.2920291812
  - # 14
    frequency:   13.0315554521
  - # 15
    frequency:   13.3800679366
  - # 16
    frequency:   14.1976800608
  - # 17
    frequency:   14.3237485457
  - # 18
    frequency:   14.9527898069
  - # 19
    frequency:   16.7765560471
  - # 20
    frequency:   31.6049972506
  - # 21
    frequency:   66.3719066296

- q-position: [    0.1515152,    0.0000000,    0.0000000 ]
  distance:    0.0529558
  band:
  - # 1
    frequency:   -2.0932375469
  - # 2
    frequency:    0.8032362786
  - # 3
    frequency:    1.1316503211
  - # 4
    frequency:    1.9508391888
  - # 5
    frequency:    2.6452549803
  - # 6
    frequency:    3.3609465908
  - # 7
    frequency:    4.7223623536
  - # 8
    frequency:    4.9107743126
  - # 9
    frequency:    6.5669464524
  - # 10
    frequency:    6.8466928795
  - # 11
    frequency:    8.3487852136
  - # 12
    frequency:   10.3182143871
  - # 13
    frequency:   11.3111572541
  - # 14
    frequency:   13.0204408626
  - # 15
    frequency:   13.3697816405
  - # 16
    frequency:   14.2007244080
  - # 17
    frequency:   14.3337198150
  - # 18
    frequency:   14.9819365961
  - # 19
    frequency:   16.7850474754
  - # 20
    frequency:   31.5979099443
  - # 21
    frequency:   66.3725277697