nqpoint: 300    
npath: 3      
segment_nqpoint:
- 100
- 100
- 100
labels:
- [ 'G', 'M' ]
- [ 'M', 'K' ]
- [ 'K', 'G' ]
reciprocal_lattice:
- [   0.28931305,   0.16703497,   0.00000000 ] # a*
- [   0.00000000,   0.33406994,   0.00000000 ] # b*
- [   0.00000000,   0.00000000,   0.03987045 ] # c*
natom: 6      
lattice:
- [     3.456463466038933,     0.000000000000000,     0.000000000000000 ] # a
- [    -1.728231733019466,     2.993385168840475,     0.000000000000000 ] # b
- [     0.000000000000000,     0.000000000000000,    25.081229370651336 ] # c
points:
- symbol: Br # 1
  coordinates: [  0.666666984744047,  0.333332985985145,  0.358834085323238 ]
  mass: 79.904000
- symbol: C # 2
  coordinates: [  0.000000000000000,  0.000000000000000,  0.485238427814370 ]
  mass: 12.010700
- symbol: C # 3
  coordinates: [  0.333332985432215,  0.666666983183674,  0.593140401374952 ]
  mass: 12.010700
- symbol: N # 4
  coordinates: [  0.333332985432215,  0.666666983183674,  0.641165914676762 ]
  mass: 14.006700
- symbol: Zr # 5
  coordinates: [  0.333332985432215,  0.666666983183674,  0.437282686105622 ]
  mass: 91.224000
- symbol: Zr # 6
  coordinates: [  0.666666984744047,  0.333332985985145,  0.534594098724696 ]
  mass: 91.224000

phonon:
- q-position: [    0.0000000,    0.0000000,    0.0000000 ]
  distance:    0.0000000
  band:
  - # 1
    frequency:   -2.4685531829
  - # 2
    frequency:   -2.4685531829
  - # 3
    frequency:   -0.0000078908
  - # 4
    frequency:    0.0000002519
  - # 5
    frequency:    0.0000062253
  - # 6
    frequency:    3.0133730319
  - # 7
    frequency:    3.0133730319
  - # 8
    frequency:    4.7216927777
  - # 9
    frequency:    5.3377131687
  - # 10
    frequency:    5.3377131687
  - # 11
    frequency:    6.9780740164
  - # 12
    frequency:    6.9780740164
  - # 13
    frequency:    7.7981778775
  - # 14
    frequency:    8.8855170493
  - # 15
    frequency:   15.1711133624
  - # 16
    frequency:   16.4190584543
  - # 17
    frequency:   16.4190584543
  - # 18
    frequency:   60.8528070382

- q-position: [    0.0050505,    0.0000000,    0.0000000 ]
  distance:    0.0016872
  band:
  - # 1
    frequency:   -2.4682468736
  - # 2
    frequency:   -2.4677816315
  - # 3
    frequency:    0.0018067098
  - # 4
    frequency:    0.0507178214
  - # 5
    frequency:    0.1002869361
  - # 6
    frequency:    3.0136591614
  - # 7
    frequency:    3.0148946778
  - # 8
    frequency:    4.7207592505
  - # 9
    frequency:    5.3375972275
  - # 10
    frequency:    5.3386101300
  - # 11
    frequency:    6.9781385053
  - # 12
    frequency:    6.9787061588
  - # 13
    frequency:    7.7980515023
  - # 14
    frequency:    8.8850861509
  - # 15
    frequency:   15.1708999733
  - # 16
    frequency:   16.4186829891
  - # 17
    frequency:   16.4189829883
  - # 18
    frequency:   60.8527602611

- q-position: [    0.0101010,    0.0000000,    0.0000000 ]
  distance:    0.0033744
  band:
  - # 1
    frequency:   -2.4673313389
  - # 2
    frequency:   -2.4654736091
  - # 3
    frequency:    0.0072160008
  - # 4
    frequency:    0.1014891775
  - # 5
    frequency:    0.2005617421
  - # 6
    frequency:    3.0145178303
  - # 7
    frequency:    3.0194476585
  - # 8
    frequency:    4.7179801582
  - # 9
    frequency:    5.3372499424
  - # 10
    frequency:    5.3412822914
  - # 11
    frequency:    6.9783313430
  - # 12
    frequency:    6.9805978956
  - # 13
    frequency:    7.7976739379
  - # 14
    frequency:    8.8837943345
  - # 15
    frequency:   15.1702599796
  - # 16
    frequency:   16.4175581009
  - # 17
    frequency:   16.4187561941
  - # 18
    frequency:   60.8526200164

- q-position: [    0.0151515,    0.0000000,    0.0000000 ]
  distance:    0.0050617
  band:
  - # 1
    frequency:   -2.4658167279
  - # 2
    frequency:   -2.4616488768
  - # 3
    frequency:    0.0161956004
  - # 4
    frequency:    0.1523670272
  - # 5
    frequency:    0.3008109348
  - # 6
    frequency:    3.0159498732
  - # 7
    frequency:    3.0269964542
  - # 8
    frequency:    4.7134182292
  - # 9
    frequency:    5.3366729287
  - # 10
    frequency:    5.3456751871
  - # 11
    frequency:    6.9786506438
  - # 12
    frequency:    6.9837351820
  - # 13
    frequency:    7.7970498814
  - # 14
    frequency:    8.8816442393
  - # 15
    frequency:   15.1691939010
  - # 16
    frequency:   16.4156883064
  - # 17
    frequency:   16.4183768887
  - # 18
    frequency:   60.8523865642

- q-position: [    0.0202020,    0.0000000,    0.0000000 ]
  distance:    0.0067489
  band:
  - # 1
    frequency:   -2.4637198521
  - # 2
    frequency:   -2.4563399292
  - # 3
    frequency:    0.0286928589
  - # 4
    frequency:    0.2034031754
  - # 5
    frequency:    0.4010183733
  - # 6
    frequency:    3.0179566585
  - # 7
    frequency:    3.0374830090
  - # 8
    frequency:    4.7071725625
  - # 9
    frequency:    5.3358688743
  - # 10
    frequency:    5.3517033651
  - # 11
    frequency:    6.9790932700
  - # 12
    frequency:    6.9880946945
  - # 13
    frequency:    7.7961872048
  - # 14
    frequency:    8.8786402736
  - # 15
    frequency:   15.1677026005
  - # 16
    frequency:   16.4130811135
  - # 17
    frequency:   16.4178431209
  - # 18
    frequency:   60.8520603366

- q-position: [    0.0252525,    0.0000000,    0.0000000 ]
  distance:    0.0084361
  band:
  - # 1
    frequency:   -2.4610640294
  - # 2
    frequency:   -2.4495913500
  - # 3
    frequency:    0.0446363301
  - # 4
    frequency:    0.2546476953
  - # 5
    frequency:    0.5011640466
  - # 6
    frequency:    3.0205400564
  - # 7
    frequency:    3.0508283532
  - # 8
    frequency:    4.6993715635
  - # 9
    frequency:    5.3348415341
  - # 10
    frequency:    5.3592572741
  - # 11
    frequency:    6.9796548389
  - # 12
    frequency:    6.9936439541
  - # 13
    frequency:    7.7950970205
  - # 14
    frequency:    8.8747886285
  - # 15
    frequency:   15.1657872787
  - # 16
    frequency:   16.4097469925
  - # 17
    frequency:   16.4171522004
  - # 18
    frequency:   60.8516419373

- q-position: [    0.0303030,    0.0000000,    0.0000000 ]
  distance:    0.0101233
  band:
  - # 1
    frequency:   -2.4578788608
  - # 2
    frequency:   -2.4414589435
  - # 3
    frequency:    0.0639378292
  - # 4
    frequency:    0.3061483486
  - # 5
    frequency:    0.6012229950
  - # 6
    frequency:    3.0237023938
  - # 7
    frequency:    3.0669347030
  - # 8
    frequency:    4.6901648871
  - # 9
    frequency:    5.3335957213
  - # 10
    frequency:    5.3682110858
  - # 11
    frequency:    6.9803297342
  - # 12
    frequency:    7.0003414887
  - # 13
    frequency:    7.7937937728
  - # 14
    frequency:    8.8700972974
  - # 15
    frequency:   15.1634494685
  - # 16
    frequency:   16.4056993351
  - # 17
    frequency:   16.4163007382
  - # 18
    frequency:   60.8511321397

- q-position: [    0.0353535,    0.0000000,    0.0000000 ]
  distance:    0.0118106
  band:
  - # 1
    frequency:   -2.4541999389
  - # 2
    frequency:   -2.4320086743
  - # 3
    frequency:    0.0864948159
  - # 4
    frequency:    0.3579500079
  - # 5
    frequency:    0.7011644047
  - # 6
    frequency:    3.0274464004
  - # 7
    frequency:    3.0856878904
  - # 8
    frequency:    4.6797155358
  - # 9
    frequency:    5.3321372951
  - # 10
    frequency:    5.3784303219
  - # 11
    frequency:    6.9811111215
  - # 12
    frequency:    7.0081370287
  - # 13
    frequency:    7.7922953552
  - # 14
    frequency:    8.8645760998
  - # 15
    frequency:   15.1606910285
  - # 16
    frequency:   16.4009544019
  - # 17
    frequency:   16.4152846963
  - # 18
    frequency:   60.8505318845

- q-position: [    0.0404040,    0.0000000,    0.0000000 ]
  distance:    0.0134978
  band:
  - # 1
    frequency:   -2.4500684844
  - # 2
    frequency:   -2.4213154569
  - # 3
    frequency:    0.1121929502
  - # 4
    frequency:    0.4100940833
  - # 5
    frequency:    0.8009509010
  - # 6
    frequency:    3.0317751455
  - # 7
    frequency:    3.1069599659
  - # 8
    frequency:    4.6681929517
  - # 9
    frequency:    5.3304731450
  - # 10
    frequency:    5.3897784616
  - # 11
    frequency:    6.9819909679
  - # 12
    frequency:    7.0169717262
  - # 13
    frequency:    7.7906232515
  - # 14
    frequency:    8.8582367090
  - # 15
    frequency:   15.1575141374
  - # 16
    frequency:   16.3955312596
  - # 17
    frequency:   16.4140994447
  - # 18
    frequency:   60.8498422776

- q-position: [    0.0454545,    0.0000000,    0.0000000 ]
  distance:    0.0151850
  band:
  - # 1
    frequency:   -2.4455309076
  - # 2
    frequency:   -2.4094618398
  - # 3
    frequency:    0.1409086754
  - # 4
    frequency:    0.4626179599
  - # 5
    frequency:    0.9005380628
  - # 6
    frequency:    3.0366919681
  - # 7
    frequency:    3.1306118219
  - # 8
    frequency:    4.6557675617
  - # 9
    frequency:    5.3286111704
  - # 10
    frequency:    5.4021220940
  - # 11
    frequency:    6.9829600684
  - # 12
    frequency:    7.0267783890
  - # 13
    frequency:    7.7888026998
  - # 14
    frequency:    8.8510926840
  - # 15
    frequency:   15.1539212906
  - # 16
    frequency:   16.3894517055
  - # 17
    frequency:   16.4127398255
  - # 18
    frequency:   60.8490645866

- q-position: [    0.0505051,    0.0000000,    0.0000000 ]
  distance:    0.0168722
  band:
  - # 1
    frequency:   -2.4406382941
  - # 2
    frequency:   -2.3965366340
  - # 3
    frequency:    0.1725116999
  - # 4
    frequency:    0.5155544532
  - # 5
    frequency:    0.9998741628
  - # 6
    frequency:    3.0422004035
  - # 7
    frequency:    3.1564957005
  - # 8
    frequency:    4.6426068864
  - # 9
    frequency:    5.3265602557
  - # 10
    frequency:    5.4153345241
  - # 11
    frequency:    6.9840080778
  - # 12
    frequency:    7.0374817242
  - # 13
    frequency:    7.7868628746
  - # 14
    frequency:    8.8431595035
  - # 15
    frequency:   15.1499152989
  - # 16
    frequency:   16.3827401830
  - # 17
    frequency:   16.4112002208
  - # 18
    frequency:   60.8482002381

- q-position: [    0.0555556,    0.0000000,    0.0000000 ]
  distance:    0.0185594
  band:
  - # 1
    frequency:   -2.4354458146
  - # 2
    frequency:   -2.3826335368
  - # 3
    frequency:    0.2068672782
  - # 4
    frequency:    0.5689312929
  - # 5
    frequency:    1.0989001321
  - # 6
    frequency:    3.0483041078
  - # 7
    frequency:    3.1844574745
  - # 8
    frequency:    4.6288730949
  - # 9
    frequency:    5.3243302386
  - # 10
    frequency:    5.4292979765
  - # 11
    frequency:    6.9851235506
  - # 12
    frequency:    7.0489985842
  - # 13
    frequency:    7.7848370810
  - # 14
    frequency:    8.8344546022
  - # 15
    frequency:   15.1454992926
  - # 16
    frequency:   16.3754236851
  - # 17
    frequency:   16.4094746234
  - # 18
    frequency:   60.8472508128

- q-position: [    0.0606061,    0.0000000,    0.0000000 ]
  distance:    0.0202467
  band:
  - # 1
    frequency:   -2.4300120617
  - # 2
    frequency:   -2.3678497942
  - # 3
    frequency:    0.2438382188
  - # 4
    frequency:    0.6227706451
  - # 5
    frequency:    1.1975497311
  - # 6
    frequency:    3.0550067828
  - # 7
    frequency:    3.2143386157
  - # 8
    frequency:    4.6147217647
  - # 9
    frequency:    5.3219318728
  - # 10
    frequency:    5.4439046630
  - # 11
    frequency:    6.9862939895
  - # 12
    frequency:    7.0612382185
  - # 13
    frequency:    7.7827629506
  - # 14
    frequency:    8.8249974086
  - # 15
    frequency:   15.1406767296
  - # 16
    frequency:   16.3675316490
  - # 17
    frequency:   16.4075567076
  - # 18
    frequency:   60.8462180421

- q-position: [    0.0656566,    0.0000000,    0.0000000 ]
  distance:    0.0219339
  band:
  - # 1
    frequency:   -2.4243983181
  - # 2
    frequency:   -2.3522849437
  - # 3
    frequency:    0.2832865782
  - # 4
    frequency:    0.6770886874
  - # 5
    frequency:    1.2957498990
  - # 6
    frequency:    3.0623121048
  - # 7
    frequency:    3.2459777939
  - # 8
    frequency:    4.6003015796
  - # 9
    frequency:    5.3193767834
  - # 10
    frequency:    5.4590570071
  - # 11
    frequency:    6.9875059025
  - # 12
    frequency:    7.0741025353
  - # 13
    frequency:    7.7806826242
  - # 14
    frequency:    8.8148093835
  - # 15
    frequency:   15.1354514107
  - # 16
    frequency:   16.3590958397
  - # 17
    frequency:   16.4054398988
  - # 18
    frequency:   60.8451038030

- q-position: [    0.0707071,    0.0000000,    0.0000000 ]
  distance:    0.0236211
  band:
  - # 1
    frequency:   -2.4186677663
  - # 2
    frequency:   -2.3360396645
  - # 3
    frequency:    0.3250750275
  - # 4
    frequency:    0.7318952485
  - # 5
    frequency:    1.3934212482
  - # 6
    frequency:    3.0702236588
  - # 7
    frequency:    3.2792120710
  - # 8
    frequency:    4.5857547224
  - # 9
    frequency:    5.3166774136
  - # 10
    frequency:    5.4746672983
  - # 11
    frequency:    6.9887448707
  - # 12
    frequency:    7.0874863875
  - # 13
    frequency:    7.7786428994
  - # 14
    frequency:    8.8039140577
  - # 15
    frequency:   15.1298275017
  - # 16
    frequency:   16.3501502252
  - # 17
    frequency:   16.4031174403
  - # 18
    frequency:   60.8439101127

- q-position: [    0.0757576,    0.0000000,    0.0000000 ]
  distance:    0.0253083
  band:
  - # 1
    frequency:   -2.4128846529
  - # 2
    frequency:   -2.3192147543
  - # 3
    frequency:    0.3690678979
  - # 4
    frequency:    0.7871935253
  - # 5
    frequency:    1.4904786595
  - # 6
    frequency:    3.0787448814
  - # 7
    frequency:    3.3138776721
  - # 8
    frequency:    4.5712177705
  - # 9
    frequency:    5.3138469641
  - # 10
    frequency:    5.4906569961
  - # 11
    frequency:    6.9899956273
  - # 12
    frequency:    7.1012779093
  - # 13
    frequency:    7.7766953126
  - # 14
    frequency:    8.7923370702
  - # 15
    frequency:   15.1238095627
  - # 16
    frequency:   16.3407308420
  - # 17
    frequency:   16.4005824538
  - # 18
    frequency:   60.8426391239

- q-position: [    0.0808081,    0.0000000,    0.0000000 ]
  distance:    0.0269956
  band:
  - # 1
    frequency:   -2.4071134224
  - # 2
    frequency:   -2.3019102387
  - # 3
    frequency:    0.4151319310
  - # 4
    frequency:    0.8429798891
  - # 5
    frequency:    1.5868319395
  - # 6
    frequency:    3.0878790140
  - # 7
    frequency:    3.3498103291
  - # 8
    frequency:    4.5568229598
  - # 9
    frequency:    5.3108993225
  - # 10
    frequency:    5.5069558515
  - # 11
    frequency:    6.9912421472
  - # 12
    frequency:    7.1153589380
  - # 13
    frequency:    7.7748961136
  - # 14
    frequency:    8.7801062047
  - # 15
    frequency:   15.1174025855
  - # 16
    frequency:   16.3308756531
  - # 17
    frequency:   16.3978279952
  - # 18
    frequency:   60.8412931181

- q-position: [    0.0858586,    0.0000000,    0.0000000 ]
  distance:    0.0286828
  band:
  - # 1
    frequency:   -2.4014178408
  - # 2
    frequency:   -2.2842246091
  - # 3
    frequency:    0.4631367696
  - # 4
    frequency:    0.8992437886
  - # 5
    frequency:    1.6823864949
  - # 6
    frequency:    3.0976290685
  - # 7
    frequency:    3.3868451961
  - # 8
    frequency:    4.5426997328
  - # 9
    frequency:    5.3078489844
  - # 10
    frequency:    5.5235009622
  - # 11
    frequency:    6.9924677492
  - # 12
    frequency:    7.1296055725
  - # 13
    frequency:    7.7733060793
  - # 14
    frequency:    8.7672514257
  - # 15
    frequency:   15.1106120393
  - # 16
    frequency:   16.3206243966
  - # 17
    frequency:   16.3948471016
  - # 18
    frequency:   60.8398745000

- q-position: [    0.0909091,    0.0000000,    0.0000000 ]
  distance:    0.0303700
  band:
  - # 1
    frequency:   -2.3958601323
  - # 2
    frequency:   -2.2662541755
  - # 3
    frequency:    0.5129552325
  - # 4
    frequency:    0.9559677553
  - # 5
    frequency:    1.7770439912
  - # 6
    frequency:    3.1079978075
  - # 7
    frequency:    3.4248163404
  - # 8
    frequency:    4.5289765292
  - # 9
    frequency:    5.3047109645
  - # 10
    frequency:    5.5402358396
  - # 11
    frequency:    6.9936552106
  - # 12
    frequency:    7.1438889337
  - # 13
    frequency:    7.7719901005
  - # 14
    frequency:    8.7538049122
  - # 15
    frequency:   15.1034439229
  - # 16
    frequency:   16.3100184286
  - # 17
    frequency:   16.3916328304
  - # 18
    frequency:   60.8383857906

- q-position: [    0.0959596,    0.0000000,    0.0000000 ]
  distance:    0.0320572
  band:
  - # 1
    frequency:   -2.3905001503
  - # 2
    frequency:   -2.2480925172
  - # 3
    frequency:    0.5644634193
  - # 4
    frequency:    1.0131275117
  - # 5
    frequency:    1.8707029632
  - # 6
    frequency:    3.1189877398
  - # 7
    frequency:    3.4635558107
  - # 8
    frequency:    4.5157828084
  - # 9
    frequency:    5.3015006985
  - # 10
    frequency:    5.5571095323
  - # 11
    frequency:    6.9947868931
  - # 12
    frequency:    7.1580762014
  - # 13
    frequency:    7.7710164627
  - # 14
    frequency:    8.7398010921
  - # 15
    frequency:   15.0959048241
  - # 16
    frequency:   16.2991005581
  - # 17
    frequency:   16.3881782893
  - # 18
    frequency:   60.8368296206

- q-position: [    0.1010101,    0.0000000,    0.0000000 ]
  distance:    0.0337444
  band:
  - # 1
    frequency:   -2.3853946084
  - # 2
    frequency:   -2.2298300099
  - # 3
    frequency:    0.6175406915
  - # 4
    frequency:    1.0706921782
  - # 5
    frequency:    1.9632593559
  - # 6
    frequency:    3.1306011316
  - # 7
    frequency:    3.5028922869
  - # 8
    frequency:    4.5032513131
  - # 9
    frequency:    5.2982339364
  - # 10
    frequency:    5.5740758335
  - # 11
    frequency:    6.9958448818
  - # 12
    frequency:    7.1720320135
  - # 13
    frequency:    7.7704557369
  - # 14
    frequency:    8.7252766747
  - # 15
    frequency:   15.0880019840
  - # 16
    frequency:   16.2879148762
  - # 17
    frequency:   16.3844766576
  - # 18
    frequency:   60.8352087232

- q-position: [    0.1060606,    0.0000000,    0.0000000 ]
  distance:    0.0354317
  band:
  - # 1
    frequency:   -2.3805963923
  - # 2
    frequency:   -2.2115534101
  - # 3
    frequency:    0.6720695737
  - # 4
    frequency:    1.1286245700
  - # 5
    frequency:    2.0546069797
  - # 6
    frequency:    3.1428400350
  - # 7
    frequency:    3.5426493206
  - # 8
    frequency:    4.4915205874
  - # 9
    frequency:    5.2949266260
  - # 10
    frequency:    5.5910925814
  - # 11
    frequency:    6.9968111341
  - # 12
    frequency:    7.1856203064
  - # 13
    frequency:    7.7703792003
  - # 14
    frequency:    8.7102706843
  - # 15
    frequency:   15.0797433656
  - # 16
    frequency:   16.2765065800
  - # 17
    frequency:   16.3805211980
  - # 18
    frequency:   60.8335259266

- q-position: [    0.1111111,    0.0000000,    0.0000000 ]
  distance:    0.0371189
  band:
  - # 1
    frequency:   -2.3761539715
  - # 2
    frequency:   -2.1933454805
  - # 3
    frequency:    0.7279356131
  - # 4
    frequency:    1.1868815703
  - # 5
    frequency:    2.1446378704
  - # 6
    frequency:    3.1557063319
  - # 7
    frequency:    3.5826431931
  - # 8
    frequency:    4.4807377536
  - # 9
    frequency:    5.2915947906
  - # 10
    frequency:    5.6081210540
  - # 11
    frequency:    6.9976676404
  - # 12
    frequency:    7.1987066560
  - # 13
    frequency:    7.7708567270
  - # 14
    frequency:    8.6948244949
  - # 15
    frequency:   15.0711377235
  - # 16
    frequency:   16.2649217915
  - # 17
    frequency:   16.3763052610
  - # 18
    frequency:   60.8317841465

- q-position: [    0.1161616,    0.0000000,    0.0000000 ]
  distance:    0.0388061
  band:
  - # 1
    frequency:   -2.3721109271
  - # 2
    frequency:   -2.1752846444
  - # 3
    frequency:    0.7850272313
  - # 4
    frequency:    1.2454145645
  - # 5
    frequency:    2.2332425496
  - # 6
    frequency:    3.1692017935
  - # 7
    frequency:    3.6226804600
  - # 8
    frequency:    4.4710615111
  - # 9
    frequency:    5.2882543983
  - # 10
    frequency:    5.6251254541
  - # 11
    frequency:    6.9983965931
  - # 12
    frequency:    7.2111611341
  - # 13
    frequency:    7.7719541325
  - # 14
    frequency:    8.6789818661
  - # 15
    frequency:   15.0621946742
  - # 16
    frequency:   16.2532073724
  - # 17
    frequency:   16.3718222814
  - # 18
    frequency:   60.8299863783

- q-position: [    0.1212121,    0.0000000,    0.0000000 ]
  distance:    0.0404933
  band:
  - # 1
    frequency:   -2.3685056033
  - # 2
    frequency:   -2.1574446655
  - # 3
    frequency:    0.8432355929
  - # 4
    frequency:    1.3041699158
  - # 5
    frequency:    2.3203101836
  - # 6
    frequency:    3.1833281526
  - # 7
    frequency:    3.6625553320
  - # 8
    frequency:    4.4626652436
  - # 9
    frequency:    5.2849212269
  - # 10
    frequency:    5.6420724760
  - # 11
    frequency:    6.9989805640
  - # 12
    frequency:    7.2228616259
  - # 13
    frequency:    7.7737300254
  - # 14
    frequency:    8.6627889838
  - # 15
    frequency:   15.0529247621
  - # 16
    frequency:   16.2414107361
  - # 17
    frequency:   16.3670657690
  - # 18
    frequency:   60.8281356890

- q-position: [    0.1262626,    0.0000000,    0.0000000 ]
  distance:    0.0421805
  band:
  - # 1
    frequency:   -2.3653708892
  - # 2
    frequency:   -2.1398943503
  - # 3
    frequency:    0.9024545096
  - # 4
    frequency:    1.3630894640
  - # 5
    frequency:    2.4057286398
  - # 6
    frequency:    3.1980871880
  - # 7
    frequency:    3.7020471813
  - # 8
    frequency:    4.4557399761
  - # 9
    frequency:    5.2816107250
  - # 10
    frequency:    5.6589309467
  - # 11
    frequency:    6.9994026876
  - # 12
    frequency:    7.2336974601
  - # 13
    frequency:    7.7762323152
  - # 14
    frequency:    8.6462945035
  - # 15
    frequency:   15.0433395213
  - # 16
    frequency:   16.2295796564
  - # 17
    frequency:   16.3620292948
  - # 18
    frequency:   60.8262352089

- q-position: [    0.1313131,    0.0000000,    0.0000000 ]
  distance:    0.0438678
  band:
  - # 1
    frequency:   -2.3627341265
  - # 2
    frequency:   -2.1226972793
  - # 3
    frequency:    0.9625803892
  - # 4
    frequency:    1.4221110283
  - # 5
    frequency:    2.4893844410
  - # 6
    frequency:    3.2134808158
  - # 7
    frequency:    3.7409187003
  - # 8
    frequency:    4.4504966903
  - # 9
    frequency:    5.2783378711
  - # 10
    frequency:    5.6756715291
  - # 11
    frequency:    6.9996468480
  - # 12
    frequency:    7.2435730953
  - # 13
    frequency:    7.7794946269
  - # 14
    frequency:    8.6295495996
  - # 15
    frequency:   15.0334515279
  - # 16
    frequency:   16.2177620758
  - # 17
    frequency:   16.3567064752
  - # 18
    frequency:   60.8242881235

- q-position: [    0.1363636,    0.0000000,    0.0000000 ]
  distance:    0.0455550
  band:
  - # 1
    frequency:   -2.3606171396
  - # 2
    frequency:   -2.1059115735
  - # 3
    frequency:    1.0235122324
  - # 4
    frequency:    1.4811688990
  - # 5
    frequency:    2.5711626155
  - # 6
    frequency:    3.2295111858
  - # 7
    frequency:    3.7789155788
  - # 8
    frequency:    4.4471671611
  - # 9
    frequency:    5.2751170333
  - # 10
    frequency:    5.6922664821
  - # 11
    frequency:    6.9996978676
  - # 12
    frequency:    7.2524115202
  - # 13
    frequency:    7.7835329660
  - # 14
    frequency:    8.6126080179
  - # 15
    frequency:   15.0232744407
  - # 16
    frequency:   16.2060059111
  - # 17
    frequency:   16.3510909547
  - # 18
    frequency:   60.8222976648

- q-position: [    0.1414141,    0.0000000,    0.0000000 ]
  distance:    0.0472422
  band:
  - # 1
    frequency:   -2.3590363738
  - # 2
    frequency:   -2.0895897026
  - # 3
    frequency:    1.0851516730
  - # 4
    frequency:    1.5401943057
  - # 5
    frequency:    2.6509464437
  - # 6
    frequency:    3.2461807760
  - # 7
    frequency:    3.8157690139
  - # 8
    frequency:    4.4460020288
  - # 9
    frequency:    5.2719618313
  - # 10
    frequency:    5.7086894663
  - # 11
    frequency:    6.9995416955
  - # 12
    frequency:    7.2601569739
  - # 13
    frequency:    7.7883430252
  - # 14
    frequency:    8.5955261319
  - # 15
    frequency:   15.0128230285
  - # 16
    frequency:   16.1943588612
  - # 17
    frequency:   16.3451763911
  - # 18
    frequency:   60.8202671032

- q-position: [    0.1464646,    0.0000000,    0.0000000 ]
  distance:    0.0489294
  band:
  - # 1
    frequency:   -2.3580031287
  - # 2
    frequency:   -2.0737783431
  - # 3
    frequency:    1.1474030523
  - # 4
    frequency:    1.5991158527
  - # 5
    frequency:    2.7286171028
  - # 6
    frequency:    3.2634924820
  - # 7
    frequency:    3.8512028079
  - # 8
    frequency:    4.4472643721
  - # 9
    frequency:    5.2688850038
  - # 10
    frequency:    5.7249153909
  - # 11
    frequency:    6.9991655906
  - # 12
    frequency:    7.2667766180
  - # 13
    frequency:    7.7938984991
  - # 14
    frequency:    8.5783629992
  - # 15
    frequency:   15.0021131789
  - # 16
    frequency:   16.1828682139
  - # 17
    frequency:   16.3389564440
  - # 18
    frequency:   60.8181997384

- q-position: [    0.1515152,    0.0000000,    0.0000000 ]
  distance:    0.0506167
  band:
  - # 1
    frequency:   -2.3575238702
  - # 2
    frequency:   -2.0585182916
  - # 3
    frequency:    1.2101735151
  - # 4
    frequency:    1.6578599203
  - # 5
    frequency:    2.8040532194
  - # 6
    frequency:    3.2814496926
  - # 7
    frequency:    3.8849469745
  - # 8
    frequency:    4.4512168715
  - # 9
    frequency:    5.2658982837
  - # 10
    frequency:    5.7409202949
  - # 11
    frequency:    6.9985582999
  - # 12
    frequency:    7.2722608978
  - # 13
    frequency:    7.8001506741
  - # 14
    frequency:    8.5611804113
  - # 15
    frequency:   14.9911618884
  - # 16
    frequency:   16.1715806551
  - # 17
    frequency:   16.3324247696
  - # 18
    frequency:   60.8160988915

- q-position: [    0.1565657,    0.0000000,    0.0000000 ]
  distance:    0.0523039
  band:
  - # 1
    frequency:   -2.3576006026
  - # 2
    frequency:   -2.0438444322
  - # 3
    frequency:    1.2733731143
  - # 4
    frequency:    1.7163510312
  - # 5
    frequency:    2.8771303564
  - # 6
    frequency:    3.3000563455
  - # 7
    frequency:    3.9167591800
  - # 8
    frequency:    4.4581012270
  - # 9
    frequency:    5.2630122836
  - # 10
    frequency:    5.7566812589
  - # 11
    frequency:    6.9977102253
  - # 12
    frequency:    7.2766224987
  - # 13
    frequency:    7.8070293865
  - # 14
    frequency:    8.5440429286
  - # 15
    frequency:   14.9799872297
  - # 16
    frequency:   16.1605420809
  - # 17
    frequency:   16.3255750230
  - # 18
    frequency:   60.8139678958

- q-position: [    0.1616162,    0.0000000,    0.0000000 ]
  distance:    0.0539911
  band:
  - # 1
    frequency:   -2.3582312828
  - # 2
    frequency:   -2.0297857609
  - # 3
    frequency:    1.3369149079
  - # 4
    frequency:    1.7745121887
  - # 5
    frequency:    2.9477204877
  - # 6
    frequency:    3.3193169551
  - # 7
    frequency:    3.9464534457
  - # 8
    frequency:    4.4681103621
  - # 9
    frequency:    5.2602363946
  - # 10
    frequency:    5.7721763449
  - # 11
    frequency:    6.9966135788
  - # 12
    frequency:    7.2798940024
  - # 13
    frequency:    7.8144452587
  - # 14
    frequency:    8.5270178871
  - # 15
    frequency:   14.9686082954
  - # 16
    frequency:   16.1497974123
  - # 17
    frequency:   16.3184008721
  - # 18
    frequency:   60.8118100890

- q-position: [    0.1666667,    0.0000000,    0.0000000 ]
  distance:    0.0556783
  band:
  - # 1
    frequency:   -2.3594102612
  - # 2
    frequency:   -2.0163654591
  - # 3
    frequency:    1.4007150388
  - # 4
    frequency:    1.8322651977
  - # 5
    frequency:    3.0156915610
  - # 6
    frequency:    3.3392366018
  - # 7
    frequency:    3.9739322418
  - # 8
    frequency:    4.4813571927
  - # 9
    frequency:    5.2575787005
  - # 10
    frequency:    5.7873845615
  - # 11
    frequency:    6.9952625214
  - # 12
    frequency:    7.2821245173
  - # 13
    frequency:    7.8222929486
  - # 14
    frequency:    8.5101753552
  - # 15
    frequency:   14.9570451157
  - # 16
    frequency:   16.1393904145
  - # 17
    frequency:   16.3108960218
  - # 18
    frequency:   60.8096288042

- q-position: [    0.1717172,    0.0000000,    0.0000000 ]
  distance:    0.0573655
  band:
  - # 1
    frequency:   -2.3611287329
  - # 2
    frequency:   -2.0036010129
  - # 3
    frequency:    1.4646927868
  - # 4
    frequency:    1.8895309789
  - # 5
    frequency:    3.0809073137
  - # 6
    frequency:    3.3598208759
  - # 7
    frequency:    3.9992145178
  - # 8
    frequency:    4.4978472561
  - # 9
    frequency:    5.2550459104
  - # 10
    frequency:    5.8022858551
  - # 11
    frequency:    6.9936532825
  - # 12
    frequency:    7.2833756617
  - # 13
    frequency:    7.8304550594
  - # 14
    frequency:    8.4935880158
  - # 15
    frequency:   14.9453185501
  - # 16
    frequency:   16.1293635213
  - # 17
    frequency:   16.3030542532
  - # 18
    frequency:   60.8074273621

- q-position: [    0.1767677,    0.0000000,    0.0000000 ]
  distance:    0.0590528
  band:
  - # 1
    frequency:   -2.3633751860
  - # 2
    frequency:   -1.9915043693
  - # 3
    frequency:    1.5287705858
  - # 4
    frequency:    1.9462298938
  - # 5
    frequency:    3.1432276012
  - # 6
    frequency:    3.3810757633
  - # 7
    frequency:    4.0224506939
  - # 8
    frequency:    4.5174639190
  - # 9
    frequency:    5.2526433118
  - # 10
    frequency:    5.8168611264
  - # 11
    frequency:    6.9917842582
  - # 12
    frequency:    7.2837173032
  - # 13
    frequency:    7.8388063343
  - # 14