nqpoint: 300    
npath: 3      
segment_nqpoint:
- 100
- 100
- 100
labels:
- [ 'G', 'M' ]
- [ 'M', 'K' ]
- [ 'K', 'G' ]
reciprocal_lattice:
- [   0.28931305,   0.16703497,   0.00000000 ] # a*
- [   0.00000000,   0.33406994,   0.00000000 ] # b*
- [   0.00000000,   0.00000000,   0.03987045 ] # c*
natom: 6      
lattice:
- [     3.456463466038933,     0.000000000000000,     0.000000000000000 ] # a
- [    -1.728231733019466,     2.993385168840475,     0.000000000000000 ] # b
- [     0.000000000000000,     0.000000000000000,    25.081229370651336 ] # c
points:
- symbol: Br # 1
  coordinates: [  0.666666984744047,  0.333332985985145,  0.358834085323238 ]
  mass: 79.904000
- symbol: C # 2
  coordinates: [  0.000000000000000,  0.000000000000000,  0.485238427814370 ]
  mass: 12.010700
- symbol: C # 3
  coordinates: [  0.333332985432215,  0.666666983183674,  0.593140401374952 ]
  mass: 12.010700
- symbol: N # 4
  coordinates: [  0.333332985432215,  0.666666983183674,  0.641165914676762 ]
  mass: 14.006700
- symbol: Zr # 5
  coordinates: [  0.333332985432215,  0.666666983183674,  0.437282686105622 ]
  mass: 91.224000
- symbol: Zr # 6
  coordinates: [  0.666666984744047,  0.333332985985145,  0.534594098724696 ]
  mass: 91.224000

phonon:
- q-position: [    0.0000000,    0.0000000,    0.0000000 ]
  distance:    0.0000000
  band:
  - # 1
    frequency:   -2.9419486230
  - # 2
    frequency:   -2.9419486230
  - # 3
    frequency:   -0.0000008572
  - # 4
    frequency:   -0.0000003332
  - # 5
    frequency:    0.0000007739
  - # 6
    frequency:    3.1549268694
  - # 7
    frequency:    3.1549268694
  - # 8
    frequency:    4.7648607139
  - # 9
    frequency:    5.2157396480
  - # 10
    frequency:    5.2157396480
  - # 11
    frequency:    6.5871048191
  - # 12
    frequency:    6.5871048191
  - # 13
    frequency:    7.8441951012
  - # 14
    frequency:    8.7680262876
  - # 15
    frequency:   15.0967187819
  - # 16
    frequency:   15.8748740534
  - # 17
    frequency:   15.8748740534
  - # 18
    frequency:   60.8495113265

- q-position: [    0.0050505,    0.0000000,    0.0000000 ]
  distance:    0.0016872
  band:
  - # 1
    frequency:   -2.9410116514
  - # 2
    frequency:   -2.9403768631
  - # 3
    frequency:   -0.1921478486
  - # 4
    frequency:    0.0655257032
  - # 5
    frequency:    0.2166452683
  - # 6
    frequency:    3.1553172938
  - # 7
    frequency:    3.1561784124
  - # 8
    frequency:    4.7639429595
  - # 9
    frequency:    5.2158391803
  - # 10
    frequency:    5.2169618021
  - # 11
    frequency:    6.5878446175
  - # 12
    frequency:    6.5886012710
  - # 13
    frequency:    7.8439760790
  - # 14
    frequency:    8.7678507261
  - # 15
    frequency:   15.0966635385
  - # 16
    frequency:   15.8759487321
  - # 17
    frequency:   15.8760507530
  - # 18
    frequency:   60.8494709911

- q-position: [    0.0101010,    0.0000000,    0.0000000 ]
  distance:    0.0033744
  band:
  - # 1
    frequency:   -2.9382077656
  - # 2
    frequency:   -2.9356708200
  - # 3
    frequency:   -0.2562138457
  - # 4
    frequency:    0.1310249325
  - # 5
    frequency:    0.3251696906
  - # 6
    frequency:    3.1564874872
  - # 7
    frequency:    3.1599241203
  - # 8
    frequency:    4.7612236164
  - # 9
    frequency:    5.2161370576
  - # 10
    frequency:    5.2205934686
  - # 11
    frequency:    6.5900587944
  - # 12
    frequency:    6.5930793955
  - # 13
    frequency:    7.8433205196
  - # 14
    frequency:    8.7673234445
  - # 15
    frequency:   15.0964972729
  - # 16
    frequency:   15.8791636223
  - # 17
    frequency:   15.8795712948
  - # 18
    frequency:   60.8493500304

- q-position: [    0.0151515,    0.0000000,    0.0000000 ]
  distance:    0.0050617
  band:
  - # 1
    frequency:   -2.9335579695
  - # 2
    frequency:   -2.9278581040
  - # 3
    frequency:   -0.2963106300
  - # 4
    frequency:    0.1964711695
  - # 5
    frequency:    0.4220444266
  - # 6
    frequency:    3.1584342239
  - # 7
    frequency:    3.1661375098
  - # 8
    frequency:    4.7567997529
  - # 9
    frequency:    5.2166311226
  - # 10
    frequency:    5.2265350028
  - # 11
    frequency:    6.5937317392
  - # 12
    frequency:    6.6005055649
  - # 13
    frequency:    7.8422329664
  - # 14
    frequency:    8.7664426577
  - # 15
    frequency:   15.0962183706
  - # 16
    frequency:   15.8844913747
  - # 17
    frequency:   15.8854071012
  - # 18
    frequency:   60.8491485813

- q-position: [    0.0202020,    0.0000000,    0.0000000 ]
  distance:    0.0067489
  band:
  - # 1
    frequency:   -2.9270969966
  - # 2
    frequency:   -2.9169844009
  - # 3
    frequency:   -0.3235777938
  - # 4
    frequency:    0.2618378081
  - # 5
    frequency:    0.5153306011
  - # 6
    frequency:    3.1611521738
  - # 7
    frequency:    3.1747753515
  - # 8
    frequency:    4.7508189576
  - # 9
    frequency:    5.2173177860
  - # 10
    frequency:    5.2346346912
  - # 11
    frequency:    6.5988375809
  - # 12
    frequency:    6.6108239540
  - # 13
    frequency:    7.8407210658
  - # 14
    frequency:    8.7652054110
  - # 15
    frequency:   15.0958241171
  - # 16
    frequency:   15.8918866987
  - # 17
    frequency:   15.8935108533
  - # 18
    frequency:   60.8488668720

- q-position: [    0.0252525,    0.0000000,    0.0000000 ]
  distance:    0.0084361
  band:
  - # 1
    frequency:   -2.9188729059
  - # 2
    frequency:   -2.9031129819
  - # 3
    frequency:   -0.3425129224
  - # 4
    frequency:    0.3270981128
  - # 5
    frequency:    0.6076460161
  - # 6
    frequency:    3.1646339707
  - # 7
    frequency:    3.1857789632
  - # 8
    frequency:    4.7434623567
  - # 9
    frequency:    5.2181920382
  - # 10
    frequency:    5.2447059712
  - # 11
    frequency:    6.6053404070
  - # 12
    frequency:    6.6239568756
  - # 13
    frequency:    7.8387956803
  - # 14
    frequency:    8.7636076123
  - # 15
    frequency:   15.0953106672
  - # 16
    frequency:   15.9012867981
  - # 17
    frequency:   15.9038169492
  - # 18
    frequency:   60.8485052226

- q-position: [    0.0303030,    0.0000000,    0.0000000 ]
  distance:    0.0101233
  band:
  - # 1
    frequency:   -2.9089465285
  - # 2
    frequency:   -2.8863240293
  - # 3
    frequency:   -0.3553181929
  - # 4
    frequency:    0.3922251799
  - # 5
    frequency:    0.6999885389
  - # 6
    frequency:    3.1688703055
  - # 7
    frequency:    3.1990758837
  - # 8
    frequency:    4.7349273276
  - # 9
    frequency:    5.2192474657
  - # 10
    frequency:    5.2565450233
  - # 11
    frequency:    6.6131945672
  - # 12
    frequency:    6.6398052597
  - # 13
    frequency:    7.8364710495
  - # 14
    frequency:    8.7616440775
  - # 15
    frequency:   15.0946730101
  - # 16
    frequency:   15.9126119717
  - # 17
    frequency:   15.9162421310
  - # 18
    frequency:   60.8480640450

- q-position: [    0.0353535,    0.0000000,    0.0000000 ]
  distance:    0.0118106
  band:
  - # 1
    frequency:   -2.8973907770
  - # 2
    frequency:   -2.8667137920
  - # 3
    frequency:   -0.3630694252
  - # 4
    frequency:    0.4571919033
  - # 5
    frequency:    0.7927161493
  - # 6
    frequency:    3.1738500426
  - # 7
    frequency:    3.2145818133
  - # 8
    frequency:    4.7254129300
  - # 9
    frequency:    5.2204762769
  - # 10
    frequency:    5.2699456897
  - # 11
    frequency:    6.6223450598
  - # 12
    frequency:    6.6582492777
  - # 13
    frequency:    7.8337650049
  - # 14
    frequency:    8.7593085919
  - # 15
    frequency:   15.0939049379
  - # 16
    frequency:   15.9257663751
  - # 17
    frequency:   15.9306862691
  - # 18
    frequency:   60.8475438439

- q-position: [    0.0404040,    0.0000000,    0.0000000 ]
  distance:    0.0134978
  band:
  - # 1
    frequency:   -2.8842898302
  - # 2
    frequency:   -2.8443935855
  - # 3
    frequency:   -0.3661728385
  - # 4
    frequency:    0.5219709442
  - # 5
    frequency:    0.8859058611
  - # 6
    frequency:    3.1795603576
  - # 7
    frequency:    3.2322026951
  - # 8
    frequency:    4.7151094713
  - # 9
    frequency:    5.2218693373
  - # 10
    frequency:    5.2847102824
  - # 11
    frequency:    6.6327279972
  - # 12
    frequency:    6.6791491111
  - # 13
    frequency:    7.8306992412
  - # 14
    frequency:    8.7565939878
  - # 15
    frequency:   15.0929990244
  - # 16
    frequency:   15.9406389327
  - # 17
    frequency:   15.9470332890
  - # 18
    frequency:   60.8469452170

- q-position: [    0.0454545,    0.0000000,    0.0000000 ]
  distance:    0.0151850
  band:
  - # 1
    frequency:   -2.8697382121
  - # 2
    frequency:   -2.8194886565
  - # 3
    frequency:   -0.3645724783
  - # 4
    frequency:    0.5865347086
  - # 5
    frequency:    0.9795083148
  - # 6
    frequency:    3.1859868922
  - # 7
    frequency:    3.2518368159
  - # 8
    frequency:    4.7041922482
  - # 9
    frequency:    5.2234162178
  - # 10
    frequency:    5.3006562185
  - # 11
    frequency:    6.6442711464
  - # 12
    frequency:    6.7023458556
  - # 13
    frequency:    7.8272996522
  - # 14
    frequency:    8.7534922398
  - # 15
    frequency:   15.0919466188
  - # 16
    frequency:   15.9571043905
  - # 17
    frequency:   15.9651522280
  - # 18
    frequency:   60.8462688555

- q-position: [    0.0505051,    0.0000000,    0.0000000 ]
  distance:    0.0168722
  band:
  - # 1
    frequency:   -2.8538397815
  - # 2
    frequency:   -2.7921369334
  - # 3
    frequency:   -0.3578324732
  - # 4
    frequency:    0.6508553311
  - # 5
    frequency:    1.0734191853
  - # 6
    frequency:    3.1931139240
  - # 7
    frequency:    3.2733768170
  - # 8
    frequency:    4.6928187240
  - # 9
    frequency:    5.2251052559
  - # 10
    frequency:    5.3176192097
  - # 11
    frequency:    6.6568945400
  - # 12
    frequency:    6.7276625410
  - # 13
    frequency:    7.8235967380
  - # 14
    frequency:    8.7499945804
  - # 15
    frequency:   15.0907378592
  - # 16
    frequency:   15.9750244974
  - # 17
    frequency:   15.9848984062
  - # 18
    frequency:   60.8455155454

- q-position: [    0.0555556,    0.0000000,    0.0000000 ]
  distance:    0.0185594
  band:
  - # 1
    frequency:   -2.8367066526
  - # 2
    frequency:   -2.7624876894
  - # 3
    frequency:   -0.3451230951
  - # 4
    frequency:    0.7149046677
  - # 5
    frequency:    1.1675127413
  - # 6
    frequency:    3.2009245483
  - # 7
    frequency:    3.2967115248
  - # 8
    frequency:    4.6811281585
  - # 9
    frequency:    5.2269236346
  - # 10
    frequency:    5.3354539837
  - # 11
    frequency:    6.6705111516
  - # 12
    frequency:    6.7549052405
  - # 13
    frequency:    7.8196260941
  - # 14
    frequency:    8.7460916359
  - # 15
    frequency:   15.0893617090
  - # 16
    frequency:   15.9942493022
  - # 17
    frequency:   16.0061146998
  - # 18
    frequency:   60.8446861676

- q-position: [    0.0606061,    0.0000000,    0.0000000 ]
  distance:    0.0202467
  band:
  - # 1
    frequency:   -2.8184580660
  - # 2
    frequency:   -2.7307001436
  - # 3
    frequency:   -0.3250832550
  - # 4
    frequency:    0.7786542987
  - # 5
    frequency:    1.2616572605
  - # 6
    frequency:    3.2094008667
  - # 7
    frequency:    3.3217275331
  - # 8
    frequency:    4.6692427890
  - # 9
    frequency:    5.2288574777
  - # 10
    frequency:    5.3540334406
  - # 11
    frequency:    6.6850276296
  - # 12
    frequency:    6.7838642304
  - # 13
    frequency:    7.8154289903
  - # 14
    frequency:    8.7417735846
  - # 15
    frequency:   15.0878060149
  - # 16
    frequency:   16.0146185515
  - # 17
    frequency:   16.0286329038
  - # 18
    frequency:   60.8437816988

- q-position: [    0.0656566,    0.0000000,    0.0000000 ]
  distance:    0.0219339
  band:
  - # 1
    frequency:   -2.7992192315
  - # 2
    frequency:   -2.6969420314
  - # 3
    frequency:   -0.2954309860
  - # 4
    frequency:    0.8420755424
  - # 5
    frequency:    1.3557215998
  - # 6
    frequency:    3.2185241809
  - # 7
    frequency:    3.3483104931
  - # 8
    frequency:    4.6572698739
  - # 9
    frequency:    5.2308919640
  - # 10
    frequency:    5.3732469420
  - # 11
    frequency:    6.7003450819
  - # 12
    frequency:    6.8143151566
  - # 13
    frequency:    7.8110530520
  - # 14
    frequency:    8.7370303372
  - # 15
    frequency:   15.0860575880
  - # 16
    frequency:   16.0359631736
  - # 17
    frequency:   16.0522751712
  - # 18
    frequency:   60.8428032124

- q-position: [    0.0707071,    0.0000000,    0.0000000 ]
  distance:    0.0236211
  band:
  - # 1
    frequency:   -2.7791201595
  - # 2
    frequency:   -2.6613881714
  - # 3
    frequency:   -0.2518296436
  - # 4
    frequency:    0.9051394807
  - # 5
    frequency:    1.4495774951
  - # 6
    frequency:    3.2282751869
  - # 7
    frequency:    3.3763460827
  - # 8
    frequency:    4.6453041351
  - # 9
    frequency:    5.2330114604
  - # 10
    frequency:    5.3929982124
  - # 11
    frequency:    6.7163599043
  - # 12
    frequency:    6.8460201602
  - # 13
    frequency:    7.8065530505
  - # 14
    frequency:    8.7318517418
  - # 15
    frequency:   15.0841023048
  - # 16
    frequency:   16.0581068326
  - # 17
    frequency:   16.0768555170
  - # 18
    frequency:   60.8417518794

- q-position: [    0.0757576,    0.0000000,    0.0000000 ]
  distance:    0.0253083
  band:
  - # 1
    frequency:   -2.7582945021
  - # 2
    frequency:   -2.6242190600
  - # 3
    frequency:   -0.1832954203
  - # 4
    frequency:    0.9678169969
  - # 5
    frequency:    1.5430998826
  - # 6
    frequency:    3.2386341662
  - # 7
    frequency:    3.4057206476
  - # 8
    frequency:    4.6334303197
  - # 9
    frequency:    5.2351996735
  - # 10
    frequency:    5.4132031547
  - # 11
    frequency:    6.7329646431
  - # 12
    frequency:    6.8787289178
  - # 13
    frequency:    7.8019918068
  - # 14
    frequency:    8.7262278112
  - # 15
    frequency:   15.0819252263
  - # 16
    frequency:   16.0808675366
  - # 17
    frequency:   16.1021813747
  - # 18
    frequency:   60.8406289684

- q-position: [    0.0808081,    0.0000000,    0.0000000 ]
  distance:    0.0269956
  band:
  - # 1
    frequency:   -2.7368784183
  - # 2
    frequency:   -2.5856195175
  - # 3
    frequency:    0.0517153729
  - # 4
    frequency:    1.0300788264
  - # 5
    frequency:    1.6361663970
  - # 6
    frequency:    3.2495811724
  - # 7
    frequency:    3.4363215142
  - # 8
    frequency:    4.6217257323
  - # 9
    frequency:    5.2374398191
  - # 10
    frequency:    5.4337877535
  - # 11
    frequency:    6.7500488836
  - # 12
    frequency:    6.9121795612
  - # 13
    frequency:    7.7974412024
  - # 14
    frequency:    8.7201489744
  - # 15
    frequency:   15.0795107321
  - # 16
    frequency:   16.1040592833
  - # 17
    frequency:   16.1280551926
  - # 18
    frequency:   60.8394358472

- q-position: [    0.0858586,    0.0000000,    0.0000000 ]
  distance:    0.0286828
  band:
  - # 1
    frequency:   -2.7150094788
  - # 2
    frequency:   -2.5457774071
  - # 3
    frequency:    0.2141761368
  - # 4
    frequency:    1.0918956199
  - # 5
    frequency:    1.7286566138
  - # 6
    frequency:    3.2610962083
  - # 7
    frequency:    3.4680369825
  - # 8
    frequency:    4.6102626768
  - # 9
    frequency:    5.2397148081
  - # 10
    frequency:    5.4546861561
  - # 11
    frequency:    6.7675001559
  - # 12
    frequency:    6.9460994632
  - # 13
    frequency:    7.7929832721
  - # 14
    frequency:    8.7136063510
  - # 15
    frequency:   15.0768426674
  - # 16
    frequency:   16.1274937276
  - # 17
    frequency:   16.1542760572
  - # 18
    frequency:   60.8381739822

- q-position: [    0.0909091,    0.0000000,    0.0000000 ]
  distance:    0.0303700
  band:
  - # 1
    frequency:   -2.6928256215
  - # 2
    frequency:   -2.5048824419
  - # 3
    frequency:    0.3105540900
  - # 4
    frequency:    1.1532380186
  - # 5
    frequency:    1.8204513102
  - # 6
    frequency:    3.2731593927
  - # 7
    frequency:    3.5007560082
  - # 8
    frequency:    4.5991108005
  - # 9
    frequency:    5.2420074468
  - # 10
    frequency:    5.4758389692
  - # 11
    frequency:    6.7852048466
  - # 12
    frequency:    6.9802059108
  - # 13
    frequency:    7.7887113212
  - # 14
    frequency:    8.7065920465
  - # 15
    frequency:   15.0739045003
  - # 16
    frequency:   16.1509818535
  - # 17
    frequency:   16.1806413298
  - # 18
    frequency:   60.8368449399

- q-position: [    0.0959596,    0.0000000,    0.0000000 ]
  distance:    0.0320572
  band:
  - # 1
    frequency:   -2.6704641683
  - # 2
    frequency:   -2.4631250848
  - # 3
    frequency:    0.3934608093
  - # 4
    frequency:    1.2140767405
  - # 5
    frequency:    1.9114318582
  - # 6
    frequency:    3.2857511135
  - # 7
    frequency:    3.5343675834
  - # 8
    frequency:    4.5883393665
  - # 9
    frequency:    5.2443006493
  - # 10
    frequency:    5.4971917795
  - # 11
    frequency:    6.8030491087
  - # 12
    frequency:    7.0142067472
  - # 13
    frequency:    7.7847309569
  - # 14
    frequency:    8.6990994704
  - # 15
    frequency:   15.0706794864
  - # 16
    frequency:   16.1743356369
  - # 17
    frequency:   16.2069482836
  - # 18
    frequency:   60.8354503862

- q-position: [    0.1010101,    0.0000000,    0.0000000 ]
  distance:    0.0337444
  band:
  - # 1
    frequency:   -2.6480609079
  - # 2
    frequency:   -2.4206955394
  - # 3
    frequency:    0.4704868574
  - # 4
    frequency:    1.2743826759
  - # 5
    frequency:    2.0014797846
  - # 6
    frequency:    3.2988521668
  - # 7
    frequency:    3.5687598204
  - # 8
    frequency:    4.5780194963
  - # 9
    frequency:    5.2465776581
  - # 10
    frequency:    5.5186938905
  - # 11
    frequency:    6.8209197599
  - # 12
    frequency:    7.0478011460
  - # 13
    frequency:    7.7811608456
  - # 14
    frequency:    8.6911236717
  - # 15
    frequency:   15.0671508396
  - # 16
    frequency:   16.1973696824
  - # 17
    frequency:   16.2329957268
  - # 18
    frequency:   60.8339920872

- q-position: [    0.1060606,    0.0000000,    0.0000000 ]
  distance:    0.0354317
  band:
  - # 1
    frequency:   -2.6257492506
  - # 2
    frequency:   -2.3777828221
  - # 3
    frequency:    0.5444507200
  - # 4
    frequency:    1.3341269914
  - # 5
    frequency:    2.0904764903
  - # 6
    frequency:    3.3124438795
  - # 7
    frequency:    3.6038187406
  - # 8
    frequency:    4.5682264348
  - # 9
    frequency:    5.2488222713
  - # 10
    frequency:    5.5402972584
  - # 11
    frequency:    6.8387051601
  - # 12
    frequency:    7.0806808032
  - # 13
    frequency:    7.7781328894
  - # 14
    frequency:    8.6826616940
  - # 15
    frequency:   15.0633019067
  - # 16
    frequency:   16.2199028207
  - # 17
    frequency:   16.2585855981
  - # 18
    frequency:   60.8324719081

- q-position: [    0.1111111,    0.0000000,    0.0000000 ]
  distance:    0.0371189
  band:
  - # 1
    frequency:   -2.6036594530
  - # 2
    frequency:   -2.3345738994
  - # 3
    frequency:    0.6166979570
  - # 4
    frequency:    1.3932812390
  - # 5
    frequency:    2.1783031009
  - # 6
    frequency:    3.3265082153
  - # 7
    frequency:    3.6394267667
  - # 8
    frequency:    4.5590418908
  - # 9
    frequency:    5.2510190712
  - # 10
    frequency:    5.5619556093
  - # 11
    frequency:    6.8562960592
  - # 12
    frequency:    7.1125319861
  - # 13
    frequency:    7.7757913721
  - # 14
    frequency:    8.6737129456
  - # 15
    frequency:   15.0591163448
  - # 16
    frequency:   16.2417596539
  - # 17
    frequency:   16.2835245211
  - # 18
    frequency:   60.8308918138

- q-position: [    0.1161616,    0.0000000,    0.0000000 ]
  distance:    0.0388061
  band:
  - # 1
    frequency:   -2.5819179142
  - # 2
    frequency:   -2.2912528749
  - # 3
    frequency:    0.6879520624
  - # 4
    frequency:    1.4518174688
  - # 5
    frequency:    2.2648404115
  - # 6
    frequency:    3.3410278633
  - # 7
    frequency:    3.6754609193
  - # 8
    frequency:    4.5505565004
  - # 9
    frequency:    5.2531536513
  - # 10
    frequency:    5.5836237174
  - # 11
    frequency:    6.8735864095
  - # 12
    frequency:    7.1430390438
  - # 13
    frequency:    7.7742904583
  - # 14
    frequency:    8.6642795848
  - # 15
    frequency:   15.0545782989
  - # 16
    frequency:   16.2627720347
  - # 17
    frequency:   16.3076253051
  - # 18
    frequency:   60.8292538672

- q-position: [    0.1212121,    0.0000000,    0.0000000 ]
  distance:    0.0404933
  band:
  - # 1
    frequency:   -2.5606465384
  - # 2
    frequency:   -2.2480002107
  - # 3
    frequency:    0.7586245569
  - # 4
    frequency:    1.5097083433
  - # 5
    frequency:    2.3499688876
  - # 6
    frequency:    3.3559863093
  - # 7
    frequency:    3.7117907304
  - # 8
    frequency:    4.5428724442
  - # 9
    frequency:    5.2552128376
  - # 10
    frequency:    5.6052568282
  - # 11
    frequency:    6.8904741329
  - # 12
    frequency:    7.1718901192
  - # 13
    frequency:    7.7737893037
  - # 14
    frequency:    8.6543669164
  - # 15
    frequency:   15.0496725800
  - # 16
    frequency:   16.2827804704
  - # 17
    frequency:   16.3307083779
  - # 18
    frequency:   60.8275602287

- q-position: [    0.1262626,    0.0000000,    0.0000000 ]
  distance:    0.0421805
  band:
  - # 1
    frequency:   -2.5399621583
  - # 2
    frequency:   -2.2049919792
  - # 3
    frequency:    0.8289521788
  - # 4
    frequency:    1.5669272507
  - # 5
    frequency:    2.4335686835
  - # 6
    frequency:    3.3713678896
  - # 7
    frequency:    3.7482759145
  - # 8
    frequency:    4.5361062178
  - # 9
    frequency:    5.2571848998
  - # 10
    frequency:    5.6268102091
  - # 11
    frequency:    6.9068618398
  - # 12
    frequency:    7.1987857844
  - # 13
    frequency:    7.7744440519
  - # 14
    frequency:    8.6439837983
  - # 15
    frequency:   15.0443848414
  - # 16
    frequency:   16.3016354387
  - # 17
    frequency:   16.3526031414
  - # 18
    frequency:   60.8258131545

- q-position: [    0.1313131,    0.0000000,    0.0000000 ]
  distance:    0.0438678
  band:
  - # 1
    frequency:   -2.5199760143
  - # 2
    frequency:   -2.1623991476
  - # 3
    frequency:    0.8990659331
  - # 4
    frequency:    1.6234484160
  - # 5
    frequency:    2.5155196459
  - # 6
    frequency:    3.3871578288
  - # 7
    frequency:    3.7847638960
  - # 8
    frequency:    4.5303914899
  - # 9
    frequency:    5.2590597499
  - # 10
    frequency:    5.6482388161
  - # 11
    frequency:    6.9226574924
  - # 12
    frequency:    7.2234510186
  - # 13
    frequency:    7.7763963032
  - # 14
    frequency:    8.6331430542
  - # 15
    frequency:   15.0387017519
  - # 16
    frequency:   16.3191986087
  - # 17
    frequency:   16.3731492369
  - # 18
    frequency:   60.8240149948

- q-position: [    0.1363636,    0.0000000,    0.0000000 ]
  distance:    0.0455550
  band:
  - # 1
    frequency:   -2.5007932821
  - # 2
    frequency:   -2.1203869108
  - # 3
    frequency:    0.9690293211
  - # 4
    frequency:    1.6792470081
  - # 5
    frequency:    2.5957012748
  - # 6
    frequency:    3.4033422607
  - # 7
    frequency:    3.8210873934
  - # 8
    frequency:    4.5258818782
  - # 9
    frequency:    5.2608291223
  - # 10
    frequency:    5.6694970655
  - # 11
    frequency:    6.9377750091
  - # 12
    frequency:    7.2456501923
  - # 13
    frequency:    7.7797583959
  - # 14
    frequency:    8.6218618880
  - # 15
    frequency:   15.0326111653
  - # 16
    frequency:   16.3353439580
  - # 17
    frequency:   16.3921977116
  - # 18
    frequency:   60.8221681917

- q-position: [    0.1414141,    0.0000000,    0.0000000 ]
  distance:    0.0472422
  band:
  - # 1
    frequency:   -2.4825126413
  - # 2
    frequency:   -2.0791140965
  - # 3
    frequency:    1.0388611954
  - # 4
    frequency:    1.7342992419
  - # 5
    frequency:    2.6739926191
  - # 6
    frequency:    3.4199082347
  - # 7
    frequency:    3.8570624334
  - # 8
    frequency:    4.5227532960
  - # 9
    frequency:    5.2624867336
  - # 10
    frequency:    5.6905387029
  - # 11
    frequency:    6.9521348072
  - # 12
    frequency:    7.2652035227
  - # 13
    frequency:    7.7845970444
  - # 14
    frequency:    8.6101622952
  - # 15
    frequency:   15.0261022843
  - # 16
    frequency:   16.3499587777
  - # 17
    frequency:   16.4096120759
  - # 18
    frequency:   60.8202752762

- q-position: [    0.1464646,    0.0000000,    0.0000000 ]
  distance:    0.0489294
  band:
  - # 1
    frequency:   -2.4652258802
  - # 2
    frequency:   -2.0387326677
  - # 3
    frequency:    1.1085503550
  - # 4
    frequency:    1.7885824753
  - # 5
    frequency:    2.7502720933
  - # 6
    frequency:    3.4368437078
  - # 7
    frequency:    3.8924874239
  - # 8
    frequency:    4.5212052597
  - # 9
    frequency:    5.2640284179
  - # 10
    frequency:    5.7113167634
  - # 11
    frequency:    6.9656642804
  - # 12
    frequency:    7.2820021353
  - # 13
    frequency:    7.7909182108
  - # 14
    frequency:    8.5980714630
  - # 15
    frequency:   15.0191658183
  - # 16
    frequency:   16.3629445618
  - # 17
    frequency:   16.4252692459
  - # 18
    frequency:   60.8183388651

- q-position: [    0.1515152,    0.0000000,    0.0000000 ]
  distance:    0.0506167
  band:
  - # 1
    frequency:   -2.4490175298
  - # 2
    frequency:   -1.9993873408
  - # 3
    frequency:    1.1780654217
  - # 4
    frequency:    1.8420753006
  - # 5
    frequency:    2.8244172133
  - # 6
    frequency:    3.4541375234
  - # 7
    frequency:    3.9271442678
  - # 8
    frequency:    4.5214601860
  - # 9
    frequency:    5.2654522341
  - # 10
    frequency:    5.7317836187
  - # 11
    frequency:    6.9782982099
  - # 12
    frequency:    7.2960180744
  - # 13
    frequency:    7.7986568832
  - # 14
    frequency:    8.5856221474
  - # 15
    frequency:   15.0117941320
  - # 16
    frequency:   16.3742177733
  - # 17
    frequency:   16.4390603618
  - # 18
    frequency:   60.8163616576

- q-position: [    0.1565657,    0.0000000,    0.0000000 ]
  distance:    0.0523039
  band:
  - # 1
    frequency:   -2.4339645248
  - # 2
    frequency:   -1.9612153276
  - # 3
    frequency:    1.2473618590
  - # 4
    frequency:    1.8947576305
  - # 5
    frequency:    2.8963042618
  - # 6
    frequency:    3.4717793785
  - # 7
    frequency:    3.9608028853
  - # 8
    frequency:    4.5237593070
  - # 9
    frequency:    5.2667585439
  - # 10
    frequency:    5.7518911098
  - # 11
    frequency:    6.9899791089
  - # 12
    frequency:    7.3073060866
  - # 13
    frequency:    7.8076749551
  - # 14
    frequency:    8.5728530133
  - # 15
    frequency:   15.0039813863
  - # 16
    frequency:   16.3837104850
  - # 17
    frequency:   16.4508914789
  - # 18
    frequency:   60.8143464308

- q-position: [    0.1616162,    0.0000000,    0.0000000 ]
  distance:    0.0539911
  band:
  - # 1
    frequency:   -2.4201358888
  - # 2
    frequency:   -1.9243461825
  - # 3
    frequency:    1.3163871479
  - # 4
    frequency:    1.9466107790
  - # 5
    frequency:    2.9658079180
  - # 6
    frequency:    3.4897597801
  - # 7
    frequency:    3.9932307837
  - # 8
    frequency:    4.5283535423
  - # 9
    frequency:    5.2679500568
  - # 10
    frequency:    5.7715907617
  - # 11
    frequency:    7.0006574978
  - # 12
    frequency:    7.3159959331
  - # 13
    frequency:    7.8177684779
  - # 14
    frequency:    8.5598089159
  - # 15
    frequency:   14.9957236664
  - # 16
    frequency:   16.3913708906
  - # 17
    frequency:   16.4606841263
  - # 18
    frequency:   60.8122960351

- q-position: [    0.1666667,    0.0000000,    0.0000000 ]
  distance:    0.0556783
  band:
  - # 1
    frequency:   -2.4075924436
  - # 2
    frequency:   -1.8889017194
  - # 3
    frequency:    1.3850846852
  - # 4
    frequency:    1.9976175381
  - # 5
    frequency:    3.0328009196
  - # 6
    frequency:    3.5080699924
  - # 7
    frequency:    4.0242091094
  - # 8
    frequency:    4.5354878305
  - # 9
    frequency:    5.2690318411
  - # 10
    frequency:    5.7908340808
  - # 11
    frequency:    7.0102921132
  - # 12
    frequency:    7.3222766422
  - # 13
    frequency:    7.8286829068
  - # 14
    frequency:    8.5465410947
  - # 15
    frequency:   14.9870190986
  - # 16
    frequency:   16.3971636841
  - # 17
    frequency:   16.4683757292
  - # 18
    frequency:   60.8102133891

- q-position: [    0.1717172,    0.0000000,    0.0000000 ]
  distance:    0.0573655
  band:
  - # 1
    frequency:   -2.3963865442
  - # 2
    frequency:   -1.8549959371
  - # 3
    frequency:    1.4533967286
  - # 4
    frequency:    2.0477622505
  - # 5
    frequency:    3.0971538709
  - # 6
    frequency:    3.5267019753
  - # 7
    frequency:    4.0535555043
  - # 8
    frequency:    4.5453784995
  - # 9
    frequency:    5.2700112991
  - # 10
    frequency:    5.8095729312
  - # 11
    frequency:    7.0188500481
  - # 12
    frequency:    7.3263762029
  - # 13
    frequency:    7.8401328839
  - # 14
    frequency:    8.5331072442
  - # 15
    frequency:   14.9778679525
  - # 16
    frequency:   16.4010703054
  - # 17
    frequency:   16.4739198941
  - # 18
    frequency:   60.8081014738

- q-position: [    0.1767677,    0.0000000,    0.0000000 ]
  distance:    0.0590528
  band:
  - # 1
    frequency:   -2.3865618424
  - # 2
    frequency:   -1.8227348818
  - # 3
    frequency:    1.5212665843
  - # 4
    frequency:    2.0970308776
  - # 5
    frequency:    3.1587353735
  - # 6
    frequency:    3.5456483168
  - # 7
    frequency:    4.0811517286
  - # 8
    frequency:    4.5581855393
  - # 9
    frequency:    5.2708981066
  - # 10
    frequency:    5.8277599900
  - # 11
    frequency:    7.0263068266
  - # 12
    frequency:    7.3285408059
  - # 13
    frequency:    7.8518225031
  - # 14