nqpoint: 300    
npath: 3      
segment_nqpoint:
- 100
- 100
- 100
labels:
- [ 'G', 'M' ]
- [ 'M', 'K' ]
- [ 'K', 'G' ]
reciprocal_lattice:
- [   0.26071272,   0.15052256,   0.00000000 ] # a*
- [   0.00000000,   0.30104511,   0.00000000 ] # b*
- [   0.00000000,   0.00000000,   0.03605884 ] # c*
natom: 8      
lattice:
- [     3.835639518785066,     0.000000000000000,     0.000000000000000 ] # a
- [    -1.917819759392533,     3.321761263063308,     0.000000000000000 ] # b
- [     0.000000000000000,     0.000000000000000,    27.732450567479209 ] # c
points:
- symbol: C # 1
  coordinates: [  0.000000000000000,  0.000000000000000,  0.518517743910891 ]
  mass: 12.010700
- symbol: C # 2
  coordinates: [  0.666666984744047,  0.333332985985144,  0.367588378994496 ]
  mass: 12.010700
- symbol: Cl # 3
  coordinates: [  0.333332985432215,  0.666666983183674,  0.675470439292734 ]
  mass: 35.453000
- symbol: N # 4
  coordinates: [  0.666666984744047,  0.333332985985144,  0.324529560707266 ]
  mass: 14.006700
- symbol: O # 5
  coordinates: [  0.333332985432215,  0.666666983183674,  0.579579225723589 ]
  mass: 15.999400
- symbol: S # 6
  coordinates: [  0.666666984744047,  0.333332985985144,  0.427671965075311 ]
  mass: 32.065000
- symbol: Y # 7
  coordinates: [  0.333332985432215,  0.666666983183674,  0.493375581967252 ]
  mass: 88.905850
- symbol: Y # 8
  coordinates: [  0.666666984744047,  0.333332985985144,  0.604110033221209 ]
  mass: 88.905850

phonon:
- q-position: [    0.0000000,    0.0000000,    0.0000000 ]
  distance:    0.0000000
  band:
  - # 1
    frequency:   -2.9568959594
  - # 2
    frequency:   -2.9568959593
  - # 3
    frequency:   -0.9539857402
  - # 4
    frequency:   -0.9539857399
  - # 5
    frequency:   -0.0000121309
  - # 6
    frequency:   -0.0000002097
  - # 7
    frequency:    0.0000326746
  - # 8
    frequency:    1.0733509658
  - # 9
    frequency:    1.0733509662
  - # 10
    frequency:    2.9975389480
  - # 11
    frequency:    3.9527574209
  - # 12
    frequency:    3.9527574210
  - # 13
    frequency:    5.8709923748
  - # 14
    frequency:    6.1447156021
  - # 15
    frequency:    6.1447156022
  - # 16
    frequency:    7.3560124660
  - # 17
    frequency:   10.1531373550
  - # 18
    frequency:   10.6787024944
  - # 19
    frequency:   10.6787024945
  - # 20
    frequency:   12.9944621291
  - # 21
    frequency:   13.7000834672
  - # 22
    frequency:   13.7000834673
  - # 23
    frequency:   21.1103845445
  - # 24
    frequency:   63.7907296066

- q-position: [    0.0050505,    0.0000000,    0.0000000 ]
  distance:    0.0015204
  band:
  - # 1
    frequency:   -2.9571498573
  - # 2
    frequency:   -2.9563675342
  - # 3
    frequency:   -0.9533050179
  - # 4
    frequency:   -0.9528057366
  - # 5
    frequency:    0.0013819736
  - # 6
    frequency:    0.0206765368
  - # 7
    frequency:    0.0721646255
  - # 8
    frequency:    1.0734799390
  - # 9
    frequency:    1.0749799031
  - # 10
    frequency:    2.9971626538
  - # 11
    frequency:    3.9528443375
  - # 12
    frequency:    3.9529496427
  - # 13
    frequency:    5.8702410626
  - # 14
    frequency:    6.1441152150
  - # 15
    frequency:    6.1445262019
  - # 16
    frequency:    7.3558402455
  - # 17
    frequency:   10.1529652551
  - # 18
    frequency:   10.6786273494
  - # 19
    frequency:   10.6787248701
  - # 20
    frequency:   12.9934477776
  - # 21
    frequency:   13.7000731523
  - # 22
    frequency:   13.7007637188
  - # 23
    frequency:   21.1103505753
  - # 24
    frequency:   63.7906301574

- q-position: [    0.0101010,    0.0000000,    0.0000000 ]
  distance:    0.0030409
  band:
  - # 1
    frequency:   -2.9579116610
  - # 2
    frequency:   -2.9547823089
  - # 3
    frequency:   -0.9512645845
  - # 4
    frequency:   -0.9492697053
  - # 5
    frequency:    0.0054680122
  - # 6
    frequency:    0.0413404520
  - # 7
    frequency:    0.1443171567
  - # 8
    frequency:    1.0738673626
  - # 9
    frequency:    1.0798324973
  - # 10
    frequency:    2.9960364413
  - # 11
    frequency:    3.9531050414
  - # 12
    frequency:    3.9535217198
  - # 13
    frequency:    5.8679942291
  - # 14
    frequency:    6.1423150489
  - # 15
    frequency:    6.1439571351
  - # 16
    frequency:    7.3553236028
  - # 17
    frequency:   10.1524491442
  - # 18
    frequency:   10.6784025530
  - # 19
    frequency:   10.6787929305
  - # 20
    frequency:   12.9904184948
  - # 21
    frequency:   13.7000425416
  - # 22
    frequency:   13.7027924384
  - # 23
    frequency:   21.1102487110
  - # 24
    frequency:   63.7903320302

- q-position: [    0.0151515,    0.0000000,    0.0000000 ]
  distance:    0.0045613
  band:
  - # 1
    frequency:   -2.9591817110
  - # 2
    frequency:   -2.9521404689
  - # 3
    frequency:   -0.9478696438
  - # 4
    frequency:   -0.9433887557
  - # 5
    frequency:    0.0121857179
  - # 6
    frequency:    0.0619790628
  - # 7
    frequency:    0.2164418694
  - # 8
    frequency:    1.0745147891
  - # 9
    frequency:    1.0878085368
  - # 10
    frequency:    2.9941682988
  - # 11
    frequency:    3.9535393954
  - # 12
    frequency:    3.9544600119
  - # 13
    frequency:    5.8642730243
  - # 14
    frequency:    6.1393180900
  - # 15
    frequency:    6.1430058949
  - # 16
    frequency:    7.3544626162
  - # 17
    frequency:   10.1515896192
  - # 18
    frequency:   10.6780300172
  - # 19
    frequency:   10.6789094372
  - # 20
    frequency:   12.9854146850
  - # 21
    frequency:   13.6999926361
  - # 22
    frequency:   13.7061344331
  - # 23
    frequency:   21.1100790809
  - # 24
    frequency:   63.7898358853

- q-position: [    0.0202020,    0.0000000,    0.0000000 ]
  distance:    0.0060817
  band:
  - # 1
    frequency:   -2.9609606097
  - # 2
    frequency:   -2.9484424390
  - # 3
    frequency:   -0.9431288869
  - # 4
    frequency:   -0.9351787503
  - # 5
    frequency:    0.0214049003
  - # 6
    frequency:    0.0825795184
  - # 7
    frequency:    0.2885161979
  - # 8
    frequency:    1.0754249354
  - # 9
    frequency:    1.0987486611
  - # 10
    frequency:    2.9915714677
  - # 11
    frequency:    3.9541471730
  - # 12
    frequency:    3.9557421940
  - # 13
    frequency:    5.8591121845
  - # 14
    frequency:    6.1351293141
  - # 15
    frequency:    6.1416685931
  - # 16
    frequency:    7.3532574884
  - # 17
    frequency:   10.1503877743
  - # 18
    frequency:   10.6775129111
  - # 19
    frequency:   10.6790788642
  - # 20
    frequency:   12.9785008031
  - # 21
    frequency:   13.6999250984
  - # 22
    frequency:   13.7107339417
  - # 23
    frequency:   21.1098419003
  - # 24
    frequency:   63.7891428210

- q-position: [    0.0252525,    0.0000000,    0.0000000 ]
  distance:    0.0076021
  band:
  - # 1
    frequency:   -2.9632492719
  - # 2
    frequency:   -2.9436890545
  - # 3
    frequency:   -0.9370545224
  - # 4
    frequency:   -0.9246566656
  - # 5
    frequency:    0.0329582384
  - # 6
    frequency:    0.1031286929
  - # 7
    frequency:    0.3605083926
  - # 8
    frequency:    1.0766018794
  - # 9
    frequency:    1.1124443765
  - # 10
    frequency:    2.9882643545
  - # 11
    frequency:    3.9549280621
  - # 12
    frequency:    3.9573378606
  - # 13
    frequency:    5.8525593080
  - # 14
    frequency:    6.1297556853
  - # 15
    frequency:    6.1399403468
  - # 16
    frequency:    7.3517086513
  - # 17
    frequency:   10.1488453445
  - # 18
    frequency:   10.6768556360
  - # 19
    frequency:   10.6793072094
  - # 20
    frequency:   12.9697614952
  - # 21
    frequency:   13.6998422454
  - # 22
    frequency:   13.7165185030
  - # 23
    frequency:   21.1095374702
  - # 24
    frequency:   63.7882543699

- q-position: [    0.0303030,    0.0000000,    0.0000000 ]
  distance:    0.0091226
  band:
  - # 1
    frequency:   -2.9660489925
  - # 2
    frequency:   -2.9378817990
  - # 3
    frequency:   -0.9296623242
  - # 4
    frequency:   -0.9118360948
  - # 5
    frequency:    0.0466531586
  - # 6
    frequency:    0.1236130291
  - # 7
    frequency:    0.4323761707
  - # 8
    frequency:    1.0780513352
  - # 9
    frequency:    1.1286496179
  - # 10
    frequency:    2.9842704428
  - # 11
    frequency:    3.9558816698
  - # 12
    frequency:    3.9592093524
  - # 13
    frequency:    5.8446739229
  - # 14
    frequency:    6.1232061527
  - # 15
    frequency:    6.1378157378
  - # 16
    frequency:    7.3498169065
  - # 17
    frequency:   10.1469648958
  - # 18
    frequency:   10.6760637901
  - # 19
    frequency:   10.6796017442
  - # 20
    frequency:   12.9592970091
  - # 21
    frequency:   13.6997470362
  - # 22
    frequency:   13.7234035586
  - # 23
    frequency:   21.1091661768
  - # 24
    frequency:   63.7871724944

- q-position: [    0.0353535,    0.0000000,    0.0000000 ]
  distance:    0.0106430
  band:
  - # 1
    frequency:   -2.9693615269
  - # 2
    frequency:   -2.9310231038
  - # 3
    frequency:   -0.9209717038
  - # 4
    frequency:   -0.8967223100
  - # 5
    frequency:    0.0622836915
  - # 6
    frequency:    0.1440183281
  - # 7
    frequency:    0.5040663261
  - # 8
    frequency:    1.0797810085
  - # 9
    frequency:    1.1470923145
  - # 10
    frequency:    2.9796182401
  - # 11
    frequency:    3.9570075294
  - # 12
    frequency:    3.9613127899
  - # 13
    frequency:    5.8355264051
  - # 14
    frequency:    6.1154916467
  - # 15
    frequency:    6.1352892836
  - # 16
    frequency:    7.3475835941
  - # 17
    frequency:   10.1447500520
  - # 18
    frequency:   10.6751441235
  - # 19
    frequency:   10.6799707089
  - # 20
    frequency:   12.9472184322
  - # 21
    frequency:   13.6996430589
  - # 22
    frequency:   13.7312972279
  - # 23
    frequency:   21.1087284907
  - # 24
    frequency:   63.7858995802

- q-position: [    0.0404040,    0.0000000,    0.0000000 ]
  distance:    0.0121634
  band:
  - # 1
    frequency:   -2.9731891828
  - # 2
    frequency:   -2.9231167077
  - # 3
    frequency:   -0.9110058127
  - # 4
    frequency:   -0.8793072125
  - # 5
    frequency:    0.0796411088
  - # 6
    frequency:    0.1643294720
  - # 7
    frequency:    0.5755150281
  - # 8
    frequency:    1.0818010306
  - # 9
    frequency:    1.1674848379
  - # 10
    frequency:    2.9743413001
  - # 11
    frequency:    3.9583051095
  - # 12
    frequency:    3.9635992939
  - # 13
    frequency:    5.8251967981
  - # 14
    frequency:    6.1066250723
  - # 15
    frequency:    6.1323558670
  - # 16
    frequency:    7.3450107834
  - # 17
    frequency:   10.1422057442
  - # 18
    frequency:   10.6741044843
  - # 19
    frequency:   10.6804229691
  - # 20
    frequency:   12.9336432304
  - # 21
    frequency:   13.6995345119
  - # 22
    frequency:   13.7401047809
  - # 23
    frequency:   21.1082249663
  - # 24
    frequency:   63.7844384290

- q-position: [    0.0454545,    0.0000000,    0.0000000 ]
  distance:    0.0136839
  band:
  - # 1
    frequency:   -2.9775349154
  - # 2
    frequency:   -2.9141680729
  - # 3
    frequency:   -0.8997916790
  - # 4
    frequency:   -0.8595643201
  - # 5
    frequency:    0.0985226575
  - # 6
    frequency:    0.1845300704
  - # 7
    frequency:    0.6466483519
  - # 8
    frequency:    1.0841244684
  - # 9
    frequency:    1.1895327844
  - # 10
    frequency:    2.9684783629
  - # 11
    frequency:    3.9597738249
  - # 12
    frequency:    3.9660163740
  - # 13
    frequency:    5.8137735707
  - # 14
    frequency:    6.0966213001
  - # 15
    frequency:    6.1290110883
  - # 16
    frequency:    7.3421014771
  - # 17
    frequency:   10.1393384709
  - # 18
    frequency:   10.6729537555
  - # 19
    frequency:   10.6809676467
  - # 20
    frequency:   12.9186914066
  - # 21
    frequency:   13.6994261844
  - # 22
    frequency:   13.7497324882
  - # 23
    frequency:   21.1076562407
  - # 24
    frequency:   63.7827922493

- q-position: [    0.0505051,    0.0000000,    0.0000000 ]
  distance:    0.0152043
  band:
  - # 1
    frequency:   -2.9824024246
  - # 2
    frequency:   -2.9041848559
  - # 3
    frequency:   -0.8873603838
  - # 4
    frequency:   -0.8374437104
  - # 5
    frequency:    0.1187382040
  - # 6
    frequency:    0.2046020209
  - # 7
    frequency:    0.7173824405
  - # 8
    frequency:    1.0867679026
  - # 9
    frequency:    1.2129421257
  - # 10
    frequency:    2.9620736624
  - # 11
    frequency:    3.9614130506
  - # 12
    frequency:    3.9685094631
  - # 13
    frequency:    5.8013523325
  - # 14
    frequency:    6.0854971545
  - # 15
    frequency:    6.1252515164
  - # 16
    frequency:    7.3388598195
  - # 17
    frequency:   10.1361565530
  - # 18
    frequency:   10.6717017839
  - # 19
    frequency:   10.6816137424
  - # 20
    frequency:   12.9024824396
  - # 21
    frequency:   13.6993234322
  - # 22
    frequency:   13.7600906848
  - # 23
    frequency:   21.1070230329
  - # 24
    frequency:   63.7809646470

- q-position: [    0.0555556,    0.0000000,    0.0000000 ]
  distance:    0.0167247
  band:
  - # 1
    frequency:   -2.9877962475
  - # 2
    frequency:   -2.8931774306
  - # 3
    frequency:   -0.8737472771
  - # 4
    frequency:   -0.8128665792
  - # 5
    frequency:    0.1401149697
  - # 6
    frequency:    0.2245249810
  - # 7
    frequency:    0.7876225588
  - # 8
    frequency:    1.0897520625
  - # 9
    frequency:    1.2374252770
  - # 10
    frequency:    2.9551774452
  - # 11
    frequency:    3.9632221377
  - # 12
    frequency:    3.9710235754
  - # 13
    frequency:    5.7880345137
  - # 14
    frequency:    6.0732713970
  - # 15
    frequency:    6.1210748368
  - # 16
    frequency:    7.3352913002
  - # 17
    frequency:   10.1326703685
  - # 18
    frequency:   10.6703593015
  - # 19
    frequency:   10.6823697642
  - # 20
    frequency:   12.8851330272
  - # 21
    frequency:   13.6992321512
  - # 22
    frequency:   13.7710960199
  - # 23
    frequency:   21.1063261425
  - # 24
    frequency:   63.7789596133

- q-position: [    0.0606061,    0.0000000,    0.0000000 ]
  distance:    0.0182452
  band:
  - # 1
    frequency:   -2.9937218413
  - # 2
    frequency:   -2.8811594637
  - # 3
    frequency:   -0.8589922295
  - # 4
    frequency:   -0.7857187931
  - # 5
    frequency:    0.1625007632
  - # 6
    frequency:    0.2442757555
  - # 7
    frequency:    0.8572600702
  - # 8
    frequency:    1.0931024971
  - # 9
    frequency:    1.2627071391
  - # 10
    frequency:    2.9478467500
  - # 11
    frequency:    3.9652004331
  - # 12
    frequency:    3.9735050637
  - # 13
    frequency:    5.7739260033
  - # 14
    frequency:    6.0599647053
  - # 15
    frequency:    6.1164799008
  - # 16
    frequency:    7.3314029450
  - # 17
    frequency:   10.1288925533
  - # 18
    frequency:   10.6689378389
  - # 19
    frequency:   10.6832433773
  - # 20
    frequency:   12.8667555665
  - # 21
    frequency:   13.6991587478
  - # 22
    frequency:   13.7826729599
  - # 23
    frequency:   21.1055664485
  - # 24
    frequency:   63.7767815127

- q-position: [    0.0656566,    0.0000000,    0.0000000 ]
  distance:    0.0197656
  band:
  - # 1
    frequency:   -3.0001856526
  - # 2
    frequency:   -2.8681485435
  - # 3
    frequency:   -0.8431399100
  - # 4
    frequency:   -0.7558424784
  - # 5
    frequency:    0.1857662229
  - # 6
    frequency:    0.2638276110
  - # 7
    frequency:    0.9261658643
  - # 8
    frequency:    1.0968502529
  - # 9
    frequency:    1.2885328480
  - # 10
    frequency:    2.9401464893
  - # 11
    frequency:    3.9673473009
  - # 12
    frequency:    3.9759034480
  - # 13
    frequency:    5.7591357400
  - # 14
    frequency:    6.0455996469
  - # 15
    frequency:    6.1114666940
  - # 16
    frequency:    7.3272034842
  - # 17
    frequency:   10.1248381553
  - # 18
    frequency:   10.6674496336
  - # 19
    frequency:   10.6842410905
  - # 20
    frequency:   12.8474572503
  - # 21
    frequency:   13.6991101063
  - # 22
    frequency:   13.7947546598
  - # 23
    frequency:   21.1047449077
  - # 24
    frequency:   63.7744350690

- q-position: [    0.0707071,    0.0000000,    0.0000000 ]
  distance:    0.0212860
  band:
  - # 1
    frequency:   -3.0071951680
  - # 2
    frequency:   -2.8541668650
  - # 3
    frequency:   -0.8262400707
  - # 4
    frequency:   -0.7230241885
  - # 5
    frequency:    0.2098066403
  - # 6
    frequency:    0.2831495483
  - # 7
    frequency:    0.9941776179
  - # 8
    frequency:    1.1010325171
  - # 9
    frequency:    1.3146801970
  - # 10
    frequency:    2.9321508707
  - # 11
    frequency:    3.9696621473
  - # 12
    frequency:    3.9781732811
  - # 13
    frequency:    5.7437742471
  - # 14
    frequency:    6.0302006466
  - # 15
    frequency:    6.1060362399
  - # 16
    frequency:    7.3227034920
  - # 17
    frequency:   10.1205247322
  - # 18
    frequency:   10.6659075316
  - # 19
    frequency:   10.6853679878
  - # 20
    frequency:   12.8273396466
  - # 21
    frequency:   13.6990935533
  - # 22
    frequency:   13.8072833355
  - # 23
    frequency:   21.1038625534
  - # 24
    frequency:   63.7719253510

- q-position: [    0.0757576,    0.0000000,    0.0000000 ]
  distance:    0.0228064
  band:
  - # 1
    frequency:   -3.0147589416
  - # 2
    frequency:   -2.8392419763
  - # 3
    frequency:   -0.8083478141
  - # 4
    frequency:   -0.6869773287
  - # 5
    frequency:    0.2345439858
  - # 6
    frequency:    0.3022055788
  - # 7
    frequency:    1.0610757122
  - # 8
    frequency:    1.1056931678
  - # 9
    frequency:    1.3409822818
  - # 10
    frequency:    2.9239451880
  - # 11
    frequency:    3.9721444475
  - # 12
    frequency:    3.9802760083
  - # 13
    frequency:    5.7279521137
  - # 14
    frequency:    6.0137939470
  - # 15
    frequency:    6.1001904594
  - # 16
    frequency:    7.3179154875
  - # 17
    frequency:   10.1159723842
  - # 18
    frequency:   10.6643248846
  - # 19
    frequency:   10.6866275167
  - # 20
    frequency:   12.8064986294
  - # 21
    frequency:   13.6991168191
  - # 22
    frequency:   13.8202102661
  - # 23
    frequency:   21.1029204937
  - # 24
    frequency:   63.7692577560

- q-position: [    0.0808081,    0.0000000,    0.0000000 ]
  distance:    0.0243269
  band:
  - # 1
    frequency:   -3.0228865963
  - # 2
    frequency:   -2.8234075925
  - # 3
    frequency:   -0.7895238047
  - # 4
    frequency:   -0.6473148352
  - # 5
    frequency:    0.2599298653
  - # 6
    frequency:    0.3209540790
  - # 7
    frequency:    1.1108831603
  - # 8
    frequency:    1.1265369085
  - # 9
    frequency:    1.3673716307
  - # 10
    frequency:    2.9156279940
  - # 11
    frequency:    3.9747937748
  - # 12
    frequency:    3.9821817716
  - # 13
    frequency:    5.7117784301
  - # 14
    frequency:    5.9964075614
  - # 15
    frequency:    6.0939320031
  - # 16
    frequency:    7.3128539937
  - # 17
    frequency:   10.1112037191
  - # 18
    frequency:   10.6627154435
  - # 19
    frequency:   10.6880213368
  - # 20
    frequency:   12.7850245495
  - # 21
    frequency:   13.6991879967
  - # 22
    frequency:   13.8334955340
  - # 23
    frequency:   21.1019199100
  - # 24
    frequency:   63.7664379936

- q-position: [    0.0858586,    0.0000000,    0.0000000 ]
  distance:    0.0258473
  band:
  - # 1
    frequency:   -3.0315887953
  - # 2
    frequency:   -2.8067044883
  - # 3
    frequency:   -0.7698343843
  - # 4
    frequency:   -0.6035045844
  - # 5
    frequency:    0.2859503623
  - # 6
    frequency:    0.3393473249
  - # 7
    frequency:    1.1166606590
  - # 8
    frequency:    1.1900425040
  - # 9
    frequency:    1.3939694441
  - # 10
    frequency:    2.9073136489
  - # 11
    frequency:    3.9776098312
  - # 12
    frequency:    3.9838710939
  - # 13
    frequency:    5.6953591999
  - # 14
    frequency:    5.9780712197
  - # 15
    frequency:    6.0872640728
  - # 16
    frequency:    7.3075355450
  - # 17
    frequency:   10.1062437470
  - # 18
    frequency:   10.6610932484
  - # 19
    frequency:   10.6895492318
  - # 20
    frequency:   12.7630025550
  - # 21
    frequency:   13.6993154972
  - # 22
    frequency:   13.8471075926
  - # 23
    frequency:   21.1008620544
  - # 24
    frequency:   63.7634720675

- q-position: [    0.0909091,    0.0000000,    0.0000000 ]
  distance:    0.0273677
  band:
  - # 1
    frequency:   -3.0408771805
  - # 2
    frequency:   -2.7891814791
  - # 3
    frequency:   -0.7493515455
  - # 4
    frequency:   -0.5547919570
  - # 5
    frequency:    0.3126341209
  - # 6
    frequency:    0.3573313422
  - # 7
    frequency:    1.1230908124
  - # 8
    frequency:    1.2506952289
  - # 9
    frequency:    1.4212660124
  - # 10
    frequency:    2.8991352037
  - # 11
    frequency:    3.9805924789
  - # 12
    frequency:    3.9853363710
  - # 13
    frequency:    5.6787957603
  - # 14
    frequency:    5.9588163052
  - # 15
    frequency:    6.0801902441
  - # 16
    frequency:    7.3019786426
  - # 17
    frequency:   10.1011197084
  - # 18
    frequency:   10.6594725167
  - # 19
    frequency:   10.6912090856
  - # 20
    frequency:   12.7405129933
  - # 21
    frequency:   13.6995080030
  - # 22
    frequency:   13.8610227279
  - # 23
    frequency:   21.0997482490
  - # 24
    frequency:   63.7603662575

- q-position: [    0.0959596,    0.0000000,    0.0000000 ]
  distance:    0.0288882
  band:
  - # 1
    frequency:   -3.0507642770
  - # 2
    frequency:   -2.7708965068
  - # 3
    frequency:   -0.7281527203
  - # 4
    frequency:   -0.5000533965
  - # 5
    frequency:    0.3400656443
  - # 6
    frequency:    0.3748462323
  - # 7
    frequency:    1.1302450631
  - # 8
    frequency:    1.3068929377
  - # 9
    frequency:    1.4504445987
  - # 10
    frequency:    2.8912475358
  - # 11
    frequency:    3.9837417717
  - # 12
    frequency:    3.9865830899
  - # 13
    frequency:    5.6621832533
  - # 14
    frequency:    5.9386757837
  - # 15
    frequency:    6.0727143028
  - # 16
    frequency:    7.2962036507
  - # 17
    frequency:   10.0958608381
  - # 18
    frequency:   10.6578675303
  - # 19
    frequency:   10.6929969177
  - # 20
    frequency:   12.7176318449
  - # 21
    frequency:   13.6997744177
  - # 22
    frequency:   13.8752244605
  - # 23
    frequency:   21.0985798826
  - # 24
    frequency:   63.7571270992

- q-position: [    0.1010101,    0.0000000,    0.0000000 ]
  distance:    0.0304086
  band:
  - # 1
    frequency:   -3.0612633611
  - # 2
    frequency:   -2.7519178431
  - # 3
    frequency:   -0.7063203586
  - # 4
    frequency:   -0.4374835773
  - # 5
    frequency:    0.3684064799
  - # 6
    frequency:    0.3918271535
  - # 7
    frequency:    1.1381998900
  - # 8
    frequency:    1.3560310407
  - # 9
    frequency:    1.4836772118
  - # 10
    frequency:    2.8838305933
  - # 11
    frequency:    3.9870579848
  - # 12
    frequency:    3.9876306868
  - # 13
    frequency:    5.6456092002
  - # 14
    frequency:    5.9176841244
  - # 15
    frequency:    6.0648401031
  - # 16
    frequency:    7.2902326336
  - # 17
    frequency:   10.0904980749
  - # 18
    frequency:   10.6562925218
  - # 19
    frequency:   10.6949069733
  - # 20
    frequency:   12.6944311558
  - # 21
    frequency:   13.7001238132
  - # 22
    frequency:   13.8897029230
  - # 23
    frequency:   21.0973584094
  - # 24
    frequency:   63.7537613648

- q-position: [    0.1060606,    0.0000000,    0.0000000 ]
  distance:    0.0319290
  band:
  - # 1
    frequency:   -3.0723882920
  - # 2
    frequency:   -2.7323254312
  - # 3
    frequency:   -0.6839412905
  - # 4
    frequency:   -0.3637927412
  - # 5
    frequency:    0.3979268016
  - # 6
    frequency:    0.4082061257
  - # 7
    frequency:    1.1470349086
  - # 8
    frequency:    1.3952653595
  - # 9
    frequency:    1.5233610266
  - # 10
    frequency:    2.8770925307
  - # 11
    frequency:    3.9885129604
  - # 12
    frequency:    3.9905416435
  - # 13
    frequency:    5.6291522325
  - # 14
    frequency:    5.8958772121
  - # 15
    frequency:    6.0565714569
  - # 16
    frequency:    7.2840891314
  - # 17
    frequency:   10.0850637232
  - # 18
    frequency:   10.6547615627
  - # 19
    frequency:   10.6969318619
  - # 20
    frequency:   12.6709794458
  - # 21
    frequency:   13.7005653747
  - # 22
    frequency:   13.9044542318
  - # 23
    frequency:   21.0960853466
  - # 24
    frequency:   63.7502760417

- q-position: [    0.1111111,    0.0000000,    0.0000000 ]
  distance:    0.0334495
  band:
  - # 1
    frequency:   -3.0841533057
  - # 2
    frequency:   -2.7122123801
  - # 3
    frequency:   -0.6611059097
  - # 4
    frequency:   -0.2714079221
  - # 5
    frequency:    0.4239147886
  - # 6
    frequency:    0.4290453034
  - # 7
    frequency:    1.1568303057
  - # 8
    frequency:    1.4238674298
  - # 9
    frequency:    1.5697639703
  - # 10
    frequency:    2.8712724256
  - # 11
    frequency:    3.9892779661
  - # 12
    frequency:    3.9941935476
  - # 13
    frequency:    5.6128810354
  - # 14
    frequency:    5.8732922525
  - # 15
    frequency:    6.0479120608
  - # 16
    frequency:    7.2777978764
  - # 17
    frequency:   10.0795910781
  - # 18
    frequency:   10.6532884528
  - # 19
    frequency:   10.6990627359
  - # 20
    frequency:   12.6473420800
  - # 21
    frequency:   13.7011083422
  - # 22
    frequency:   13.9194798674
  - # 23
    frequency:   21.0947622718
  - # 24
    frequency:   63.7466783115

- q-position: [    0.1161616,    0.0000000,    0.0000000 ]
  distance:    0.0349699
  band:
  - # 1
    frequency:   -3.0965727739
  - # 2
    frequency:   -2.6916866288
  - # 3
    frequency:   -0.6379072516
  - # 4
    frequency:   -0.1280282802
  - # 5
    frequency:    0.4388881541
  - # 6
    frequency:    0.4623560502
  - # 7
    frequency:    1.1676636624
  - # 8
    frequency:    1.4436295722
  - # 9
    frequency:    1.6206228347
  - # 10
    frequency:    2.8666421580
  - # 11
    frequency:    3.9899873344
  - # 12
    frequency:    3.9980147914
  - # 13
    frequency:    5.5968535520
  - # 14
    frequency:    5.8499676702
  - # 15
    frequency:    6.0388654671
  - # 16
    frequency:    7.2713844532
  - # 17
    frequency:   10.0741140237
  - # 18
    frequency:   10.6518866119
  - # 19
    frequency:   10.7012895007
  - # 20
    frequency:   12.6235815959
  - # 21
    frequency:   13.7017619493
  - # 22
    frequency:   13.9347860709
  - # 23
    frequency:   21.0933908212
  - # 24
    frequency:   63.7429755278

- q-position: [    0.1212121,    0.0000000,    0.0000000 ]
  distance:    0.0364903
  band:
  - # 1
    frequency:   -3.1096609277
  - # 2
    frequency:   -2.6708727915
  - # 3
    frequency:   -0.6144400898
  - # 4
    frequency:    0.1951747286
  - # 5
    frequency:    0.4530692664
  - # 6
    frequency:    0.4985710944
  - # 7
    frequency:    1.1796063209
  - # 8
    frequency:    1.4566333180
  - # 9
    frequency:    1.6733811857
  - # 10
    frequency:    2.8635069166
  - # 11
    frequency:    3.9907149847
  - # 12
    frequency:    4.0020067782
  - # 13
    frequency:    5.5811164873
  - # 14
    frequency:    5.8259430006
  - # 15
    frequency:    6.0294351054
  - # 16
    frequency:    7.2648749080
  - # 17
    frequency:   10.0686666144
  - # 18
    frequency:   10.6505689768
  - # 19
    frequency:   10.7036010488
  - # 20
    frequency:   12.5997579826
  - # 21
    frequency:   13.7025353608
  - # 22
    frequency:   13.9503832581
  - # 23
    frequency:   21.0919726862
  - # 24
    frequency:   63.7391751941

- q-position: [    0.1262626,    0.0000000,    0.0000000 ]
  distance:    0.0380107
  band:
  - # 1
    frequency:   -3.1234315494
  - # 2
    frequency:   -2.6499141855
  - # 3
    frequency:   -0.5908002014
  - # 4
    frequency:    0.2971357855
  - # 5
    frequency:    0.4664145215
  - # 6
    frequency:    0.5382549196
  - # 7
    frequency:    1.1927195546
  - # 8
    frequency:    1.4641609919
  - # 9
    frequency:    1.7262883361
  - # 10
    frequency:    2.8622036637
  - # 11
    frequency:    3.9915452447
  - # 12
    frequency:    4.0061712278
  - # 13
    frequency:    5.5657051333
  - # 14
    frequency:    5.8012587762
  - # 15
    frequency:    6.0196243572
  - # 16
    frequency:    7.2582953144
  - # 17
    frequency:   10.0632826507
  - # 18
    frequency:   10.6493479017
  - # 19
    frequency:   10.7059855102
  - # 20
    frequency:   12.5759289130
  - # 21
    frequency:   13.7034376060
  - # 22
    frequency:   13.9662854542
  - # 23
    frequency:   21.0905096116
  - # 24
    frequency:   63.7352849414

- q-position: [    0.1313131,    0.0000000,    0.0000000 ]
  distance:    0.0395312
  band:
  - # 1
    frequency:   -3.1378976361
  - # 2
    frequency:   -2.6289750291
  - # 3
    frequency:   -0.5670839622
  - # 4
    frequency:    0.3648486776
  - # 5
    frequency:    0.4788992332
  - # 6
    frequency:    0.5813612066
  - # 7
    frequency:    1.2070508897
  - # 8
    frequency:    1.4668638783
  - # 9
    frequency:    1.7782472675
  - # 10
    frequency:    2.8630967702
  - # 11
    frequency:    3.9925704225
  - # 12
    frequency:    4.0105101755
  - # 13
    frequency:    5.5506435221
  - # 14
    frequency:    5.7759564104
  - # 15
    frequency:    6.0094366876
  - # 16
    frequency:    7.2516713084
  - # 17
    frequency:   10.0579952568
  - # 18
    frequency:   10.6482350653
  - # 19
    frequency:   10.7084305109
  - # 20
    frequency:   12.5521499282
  - # 21
    frequency:   13.7044775112
  - # 22
    frequency:   13.9825097479
  - # 23
    frequency:   21.0890033927
  - # 24
    frequency:   63.7313125049

- q-position: [    0.1363636,    0.0000000,    0.0000000 ]
  distance:    0.0410516
  band:
  - # 1
    frequency:   -3.1530710383
  - # 2
    frequency:   -2.6082427715
  - # 3
    frequency:   -0.5433884054
  - # 4
    frequency:    0.4152335459
  - # 5
    frequency:    0.4905228972
  - # 6
    frequency:    0.6270021593
  - # 7