nqpoint: 300    
npath: 3      
segment_nqpoint:
- 100
- 100
- 100
labels:
- [ 'G', 'M' ]
- [ 'M', 'K' ]
- [ 'K', 'G' ]
reciprocal_lattice:
- [   0.29499949,   0.17031803,   0.00000000 ] # a*
- [   0.00000000,   0.34063607,   0.00000000 ] # b*
- [   0.00000000,   0.00000000,   0.03884917 ] # c*
natom: 7      
lattice:
- [     3.389836401408948,     0.000000000000000,     0.000000000000000 ] # a
- [    -1.694918200704474,     2.935684438277534,     0.000000000000000 ] # b
- [     0.000000000000000,     0.000000000000000,    25.740578292748957 ] # c
points:
- symbol: C # 1
  coordinates: [  0.333332985432215,  0.666666983183674,  0.603543621631394 ]
  mass: 12.010700
- symbol: C # 2
  coordinates: [  0.666666984744047,  0.333332985985145,  0.396456378839988 ]
  mass: 12.010700
- symbol: N # 3
  coordinates: [  0.000000000000000,  0.000000000000000,  0.500000031818272 ]
  mass: 14.006700
- symbol: N # 4
  coordinates: [  0.333332985432215,  0.666666983183674,  0.650357505661197 ]
  mass: 14.006700
- symbol: N # 5
  coordinates: [  0.666666984744047,  0.333332985985145,  0.349642494338803 ]
  mass: 14.006700
- symbol: Zr # 6
  coordinates: [  0.333332985432215,  0.666666983183674,  0.454251810100990 ]
  mass: 91.224000
- symbol: Zr # 7
  coordinates: [  0.666666984744047,  0.333332985985145,  0.545748189899002 ]
  mass: 91.224000

phonon:
- q-position: [    0.0000000,    0.0000000,    0.0000000 ]
  distance:    0.0000000
  band:
  - # 1
    frequency:   -3.7730749202
  - # 2
    frequency:   -3.7730749202
  - # 3
    frequency:   -3.2838698965
  - # 4
    frequency:   -3.2838698965
  - # 5
    frequency:   -0.0000270642
  - # 6
    frequency:   -0.0000003102
  - # 7
    frequency:    0.0000127999
  - # 8
    frequency:    3.0548702200
  - # 9
    frequency:    3.0548702201
  - # 10
    frequency:    4.9260746692
  - # 11
    frequency:    6.7318747883
  - # 12
    frequency:    6.7318747883
  - # 13
    frequency:    7.2577341189
  - # 14
    frequency:    7.2577341190
  - # 15
    frequency:    8.5643079722
  - # 16
    frequency:    8.7260480182
  - # 17
    frequency:   14.3081550018
  - # 18
    frequency:   15.3078494848
  - # 19
    frequency:   15.3078494848
  - # 20
    frequency:   59.9725251242
  - # 21
    frequency:   60.2275780960

- q-position: [    0.0050505,    0.0000000,    0.0000000 ]
  distance:    0.0017204
  band:
  - # 1
    frequency:   -3.7733910875
  - # 2
    frequency:   -3.7733550825
  - # 3
    frequency:   -3.2844422597
  - # 4
    frequency:   -3.2834660541
  - # 5
    frequency:    0.0015784694
  - # 6
    frequency:    0.0623455589
  - # 7
    frequency:    0.0732866763
  - # 8
    frequency:    3.0540317071
  - # 9
    frequency:    3.0545866120
  - # 10
    frequency:    4.9267828272
  - # 11
    frequency:    6.7317456278
  - # 12
    frequency:    6.7326512786
  - # 13
    frequency:    7.2582129074
  - # 14
    frequency:    7.2586445097
  - # 15
    frequency:    8.5642985587
  - # 16
    frequency:    8.7257451211
  - # 17
    frequency:   14.3080053205
  - # 18
    frequency:   15.3073328480
  - # 19
    frequency:   15.3080166670
  - # 20
    frequency:   59.9726504609
  - # 21
    frequency:   60.2276481702

- q-position: [    0.0101010,    0.0000000,    0.0000000 ]
  distance:    0.0034408
  band:
  - # 1
    frequency:   -3.7743392172
  - # 2
    frequency:   -3.7741918569
  - # 3
    frequency:   -3.2861579910
  - # 4
    frequency:   -3.2822516216
  - # 5
    frequency:    0.0063043004
  - # 6
    frequency:    0.1246420648
  - # 7
    frequency:    0.1466984062
  - # 8
    frequency:    3.0515207005
  - # 9
    frequency:    3.0537473505
  - # 10
    frequency:    4.9289029530
  - # 11
    frequency:    6.7313620661
  - # 12
    frequency:    6.7349810502
  - # 13
    frequency:    7.2596420665
  - # 14
    frequency:    7.2613648488
  - # 15
    frequency:    8.5642698303
  - # 16
    frequency:    8.7248362476
  - # 17
    frequency:   14.3075555180
  - # 18
    frequency:   15.3057842808
  - # 19
    frequency:   15.3085148440
  - # 20
    frequency:   59.9730260565
  - # 21
    frequency:   60.2278580179

- q-position: [    0.0151515,    0.0000000,    0.0000000 ]
  distance:    0.0051612
  band:
  - # 1
    frequency:   -3.7759182480
  - # 2
    frequency:   -3.7755741548
  - # 3
    frequency:   -3.2890129906
  - # 4
    frequency:   -3.2802179555
  - # 5
    frequency:    0.0141492046
  - # 6
    frequency:    0.1868404639
  - # 7
    frequency:    0.2203556587
  - # 8
    frequency:    3.0473508287
  - # 9
    frequency:    3.0523871871
  - # 10
    frequency:    4.9324220760
  - # 11
    frequency:    6.7307356396
  - # 12
    frequency:    6.7388647988
  - # 13
    frequency:    7.2620002358
  - # 14
    frequency:    7.2658630248
  - # 15
    frequency:    8.5642203142
  - # 16
    frequency:    8.7233208607
  - # 17
    frequency:   14.3068033273
  - # 18
    frequency:   15.3032078023
  - # 19
    frequency:   15.3093339357
  - # 20
    frequency:   59.9736506700
  - # 21
    frequency:   60.2282065158

- q-position: [    0.0202020,    0.0000000,    0.0000000 ]
  distance:    0.0068815
  band:
  - # 1
    frequency:   -3.7781265944
  - # 2
    frequency:   -3.7774836613
  - # 3
    frequency:   -3.2930003404
  - # 4
    frequency:   -3.2773508931
  - # 5
    frequency:    0.0250677079
  - # 6
    frequency:    0.2488916966
  - # 7
    frequency:    0.2943700221
  - # 8
    frequency:    3.0415449096
  - # 9
    frequency:    3.0505642217
  - # 10
    frequency:    4.9373188324
  - # 11
    frequency:    6.7298848572
  - # 12
    frequency:    6.7443030203
  - # 13
    frequency:    7.2652526507
  - # 14
    frequency:    7.2720867812
  - # 15
    frequency:    8.5641475245
  - # 16
    frequency:    8.7211980926
  - # 17
    frequency:   14.3057450016
  - # 18
    frequency:   15.2996100761
  - # 19
    frequency:   15.3104572358
  - # 20
    frequency:   59.9745222380
  - # 21
    frequency:   60.2286917969

- q-position: [    0.0252525,    0.0000000,    0.0000000 ]
  distance:    0.0086019
  band:
  - # 1
    frequency:   -3.7809624171
  - # 2
    frequency:   -3.7798950952
  - # 3
    frequency:   -3.2981101753
  - # 4
    frequency:   -3.2736311102
  - # 5
    frequency:    0.0389994808
  - # 6
    frequency:    0.3107466697
  - # 7
    frequency:    0.3688403741
  - # 8
    frequency:    3.0341351060
  - # 9
    frequency:    3.0483600696
  - # 10
    frequency:    4.9435638554
  - # 11
    frequency:    6.7288342014
  - # 12
    frequency:    6.7512950906
  - # 13
    frequency:    7.2693523155
  - # 14
    frequency:    7.2799655164
  - # 15
    frequency:    8.5640479160
  - # 16
    frequency:    8.7184667871
  - # 17
    frequency:   14.3043753589
  - # 18
    frequency:   15.2950003578
  - # 19
    frequency:   15.3118615515
  - # 20
    frequency:   59.9756378829
  - # 21
    frequency:   60.2293112585

- q-position: [    0.0303030,    0.0000000,    0.0000000 ]
  distance:    0.0103223
  band:
  - # 1
    frequency:   -3.7844239927
  - # 2
    frequency:   -3.7827765937
  - # 3
    frequency:   -3.3043295004
  - # 4
    frequency:   -3.2690346099
  - # 5
    frequency:    0.0558723180
  - # 6
    frequency:    0.3723562038
  - # 7
    frequency:    0.4438497433
  - # 8
    frequency:    3.0251631437
  - # 9
    frequency:    3.0458799064
  - # 10
    frequency:    4.9511203404
  - # 11
    frequency:    6.7276128732
  - # 12
    frequency:    6.7598381171
  - # 13
    frequency:    7.2742414986
  - # 14
    frequency:    7.2894126277
  - # 15
    frequency:    8.5639168186
  - # 16
    frequency:    8.7151255591
  - # 17
    frequency:   14.3026878445
  - # 18
    frequency:   15.2893904218
  - # 19
    frequency:   15.3135173977
  - # 20
    frequency:   59.9769939244
  - # 21
    frequency:   60.2300615727

- q-position: [    0.0353535,    0.0000000,    0.0000000 ]
  distance:    0.0120427
  band:
  - # 1
    frequency:   -3.7885101746
  - # 2
    frequency:   -3.7860902344
  - # 3
    frequency:   -3.3116419504
  - # 4
    frequency:   -3.2635333315
  - # 5
    frequency:    0.0756055149
  - # 6
    frequency:    0.4336709434
  - # 7
    frequency:    0.5194629827
  - # 8
    frequency:    3.0146805912
  - # 9
    frequency:    3.0432522329
  - # 10
    frequency:    4.9599447898
  - # 11
    frequency:    6.7262533939
  - # 12
    frequency:    6.7699256715
  - # 13
    frequency:    7.2798534306
  - # 14
    frequency:    7.3003282538
  - # 15
    frequency:    8.5637483524
  - # 16
    frequency:    8.7111728734
  - # 17
    frequency:   14.3006746070
  - # 18
    frequency:   15.2827944679
  - # 19
    frequency:   15.3153892447
  - # 20
    frequency:   59.9785858930
  - # 21
    frequency:   60.2309387004

- q-position: [    0.0404040,    0.0000000,    0.0000000 ]
  distance:    0.0137631
  band:
  - # 1
    frequency:   -3.7932209336
  - # 2
    frequency:   -3.7897927039
  - # 3
    frequency:   -3.3200274882
  - # 4
    frequency:   -3.2570958642
  - # 5
    frequency:    0.0981133771
  - # 6
    frequency:    0.4946412228
  - # 7
    frequency:    0.5957253169
  - # 8
    frequency:    3.0027492007
  - # 9
    frequency:    3.0406282031
  - # 10
    frequency:    4.9699879402
  - # 11
    frequency:    6.7247901770
  - # 12
    frequency:    6.7815465162
  - # 13
    frequency:    7.2861140900
  - # 14
    frequency:    7.3126022627
  - # 15
    frequency:    8.5635353226
  - # 16
    frequency:    8.7066071451
  - # 17
    frequency:   14.2983265866
  - # 18
    frequency:   15.2752290064
  - # 19
    frequency:   15.3174358151
  - # 20
    frequency:   59.9804085481
  - # 21
    frequency:   60.2319379081

- q-position: [    0.0454545,    0.0000000,    0.0000000 ]
  distance:    0.0154835
  band:
  - # 1
    frequency:   -3.7985579670
  - # 2
    frequency:   -3.7938361126
  - # 3
    frequency:   -3.3294620394
  - # 4
    frequency:   -3.2496882503
  - # 5
    frequency:    0.1233086101
  - # 6
    frequency:    0.5552168786
  - # 7
    frequency:    0.6726617542
  - # 8
    frequency:    2.9894413078
  - # 9
    frequency:    3.0381803755
  - # 10
    frequency:    4.9811958562
  - # 11
    frequency:    6.7232581674
  - # 12
    frequency:    6.7946834194
  - # 13
    frequency:    7.2929439707
  - # 14
    frequency:    7.3261173418
  - # 15
    frequency:    8.5632690935
  - # 16
    frequency:    8.7014268639
  - # 17
    frequency:   14.2956336130
  - # 18
    frequency:   15.2667127242
  - # 19
    frequency:   15.3196104311
  - # 20
    frequency:   59.9824558972
  - # 21
    frequency:   60.2330537880

- q-position: [    0.0505051,    0.0000000,    0.0000000 ]
  distance:    0.0172038
  band:
  - # 1
    frequency:   -3.8045253623
  - # 2
    frequency:   -3.7981689452
  - # 3
    frequency:   -3.3399170589
  - # 4
    frequency:   -3.2412748609
  - # 5
    frequency:    0.1511053700
  - # 6
    frequency:    0.6153470002
  - # 7
    frequency:    0.7502772949
  - # 8
    frequency:    2.9748402879
  - # 9
    frequency:    3.0361007856
  - # 10
    frequency:    4.9935111661
  - # 11
    frequency:    6.7216916232
  - # 12
    frequency:    6.8093121332
  - # 13
    frequency:    7.3002597510
  - # 14
    frequency:    7.3407520649
  - # 15
    frequency:    8.5629394364
  - # 16
    frequency:    8.6956307499
  - # 17
    frequency:   14.2925845098
  - # 18
    frequency:   15.2572663307
  - # 19
    frequency:   15.3218614059
  - # 20
    frequency:   59.9847212194
  - # 21
    frequency:   60.2342802801

- q-position: [    0.0555556,    0.0000000,    0.0000000 ]
  distance:    0.0189242
  band:
  - # 1
    frequency:   -3.8111302967
  - # 2
    frequency:   -3.8027371202
  - # 3
    frequency:   -3.3513590276
  - # 4
    frequency:   -3.2318193296
  - # 5
    frequency:    0.1814218008
  - # 6
    frequency:    0.6749796111
  - # 7
    frequency:    0.8285578137
  - # 8
    frequency:    2.9590410628
  - # 9
    frequency:    3.0345982836
  - # 10
    frequency:    5.0068743981
  - # 11
    frequency:    6.7201230878
  - # 12
    frequency:    6.8254005805
  - # 13
    frequency:    7.3079758091
  - # 14
    frequency:    7.3563838376
  - # 15
    frequency:    8.5625343476
  - # 16
    frequency:    8.6892179487
  - # 17
    frequency:   14.2891672017
  - # 18
    frequency:   15.2469123846
  - # 19
    frequency:   15.3241324795
  - # 20
    frequency:   59.9871970910
  - # 21
    frequency:   60.2356106979

- q-position: [    0.0606061,    0.0000000,    0.0000000 ]
  distance:    0.0206446
  band:
  - # 1
    frequency:   -3.8183837545
  - # 2
    frequency:   -3.8074851216
  - # 3
    frequency:   -3.3637488836
  - # 4
    frequency:   -3.2212855290
  - # 5
    frequency:    0.2141819408
  - # 6
    frequency:    0.7340612744
  - # 7
    frequency:    0.9074714673
  - # 8
    frequency:    2.9421506534
  - # 9
    frequency:    3.0338951390
  - # 10
    frequency:    5.0212253679
  - # 11
    frequency:    6.7185825780
  - # 12
    frequency:    6.8429082689
  - # 13
    frequency:    7.3160055524
  - # 14
    frequency:    7.3728916506
  - # 15
    frequency:    8.5620398250
  - # 16
    frequency:    8.6821882826
  - # 17
    frequency:   14.2853688220
  - # 18
    frequency:   15.2356751028
  - # 19
    frequency:   15.3263632929
  - # 20
    frequency:   59.9898754131
  - # 21
    frequency:   60.2370377564

- q-position: [    0.0656566,    0.0000000,    0.0000000 ]
  distance:    0.0223650
  band:
  - # 1
    frequency:   -3.8263012360
  - # 2
    frequency:   -3.8123571523
  - # 3
    frequency:   -3.3770413928
  - # 4
    frequency:   -3.2096385786
  - # 5
    frequency:    0.2493169339
  - # 6
    frequency:    0.7925366164
  - # 7
    frequency:    0.9869704602
  - # 8
    frequency:    2.9242887655
  - # 9
    frequency:    3.0342229667
  - # 10
    frequency:    5.0365045599
  - # 11
    frequency:    6.7170969897
  - # 12
    frequency:    6.8617859295
  - # 13
    frequency:    7.3242625518
  - # 14
    frequency:    7.3901585937
  - # 15
    frequency:    8.5614395819
  - # 16
    frequency:    8.6745425831
  - # 17
    frequency:   14.2811758154
  - # 18
    frequency:   15.2235801518
  - # 19
    frequency:   15.3284898991
  - # 20
    frequency:   59.9927474428
  - # 21
    frequency:   60.2385536029

- q-position: [    0.0707071,    0.0000000,    0.0000000 ]
  distance:    0.0240854
  band:
  - # 1
    frequency:   -3.8349034252
  - # 2
    frequency:   -3.8172982546
  - # 3
    frequency:   -3.3911844795
  - # 4
    frequency:   -3.1968458755
  - # 5
    frequency:    0.2867655348
  - # 6
    frequency:    0.8503477648
  - # 7
    frequency:    1.0669930072
  - # 8
    frequency:    2.9055883990
  - # 9
    frequency:    3.0358180804
  - # 10
    frequency:    5.0526544457
  - # 11
    frequency:    6.7156897107
  - # 12
    frequency:    6.8819753579
  - # 13
    frequency:    7.3326614851
  - # 14
    frequency:    7.4080741044
  - # 15
    frequency:    8.5607146601
  - # 16
    frequency:    8.6662831510
  - # 17
    frequency:   14.2765740342
  - # 18
    frequency:   15.2106544229
  - # 19
    frequency:   15.3304453073
  - # 20
    frequency:   59.9958038254
  - # 21
    frequency:   60.2401498500

- q-position: [    0.0757576,    0.0000000,    0.0000000 ]
  distance:    0.0258058
  band:
  - # 1
    frequency:   -3.8442167731
  - # 2
    frequency:   -3.8222553405
  - # 3
    frequency:   -3.4061185474
  - # 4
    frequency:   -3.1828781390
  - # 5
    frequency:    0.3264739412
  - # 6
    frequency:    0.9074337012
  - # 7
    frequency:    1.1474653502
  - # 8
    frequency:    2.8861964624
  - # 9
    frequency:    3.0389164243
  - # 10
    frequency:    5.0696206871
  - # 11
    frequency:    6.7143804189
  - # 12
    frequency:    6.9034094298
  - # 13
    frequency:    7.3411189034
  - # 14
    frequency:    7.4265359402
  - # 15
    frequency:    8.5598428661
  - # 16
    frequency:    8.6574144266
  - # 17
    frequency:   14.2715488218
  - # 18
    frequency:   15.1969257927
  - # 19
    frequency:   15.3321600557
  - # 20
    frequency:   59.9990346298
  - # 21
    frequency:   60.2418176109

- q-position: [    0.0808081,    0.0000000,    0.0000000 ]
  distance:    0.0275261
  band:
  - # 1
    frequency:   -3.8542739407
  - # 2
    frequency:   -3.8271780788
  - # 3
    frequency:   -3.4217758392
  - # 4
    frequency:   -3.1677104630
  - # 5
    frequency:    0.3683950233
  - # 6
    frequency:    0.9637295296
  - # 7
    frequency:    1.2283037106
  - # 8
    frequency:    2.8662743703
  - # 9
    frequency:    3.0437482639
  - # 10
    frequency:    5.0873531765
  - # 11
    frequency:    6.7131850389
  - # 12
    frequency:    6.9260122538
  - # 13
    frequency:    7.3495538427
  - # 14
    frequency:    7.4454518721
  - # 15
    frequency:    8.5587978855
  - # 16
    frequency:    8.6479440240
  - # 17
    frequency:   14.2660850831
  - # 18
    frequency:   15.1824228713
  - # 19
    frequency:   15.3335628102
  - # 20
    frequency:   60.0024293847
  - # 21
    frequency:   60.2435475375

- q-position: [    0.0858586,    0.0000000,    0.0000000 ]
  distance:    0.0292465
  band:
  - # 1
    frequency:   -3.8651140248
  - # 2
    frequency:   -3.8320195960
  - # 3
    frequency:   -3.4380799081
  - # 4
    frequency:   -3.1513233674
  - # 5
    frequency:    0.4124870531
  - # 6
    frequency:    1.0191656721
  - # 7
    frequency:    1.3094160961
  - # 8
    frequency:    2.8459985977
  - # 9
    frequency:    3.0505328404
  - # 10
    frequency:    5.1058068797
  - # 11
    frequency:    6.7121158300
  - # 12
    frequency:    6.9496994312
  - # 13
    frequency:    7.3578883006
  - # 14
    frequency:    7.4647411010
  - # 15
    frequency:    8.5575477741
  - # 16
    frequency:    8.6378844389
  - # 17
    frequency:   14.2601673347
  - # 18
    frequency:   15.1671747385
  - # 19
    frequency:   15.3345809861
  - # 20
    frequency:   60.0059771178
  - # 21
    frequency:   60.2453298601

- q-position: [    0.0909091,    0.0000000,    0.0000000 ]
  distance:    0.0309669
  band:
  - # 1
    frequency:   -3.8767824757
  - # 2
    frequency:   -3.8367369603
  - # 3
    frequency:   -3.4549452963
  - # 4
    frequency:   -3.1337038397
  - # 5
    frequency:    0.4587120536
  - # 6
    frequency:    1.0736670088
  - # 7
    frequency:    1.3907039097
  - # 8
    frequency:    2.8255611512
  - # 9
    frequency:    3.0594731993
  - # 10
    frequency:    5.1249424566
  - # 11
    frequency:    6.7111815783
  - # 12
    frequency:    6.9743783963
  - # 13
    frequency:    7.3660476010
  - # 14
    frequency:    7.4843353998
  - # 15
    frequency:    8.5560521907
  - # 16
    frequency:    8.6272560751
  - # 17
    frequency:   14.2537797349
  - # 18
    frequency:   15.1512106728
  - # 19
    frequency:   15.3351413875
  - # 20
    frequency:   60.0096663953
  - # 21
    frequency:   60.2471544288

- q-position: [    0.0959596,    0.0000000,    0.0000000 ]
  distance:    0.0326873
  band:
  - # 1
    frequency:   -3.8893305926
  - # 2
    frequency:   -3.8412914349
  - # 3
    frequency:   -3.4722775424
  - # 4
    frequency:   -3.1148463531
  - # 5
    frequency:    0.5070339062
  - # 6
    frequency:    1.1271519969
  - # 7
    frequency:    1.4720633418
  - # 8
    frequency:    2.8051699104
  - # 9
    frequency:    3.0707513988
  - # 10
    frequency:    5.1447266436
  - # 11
    frequency:    6.7103878675
  - # 12
    frequency:    6.9999488189
  - # 13
    frequency:    7.3739606661
  - # 14
    frequency:    7.5041799776
  - # 15
    frequency:    8.5542569266
  - # 16
    frequency:    8.6160930416
  - # 17
    frequency:   14.2469060879
  - # 18
    frequency:   15.1345598730
  - # 19
    frequency:   15.3351708639
  - # 20
    frequency:   60.0134853637
  - # 21
    frequency:   60.2490107575

- q-position: [    0.1010101,    0.0000000,    0.0000000 ]
  distance:    0.0344077
  band:
  - # 1
    frequency:   -3.9028144731
  - # 2
    frequency:   -3.8456485017
  - # 3
    frequency:   -3.4899736565
  - # 4
    frequency:   -3.0947538450
  - # 5
    frequency:    0.5574163550
  - # 6
    frequency:    1.1795318185
  - # 7
    frequency:    1.5533865524
  - # 8
    frequency:    2.7850487710
  - # 9
    frequency:    3.0845242816
  - # 10
    frequency:    5.1651323966
  - # 11
    frequency:    6.7097374081
  - # 12
    frequency:    7.0263030673
  - # 13
    frequency:    7.3815602131
  - # 14
    frequency:    7.5242340586
  - # 15
    frequency:    8.5520822395
  - # 16
    frequency:    8.6044552210
  - # 17
    frequency:   14.2395298204
  - # 18
    frequency:   15.1172511779
  - # 19
    frequency:   15.3345969791
  - # 20
    frequency:   60.0174217923
  - # 21
    frequency:   60.2508880690

- q-position: [    0.1060606,    0.0000000,    0.0000000 ]
  distance:    0.0361281
  band:
  - # 1
    frequency:   -3.9172932978
  - # 2
    frequency:   -3.8497776726
  - # 3
    frequency:   -3.5079232048
  - # 4
    frequency:   -3.0734386360
  - # 5
    frequency:    0.6098210446
  - # 6
    frequency:    1.2307096420
  - # 7
    frequency:    1.6345626649
  - # 8
    frequency:    2.7654375004
  - # 9
    frequency:    3.1009199655
  - # 10
    frequency:    5.1861387946
  - # 11
    frequency:    6.7092304066
  - # 12
    frequency:    7.0533267384
  - # 13
    frequency:    7.3887828891
  - # 14
    frequency:    7.5444711569
  - # 15
    frequency:    8.5493959939
  - # 16
    frequency:    8.5924556158
  - # 17
    frequency:   14.2316339282
  - # 18
    frequency:   15.0993127850
  - # 19
    frequency:   15.3333486900
  - # 20
    frequency:   60.0214631173
  - # 21
    frequency:   60.2527753412

- q-position: [    0.1111111,    0.0000000,    0.0000000 ]
  distance:    0.0378485
  band:
  - # 1
    frequency:   -3.9328268592
  - # 2
    frequency:   -3.8536521189
  - # 3
    frequency:   -3.5260101205
  - # 4
    frequency:   -3.0509232673
  - # 5
    frequency:    0.6642057148
  - # 6
    frequency:    1.2805801128
  - # 7
    frequency:    1.7154786101
  - # 8
    frequency:    2.7465911831
  - # 9
    frequency:    3.1200351669
  - # 10
    frequency:    5.2077307165
  - # 11
    frequency:    6.7088649583
  - # 12
    frequency:    7.0808992839
  - # 13
    frequency:    7.3955693574
  - # 14
    frequency:    7.5648790177
  - # 15
    frequency:    8.5459480484
  - # 16
    frequency:    8.5803265362
  - # 17
    frequency:   14.2232008900
  - # 18
    frequency:   15.0807719741
  - # 19
    frequency:   15.3313570339
  - # 20
    frequency:   60.0255964857
  - # 21
    frequency:   60.2546613557

- q-position: [    0.1161616,    0.0000000,    0.0000000 ]
  distance:    0.0395688
  band:
  - # 1
    frequency:   -3.9494723115
  - # 2
    frequency:   -3.8572481564
  - # 3
    frequency:   -3.5441152958
  - # 4
    frequency:   -3.0272412319
  - # 5
    frequency:    0.7205226509
  - # 6
    frequency:    1.3290292439
  - # 7
    frequency:    1.7960198570
  - # 8
    frequency:    2.7287790909
  - # 9
    frequency:    3.1419334242
  - # 10
    frequency:    5.2298983043
  - # 11
    frequency:    6.7086374527
  - # 12
    frequency:    7.1088947699
  - # 13
    frequency:    7.4018643422
  - # 14
    frequency:    7.5854591818
  - # 15
    frequency:    8.5412177383
  - # 16
    frequency:    8.5685727868
  - # 17
    frequency:   14.2142125463
  - # 18
    frequency:   15.0616548365
  - # 19
    frequency:   15.3285558212
  - # 20
    frequency:   60.0298088011
  - # 21
    frequency:   60.2565347465

- q-position: [    0.1212121,    0.0000000,    0.0000000 ]
  distance:    0.0412892
  band:
  - # 1
    frequency:   -3.9672802240
  - # 2
    frequency:   -3.8605446322
  - # 3
    frequency:   -3.5621199095
  - # 4
    frequency:   -3.0024375764
  - # 5
    frequency:    0.7787174637
  - # 6
    frequency:    1.3759349328
  - # 7
    frequency:    1.8760710692
  - # 8
    frequency:    2.7122827634
  - # 9
    frequency:    3.1666442468
  - # 10
    frequency:    5.2526362322
  - # 11
    frequency:    6.7085429798
  - # 12
    frequency:    7.1371828281
  - # 13
    frequency:    7.4076166417
  - # 14
    frequency:    7.6062261191
  - # 15
    frequency:    8.5342295097
  - # 16
    frequency:    8.5581568008
  - # 17
    frequency:   14.2046499435
  - # 18
    frequency:   15.0419860157
  - # 19
    frequency:   15.3248823313
  - # 20
    frequency:   60.0340867692
  - # 21
    frequency:   60.2583840501

- q-position: [    0.1262626,    0.0000000,    0.0000000 ]
  distance:    0.0430096
  band:
  - # 1
    frequency:   -3.9862901586
  - # 2
    frequency:   -3.8635222588
  - # 3
    frequency:   -3.5799093035
  - # 4
    frequency:   -2.9765693515
  - # 5
    frequency:    0.8387282378
  - # 6
    frequency:    1.4211683932
  - # 7
    frequency:    1.9555167143
  - # 8
    frequency:    2.6973930325
  - # 9
    frequency:    3.1941631683
  - # 10
    frequency:    5.2759428018
  - # 11
    frequency:    6.7085757307
  - # 12
    frequency:    7.1656298643
  - # 13
    frequency:    7.4127791128
  - # 14
    frequency:    7.6272058629
  - # 15
    frequency:    8.5240826295
  - # 16
    frequency:    8.5499698024
  - # 17
    frequency:   14.1944931401
  - # 18
    frequency:   15.0217884634
  - # 19
    frequency:   15.3202780108
  - # 20
    frequency:   60.0384169435
  - # 21
    frequency:   60.2601977563

- q-position: [    0.1313131,    0.0000000,    0.0000000 ]
  distance:    0.0447300
  band:
  - # 1
    frequency:   -4.0065261369
  - # 2
    frequency:   -3.8661629381
  - # 3
    frequency:   -3.5973770810
  - # 4
    frequency:   -2.9497058927
  - # 5
    frequency:    0.9004850576
  - # 6
    frequency:    1.4645968435
  - # 7
    frequency:    2.0342416466
  - # 8
    frequency:    2.6844056814
  - # 9
    frequency:    3.2244526520
  - # 10
    frequency:    5.2998188877
  - # 11
    frequency:    6.7087293835
  - # 12
    frequency:    7.1941005917
  - # 13
    frequency:    7.4173086341
  - # 14
    frequency:    7.6484340767
  - # 15
    frequency:    8.5111685381
  - # 16
    frequency:    8.5436154368
  - # 17
    frequency:   14.1837209764
  - # 18
    frequency:   15.0010832132
  - # 19
    frequency:   15.3146891712
  - # 20
    frequency:   60.0427857717
  - # 21
    frequency:   60.2619643599

- q-position: [    0.1363636,    0.0000000,    0.0000000 ]
  distance:    0.0464504
  band:
  - # 1
    frequency:   -4.0279924699
  - # 2
    frequency:   -3.8684491150
  - # 3
    frequency:   -3.6144289846
  - # 4
    frequency:   -2.9219289162
  - # 5
    frequency:    0.9639098900
  - # 6
    frequency:    1.5060878046
  - # 7
    frequency:    2.1121316678
  - # 8
    frequency:    2.6736154228
  - # 9
    frequency:    3.2574437671
  - # 10
    frequency:    5.3242667590
  - # 11
    frequency:    6.7089974704
  - # 12
    frequency:    7.2224599494
  - # 13
    frequency:    7.4211660481
  - # 14
    frequency:    7.6699534853
  - # 15
    frequency:    8.4965084427
  - # 16
    frequency:    8.5380732807
  - # 17
    frequency:   14.1723108079
  - # 18
    frequency:   14.9798891771
  - # 19
    frequency:   15.3080676845
  - # 20
    frequency:   60.0471796418
  - # 21
    frequency:   60.2636724118

- q-position: [    0.1414141,    0.0000000,    0.0000000 ]
  distance:    0.0481708
  band:
  - # 1
    frequency:   -4.0506704531
  - # 2
    frequency:   -3.8703631922
  - # 3
    frequency:   -3.6309860820
  - # 4
    frequency:   -2.8933324252
  - # 5
    frequency:    1.0289167799
  - # 6
    frequency:    1.5455153011
  - # 7
    frequency:    2.1890740611
  - # 8
    frequency:    2.6653079543
  - # 9
    frequency:    3.2930385399
  - # 10
    frequency:    5.3492888049
  - # 11
    frequency:    6.7093737208
  - # 12
    frequency:    7.2505754318
  - # 13
    frequency:    7.4243160879
  - # 14
    frequency:    7.6918106300
  - # 15
    frequency:    8.4807607089
  - # 16
    frequency:    8.5326926935
  - # 17
    frequency:   14.1602382032
  - # 18
    frequency:   14.9582229689
  - # 19
    frequency:   15.3003716741
  - # 20
    frequency:   60.0515849277
  - # 21
    frequency:   60.2653105721

- q-position: [    0.1464646,    0.0000000,    0.0000000 ]
  distance:    0.0498911
  band:
  - # 1
    frequency:   -4.0745163505
  - # 2
    frequency:   -3.8718870263
  - # 3
    frequency:   -3.6469868548
  - # 4
    frequency:   -2.8640224207
  - # 5
    frequency:    1.0954122992
  - # 6
    frequency:    1.5827680787
  - # 7
    frequency:    2.2649580852
  - # 8
    frequency:    2.6597500291
  - # 9
    frequency:    3.3311128718
  - # 10
    frequency:    5.3748861982
  - # 11
    frequency:    6.7098523751
  - # 12
    frequency:    7.2783198014
  - # 13
    frequency:    7.4267272886
  - # 14
    frequency:    7.7140519441
  - # 15
    frequency:    8.4642523724
  - # 16
    frequency:    8.5271627164
  - # 17
    frequency:   14.1474766097
  - # 18
    frequency:   14.9360987562
  - # 19
    frequency:   15.2915661989
  - # 20
    frequency:   60.0559880344
  - # 21
    frequency:   60.2668676612

- q-position: [    0.1515152,    0.0000000,    0.0000000 ]
  distance:    0.0516115
  band:
  - # 1
    frequency:   -4.0994609160
  - # 2
    frequency:   -3.8730015236
  - # 3
    frequency:   -3.6623879581
  - # 4
    frequency:   -2.8341164252
  - # 5
    frequency:    1.1632961827
  - # 6
    frequency:    1.6177596118
  - # 7
    frequency:    2.3396754128
  - # 8
    frequency:    2.6571778246
  - # 9
    frequency:    3.3715199122
  - # 10
    frequency:    5.4010575295
  - # 11
    frequency:    6.7104284676
  - # 12
    frequency:    7.3055740782
  - # 13
    frequency:    7.4283718866
  - # 14
    frequency:    7.7367192100
  - # 15
    frequency:    8.4471608090
  - # 16
    frequency:    8.5213320298
  - # 17
    frequency:   14.1339969908
  - # 18
    frequency:   14.9135281468
  - # 19
    frequency:   15.2816239258
  - # 20
    frequency:   60.0603754436
  - # 21
    frequency:   60.2683327123