nqpoint: 300    
npath: 3      
segment_nqpoint:
- 100
- 100
- 100
labels:
- [ 'G', 'M' ]
- [ 'M', 'K' ]
- [ 'K', 'G' ]
reciprocal_lattice:
- [   0.32483856,   0.18754563,   0.00000000 ] # a*
- [   0.00000000,   0.37509126,   0.00000000 ] # b*
- [   0.00000000,   0.00000000,   0.03373574 ] # c*
natom: 7      
lattice:
- [     3.078452225296089,     0.000000000000000,     0.000000000000000 ] # a
- [    -1.539226112648045,     2.666017831445537,     0.000000000000000 ] # b
- [     0.000000000000000,     0.000000000000000,    29.642157494946080 ] # c
points:
- symbol: C # 1
  coordinates: [  0.000000000000000,  0.000000000000000,  0.570842178585389 ]
  mass: 12.010700
- symbol: Cl # 2
  coordinates: [  0.666666984744047,  0.333332985985144,  0.303621624085038 ]
  mass: 35.453000
- symbol: N # 3
  coordinates: [  0.333332985432215,  0.666666983183674,  0.652828102452517 ]
  mass: 14.006700
- symbol: O # 4
  coordinates: [  0.333332985432215,  0.666666983183674,  0.696378375914962 ]
  mass: 15.999400
- symbol: O # 5
  coordinates: [  0.666666984744047,  0.333332985985144,  0.496147857248459 ]
  mass: 15.999400
- symbol: Ti # 6
  coordinates: [  0.333332985432215,  0.666666983183674,  0.525893642646007 ]
  mass: 47.867000
- symbol: Ti # 7
  coordinates: [  0.666666984744047,  0.333332985985144,  0.611311647748186 ]
  mass: 47.867000

phonon:
- q-position: [    0.0000000,    0.0000000,    0.0000000 ]
  distance:    0.0000000
  band:
  - # 1
    frequency:  -12.5938504037
  - # 2
    frequency:  -12.5938504037
  - # 3
    frequency:   -0.5898239523
  - # 4
    frequency:   -0.0000096833
  - # 5
    frequency:   -0.0000002713
  - # 6
    frequency:    0.0000099934
  - # 7
    frequency:    1.1300981395
  - # 8
    frequency:    1.1300981395
  - # 9
    frequency:    3.2438372173
  - # 10
    frequency:    4.3384747180
  - # 11
    frequency:    4.3384747181
  - # 12
    frequency:    5.1151405413
  - # 13
    frequency:    5.1151405413
  - # 14
    frequency:    7.5976223916
  - # 15
    frequency:    7.6964388310
  - # 16
    frequency:    7.6964388311
  - # 17
    frequency:   14.6576866217
  - # 18
    frequency:   14.6576866217
  - # 19
    frequency:   15.7166925098
  - # 20
    frequency:   19.8154899897
  - # 21
    frequency:   43.1066832892

- q-position: [    0.0050505,    0.0000000,    0.0000000 ]
  distance:    0.0018944
  band:
  - # 1
    frequency:  -12.5991430190
  - # 2
    frequency:  -12.5929021670
  - # 3
    frequency:   -0.5923327057
  - # 4
    frequency:   -0.0098141469
  - # 5
    frequency:    0.0601682181
  - # 6
    frequency:    0.0856112152
  - # 7
    frequency:    1.1227949939
  - # 8
    frequency:    1.1263800551
  - # 9
    frequency:    3.2517843007
  - # 10
    frequency:    4.3393850225
  - # 11
    frequency:    4.3498865765
  - # 12
    frequency:    5.1146710032
  - # 13
    frequency:    5.1162077272
  - # 14
    frequency:    7.5967940681
  - # 15
    frequency:    7.6985523531
  - # 16
    frequency:    7.6987112472
  - # 17
    frequency:   14.6577384118
  - # 18
    frequency:   14.6586025338
  - # 19
    frequency:   15.7169032935
  - # 20
    frequency:   19.8156195190
  - # 21
    frequency:   43.1061432517

- q-position: [    0.0101010,    0.0000000,    0.0000000 ]
  distance:    0.0037888
  band:
  - # 1
    frequency:  -12.6149202993
  - # 2
    frequency:  -12.5900584284
  - # 3
    frequency:   -0.6005091929
  - # 4
    frequency:   -0.0383510887
  - # 5
    frequency:    0.1180523468
  - # 6
    frequency:    0.1710928780
  - # 7
    frequency:    1.1017925689
  - # 8
    frequency:    1.1154061725
  - # 9
    frequency:    3.2749194772
  - # 10
    frequency:    4.3420906351
  - # 11
    frequency:    4.3839638387
  - # 12
    frequency:    5.1132728009
  - # 13
    frequency:    5.1194718323
  - # 14
    frequency:    7.5945692718
  - # 15
    frequency:    7.7046503001
  - # 16
    frequency:    7.7055246757
  - # 17
    frequency:   14.6578954962
  - # 18
    frequency:   14.6613528663
  - # 19
    frequency:   15.7175329525
  - # 20
    frequency:   19.8160054473
  - # 21
    frequency:   43.1045233635

- q-position: [    0.0151515,    0.0000000,    0.0000000 ]
  distance:    0.0056832
  band:
  - # 1
    frequency:  -12.6408860070
  - # 2
    frequency:  -12.5853220869
  - # 3
    frequency:   -0.6162105204
  - # 4
    frequency:   -0.0837598777
  - # 5
    frequency:    0.1707920425
  - # 6
    frequency:    0.2533310963
  - # 7
    frequency:    1.0704741685
  - # 8
    frequency:    1.0978012748
  - # 9
    frequency:    3.3113120645
  - # 10
    frequency:    4.3465159672
  - # 11
    frequency:    4.4401360159
  - # 12
    frequency:    5.1109774280
  - # 13
    frequency:    5.1251432552
  - # 14
    frequency:    7.5915638029
  - # 15
    frequency:    7.7141701658
  - # 16
    frequency:    7.7168674981
  - # 17
    frequency:   14.6581629956
  - # 18
    frequency:   14.6659453834
  - # 19
    frequency:   15.7185734381
  - # 20
    frequency:   19.8166398245
  - # 21
    frequency:   43.1018242998

- q-position: [    0.0202020,    0.0000000,    0.0000000 ]
  distance:    0.0075776
  band:
  - # 1
    frequency:  -12.6765639456
  - # 2
    frequency:  -12.5786979176
  - # 3
    frequency:   -0.6426823104
  - # 4
    frequency:   -0.1448187820
  - # 5
    frequency:    0.2141075669
  - # 6
    frequency:    0.3245356309
  - # 7
    frequency:    1.0369052970
  - # 8
    frequency:    1.0749124950
  - # 9
    frequency:    3.3582928487
  - # 10
    frequency:    4.3525360678
  - # 11
    frequency:    4.5171547872
  - # 12
    frequency:    5.1078382255
  - # 13
    frequency:    5.1336648823
  - # 14
    frequency:    7.5884594050
  - # 15
    frequency:    7.7265211520
  - # 16
    frequency:    7.7327198341
  - # 17
    frequency:   14.6585493738
  - # 18
    frequency:   14.6723929464
  - # 19
    frequency:   15.7200114251
  - # 20
    frequency:   19.8175094958
  - # 21
    frequency:   43.0980471952

- q-position: [    0.0252525,    0.0000000,    0.0000000 ]
  distance:    0.0094720
  band:
  - # 1
    frequency:  -12.7213220757
  - # 2
    frequency:  -12.5701924903
  - # 3
    frequency:   -0.6855956285
  - # 4
    frequency:   -0.2210149013
  - # 5
    frequency:    0.2407264034
  - # 6
    frequency:    0.3728612798
  - # 7
    frequency:    1.0167207635
  - # 8
    frequency:    1.0493333592
  - # 9
    frequency:    3.4130461289
  - # 10
    frequency:    4.3599781169
  - # 11
    frequency:    4.6126886921
  - # 12
    frequency:    5.1039316208
  - # 13
    frequency:    5.1459263840
  - # 14
    frequency:    7.5858449493
  - # 15
    frequency:    7.7412462724
  - # 16
    frequency:    7.7530528009
  - # 17
    frequency:   14.6590663315
  - # 18
    frequency:   14.6807133907
  - # 19
    frequency:   15.7218284457
  - # 20
    frequency:   19.8185962428
  - # 21
    frequency:   43.0931936564

- q-position: [    0.0303030,    0.0000000,    0.0000000 ]
  distance:    0.0113664
  band:
  - # 1
    frequency:  -12.7744023735
  - # 2
    frequency:  -12.5598140568
  - # 3
    frequency:   -0.7539571184
  - # 4
    frequency:   -0.3081586555
  - # 5
    frequency:    0.2367285413
  - # 6
    frequency:    0.3908477719
  - # 7
    frequency:    1.0255761792
  - # 8
    frequency:    1.0294481287
  - # 9
    frequency:    3.4730950120
  - # 10
    frequency:    4.3686234374
  - # 11
    frequency:    4.7226888482
  - # 12
    frequency:    5.0993587684
  - # 13
    frequency:    5.1638099253
  - # 14
    frequency:    7.5841969530
  - # 15
    frequency:    7.7580466326
  - # 16
    frequency:    7.7778275454
  - # 17
    frequency:   14.6597286596
  - # 18
    frequency:   14.6909293459
  - # 19
    frequency:   15.7240010719
  - # 20
    frequency:   19.8198769788
  - # 21
    frequency:   43.0872657813

- q-position: [    0.0353535,    0.0000000,    0.0000000 ]
  distance:    0.0132608
  band:
  - # 1
    frequency:  -12.8349534638
  - # 2
    frequency:  -12.5475724109
  - # 3
    frequency:   -0.8561662685
  - # 4
    frequency:   -0.3926969272
  - # 5
    frequency:    0.1658081071
  - # 6
    frequency:    0.3884971269
  - # 7
    frequency:    1.0101530039
  - # 8
    frequency:    1.0826937467
  - # 9
    frequency:    3.5365519535
  - # 10
    frequency:    4.3782100034
  - # 11
    frequency:    4.8400241360
  - # 12
    frequency:    5.0942474571
  - # 13
    frequency:    5.1916286026
  - # 14
    frequency:    7.5839149414
  - # 15
    frequency:    7.7767525293
  - # 16
    frequency:    7.8069941109
  - # 17
    frequency:   14.6605540523
  - # 18
    frequency:   14.7030679919
  - # 19
    frequency:   15.7265011461
  - # 20
    frequency:   19.8213239949
  - # 21
    frequency:   43.0802661816

- q-position: [    0.0404040,    0.0000000,    0.0000000 ]
  distance:    0.0151552
  band:
  - # 1
    frequency:  -12.9020632297
  - # 2
    frequency:  -12.5334787238
  - # 3
    frequency:   -0.9898680142
  - # 4
    frequency:   -0.4614352612
  - # 5
    frequency:   -0.1994882473
  - # 6
    frequency:    0.3840081767
  - # 7
    frequency:    1.0095879679
  - # 8
    frequency:    1.1675531091
  - # 9
    frequency:    3.6021364717
  - # 10
    frequency:    4.3884355001
  - # 11
    frequency:    4.9515268222
  - # 12
    frequency:    5.0887540443
  - # 13
    frequency:    5.2392881353
  - # 14
    frequency:    7.5853624465
  - # 15
    frequency:    7.7972906828
  - # 16
    frequency:    7.8404902156
  - # 17
    frequency:   14.6615628815
  - # 18
    frequency:   14.7171607414
  - # 19
    frequency:   15.7292960546
  - # 20
    frequency:   19.8229052536
  - # 21
    frequency:   43.0721980114

- q-position: [    0.0454545,    0.0000000,    0.0000000 ]
  distance:    0.0170496
  band:
  - # 1
    frequency:  -12.9747891320
  - # 2
    frequency:  -12.5175453601
  - # 3
    frequency:   -1.1424695569
  - # 4
    frequency:   -0.5135970065
  - # 5
    frequency:   -0.3892285871
  - # 6
    frequency:    0.3869117287
  - # 7
    frequency:    1.0268101320
  - # 8
    frequency:    1.2718991479
  - # 9
    frequency:    3.6690510769
  - # 10
    frequency:    4.3989611283
  - # 11
    frequency:    5.0382851638
  - # 12
    frequency:    5.0830650244
  - # 13
    frequency:    5.3222487033
  - # 14
    frequency:    7.5888998617
  - # 15
    frequency:    7.8196613188
  - # 16
    frequency:    7.8782400277
  - # 17
    frequency:   14.6627779357
  - # 18
    frequency:   14.7332428392
  - # 19
    frequency:   15.7323490389
  - # 20
    frequency:   19.8245847268
  - # 21
    frequency:   43.0630649988

- q-position: [    0.0505051,    0.0000000,    0.0000000 ]
  distance:    0.0189440
  band:
  - # 1
    frequency:  -13.0521846817
  - # 2
    frequency:  -12.4997856763
  - # 3
    frequency:   -1.3025661759
  - # 4
    frequency:   -0.5539892778
  - # 5
    frequency:   -0.5525942349
  - # 6
    frequency:    0.3989505789
  - # 7
    frequency:    1.0600283311
  - # 8
    frequency:    1.3875019870
  - # 9
    frequency:    3.7368175243
  - # 10
    frequency:    4.4094165573
  - # 11
    frequency:    5.0773976345
  - # 12
    frequency:    5.0941054323
  - # 13
    frequency:    5.4432822593
  - # 14
    frequency:    7.5949082863
  - # 15
    frequency:    7.8439254868
  - # 16
    frequency:    7.9201530230
  - # 17
    frequency:   14.6642241235
  - # 18
    frequency:   14.7513528674
  - # 19
    frequency:   15.7356195433
  - # 20
    frequency:   19.8263227721
  - # 21
    frequency:   43.0528714825

- q-position: [    0.0555556,    0.0000000,    0.0000000 ]
  distance:    0.0208384
  band:
  - # 1
    frequency:  -13.1333212319
  - # 2
    frequency:  -12.4802138087
  - # 3
    frequency:   -1.4639368485
  - # 4
    frequency:   -0.7037476738
  - # 5
    frequency:   -0.5861168515
  - # 6
    frequency:    0.4190510112
  - # 7
    frequency:    1.1051751998
  - # 8
    frequency:    1.5096164904
  - # 9
    frequency:    3.8051370114
  - # 10
    frequency:    4.4194066746
  - # 11
    frequency:    5.0719986556
  - # 12
    frequency:    5.1312980913
  - # 13
    frequency:    5.5868307287
  - # 14
    frequency:    7.6038052918
  - # 15
    frequency:    7.8702003535
  - # 16
    frequency:    7.9661230119
  - # 17
    frequency:   14.6659281467
  - # 18
    frequency:   14.7715321455
  - # 19
    frequency:   15.7390635894
  - # 20
    frequency:   19.8280765432
  - # 21
    frequency:   43.0416224512

- q-position: [    0.0606061,    0.0000000,    0.0000000 ]
  distance:    0.0227328
  band:
  - # 1
    frequency:  -13.2173048836
  - # 2
    frequency:  -12.4588444542
  - # 3
    frequency:   -1.6237807878
  - # 4
    frequency:   -0.8456210196
  - # 5
    frequency:   -0.6115212935
  - # 6
    frequency:    0.4455212270
  - # 7
    frequency:    1.1583469899
  - # 8
    frequency:    1.6354958142
  - # 9
    frequency:    3.8737952071
  - # 10
    frequency:    4.4285210191
  - # 11
    frequency:    5.0671403628
  - # 12
    frequency:    5.1607395032
  - # 13
    frequency:    5.7390151007
  - # 14
    frequency:    7.6160517072
  - # 15
    frequency:    7.8986605003
  - # 16
    frequency:    8.0160274102
  - # 17
    frequency:   14.6679181443
  - # 18
    frequency:   14.7938240163
  - # 19
    frequency:   15.7426341755
  - # 20
    frequency:   19.8298004290
  - # 21
    frequency:   43.0293235863

- q-position: [    0.0656566,    0.0000000,    0.0000000 ]
  distance:    0.0246272
  band:
  - # 1
    frequency:  -13.3032887582
  - # 2
    frequency:  -12.4356926497
  - # 3
    frequency:   -1.7809128902
  - # 4
    frequency:   -0.9797700952
  - # 5
    frequency:   -0.6306042156
  - # 6
    frequency:    0.4767722875
  - # 7
    frequency:    1.2166173453
  - # 8
    frequency:    1.7634595243
  - # 9
    frequency:    3.9426081036
  - # 10
    frequency:    4.4363468530
  - # 11
    frequency:    5.0631125326
  - # 12
    frequency:    5.1875478488
  - # 13
    frequency:    5.8919805752
  - # 14
    frequency:    7.6321454870
  - # 15
    frequency:    7.9295437567
  - # 16
    frequency:    8.0697268188
  - # 17
    frequency:   14.6702233118
  - # 18
    frequency:   14.8182730102
  - # 19
    frequency:   15.7462816954
  - # 20
    frequency:   19.8314465153
  - # 21
    frequency:   43.0159813072

- q-position: [    0.0707071,    0.0000000,    0.0000000 ]
  distance:    0.0265216
  band:
  - # 1
    frequency:  -13.3904811796
  - # 2
    frequency:  -12.4107735542
  - # 3
    frequency:   -1.9348414461
  - # 4
    frequency:   -1.1073459379
  - # 5
    frequency:   -0.6432144895
  - # 6
    frequency:    0.5115249572
  - # 7
    frequency:    1.2779568630
  - # 8
    frequency:    1.8924083452
  - # 9
    frequency:    4.0113967717
  - # 10
    frequency:    4.4424865509
  - # 11
    frequency:    5.0602097311
  - # 12
    frequency:    5.2140191308
  - # 13
    frequency:    6.0409624773
  - # 14
    frequency:    7.6525953496
  - # 15
    frequency:    7.9631599785
  - # 16
    frequency:    8.1270649561
  - # 17
    frequency:   14.6728734989
  - # 18
    frequency:   14.8449238820
  - # 19
    frequency:   15.7499543704
  - # 20
    frequency:   19.8329650630
  - # 21
    frequency:   43.0016028186

- q-position: [    0.0757576,    0.0000000,    0.0000000 ]
  distance:    0.0284160
  band:
  - # 1
    frequency:  -13.4781504477
  - # 2
    frequency:  -12.3841022401
  - # 3
    frequency:   -2.0853621521
  - # 4
    frequency:   -1.2292331335
  - # 5
    frequency:   -0.6489258429
  - # 6
    frequency:    0.5488233239
  - # 7
    frequency:    1.3409637827
  - # 8
    frequency:    2.0215731036
  - # 9
    frequency:    4.0799799667
  - # 10
    frequency:    4.4465791452
  - # 11
    frequency:    5.0587139829
  - # 12
    frequency:    5.2412991615
  - # 13
    frequency:    6.1826265648
  - # 14
    frequency:    7.6778646861
  - # 15
    frequency:    7.9998998964
  - # 16
    frequency:    8.1878689688
  - # 17
    frequency:   14.6758987911
  - # 18
    frequency:   14.8738205213
  - # 19
    frequency:   15.7535986923
  - # 20
    frequency:   19.8343049974
  - # 21
    frequency:   42.9861961588

- q-position: [    0.0808081,    0.0000000,    0.0000000 ]
  distance:    0.0303104
  band:
  - # 1
    frequency:  -13.5656269144
  - # 2
    frequency:  -12.3556934955
  - # 3
    frequency:   -2.2323846425
  - # 4
    frequency:   -1.3461027234
  - # 5
    frequency:   -0.6471339840
  - # 6
    frequency:    0.5879809326
  - # 7
    frequency:    1.4046395820
  - # 8
    frequency:    2.1503793594
  - # 9
    frequency:    4.1481769238
  - # 10
    frequency:    4.4483244661
  - # 11
    frequency:    5.0588743573
  - # 12
    frequency:    5.2700355640
  - # 13
    frequency:    6.3144635936
  - # 14
    frequency:    7.7082789530
  - # 15
    frequency:    8.0402380897
  - # 16
    frequency:    8.2519501238
  - # 17
    frequency:   14.6793290772
  - # 18
    frequency:   14.9050047404
  - # 19
    frequency:   15.7571598722
  - # 20
    frequency:   19.8354144014
  - # 21
    frequency:   42.9697702494

- q-position: [    0.0858586,    0.0000000,    0.0000000 ]
  distance:    0.0322048
  band:
  - # 1
    frequency:  -13.6523030222
  - # 2
    frequency:  -12.3255616454
  - # 3
    frequency:   -2.3758586008
  - # 4
    frequency:   -1.4584569973
  - # 5
    frequency:   -0.6370528795
  - # 6
    frequency:    0.6285147566
  - # 7
    frequency:    1.4682381775
  - # 8
    frequency:    2.2783704678
  - # 9
    frequency:    4.2158157490
  - # 10
    frequency:    4.4475067013
  - # 11
    frequency:    5.0608866522
  - # 12
    frequency:    5.3006332811
  - # 13
    frequency:    6.4346254055
  - # 14
    frequency:    7.7439033210
  - # 15
    frequency:    8.0847189363
  - # 16
    frequency:    8.3191048627
  - # 17
    frequency:   14.6831936102
  - # 18
    frequency:   14.9385149506
  - # 19
    frequency:   15.7605822955
  - # 20
    frequency:   19.8362410079
  - # 21
    frequency:   42.9523349448

- q-position: [    0.0909091,    0.0000000,    0.0000000 ]
  distance:    0.0340992
  band:
  - # 1
    frequency:  -13.7376318864
  - # 2
    frequency:  -12.2937203920
  - # 3
    frequency:   -2.5157426660
  - # 4
    frequency:   -1.5666682775
  - # 5
    frequency:   -0.6176363949
  - # 6
    frequency:    0.6700878853
  - # 7
    frequency:    1.5311702752
  - # 8
    frequency:    2.4051615323
  - # 9
    frequency:    4.2827448042
  - # 10
    frequency:    4.4440131606
  - # 11
    frequency:    5.0648774155
  - # 12
    frequency:    5.3333597068
  - # 13
    frequency:    6.5419422263
  - # 14
    frequency:    7.7844250527
  - # 15
    frequency:    8.1339085585
  - # 16
    frequency:    8.3891161837
  - # 17
    frequency:   14.6875205650
  - # 18
    frequency:   14.9743847428
  - # 19
    frequency:   15.7638099810
  - # 20
    frequency:   19.8367326843
  - # 21
    frequency:   42.9339010816

- q-position: [    0.0959596,    0.0000000,    0.0000000 ]
  distance:    0.0359936
  band:
  - # 1
    frequency:  -13.8211248925
  - # 2
    frequency:  -12.2601826803
  - # 3
    frequency:   -2.6519919869
  - # 4
    frequency:   -1.6710100961
  - # 5
    frequency:   -0.5874058617
  - # 6
    frequency:    0.7124657559
  - # 7
    frequency:    1.5929429683
  - # 8
    frequency:    2.5304105610
  - # 9
    frequency:    4.3488454917
  - # 10
    frequency:    4.4378443896
  - # 11
    frequency:    5.0708961971
  - # 12
    frequency:    5.3683882429
  - # 13
    frequency:    6.6359861581
  - # 14
    frequency:    7.8291054915
  - # 15
    frequency:    8.1882957179
  - # 16
    frequency:    8.4617552993
  - # 17
    frequency:   14.6923365978
  - # 18
    frequency:   15.0126413964
  - # 19
    frequency:   15.7667870483
  - # 20
    frequency:   19.8368379054
  - # 21
    frequency:   42.9144805267

- q-position: [    0.1010101,    0.0000000,    0.0000000 ]
  distance:    0.0378880
  band:
  - # 1
    frequency:  -13.9023486870
  - # 2
    frequency:  -12.2249605894
  - # 3
    frequency:   -2.7845539593
  - # 4
    frequency:   -1.7716811576
  - # 5
    frequency:   -0.5440934484
  - # 6
    frequency:    0.7554846715
  - # 7
    frequency:    1.6531208917
  - # 8
    frequency:    2.6537997474
  - # 9
    frequency:    4.4140451712
  - # 10
    frequency:    4.4291137482
  - # 11
    frequency:    5.0789179426
  - # 12
    frequency:    5.4058146269
  - # 13
    frequency:    6.7170829409
  - # 14
    frequency:    7.8768658378
  - # 15
    frequency:    8.2481419600
  - # 16
    frequency:    8.5367835095
  - # 17
    frequency:   14.6976664141
  - # 18
    frequency:   15.0533043397
  - # 19
    frequency:   15.7694582022
  - # 20
    frequency:   19.8365062073
  - # 21
    frequency:   42.8940862239

- q-position: [    0.1060606,    0.0000000,    0.0000000 ]
  distance:    0.0397824
  band:
  - # 1
    frequency:  -13.9809218421
  - # 2
    frequency:  -12.1880652539
  - # 3
    frequency:   -2.9133675102
  - # 4
    frequency:   -1.8688233857
  - # 5
    frequency:   -0.4838127766
  - # 6
    frequency:    0.7990298102
  - # 7
    frequency:    1.7113005331
  - # 8
    frequency:    2.7750231010
  - # 9
    frequency:    4.4180373832
  - # 10
    frequency:    4.4783288999
  - # 11
    frequency:    5.0888546086
  - # 12
    frequency:    5.4456609303
  - # 13
    frequency:    6.7862159250
  - # 14
    frequency:    7.9265084988
  - # 15
    frequency:    8.3133210868
  - # 16
    frequency:    8.6139542239
  - # 17
    frequency:   14.7035323491
  - # 18
    frequency:   15.0963835880
  - # 19
    frequency:   15.7717692496
  - # 20
    frequency:   19.8356886199
  - # 21
    frequency:   42.8727322383

- q-position: [    0.1111111,    0.0000000,    0.0000000 ]
  distance:    0.0416768
  band:
  - # 1
    frequency:  -14.0565114027
  - # 2
    frequency:  -12.1495068151
  - # 3
    frequency:   -3.0383638434
  - # 4
    frequency:   -1.9625354327
  - # 5
    frequency:   -0.3986346735
  - # 6
    frequency:    0.8430200729
  - # 7
    frequency:    1.7670927434
  - # 8
    frequency:    2.8937783989
  - # 9
    frequency:    4.4049178324
  - # 10
    frequency:    4.5417485526
  - # 11
    frequency:    5.1005727228
  - # 12
    frequency:    5.4878746604
  - # 13
    frequency:    6.8448310147
  - # 14
    frequency:    7.9769812479
  - # 15
    frequency:    8.3832252239
  - # 16
    frequency:    8.6930150690
  - # 17
    frequency:   14.7099539668
  - # 18
    frequency:   15.1418781729
  - # 19
    frequency:   15.7736676811
  - # 20
    frequency:   19.8343380733
  - # 21
    frequency:   42.8504337974

- q-position: [    0.1161616,    0.0000000,    0.0000000 ]
  distance:    0.0435712
  band:
  - # 1
    frequency:  -14.1288294572
  - # 2
    frequency:  -12.1092944034
  - # 3
    frequency:   -3.1594677043
  - # 4
    frequency:   -2.0528828079
  - # 5
    frequency:   -0.2653599293
  - # 6
    frequency:    0.8873977103
  - # 7
    frequency:    1.8201105824
  - # 8
    frequency:    3.0097624255
  - # 9
    frequency:    4.3901253147
  - # 10
    frequency:    4.6044278588
  - # 11
    frequency:    5.1139127392
  - # 12
    frequency:    5.5323271859
  - # 13
    frequency:    6.8946042421
  - # 14
    frequency:    8.0275556171
  - # 15
    frequency:    8.4568008103
  - # 16
    frequency:    8.7737100150
  - # 17
    frequency:   14.7169476819
  - # 18
    frequency:   15.1897745533
  - # 19
    frequency:   15.7751033790
  - # 20
    frequency:   19.8324097730
  - # 21
    frequency:   42.8272073298

- q-position: [    0.1212121,    0.0000000,    0.0000000 ]
  distance:    0.0454656
  band:
  - # 1
    frequency:  -14.1976298279
  - # 2
    frequency:  -12.0674361531
  - # 3
    frequency:   -3.2765987462
  - # 4
    frequency:   -2.1399055174
  - # 5
    frequency:    0.1772525565
  - # 6
    frequency:    0.9321212580
  - # 7
    frequency:    1.8699609067
  - # 8
    frequency:    3.1226690552
  - # 9
    frequency:    4.3740800510
  - # 10
    frequency:    4.6665621321
  - # 11
    frequency:    5.1287066615
  - # 12
    frequency:    5.5788139820
  - # 13
    frequency:    6.9372404804
  - # 14
    frequency:    8.0778580221
  - # 15
    frequency:    8.5327053417
  - # 16
    frequency:    8.8557814708
  - # 17
    frequency:   14.7245264118
  - # 18
    frequency:   15.2400449370
  - # 19
    frequency:   15.7760295703
  - # 20
    frequency:   19.8298615447
  - # 21
    frequency:   42.8030704983

- q-position: [    0.1262626,    0.0000000,    0.0000000 ]
  distance:    0.0473600
  band:
  - # 1
    frequency:  -14.2627049387
  - # 2
    frequency:  -12.0239392477
  - # 3
    frequency:   -3.3896728208
  - # 4
    frequency:   -2.2236238710
  - # 5
    frequency:    0.3827507739
  - # 6
    frequency:    0.9771607829
  - # 7
    frequency:    1.9162388967
  - # 8
    frequency:    3.2321901022
  - # 9
    frequency:    4.3572374181
  - # 10
    frequency:    4.7284119626
  - # 11
    frequency:    5.1447918597
  - # 12
    frequency:    5.6270579885
  - # 13
    frequency:    6.9743404693
  - # 14
    frequency:    8.1277902505
  - # 15
    frequency:    8.6095096026
  - # 16
    frequency:    8.9389722968
  - # 17
    frequency:   14.7326992603
  - # 18
    frequency:   15.2926453111
  - # 19
    frequency:   15.7764042742
  - # 20
    frequency:   19.8266541427
  - # 21
    frequency:   42.7780422302

- q-position: [    0.1313131,    0.0000000,    0.0000000 ]
  distance:    0.0492544
  band:
  - # 1
    frequency:  -14.3238828895
  - # 2
    frequency:  -11.9788099958
  - # 3
    frequency:   -3.4986031293
  - # 4
    frequency:   -2.3040429380
  - # 5
    frequency:    0.5240478476
  - # 6
    frequency:    1.0224947960
  - # 7
    frequency:    1.9585252274
  - # 8
    frequency:    3.3380190417
  - # 9
    frequency:    4.3400761862
  - # 10
    frequency:    4.7902908092
  - # 11
    frequency:    5.1620204548
  - # 12
    frequency:    5.6767164174
  - # 13
    frequency:    7.0073369161
  - # 14
    frequency:    8.1774152324
  - # 15
    frequency:    8.6858675800
  - # 16
    frequency:    9.0230277010
  - # 17
    frequency:   14.7414712402
  - # 18
    frequency:   15.3475126691
  - # 19
    frequency:   15.7761927947
  - # 20
    frequency:   19.8227515230
  - # 21
    frequency:   42.7521427414

- q-position: [    0.1363636,    0.0000000,    0.0000000 ]
  distance:    0.0511488
  band:
  - # 1
    frequency:  -14.3810247509
  - # 2
    frequency:  -11.9320539362
  - # 3
    frequency:   -3.6033012192
  - # 4
    frequency:   -2.3811559969
  - # 5
    frequency:    0.6445994130
  - # 6
    frequency:    1.0681084664
  - # 7
    frequency:    1.9963859094
  - # 8
    frequency:    3.4398577228
  - # 9
    frequency:    4.3230890020
  - # 10
    frequency:    4.8525471181
  - # 11
    frequency:    5.1802646597
  - # 12
    frequency:    5.7273906711
  - # 13
    frequency:    7.0374804958
  - # 14
    frequency:    8.2268609757
  - # 15
    frequency:    8.7606193875
  - # 16
    frequency:    9.1076969901
  - # 17
    frequency:   14.7508430371
  - # 18
    frequency:   15.4045601190
  - # 19
    frequency:   15.7753726038
  - # 20
    frequency:   19.8181210806
  - # 21
    frequency:   42.7253935556

- q-position: [    0.1414141,    0.0000000,    0.0000000 ]
  distance:    0.0530432
  band:
  - # 1
    frequency:  -14.4340220756
  - # 2
    frequency:  -11.8836759696
  - # 3
    frequency:   -3.7036778363
  - # 4
    frequency:   -2.4549472315
  - # 5
    frequency:    0.7541597296
  - # 6
    frequency:    1.1139930276
  - # 7
    frequency:    2.0293750018
  - # 8
    frequency:    3.5374259981
  - # 9
    frequency:    4.3067737741
  - # 10
    frequency:    4.9155421837
  - # 11
    frequency:    5.1994189328
  - # 12
    frequency:    5.7786387085
  - # 13
    frequency:    7.0658534937
  - # 14
    frequency:    8.2762585903
  - # 15
    frequency:    8.8328326178
  - # 16
    frequency:    9.1927351574
  - # 17
    frequency:   14.7608108182
  - # 18
    frequency:   15.4636662076
  - # 19
    frequency:   15.7739442927
  - # 20
    frequency:   19.8127338488
  - # 21
    frequency:   42.6978175179

- q-position: [    0.1464646,    0.0000000,    0.0000000 ]
  distance:    0.0549376
  band:
  - # 1
    frequency:  -14.4827946168
  - # 2
    frequency:  -11.8336805157
  - # 3
    frequency:   -3.7996436458
  - # 4
    frequency:   -2.5253938571
  - # 5
    frequency:    0.8566736803
  - # 6
    frequency:    1.1601465928
  - # 7
    frequency:    2.0570404218
  - # 8
    frequency:    3.6304737870
  - # 9
    frequency:    4.2916246016
  - # 10
    frequency:    4.9796254390
  - # 11
    frequency:    5.2193998881
  - # 12
    frequency:    5.8299892416
  - # 13
    frequency:    7.0933940305
  - # 14
    frequency:    8.3257090515
  - # 15
    frequency:    8.9018036237
  - # 16
    frequency:    9.2779042981
  - # 17
    frequency:   14.7713660888
  - # 18
    frequency:   15.5246466660
  - # 19
    frequency:   15.7719603894
  - # 20
    frequency:   19.8065646641
  - # 21
    frequency:   42.6694388017

- q-position: [    0.1515152,    0.0000000,    0.0000000 ]
  distance:    0.0568320
  band:
  - # 1
    frequency:  -14.5272882384
  - # 2
    frequency:  -11.7820716921
  - # 3
    frequency:   -3.8911098421
  - # 4
    frequency:   -2.5924678115
  - # 5
    frequency:    0.9541100201
  - # 6
    frequency:    1.2065771947
  - # 7
    frequency:    2.0789329244
  - # 8
    frequency:    3.7187945050
  - # 9
    frequency:    4.2781212118
  - # 10
    frequency:    5.0451092181
  - # 11
    frequency:    5.2401447737
  - # 12
    frequency:    5.8809574435
  - # 13
    frequency:    7.1209203618
  - # 14
    frequency:    8.3752680325
  - # 15
    frequency:    8.9670390127
  - # 16
    frequency:    9.3629748483
  - # 17
    frequency:   14.7824955993
  - # 18
    frequency:   15.5871613810
  - # 19
    frequency:   15.7696192204
  - # 20
    frequency:   19.7995922960
  - # 21