nqpoint: 300    
npath: 3      
segment_nqpoint:
- 100
- 100
- 100
labels:
- [ 'G', 'M' ]
- [ 'M', 'K' ]
- [ 'K', 'G' ]
reciprocal_lattice:
- [   0.28297255,   0.16337428,   0.00000000 ] # a*
- [   0.00000000,   0.32674856,   0.00000000 ] # b*
- [   0.00000000,   0.00000000,   0.03563680 ] # c*
natom: 8      
lattice:
- [     3.533911628735015,     0.000000000000000,     0.000000000000000 ] # a
- [    -1.766955814367507,     3.060457245201886,     0.000000000000000 ] # b
- [     0.000000000000000,     0.000000000000000,    28.060884291005387 ] # c
points:
- symbol: C # 1
  coordinates: [  0.666666984744047,  0.333332985985145,  0.363094288129316 ]
  mass: 12.010700
- symbol: N # 2
  coordinates: [  0.000000000000000,  0.000000000000000,  0.502872375675174 ]
  mass: 14.006700
- symbol: N # 3
  coordinates: [  0.666666984744047,  0.333332985985145,  0.320731161094765 ]
  mass: 14.006700
- symbol: O # 4
  coordinates: [  0.333332985432215,  0.666666983183674,  0.679268838905235 ]
  mass: 15.999400
- symbol: O # 5
  coordinates: [  0.666666984744047,  0.333332985985145,  0.410711831275328 ]
  mass: 15.999400
- symbol: P # 6
  coordinates: [  0.333332985432215,  0.666666983183674,  0.625960698024494 ]
  mass: 30.973762
- symbol: Y # 7
  coordinates: [  0.333332985432215,  0.666666983183674,  0.457897504242849 ]
  mass: 88.905850
- symbol: Y # 8
  coordinates: [  0.666666984744047,  0.333332985985145,  0.551874673411370 ]
  mass: 88.905850

phonon:
- q-position: [    0.0000000,    0.0000000,    0.0000000 ]
  distance:    0.0000000
  band:
  - # 1
    frequency:   -0.6382296100
  - # 2
    frequency:   -0.6382296100
  - # 3
    frequency:   -0.0000157617
  - # 4
    frequency:   -0.0000002159
  - # 5
    frequency:    0.0000132380
  - # 6
    frequency:    1.3385530575
  - # 7
    frequency:    1.3385530576
  - # 8
    frequency:    3.2612437498
  - # 9
    frequency:    3.2612437499
  - # 10
    frequency:    4.2894007860
  - # 11
    frequency:    4.2894007860
  - # 12
    frequency:    4.4147485313
  - # 13
    frequency:    6.4635775326
  - # 14
    frequency:    6.4635775327
  - # 15
    frequency:    7.0291512792
  - # 16
    frequency:    8.2380162512
  - # 17
    frequency:   11.9671298239
  - # 18
    frequency:   11.9671298239
  - # 19
    frequency:   12.6204617429
  - # 20
    frequency:   13.9044348312
  - # 21
    frequency:   13.9044348313
  - # 22
    frequency:   32.1447774517
  - # 23
    frequency:   33.9514457476
  - # 24
    frequency:   67.9237267822

- q-position: [    0.0050505,    0.0000000,    0.0000000 ]
  distance:    0.0016502
  band:
  - # 1
    frequency:   -0.6399548242
  - # 2
    frequency:   -0.6392010184
  - # 3
    frequency:   -0.0002197102
  - # 4
    frequency:    0.0263319966
  - # 5
    frequency:    0.0766309859
  - # 6
    frequency:    1.3363726667
  - # 7
    frequency:    1.3368424712
  - # 8
    frequency:    3.2615703250
  - # 9
    frequency:    3.2624322658
  - # 10
    frequency:    4.2871597267
  - # 11
    frequency:    4.2891491620
  - # 12
    frequency:    4.4167812143
  - # 13
    frequency:    6.4635488232
  - # 14
    frequency:    6.4637478765
  - # 15
    frequency:    7.0289200249
  - # 16
    frequency:    8.2374804954
  - # 17
    frequency:   11.9668201826
  - # 18
    frequency:   11.9671730494
  - # 19
    frequency:   12.6202011797
  - # 20
    frequency:   13.9044668750
  - # 21
    frequency:   13.9045838260
  - # 22
    frequency:   32.1442793765
  - # 23
    frequency:   33.9512123797
  - # 24
    frequency:   67.9234676345

- q-position: [    0.0101010,    0.0000000,    0.0000000 ]
  distance:    0.0033005
  band:
  - # 1
    frequency:   -0.6452436564
  - # 2
    frequency:   -0.6424077648
  - # 3
    frequency:   -0.0012888135
  - # 4
    frequency:    0.0526279056
  - # 5
    frequency:    0.1526230562
  - # 6
    frequency:    1.3300356633
  - # 7
    frequency:    1.3317666694
  - # 8
    frequency:    3.2625480133
  - # 9
    frequency:    3.2659871347
  - # 10
    frequency:    4.2808199104
  - # 11
    frequency:    4.2883994928
  - # 12
    frequency:    4.4225029927
  - # 13
    frequency:    6.4634626510
  - # 14
    frequency:    6.4642584455
  - # 15
    frequency:    7.0282267087
  - # 16
    frequency:    8.2358738770
  - # 17
    frequency:   11.9658925515
  - # 18
    frequency:   11.9673024298
  - # 19
    frequency:   12.6194198904
  - # 20
    frequency:   13.9045629607
  - # 21
    frequency:   13.9050304086
  - # 22
    frequency:   32.1427864183
  - # 23
    frequency:   33.9505127198
  - # 24
    frequency:   67.9226907774

- q-position: [    0.0151515,    0.0000000,    0.0000000 ]
  distance:    0.0049507
  band:
  - # 1
    frequency:   -0.6544313016
  - # 2
    frequency:   -0.6487441128
  - # 3
    frequency:   -0.0038983958
  - # 4
    frequency:    0.0788526426
  - # 5
    frequency:    0.2273116331
  - # 6
    frequency:    1.3201849789
  - # 7
    frequency:    1.3234981981
  - # 8
    frequency:    3.2641707432
  - # 9
    frequency:    3.2718763380
  - # 10
    frequency:    4.2712542261
  - # 11
    frequency:    4.2871672906
  - # 12
    frequency:    4.4310623016
  - # 13
    frequency:    6.4633188845
  - # 14
    frequency:    6.4651078493
  - # 15
    frequency:    7.0270726872
  - # 16
    frequency:    8.2331983487
  - # 17
    frequency:   11.9643508054
  - # 18
    frequency:   11.9675170791
  - # 19
    frequency:   12.6181190737
  - # 20
    frequency:   13.9047229519
  - # 21
    frequency:   13.9057733787
  - # 22
    frequency:   32.1403023756
  - # 23
    frequency:   33.9493480977
  - # 24
    frequency:   67.9213979666

- q-position: [    0.0202020,    0.0000000,    0.0000000 ]
  distance:    0.0066010
  band:
  - # 1
    frequency:   -0.6680597711
  - # 2
    frequency:   -0.6597423955
  - # 3
    frequency:   -0.0085321403
  - # 4
    frequency:    0.1049735440
  - # 5
    frequency:    0.2999913928
  - # 6
    frequency:    1.3079876893
  - # 7
    frequency:    1.3123395959
  - # 8
    frequency:    3.2664285272
  - # 9
    frequency:    3.2800465660
  - # 10
    frequency:    4.2593618457
  - # 11
    frequency:    4.2854780865
  - # 12
    frequency:    4.4415956823
  - # 13
    frequency:    6.4631173053
  - # 14
    frequency:    6.4662937621
  - # 15
    frequency:    7.0254602732
  - # 16
    frequency:    8.2294571869
  - # 17
    frequency:   11.9622013888
  - # 18
    frequency:   11.9678155302
  - # 19
    frequency:   12.6163007193
  - # 20
    frequency:   13.9049466218
  - # 21
    frequency:   13.9068107515
  - # 22
    frequency:   32.1368335653
  - # 23
    frequency:   33.9477207258
  - # 24
    frequency:   67.9195921217

- q-position: [    0.0252525,    0.0000000,    0.0000000 ]
  distance:    0.0082512
  band:
  - # 1
    frequency:   -0.6868460852
  - # 2
    frequency:   -0.6775805067
  - # 3
    frequency:   -0.0152102198
  - # 4
    frequency:    0.1309624592
  - # 5
    frequency:    0.3699277566
  - # 6
    frequency:    1.2952488734
  - # 7
    frequency:    1.2987432938
  - # 8
    frequency:    3.2693076531
  - # 9
    frequency:    3.2904232803
  - # 10
    frequency:    4.2458440436
  - # 11
    frequency:    4.2833669525
  - # 12
    frequency:    4.4534522519
  - # 13
    frequency:    6.4628576088
  - # 14
    frequency:    6.4678129092
  - # 15
    frequency:    7.0233928129
  - # 16
    frequency:    8.2246550230
  - # 17
    frequency:   11.9594532969
  - # 18
    frequency:   11.9681957489
  - # 19
    frequency:   12.6139675956
  - # 20
    frequency:   13.9052336542
  - # 21
    frequency:   13.9081397809
  - # 22
    frequency:   32.1323888015
  - # 23
    frequency:   33.9456336927
  - # 24
    frequency:   67.9172773163

- q-position: [    0.0303030,    0.0000000,    0.0000000 ]
  distance:    0.0099015
  band:
  - # 1
    frequency:   -0.7116258549
  - # 2
    frequency:   -0.7049626129
  - # 3
    frequency:   -0.0231724666
  - # 4
    frequency:    0.1567983845
  - # 5
    frequency:    0.4364190938
  - # 6
    frequency:    1.2833331263
  - # 7
    frequency:    1.2844824223
  - # 8
    frequency:    3.2727909424
  - # 9
    frequency:    3.3029107519
  - # 10
    frequency:    4.2311963610
  - # 11
    frequency:    4.2808778422
  - # 12
    frequency:    4.4662019980
  - # 13
    frequency:    6.4625394063
  - # 14
    frequency:    6.4696610469
  - # 15
    frequency:    7.0208747916
  - # 16
    frequency:    8.2187978859
  - # 17
    frequency:   11.9561180484
  - # 18
    frequency:   11.9686551521
  - # 19
    frequency:   12.6111232340
  - # 20
    frequency:   13.9055836449
  - # 21
    frequency:   13.9097569912
  - # 22
    frequency:   32.1269793662
  - # 23
    frequency:   33.9430909545
  - # 24
    frequency:   67.9144587636

- q-position: [    0.0353535,    0.0000000,    0.0000000 ]
  distance:    0.0115517
  band:
  - # 1
    frequency:   -0.7447360355
  - # 2
    frequency:   -0.7432655051
  - # 3
    frequency:   -0.0304963643
  - # 4
    frequency:    0.1824700905
  - # 5
    frequency:    0.4989327564
  - # 6
    frequency:    1.2669186257
  - # 7
    frequency:    1.2788013251
  - # 8
    frequency:    3.2768580639
  - # 9
    frequency:    3.3173920079
  - # 10
    frequency:    4.2157689295
  - # 11
    frequency:    4.2780627605
  - # 12
    frequency:    4.4795761485
  - # 13
    frequency:    6.4621622267
  - # 14
    frequency:    6.4718329348
  - # 15
    frequency:    7.0179119655
  - # 16
    frequency:    8.2118932546
  - # 17
    frequency:   11.9522096510
  - # 18
    frequency:   11.9691906328
  - # 19
    frequency:   12.6077719077
  - # 20
    frequency:   13.9059961031
  - # 21
    frequency:   13.9116582163
  - # 22
    frequency:   32.1206189722
  - # 23
    frequency:   33.9400973237
  - # 24
    frequency:   67.9111427989

- q-position: [    0.0404040,    0.0000000,    0.0000000 ]
  distance:    0.0132020
  band:
  - # 1
    frequency:   -0.7991753643
  - # 2
    frequency:   -0.7825433351
  - # 3
    frequency:   -0.0335241467
  - # 4
    frequency:    0.2079778617
  - # 5
    frequency:    0.5573027367
  - # 6
    frequency:    1.2504889877
  - # 7
    frequency:    1.2814711885
  - # 8
    frequency:    3.2814858934
  - # 9
    frequency:    3.3337285845
  - # 10
    frequency:    4.1998240279
  - # 11
    frequency:    4.2749807788
  - # 12
    frequency:    4.4934106285
  - # 13
    frequency:    6.4617255199
  - # 14
    frequency:    6.4743222978
  - # 15
    frequency:    7.0145115188
  - # 16
    frequency:    8.2039501189
  - # 17
    frequency:   11.9477445607
  - # 18
    frequency:   11.9697985873
  - # 19
    frequency:   12.6039186080
  - # 20
    frequency:   13.9064704536
  - # 21
    frequency:   13.9138386457
  - # 22
    frequency:   32.1133237172
  - # 23
    frequency:   33.9366584555
  - # 24
    frequency:   67.9073368579

- q-position: [    0.0454545,    0.0000000,    0.0000000 ]
  distance:    0.0148522
  band:
  - # 1
    frequency:   -0.8691467146
  - # 2
    frequency:   -0.8300131199
  - # 3
    frequency:   -0.0236611358
  - # 4
    frequency:    0.2333334873
  - # 5
    frequency:    0.6118949066
  - # 6
    frequency:    1.2351719778
  - # 7
    frequency:    1.2951365077
  - # 8
    frequency:    3.2866489065
  - # 9
    frequency:    3.3517599372
  - # 10
    frequency:    4.1835767049
  - # 11
    frequency:    4.2716969128
  - # 12
    frequency:    4.5076068884
  - # 13
    frequency:    6.4612286610
  - # 14
    frequency:    6.4771217771
  - # 15
    frequency:    7.0106822415
  - # 16
    frequency:    8.1949790461
  - # 17
    frequency:   11.9427416343
  - # 18
    frequency:   11.9704749484
  - # 19
    frequency:   12.5995690173
  - # 20
    frequency:   13.9070060392
  - # 21
    frequency:   13.9162928757
  - # 22
    frequency:   32.1051120308
  - # 23
    frequency:   33.9327808322
  - # 24
    frequency:   67.9030494514

- q-position: [    0.0505051,    0.0000000,    0.0000000 ]
  distance:    0.0165025
  band:
  - # 1
    frequency:   -0.9536807984
  - # 2
    frequency:   -0.8858803054
  - # 3
    frequency:    0.0385698569
  - # 4
    frequency:    0.2585581197
  - # 5
    frequency:    0.6635883634
  - # 6
    frequency:    1.2221489170
  - # 7
    frequency:    1.3210766290
  - # 8
    frequency:    3.2923195920
  - # 9
    frequency:    3.3713023182
  - # 10
    frequency:    4.1672215491
  - # 11
    frequency:    4.2682808881
  - # 12
    frequency:    4.5221071710
  - # 13
    frequency:    6.4606709556
  - # 14
    frequency:    6.4802228665
  - # 15
    frequency:    7.0064347277
  - # 16
    frequency:    8.1849922517
  - # 17
    frequency:   11.9372220754
  - # 18
    frequency:   11.9712152203
  - # 19
    frequency:   12.5947294791
  - # 20
    frequency:   13.9076021231
  - # 21
    frequency:   13.9190149655
  - # 22
    frequency:   32.0960046130
  - # 23
    frequency:   33.9284717445
  - # 24
    frequency:   67.8982901360

- q-position: [    0.0555556,    0.0000000,    0.0000000 ]
  distance:    0.0181527
  band:
  - # 1
    frequency:   -1.0503253020
  - # 2
    frequency:   -0.9499300761
  - # 3
    frequency:    0.0756863253
  - # 4
    frequency:    0.2836783903
  - # 5
    frequency:    0.7135188478
  - # 6
    frequency:    1.2125331003
  - # 7
    frequency:    1.3589881410
  - # 8
    frequency:    3.2984688761
  - # 9
    frequency:    3.3921468929
  - # 10
    frequency:    4.1509507330
  - # 11
    frequency:    4.2648058205
  - # 12
    frequency:    4.5368792711
  - # 13
    frequency:    6.4600516461
  - # 14
    frequency:    6.4836158325
  - # 15
    frequency:    7.0017815903
  - # 16
    frequency:    8.1740036729
  - # 17
    frequency:   11.9312093750
  - # 18
    frequency:   11.9720145176
  - # 19
    frequency:   12.5894069666
  - # 20
    frequency:   13.9082578919
  - # 21
    frequency:   13.9219984958
  - # 22
    frequency:   32.0860243657
  - # 23
    frequency:   33.9237392713
  - # 24
    frequency:   67.8930694826

- q-position: [    0.0606061,    0.0000000,    0.0000000 ]
  distance:    0.0198029
  band:
  - # 1
    frequency:   -1.1560135281
  - # 2
    frequency:   -1.0215371308
  - # 3
    frequency:    0.1128523913
  - # 4
    frequency:    0.3087218328
  - # 5
    frequency:    0.7627359504
  - # 6
    frequency:    1.2072401854
  - # 7
    frequency:    1.4074019291
  - # 8
    frequency:    3.3050665441
  - # 9
    frequency:    3.4140568506
  - # 10
    frequency:    4.1349671819
  - # 11
    frequency:    4.2613468430
  - # 12
    frequency:    4.5519071340
  - # 13
    frequency:    6.4593699202
  - # 14
    frequency:    6.4872896130
  - # 15
    frequency:    6.9967376919
  - # 16
    frequency:    8.1620290412
  - # 17
    frequency:   11.9247292465
  - # 18
    frequency:   11.9728676056
  - # 19
    frequency:   12.5836090496
  - # 20
    frequency:   13.9089724588
  - # 21
    frequency:   13.9252366294
  - # 22
    frequency:   32.0751963172
  - # 23
    frequency:   33.9185922570
  - # 24
    frequency:   67.8873990397

- q-position: [    0.0656566,    0.0000000,    0.0000000 ]
  distance:    0.0214532
  band:
  - # 1
    frequency:   -1.2678551806
  - # 2
    frequency:   -1.0997576313
  - # 3
    frequency:    0.1514348108
  - # 4
    frequency:    0.3337128376
  - # 5
    frequency:    0.8119840268
  - # 6
    frequency:    1.2068906153
  - # 7
    frequency:    1.4643565403
  - # 8
    frequency:    3.3120816524
  - # 9
    frequency:    3.4367632934
  - # 10
    frequency:    4.1194953379
  - # 11
    frequency:    4.2579797152
  - # 12
    frequency:    4.5671850011
  - # 13
    frequency:    6.4586249205
  - # 14
    frequency:    6.4912316926
  - # 15
    frequency:    6.9913203897
  - # 16
    frequency:    8.1490859535
  - # 17
    frequency:   11.9178095556
  - # 18
    frequency:   11.9737689425
  - # 19
    frequency:   12.5773438606
  - # 20
    frequency:   13.9097448666
  - # 21
    frequency:   13.9287221728
  - # 22
    frequency:   32.0635475390
  - # 23
    frequency:   33.9130402862
  - # 24
    frequency:   67.8812912954

- q-position: [    0.0707071,    0.0000000,    0.0000000 ]
  distance:    0.0231034
  band:
  - # 1
    frequency:   -1.3835314832
  - # 2
    frequency:   -1.1834706751
  - # 3
    frequency:    0.1914057439
  - # 4
    frequency:    0.3586699916
  - # 5
    frequency:    0.8616697943
  - # 6
    frequency:    1.2117739072
  - # 7
    frequency:    1.5279229423
  - # 8
    frequency:    3.3194829215
  - # 9
    frequency:    3.4599598136
  - # 10
    frequency:    4.1047909514
  - # 11
    frequency:    4.2547794499
  - # 12
    frequency:    4.5827137307
  - # 13
    frequency:    6.4578157557
  - # 14
    frequency:    6.4954279492
  - # 15
    frequency:    6.9855497946
  - # 16
    frequency:    8.1351939394
  - # 17
    frequency:   11.9104802437
  - # 18
    frequency:   11.9747127226
  - # 19
    frequency:   12.5706200607
  - # 20
    frequency:   13.9105740920
  - # 21
    frequency:   13.9324476366
  - # 22
    frequency:   32.0511070566
  - # 23
    frequency:   33.9070936569
  - # 24
    frequency:   67.8747596352

- q-position: [    0.0757576,    0.0000000,    0.0000000 ]
  distance:    0.0247537
  band:
  - # 1
    frequency:   -1.5013512336
  - # 2
    frequency:   -1.2715218721
  - # 3
    frequency:    0.2326043285
  - # 4
    frequency:    0.3836050388
  - # 5
    frequency:    0.9119414814
  - # 6
    frequency:    1.2218776311
  - # 7
    frequency:    1.5964576198
  - # 8
    frequency:    3.3272391022
  - # 9
    frequency:    3.4832959866
  - # 10
    frequency:    4.0911504795
  - # 11
    frequency:    4.2518189968
  - # 12
    frequency:    4.5984984732
  - # 13
    frequency:    6.4569415134
  - # 14
    frequency:    6.4998624671
  - # 15
    frequency:    6.9794490436
  - # 16
    frequency:    8.1203745229
  - # 17
    frequency:   11.9027732478
  - # 18
    frequency:   11.9756929198
  - # 19
    frequency:   12.5634468058
  - # 20
    frequency:   13.9114590486
  - # 21
    frequency:   13.9364052949
  - # 22
    frequency:   32.0379057537
  - # 23
    frequency:   33.9007633519
  - # 24
    frequency:   67.8678182976

- q-position: [    0.0808081,    0.0000000,    0.0000000 ]
  distance:    0.0264039
  band:
  - # 1
    frequency:   -1.6201453139
  - # 2
    frequency:   -1.3628322953
  - # 3
    frequency:    0.2748935733
  - # 4
    frequency:    0.4085231714
  - # 5
    frequency:    0.9627897209
  - # 6
    frequency:    1.2369592455
  - # 7
    frequency:    1.6686583650
  - # 8
    frequency:    3.3353193127
  - # 9
    frequency:    3.5063706761
  - # 10
    frequency:    4.0789196891
  - # 11
    frequency:    4.2491680151
  - # 12
    frequency:    4.6145472063
  - # 13
    frequency:    6.4560012750
  - # 14
    frequency:    6.5045173131
  - # 15
    frequency:    6.9730445887
  - # 16
    frequency:    8.1046512774
  - # 17
    frequency:   11.8947224129
  - # 18
    frequency:   11.9767033308
  - # 19
    frequency:   12.5558337131
  - # 20
    frequency:   13.9123985909
  - # 21
    frequency:   13.9405872419
  - # 22
    frequency:   32.0239762702
  - # 23
    frequency:   33.8940610071
  - # 24
    frequency:   67.8604823270

- q-position: [    0.0858586,    0.0000000,    0.0000000 ]
  distance:    0.0280542
  band:
  - # 1
    frequency:   -1.7391264969
  - # 2
    frequency:   -1.4564596101
  - # 3
    frequency:    0.3181699170
  - # 4
    frequency:    0.4334241230
  - # 5
    frequency:    1.0141260406
  - # 6
    frequency:    1.2566309055
  - # 7
    frequency:    1.7435274296
  - # 8
    frequency:    3.3436933380
  - # 9
    frequency:    3.5287272831
  - # 10
    frequency:    4.0684996519
  - # 11
    frequency:    4.2468917696
  - # 12
    frequency:    4.6308698213
  - # 13
    frequency:    6.4549941314
  - # 14
    frequency:    6.5093722682
  - # 15
    frequency:    6.9663665008
  - # 16
    frequency:    8.0880498737
  - # 17
    frequency:   11.8863633995
  - # 18
    frequency:   11.9777376174
  - # 19
    frequency:   12.5477908298
  - # 20
    frequency:   13.9133915188
  - # 21
    frequency:   13.9449854456
  - # 22
    frequency:   32.0093528950
  - # 23
    frequency:   33.8869988796
  - # 24
    frequency:   67.8527675240

- q-position: [    0.0909091,    0.0000000,    0.0000000 ]
  distance:    0.0297044
  band:
  - # 1
    frequency:   -1.8577689201
  - # 2
    frequency:   -1.5516176937
  - # 3
    frequency:    0.3623510427
  - # 4
    frequency:    0.4583035572
  - # 5
    frequency:    1.0658316607
  - # 6
    frequency:    1.2804345817
  - # 7
    frequency:    1.8203083944
  - # 8
    frequency:    3.3523318927
  - # 9
    frequency:    3.5498549924
  - # 10
    frequency:    4.0603462908
  - # 11
    frequency:    4.2450501768
  - # 12
    frequency:    4.6474775661
  - # 13
    frequency:    6.4539192008
  - # 14
    frequency:    6.5144045128
  - # 15
    frequency:    6.9594487933
  - # 16
    frequency:    8.0705981192
  - # 17
    frequency:   11.8777335844
  - # 18
    frequency:   11.9787893475
  - # 19
    frequency:   12.5393286027
  - # 20
    frequency:   13.9144365808
  - # 21
    frequency:   13.9495917969
  - # 22
    frequency:   31.9940714532
  - # 23
    frequency:   33.8795898128
  - # 24
    frequency:   67.8446903937

- q-position: [    0.0959596,    0.0000000,    0.0000000 ]
  distance:    0.0313547
  band:
  - # 1
    frequency:   -1.9757195203
  - # 2
    frequency:   -1.6476692600
  - # 3
    frequency:    0.4073651128
  - # 4
    frequency:    0.4831544013
  - # 5
    frequency:    1.1177836365
  - # 6
    frequency:    1.3078972364
  - # 7
    frequency:    1.8984259741
  - # 8
    frequency:    3.3612068431
  - # 9
    frequency:    3.5692023581
  - # 10
    frequency:    4.0549572873
  - # 11
    frequency:    4.2436970206
  - # 12
    frequency:    4.6643827182
  - # 13
    frequency:    6.4527756475
  - # 14
    frequency:    6.5195882598
  - # 15
    frequency:    6.9523297641
  - # 16
    frequency:    8.0523259903
  - # 17
    frequency:   11.8688719540
  - # 18
    frequency:   11.9798520347
  - # 19
    frequency:   12.5304578500
  - # 20
    frequency:   13.9155324784
  - # 21
    frequency:   13.9543981549
  - # 22
    frequency:   31.9781691884
  - # 23
    frequency:   33.8718472007
  - # 24
    frequency:   67.8362680923

- q-position: [    0.1010101,    0.0000000,    0.0000000 ]
  distance:    0.0330049
  band:
  - # 1
    frequency:   -2.0927375589
  - # 2
    frequency:   -1.7441053196
  - # 3
    frequency:    0.4531443243
  - # 4
    frequency:    0.5079679456
  - # 5
    frequency:    1.1698670036
  - # 6
    frequency:    1.3385654895
  - # 7
    frequency:    1.9774375590
  - # 8
    frequency:    3.3702913888
  - # 9
    frequency:    3.5862106689
  - # 10
    frequency:    4.0528390227
  - # 11
    frequency:    4.2428793511
  - # 12
    frequency:    4.6815984018
  - # 13
    frequency:    6.4515627017
  - # 14
    frequency:    6.5248943349
  - # 15
    frequency:    6.9450523570
  - # 16
    frequency:    8.0332656558
  - # 17
    frequency:   11.8598189890
  - # 18
    frequency:   11.9809191755
  - # 19
    frequency:   12.5211897364
  - # 20
    frequency:   13.9166778704
  - # 21
    frequency:   13.9593963873
  - # 22
    frequency:   31.9616846407
  - # 23
    frequency:   33.8637849501
  - # 24
    frequency:   67.8275183717

- q-position: [    0.1060606,    0.0000000,    0.0000000 ]
  distance:    0.0346552
  band:
  - # 1
    frequency:   -2.2086548019
  - # 2
    frequency:   -1.8405209758
  - # 3
    frequency:    0.4996217377
  - # 4
    frequency:    0.5327346580
  - # 5
    frequency:    1.2219792697
  - # 6
    frequency:    1.3720239321
  - # 7
    frequency:    2.0569968593
  - # 8
    frequency:    3.3795602037
  - # 9
    frequency:    3.6003712696
  - # 10
    frequency:    4.0544494607
  - # 11
    frequency:    4.2426370732
  - # 12
    frequency:    4.6991384917
  - # 13
    frequency:    6.4502796799
  - # 14
    frequency:    6.5302897062
  - # 15
    frequency:    6.9376645385
  - # 16
    frequency:    8.0134514954
  - # 17
    frequency:   11.8506165411
  - # 18
    frequency:   11.9819842841
  - # 19
    frequency:   12.5115357511
  - # 20
    frequency:   13.9178713764
  - # 21
    frequency:   13.9645784062
  - # 22
    frequency:   31.9446575211
  - # 23
    frequency:   33.8554174419
  - # 24
    frequency:   67.8184595222

- q-position: [    0.1111111,    0.0000000,    0.0000000 ]
  distance:    0.0363054
  band:
  - # 1
    frequency:   -2.3233497541
  - # 2
    frequency:   -1.9365927089
  - # 3
    frequency:    0.5467300518
  - # 4
    frequency:    0.5574447364
  - # 5
    frequency:    1.2740311093
  - # 6
    frequency:    1.4079022784
  - # 7
    frequency:    2.1368274343
  - # 8
    frequency:    3.3889895388
  - # 9
    frequency:    3.6113003249
  - # 10
    frequency:    4.0601235561
  - # 11
    frequency:    4.2430027209
  - # 12
    frequency:    4.7170175626
  - # 13
    frequency:    6.4489260072
  - # 14
    frequency:    6.5357369723
  - # 15
    frequency:    6.9302196790
  - # 16
    frequency:    7.9929201119
  - # 17
    frequency:   11.8413076984
  - # 18
    frequency:   11.9830409246
  - # 19
    frequency:   12.5015076887
  - # 20
    frequency:   13.9191115808
  - # 21
    frequency:   13.9699361978
  - # 22
    frequency:   31.9271285815
  - # 23
    frequency:   33.8467594911
  - # 24
    frequency:   67.8091103151

- q-position: [    0.1161616,    0.0000000,    0.0000000 ]
  distance:    0.0379556
  band:
  - # 1
    frequency:   -2.4367311101
  - # 2
    frequency:   -2.0320592631
  - # 3
    frequency:    0.5820884508
  - # 4
    frequency:    0.5944013924
  - # 5
    frequency:    1.3259453812
  - # 6
    frequency:    1.4458757659
  - # 7
    frequency:    2.2167035923
  - # 8
    frequency:    3.3985572889
  - # 9
    frequency:    3.6188090087
  - # 10
    frequency:    4.0700032658
  - # 11
    frequency:    4.2440014102
  - # 12
    frequency:    4.7352508543
  - # 13
    frequency:    6.4475012377
  - # 14
    frequency:    6.5411938266
  - # 15
    frequency:    6.9227769196
  - # 16
    frequency:    7.9717103412
  - # 17
    frequency:   11.8319366394
  - # 18
    frequency:   11.9840827405
  - # 19
    frequency:   12.4911176357
  - # 20
    frequency:   13.9203970370
  - # 21
    frequency:   13.9754618486
  - # 22
    frequency:   31.9091394822
  - # 23
    frequency:   33.8378263057
  - # 24
    frequency:   67.7994899430

- q-position: [    0.1212121,    0.0000000,    0.0000000 ]
  distance:    0.0396059
  band:
  - # 1
    frequency:   -2.5487271456
  - # 2
    frequency:   -2.1267065355
  - # 3
    frequency:    0.6066563342
  - # 4
    frequency:    0.6425675601
  - # 5
    frequency:    1.3776555498
  - # 6
    frequency:    1.4856619541
  - # 7
    frequency:    2.2964365615
  - # 8
    frequency:    3.4082430260
  - # 9
    frequency:    3.6229390249
  - # 10
    frequency:    4.0840023087
  - # 11
    frequency:    4.2456509532
  - # 12
    frequency:    4.7538542303
  - # 13
    frequency:    6.4460050777
  - # 14
    frequency:    6.5466125347
  - # 15
    frequency:    6.9154014876
  - # 16
    frequency:    7.9498632623
  - # 17
    frequency:   11.8225484748
  - # 18
    frequency:   11.9851034814
  - # 19
    frequency:   12.4803779608
  - # 20
    frequency:   13.9217262704
  - # 21
    frequency:   13.9811475655
  - # 22
    frequency:   31.8907326567
  - # 23
    frequency:   33.8286334445
  - # 24
    frequency:   67.7896179602

- q-position: [    0.1262626,    0.0000000,    0.0000000 ]
  distance:    0.0412561
  band:
  - # 1
    frequency:   -2.6592789089
  - # 2
    frequency:   -2.2203560815
  - # 3
    frequency:    0.6311392693
  - # 4
    frequency:    0.6911604380
  - # 5
    frequency:    1.4291040268
  - # 6
    frequency:    1.5270159276
  - # 7
    frequency:    2.3758643361
  - # 8
    frequency:    3.4180280054
  - # 9
    frequency:    3.6239453970
  - # 10
    frequency:    4.1018237977
  - # 11
    frequency:    4.2479621166
  - # 12
    frequency:    4.7728441138
  - # 13
    frequency:    6.4444374061
  - # 14
    frequency:    6.5519394801
  - # 15
    frequency:    6.9081649048
  - # 16
    frequency:    7.9274222097
  - # 17
    frequency:   11.8131890744
  - # 18
    frequency:   11.9860970262
  - # 19
    frequency:   12.4693013109
  - # 20
    frequency:   13.9230977824
  - # 21
    frequency:   13.9869856923
  - # 22
    frequency:   31.8719511742
  - # 23
    frequency:   33.8191967741
  - # 24
    frequency:   67.7795142221

- q-position: [    0.1313131,    0.0000000,    0.0000000 ]
  distance:    0.0429064
  band:
  - # 1
    frequency:   -2.7683358381
  - # 2
    frequency:   -2.3128565799
  - # 3
    frequency:    0.6555285104
  - # 4
    frequency:    0.7401124073
  - # 5
    frequency:    1.4802406534
  - # 6
    frequency:    1.5697250753
  - # 7
    frequency:    2.4548440338
  - # 8
    frequency:    3.4278951490
  - # 9
    frequency:    3.6222353480
  - # 10
    frequency:    4.1230219894
  - # 11
    frequency:    4.2509389994
  - # 12
    frequency:    4.7922373875
  - # 13
    frequency:    6.4427982963
  - # 14
    frequency:    6.5571148669
  - # 15
    frequency:    6.9011449979
  - # 16
    frequency:    7.9044327940
  - # 17
    frequency:   11.8039048787
  - # 18
    frequency:   11.9870574042
  - # 19
    frequency:   12.4579006140
  - # 20
    frequency:   13.9245100537
  - # 21
    frequency:   13.9929687208
  - # 22
    frequency:   31.8528386008
  - # 23
    frequency:   33.8095324257
  - # 24
    frequency:   67.7691988245

- q-position: [    0.1363636,    0.0000000,    0.0000000 ]
  distance:    0.0445566
  band:
  - # 1
    frequency:   -2.8758529270
  - # 2
    frequency:   -2.4040775932
  - # 3
    frequency:    0.6798156666
  - # 4
    frequency:    0.7893567061
  - # 5
    frequency:    1.5310213976
  - # 6
    frequency:    1.6136040645
  - # 7