nqpoint: 300    
npath: 3      
segment_nqpoint:
- 100
- 100
- 100
labels:
- [ 'G', 'M' ]
- [ 'M', 'K' ]
- [ 'K', 'G' ]
reciprocal_lattice:
- [   0.27982182,   0.16155520,   0.00000000 ] # a*
- [   0.00000000,   0.32311041,   0.00000000 ] # b*
- [   0.00000000,   0.00000000,   0.04125314 ] # c*
natom: 6      
lattice:
- [     3.573702683045219,     0.000000000000000,     0.000000000000000 ] # a
- [    -1.786851341522609,     3.094917309091123,     0.000000000000000 ] # b
- [     0.000000000000000,     0.000000000000000,    24.240576303508369 ] # c
points:
- symbol: H # 1
  coordinates: [  0.666666984744047,  0.333332985985145,  0.371278301609414 ]
  mass: 1.007940
- symbol: N # 2
  coordinates: [  0.000000000000000,  0.000000000000000,  0.464064725788089 ]
  mass: 14.006700
- symbol: N # 3
  coordinates: [  0.333332985432215,  0.666666983183674,  0.573878623362053 ]
  mass: 14.006700
- symbol: O # 4
  coordinates: [  0.333332985432215,  0.666666983183674,  0.628721698390586 ]
  mass: 15.999400
- symbol: Y # 5
  coordinates: [  0.333332985432215,  0.666666983183674,  0.415990540596872 ]
  mass: 88.905850
- symbol: Y # 6
  coordinates: [  0.666666984744047,  0.333332985985145,  0.531645893310732 ]
  mass: 88.905850

phonon:
- q-position: [    0.0000000,    0.0000000,    0.0000000 ]
  distance:    0.0000000
  band:
  - # 1
    frequency:   -5.2365899708
  - # 2
    frequency:   -5.2365899708
  - # 3
    frequency:   -0.0000059255
  - # 4
    frequency:   -0.0000001531
  - # 5
    frequency:    0.0000063331
  - # 6
    frequency:    2.5984725124
  - # 7
    frequency:    2.5984725124
  - # 8
    frequency:    5.1301018852
  - # 9
    frequency:    6.6975662726
  - # 10
    frequency:    9.1111704228
  - # 11
    frequency:    9.1111704228
  - # 12
    frequency:    9.8407412269
  - # 13
    frequency:    9.8407412269
  - # 14
    frequency:   13.0562681414
  - # 15
    frequency:   24.8495649798
  - # 16
    frequency:   24.8495649799
  - # 17
    frequency:   25.8421530916
  - # 18
    frequency:   38.6650639960

- q-position: [    0.0050505,    0.0000000,    0.0000000 ]
  distance:    0.0016319
  band:
  - # 1
    frequency:   -5.2361588050
  - # 2
    frequency:   -5.2346540246
  - # 3
    frequency:    0.0014087265
  - # 4
    frequency:    0.0512767575
  - # 5
    frequency:    0.0965423760
  - # 6
    frequency:    2.5989327501
  - # 7
    frequency:    2.6002637109
  - # 8
    frequency:    5.1299529362
  - # 9
    frequency:    6.6962084117
  - # 10
    frequency:    9.1109815886
  - # 11
    frequency:    9.1143272876
  - # 12
    frequency:    9.8410163820
  - # 13
    frequency:    9.8419879940
  - # 14
    frequency:   13.0557110008
  - # 15
    frequency:   24.8494445367
  - # 16
    frequency:   24.8502574751
  - # 17
    frequency:   25.8416975447
  - # 18
    frequency:   38.6643583064

- q-position: [    0.0101010,    0.0000000,    0.0000000 ]
  distance:    0.0032637
  band:
  - # 1
    frequency:   -5.2348652028
  - # 2
    frequency:   -5.2288517691
  - # 3
    frequency:    0.0056333905
  - # 4
    frequency:    0.1025171759
  - # 5
    frequency:    0.1930337372
  - # 6
    frequency:    2.6003135183
  - # 7
    frequency:    2.6056250925
  - # 8
    frequency:    5.1295068552
  - # 9
    frequency:    6.6921681353
  - # 10
    frequency:    9.1104161687
  - # 11
    frequency:    9.1237383900
  - # 12
    frequency:    9.8418410029
  - # 13
    frequency:    9.8457407053
  - # 14
    frequency:   13.0540414102
  - # 15
    frequency:   24.8490835676
  - # 16
    frequency:   24.8523257045
  - # 17
    frequency:   25.8403404480
  - # 18
    frequency:   38.6622424276

- q-position: [    0.0151515,    0.0000000,    0.0000000 ]
  distance:    0.0048956
  band:
  - # 1
    frequency:   -5.2327088566
  - # 2
    frequency:   -5.2191999459
  - # 3
    frequency:    0.0126369000
  - # 4
    frequency:    0.1536851441
  - # 5
    frequency:    0.2894227521
  - # 6
    frequency:    2.6026149687
  - # 7
    frequency:    2.6145204920
  - # 8
    frequency:    5.1287659307
  - # 9
    frequency:    6.6855431674
  - # 10
    frequency:    9.1094774006
  - # 11
    frequency:    9.1392270001
  - # 12
    frequency:    9.8432125675
  - # 13
    frequency:    9.8520371988
  - # 14
    frequency:   13.0512648627
  - # 15
    frequency:   24.8484831515
  - # 16
    frequency:   24.8557416398
  - # 17
    frequency:   25.8381106687
  - # 18
    frequency:   38.6587199265

- q-position: [    0.0202020,    0.0000000,    0.0000000 ]
  distance:    0.0065275
  band:
  - # 1
    frequency:   -5.2296892737
  - # 2
    frequency:   -5.2057264311
  - # 3
    frequency:    0.0223643608
  - # 4
    frequency:    0.2047450074
  - # 5
    frequency:    0.3856574465
  - # 6
    frequency:    2.6058373096
  - # 7
    frequency:    2.6268911870
  - # 8
    frequency:    5.1277339433
  - # 9
    frequency:    6.6764893808
  - # 10
    frequency:    9.1081706456
  - # 11
    frequency:    9.1605040929
  - # 12
    frequency:    9.8451269098
  - # 13
    frequency:    9.8609425370
  - # 14
    frequency:   13.0473905087
  - # 15
    frequency:   24.8476450832
  - # 16
    frequency:   24.8604577032
  - # 17
    frequency:   25.8350571081
  - # 18
    frequency:   38.6537967377

- q-position: [    0.0252525,    0.0000000,    0.0000000 ]
  distance:    0.0081594
  band:
  - # 1
    frequency:   -5.2258058078
  - # 2
    frequency:   -5.1884701945
  - # 3
    frequency:    0.0347417546
  - # 4
    frequency:    0.2556617931
  - # 5
    frequency:    0.4816848674
  - # 6
    frequency:    2.6099807399
  - # 7
    frequency:    2.6426580956
  - # 8
    frequency:    5.1264161184
  - # 9
    frequency:    6.6652113293
  - # 10
    frequency:    9.1065033390
  - # 11
    frequency:    9.1871757124
  - # 12
    frequency:    9.8475782747
  - # 13
    frequency:    9.8725518850
  - # 14
    frequency:   13.0424311493
  - # 15
    frequency:   24.8465718667
  - # 16
    frequency:   24.8664054644
  - # 17
    frequency:   25.8312498907
  - # 18
    frequency:   38.6474811494

- q-position: [    0.0303030,    0.0000000,    0.0000000 ]
  distance:    0.0097912
  band:
  - # 1
    frequency:   -5.2210577008
  - # 2
    frequency:   -5.1674812413
  - # 3
    frequency:    0.0496784984
  - # 4
    frequency:    0.3064014323
  - # 5
    frequency:    0.5774507272
  - # 6
    frequency:    2.6150453582
  - # 7
    frequency:    2.6617246148
  - # 8
    frequency:    5.1248190602
  - # 9
    frequency:    6.6519508028
  - # 10
    frequency:    9.1044849215
  - # 11
    frequency:    9.2187517727
  - # 12
    frequency:    9.8505593921
  - # 13
    frequency:    9.8869942117
  - # 14
    frequency:   13.0364032256
  - # 15
    frequency:   24.8452667076
  - # 16
    frequency:   24.8734938132
  - # 17
    frequency:   25.8267820384
  - # 18
    frequency:   38.6397837816

- q-position: [    0.0353535,    0.0000000,    0.0000000 ]
  distance:    0.0114231
  band:
  - # 1
    frequency:   -5.2154441367
  - # 2
    frequency:   -5.1428205329
  - # 3
    frequency:    0.0670703736
  - # 4
    frequency:    0.3569309782
  - # 5
    frequency:    0.6728990274
  - # 6
    frequency:    2.6210310488
  - # 7
    frequency:    2.6839798957
  - # 8
    frequency:    5.1229506724
  - # 9
    frequency:    6.6369747112
  - # 10
    frequency:    9.1021267554
  - # 11
    frequency:    9.2546555085
  - # 12
    frequency:    9.8540615686
  - # 13
    frequency:    9.9044362728
  - # 14
    frequency:   13.0293268052
  - # 15
    frequency:   24.8437335016
  - # 16
    frequency:   24.8816066210
  - # 17
    frequency:   25.8217716155
  - # 18
    frequency:   38.6307175602

- q-position: [    0.0404040,    0.0000000,    0.0000000 ]
  distance:    0.0130550
  band:
  - # 1
    frequency:   -5.2089643055
  - # 2
    frequency:   -5.1145598868
  - # 3
    frequency:    0.0868026283
  - # 4
    frequency:    0.4072188171
  - # 5
    frequency:    0.7679716566
  - # 6
    frequency:    2.6279373468
  - # 7
    frequency:    2.7093023482
  - # 8
    frequency:    5.1208200662
  - # 9
    frequency:    6.6205634546
  - # 10
    frequency:    9.0994420270
  - # 11
    frequency:    9.2942334123
  - # 12
    frequency:    9.8580747936
  - # 13
    frequency:    9.9250858516
  - # 14
    frequency:   13.0212255634
  - # 15
    frequency:   24.8419768221
  - # 16
    frequency:   24.8905999360
  - # 17
    frequency:   25.8163643054
  - # 18
    frequency:   38.6202976845

- q-position: [    0.0454545,    0.0000000,    0.0000000 ]
  distance:    0.0146868
  band:
  - # 1
    frequency:   -5.2016174774
  - # 2
    frequency:   -5.0827818503
  - # 3
    frequency:    0.1087530655
  - # 4
    frequency:    0.4572348718
  - # 5
    frequency:    0.8626079672
  - # 6
    frequency:    2.6357632845
  - # 7
    frequency:    2.7375631742
  - # 8
    frequency:    5.1184374603
  - # 9
    frequency:    6.6030006334
  - # 10
    frequency:    9.0964456377
  - # 11
    frequency:    9.3367665092
  - # 12
    frequency:    9.8625878569
  - # 13
    frequency:    9.9491925190
  - # 14
    frequency:   13.0121267600
  - # 15
    frequency:   24.8400019048
  - # 16
    frequency:   24.9002988218
  - # 17
    frequency:   25.8107363132
  - # 18
    frequency:   38.6085415889

- q-position: [    0.0505051,    0.0000000,    0.0000000 ]
  distance:    0.0163187
  band:
  - # 1
    frequency:   -5.1934030858
  - # 2
    frequency:   -5.0475795458
  - # 3
    frequency:    0.1327949638
  - # 4
    frequency:    0.5069507943
  - # 5
    frequency:    0.9567443320
  - # 6
    frequency:    2.6445072227
  - # 7
    frequency:    2.7686297596
  - # 8
    frequency:    5.1158140752
  - # 9
    frequency:    6.5845645978
  - # 10
    frequency:    9.0931540868
  - # 11
    frequency:    9.3814850480
  - # 12
    frequency:    9.8675884756
  - # 13
    frequency:    9.9770432965
  - # 14
    frequency:   13.0020612102
  - # 15
    frequency:   24.8378146298
  - # 16
    frequency:   24.9104940489
  - # 17
    frequency:   25.8050973897
  - # 18
    frequency:   38.5954688995

- q-position: [    0.0555556,    0.0000000,    0.0000000 ]
  distance:    0.0179506
  band:
  - # 1
    frequency:   -5.1843208176
  - # 2
    frequency:   -5.0090564826
  - # 3
    frequency:    0.1587997131
  - # 4
    frequency:    0.5563401453
  - # 5
    frequency:    1.0503136890
  - # 6
    frequency:    2.6541666700
  - # 7
    frequency:    2.8023687904
  - # 8
    frequency:    5.1129620267
  - # 9
    frequency:    6.5655220125
  - # 10
    frequency:    9.0895853478
  - # 11
    frequency:    9.4275897005
  - # 12
    frequency:    9.8730634269
  - # 13
    frequency:   10.0089499172
  - # 14
    frequency:   12.9910632476
  - # 15
    frequency:   24.8354215022
  - # 16
    frequency:   24.9209390110
  - # 17
    frequency:   25.7996936120
  - # 18
    frequency:   38.5811013851

- q-position: [    0.0606061,    0.0000000,    0.0000000 ]
  distance:    0.0195824
  band:
  - # 1
    frequency:   -5.1743707111
  - # 2
    frequency:   -4.9673263310
  - # 3
    frequency:    0.1866390918
  - # 4
    frequency:    0.6053785578
  - # 5
    frequency:    1.1432450884
  - # 6
    frequency:    2.6647380950
  - # 7
    frequency:    2.8386489986
  - # 8
    frequency:    5.1098942214
  - # 9
    frequency:    6.5461233601
  - # 10
    frequency:    9.0857587399
  - # 11
    frequency:    9.4742823636
  - # 12
    frequency:    9.8789986847
  - # 13
    frequency:   10.0452246245
  - # 14
    frequency:   12.9791706809
  - # 15
    frequency:   24.8328296296
  - # 16
    frequency:   24.9313474545
  - # 17
    frequency:   25.7948093359
  - # 18
    frequency:   38.5654629025

- q-position: [    0.0656566,    0.0000000,    0.0000000 ]
  distance:    0.0212143
  band:
  - # 1
    frequency:   -5.1635532586
  - # 2
    frequency:   -4.9225126532
  - # 3
    frequency:    0.2161871486
  - # 4
    frequency:    0.6540438807
  - # 5
    frequency:    1.2354632578
  - # 6
    frequency:    2.6762167336
  - # 7
    frequency:    2.8773434768
  - # 8
    frequency:    5.1066242596
  - # 9
    frequency:    6.5266001508
  - # 10
    frequency:    9.0816947979
  - # 11
    frequency:    9.5208075892
  - # 12
    frequency:    9.8853795575
  - # 13
    frequency:   10.0861436783
  - # 14
    frequency:   12.9664247399
  - # 15
    frequency:   24.8300466983
  - # 16
    frequency:   24.9413928927
  - # 17
    frequency:   25.7907674590
  - # 18
    frequency:   38.5485793376

- q-position: [    0.0707071,    0.0000000,    0.0000000 ]
  distance:    0.0228462
  band:
  - # 1
    frequency:   -5.1518695139
  - # 2
    frequency:   -4.8747485848
  - # 3
    frequency:    0.2473216881
  - # 4
    frequency:    0.7023163008
  - # 5
    frequency:    1.3268882115
  - # 6
    frequency:    2.6885964000
  - # 7
    frequency:    2.9183315306
  - # 8
    frequency:    5.1031663482
  - # 9
    frequency:    6.5071635286
  - # 10
    frequency:    9.0774151393
  - # 11
    frequency:    9.5665009908
  - # 12
    frequency:    9.8921908258
  - # 13
    frequency:   10.1319024895
  - # 14
    frequency:   12.9528700123
  - # 15
    frequency:   24.8270809467
  - # 16
    frequency:   24.9507108502
  - # 17
    frequency:   25.7879268521
  - # 18
    frequency:   38.5304785405

- q-position: [    0.0757576,    0.0000000,    0.0000000 ]
  distance:    0.0244781
  band:
  - # 1
    frequency:   -5.1393212021
  - # 2
    frequency:   -4.8241764621
  - # 3
    frequency:    0.2799253790
  - # 4
    frequency:    0.7501784369
  - # 5
    frequency:    1.4174349346
  - # 6
    frequency:    2.7018693017
  - # 7
    frequency:    2.9615000600
  - # 8
    frequency:    5.0995352282
  - # 9
    frequency:    6.4880039451
  - # 10
    frequency:    9.0729423327
  - # 11
    frequency:    9.6108350536
  - # 12
    frequency:    9.8994168770
  - # 13
    frequency:   10.1825722494
  - # 14
    frequency:   12.9385543688
  - # 15
    frequency:   24.8239411373
  - # 16
    frequency:   24.9589052642
  - # 17
    frequency:   25.7866756427
  - # 18
    frequency:   38.5111902565

- q-position: [    0.0808081,    0.0000000,    0.0000000 ]
  distance:    0.0261099
  band:
  - # 1
    frequency:   -5.1259108307
  - # 2
    frequency:   -4.7709473889
  - # 3
    frequency:    0.3138865245
  - # 4
    frequency:    0.7976154052
  - # 5
    frequency:    1.5070131796
  - # 6
    frequency:    2.7160258675
  - # 7
    frequency:    3.0067444677
  - # 8
    frequency:    5.0957461215
  - # 9
    frequency:    6.4692915983
  - # 10
    frequency:    9.0682997649
  - # 11
    frequency:    9.6534493799
  - # 12
    frequency:    9.9070418386
  - # 13
    frequency:   10.2380712921
  - # 14
    frequency:   12.9235288753
  - # 15
    frequency:   24.8206365261
  - # 16
    frequency:   24.9655602434
  - # 17
    frequency:   25.7874191548
  - # 18
    frequency:   38.4907460522

- q-position: [    0.0858586,    0.0000000,    0.0000000 ]
  distance:    0.0277418
  band:
  - # 1
    frequency:   -5.1116418004
  - # 2
    frequency:   -4.7152207392
  - # 3
    frequency:    0.3490995408
  - # 4
    frequency:    0.8446148501
  - # 5
    frequency:    1.5955274205
  - # 6
    frequency:    2.7310545911
  - # 7
    frequency:    3.0539691048
  - # 8
    frequency:    5.0918146985
  - # 9
    frequency:    6.4511773756
  - # 10
    frequency:    9.0635115095
  - # 11
    frequency:    9.6941553848
  - # 12
    frequency:    9.9150497052
  - # 13
    frequency:   10.2981614050
  - # 14
    frequency:   12.9078476923
  - # 15
    frequency:   24.8171768308
  - # 16
    frequency:   24.9702577533
  - # 17
    frequency:   25.7905619442
  - # 18
    frequency:   38.4691792376

- q-position: [    0.0909091,    0.0000000,    0.0000000 ]
  distance:    0.0293737
  band:
  - # 1
    frequency:   -5.0965185146
  - # 2
    frequency:   -4.6571635913
  - # 3
    frequency:    0.3854651938
  - # 4
    frequency:    0.8911669394
  - # 5
    frequency:    1.6828770137
  - # 6
    frequency:    2.7469418962
  - # 7
    frequency:    3.1030872581
  - # 8
    frequency:    5.0877570741
  - # 9
    frequency:    6.4337940903
  - # 10
    frequency:    9.0586021954
  - # 11
    frequency:    9.7329144928
  - # 12
    frequency:    9.9234244628
  - # 13
    frequency:   10.3624702232
  - # 14
    frequency:   12.8915679595
  - # 15
    frequency:   24.8135721964
  - # 16
    frequency:   24.9726005104
  - # 17
    frequency:   25.7964846537
  - # 18
    frequency:   38.4465247834

- q-position: [    0.0959596,    0.0000000,    0.0000000 ]
  distance:    0.0310055
  band:
  - # 1
    frequency:   -5.0805464845
  - # 2
    frequency:   -4.5969500925
  - # 3
    frequency:    0.4228906435
  - # 4
    frequency:    0.9372643188
  - # 5
    frequency:    1.7689566174
  - # 6
    frequency:    2.7636720273
  - # 7
    frequency:    3.1540206885
  - # 8
    frequency:    5.0835898320
  - # 9
    frequency:    6.4172578522
  - # 10
    frequency:    9.0535968764
  - # 11
    frequency:    9.7697984791
  - # 12
    frequency:    9.9321502070
  - # 13
    frequency:   10.4305312009
  - # 14
    frequency:   12.8747496666
  - # 15
    frequency:   24.8098331600
  - # 16
    frequency:   24.9722376080
  - # 17
    frequency:   25.8055181711
  - # 18
    frequency:   38.4228192358

- q-position: [    0.1010101,    0.0000000,    0.0000000 ]
  distance:    0.0326374
  band:
  - # 1
    frequency:   -5.0637324301
  - # 2
    frequency:   -4.5347607550
  - # 3
    frequency:    0.4612893411
  - # 4
    frequency:    0.9829020264
  - # 5
    frequency:    1.8536569197
  - # 6
    frequency:    2.7812269694
  - # 7
    frequency:    3.2066987236
  - # 8
    frequency:    5.0793300848
  - # 9
    frequency:    6.4016694542
  - # 10
    frequency:    9.0485209003
  - # 11
    frequency:    9.8049448485
  - # 12
    frequency:    9.9412112561
  - # 13
    frequency:   10.5018283690
  - # 14
    frequency:   12.8574555100
  - # 15
    frequency:   24.8059706134
  - # 16
    frequency:   24.9688887600
  - # 17
    frequency:   25.8179192098
  - # 18
    frequency:   38.3981006260

- q-position: [    0.1060606,    0.0000000,    0.0000000 ]
  distance:    0.0342693
  band:
  - # 1
    frequency:   -5.0460843734
  - # 2
    frequency:   -4.4707816873
  - # 3
    frequency:    0.5005808182
  - # 4
    frequency:    1.0280773633
  - # 5
    frequency:    1.9368657147
  - # 6
    frequency:    2.7995864014
  - # 7
    frequency:    3.2610569165
  - # 8
    frequency:    5.0749955731
  - # 9
    frequency:    6.3871156962
  - # 10
    frequency:    9.0433997780
  - # 11
    frequency:    9.8385178912
  - # 12
    frequency:    9.9505922588
  - # 13
    frequency:   10.5758353056
  - # 14
    frequency:   12.8397507365
  - # 15
    frequency:   24.8019957642
  - # 16
    frequency:   24.9623624226
  - # 17
    frequency:   25.8338520570
  - # 18
    frequency:   38.3724083776

- q-position: [    0.1111111,    0.0000000,    0.0000000 ]
  distance:    0.0359012
  band:
  - # 1
    frequency:   -5.0276117242
  - # 2
    frequency:   -4.4052037683
  - # 3
    frequency:    0.5406904035
  - # 4
    frequency:    1.0727897222
  - # 5
    frequency:    2.0184693539
  - # 6
    frequency:    2.8187276834
  - # 7
    frequency:    3.3170352872
  - # 8
    frequency:    5.0706048095
  - # 9
    frequency:    6.3736705946
  - # 10
    frequency:    9.0382590523
  - # 11
    frequency:    9.8706806105
  - # 12
    frequency:    9.9602782967
  - # 13
    frequency:   10.6520431651
  - # 14
    frequency:   12.8217029785
  - # 15
    frequency:   24.7979200962
  - # 16
    frequency:   24.9525640718
  - # 17
    frequency:   25.8533802166
  - # 18
    frequency:   38.3457832108

- q-position: [    0.1161616,    0.0000000,    0.0000000 ]
  distance:    0.0375330
  band:
  - # 1
    frequency:   -5.0083253550
  - # 2
    frequency:   -4.3382217762
  - # 3
    frequency:    0.5815488934
  - # 4
    frequency:    1.1170403733
  - # 5
    frequency:    2.0983545720
  - # 6
    frequency:    2.8386258810
  - # 7
    frequency:    3.3745761819
  - # 8
    frequency:    5.0661772747
  - # 9
    frequency:    6.3613964502
  - # 10
    frequency:    9.0331241658
  - # 11
    frequency:    9.9015778674
  - # 12
    frequency:    9.9702549802
  - # 13
    frequency:   10.7299774467
  - # 14
    frequency:   12.8033820827
  - # 15
    frequency:   24.7937553281
  - # 16
    frequency:   24.9394933801
  - # 17
    frequency:   25.8764692043
  - # 18
    frequency:   38.3182670434

- q-position: [    0.1212121,    0.0000000,    0.0000000 ]
  distance:    0.0391649
  band:
  - # 1
    frequency:   -4.9882376646
  - # 2
    frequency:   -4.2700334882
  - # 3
    frequency:    0.6230921977
  - # 4
    frequency:    1.1608322103
  - # 5
    frequency:    2.1764106546
  - # 6
    frequency:    2.8592538253
  - # 7
    frequency:    3.4336218067
  - # 8
    frequency:    5.0617336755
  - # 9
    frequency:    6.3503447623
  - # 10
    frequency:    9.0280203280
  - # 11
    frequency:    9.9313284679
  - # 12
    frequency:    9.9805085395
  - # 13
    frequency:   10.8092057789
  - # 14
    frequency:   12.7848599428
  - # 15
    frequency:   24.7895133708
  - # 16
    frequency:   24.9232319103
  - # 17
    frequency:   25.9029988822
  - # 18
    frequency:   38.2899028901

- q-position: [    0.1262626,    0.0000000,    0.0000000 ]
  distance:    0.0407968
  band:
  - # 1
    frequency:   -4.9673626291
  - # 2
    frequency:   -4.2008387691
  - # 3
    frequency:    0.6652609799
  - # 4
    frequency:    1.2041694603
  - # 5
    frequency:    2.2525318790
  - # 6
    frequency:    2.8805822091
  - # 7
    frequency:    3.4941115157
  - # 8
    frequency:    5.0572962770
  - # 9
    frequency:    6.3405569926
  - # 10
    frequency:    9.0229723818
  - # 11
    frequency:    9.9600232813
  - # 12
    frequency:    9.9910259093
  - # 13
    frequency:   10.8893396319
  - # 14
    frequency:   12.7662103453
  - # 15
    frequency:   24.7852062848
  - # 16
    frequency:   24.9039249464
  - # 17
    frequency:   25.9327817118
  - # 18
    frequency:   38.2607347593

- q-position: [    0.1313131,    0.0000000,    0.0000000 ]
  distance:    0.0424286
  band:
  - # 1
    frequency:   -4.9457158377
  - # 2
    frequency:   -4.1308386741
  - # 3
    frequency:    0.7080002997
  - # 4
    frequency:    1.2470573593
  - # 5
    frequency:    2.3266201161
  - # 6
    frequency:    2.9025797161
  - # 7
    frequency:    3.5559789639
  - # 8
    frequency:    5.0528893274
  - # 9
    frequency:    6.3320651883
  - # 10
    frequency:    9.0180046685
  - # 11
    frequency:    9.9877268931
  - # 12
    frequency:   10.0017948066
  - # 13
    frequency:   10.9700324358
  - # 14
    frequency:   12.7475088462
  - # 15
    frequency:   24.7808462362
  - # 16
    frequency:   24.8817615757
  - # 17
    frequency:   25.9655828119
  - # 18
    frequency:   38.2308075481

- q-position: [    0.1363636,    0.0000000,    0.0000000 ]
  distance:    0.0440605
  band:
  - # 1
    frequency:   -4.9233145129
  - # 2
    frequency:   -4.0602345883
  - # 3
    frequency:    0.7512592694
  - # 4
    frequency:    1.2895018028
  - # 5
    frequency:    2.3985874495
  - # 6
    frequency:    2.9252131818
  - # 7
    frequency:    3.6191492446
  - # 8
    frequency:    5.0485396019
  - # 9
    frequency:    6.3248924831
  - # 10
    frequency:    9.0131408935
  - # 11
    frequency:   10.0128038021
  - # 12
    frequency:   10.0144810253
  - # 13
    frequency:   11.0509758480
  - # 14
    frequency:   12.7288327032
  - # 15
    frequency:   24.7764454521
  - # 16
    frequency:   24.8569563257
  - # 17
    frequency:   26.0011385176
  - # 18
    frequency:   38.2001669363

- q-position: [    0.1414141,    0.0000000,    0.0000000 ]
  distance:    0.0456924
  band:
  - # 1
    frequency:   -4.9001775145
  - # 2
    frequency:   -3.9892274309
  - # 3
    frequency:    0.7949907266
  - # 4
    frequency:    1.3315089734
  - # 5
    frequency:    2.4683586445
  - # 6
    frequency:    2.9484477797
  - # 7
    frequency:    3.6835361404
  - # 8
    frequency:    5.0442771028
  - # 9
    frequency:    6.3190534976
  - # 10
    frequency:    9.0084039912
  - # 11
    frequency:   10.0240423848
  - # 12
    frequency:   10.0403086234
  - # 13
    frequency:   11.1318952327
  - # 14
    frequency:   12.7102608982
  - # 15
    frequency:   24.7720161758
  - # 16
    frequency:   24.8297342570
  - # 17
    frequency:   26.0391715356
  - # 18
    frequency:   38.1688592790

- q-position: [    0.1464646,    0.0000000,    0.0000000 ]
  distance:    0.0473243
  band:
  - # 1
    frequency:   -4.8763253245
  - # 2
    frequency:   -3.9180169473
  - # 3
    frequency:    0.8391509247
  - # 4
    frequency:    1.3730849565
  - # 5
    frequency:    2.5358732959
  - # 6
    frequency:    2.9722472314
  - # 7
    frequency:    3.7490395849
  - # 8
    frequency:    5.0401359716
  - # 9
    frequency:    6.3145546627
  - # 10
    frequency:    9.0038159917
  - # 11
    frequency:   10.0355010181
  - # 12
    frequency:   10.0652179932
  - # 13
    frequency:   11.2125449158
  - # 14
    frequency:   12.6918743025
  - # 15
    frequency:   24.7675706223
  - # 16
    frequency:   24.8003200982
  - # 17
    frequency:   26.0794021075
  - # 18
    frequency:   38.1369314991

- q-position: [    0.1515152,    0.0000000,    0.0000000 ]
  distance:    0.0489561
  band:
  - # 1
    frequency:   -4.8517800150
  - # 2
    frequency:   -3.8468011123
  - # 3
    frequency:    0.8836992415
  - # 4
    frequency:    1.4142353480
  - # 5
    frequency:    2.6010875009
  - # 6
    frequency:    2.9965740332
  - # 7
    frequency:    3.8155433878
  - # 8
    frequency:    5.0361556946
  - # 9
    frequency:    6.3113944936
  - # 10
    frequency:    8.9993978878
  - # 11
    frequency:   10.0471711875
  - # 12
    frequency:   10.0892066758
  - # 13
    frequency:   11.2927034491
  - # 14
    frequency:   12.6737560589
  - # 15
    frequency:   24.7631209326
  - # 16
    frequency:   24.7689311203
  - # 17
    frequency:   26.1215554793
  - # 18
    frequency:   38.1044309784

- q-position: [    0.1565657,    0.0000000,    0.0000000 ]
  distance:    0.0505880
  band:
  - # 1
    frequency:   -4.8265651960
  - # 2
    frequency:   -3.7757756605
  - # 3
    frequency:    0.9285979024
  - # 4
    frequency:    1.4549648648
  - # 5
    frequency:    2.6639749450
  - # 6
    frequency:    3.0213896951
  - # 7
    frequency:    3.8829131831
  - # 8
    frequency:    5.0323827229
  - # 9
    frequency:    6.3095638370
  - # 10
    frequency:    8.9951695066
  - # 11
    frequency:   10.0590454394
  - # 12
    frequency:   10.1122649326
  - # 13
    frequency:   11.3721689006
  - # 14
    frequency:   12.6559922930
  - # 15
    frequency:   24.7357730194
  - # 16
    frequency:   24.7586791296
  - # 17
    frequency:   26.1653664038
  - # 18
    frequency:   38.0714054500

- q-position: [    0.1616162,    0.0000000,    0.0000000 ]
  distance:    0.0522199
  band:
  - # 1
    frequency:   -4.8007059445
  - # 2
    frequency:   -3.7051337538
  - # 3
    frequency:    0.9738117144
  - # 4
    frequency:    1.4952769645
  - # 5
    frequency:    2.7245273397
  - # 6
    frequency:    3.0466549867
  - # 7
    frequency:    3.9509944445
  - # 8
    frequency:    5.0288726866
  - # 9
    frequency:    6.3090461194
  - # 10
    frequency:    8.9911493838
  - # 11
    frequency:   10.0711174098
  - # 12
    frequency:   10.1343788022
  - # 13
    frequency:   11.4507540416
  - # 14
    frequency:   12.6386733187
  - # 15
    frequency:   24.7010379872
  - # 16
    frequency:   24.7542570735
  - # 17
    frequency:   26.2105814901
  - # 18
    frequency:   38.0379028901

- q-position: [    0.1666667,    0.0000000,    0.0000000 ]
  distance:    0.0538517
  band:
  - # 1
    frequency:   -4.7742287149
  - # 2
    frequency:   -3.6350657878
  - # 3
    frequency:    1.0193078046
  - # 4
    frequency:    1.5351734819
  - # 5
    frequency:    2.7827542158
  - # 6
    frequency:    3.0723301837
  - # 7
    frequency:    4.0196102556
  - # 8
    frequency:    5.0256934767
  - # 9
    frequency:    6.3098176147
  - # 10
    frequency:    8.9873546443
  - # 11
    frequency:   10.0833818415
  - # 12
    frequency:   10.1555327411
  - # 13
    frequency:   11.5282811663
  - # 14
    frequency:   12.6218955933
  - # 15
    frequency:   24.6649042406
  - # 16
    frequency:   24.7498664184
  - # 17
    frequency:   26.2569601229
  - # 18
    frequency:   38.0039714110

- q-position: [    0.1717172,    0.0000000,    0.0000000 ]
  distance:    0.0554836
  band:
  - # 1
    frequency:   -4.7471612303
  - # 2
    frequency:   -3.5657593276
  - # 3
    frequency:    1.0650553588
  - # 4
    frequency:    1.5746542910
  - # 5
    frequency:    2.8386821318
  - # 6
    frequency:    3.0983753121
  - # 7
    frequency:    4.0885583237
  - # 8
    frequency:    5.0229296038
  - # 9
    frequency:    6.3118477545
  - # 10
    frequency:    8.9838008892
  - # 11
    frequency:   10.0958345908
  - # 12
    frequency:   10.1757118736
  - # 13
    frequency:   11.6045761256
  - # 14
    frequency:   12.6057648151
  - # 15
    frequency:   24.6275364440
  - # 16
    frequency:   24.7455185689
  - # 17
    frequency:   26.3042745132
  - # 18
    frequency:   37.9696591552

- q-position: [    0.1767677,    0.0000000,    0.0000000 ]
  distance:    0.0571155
  band:
  - # 1
    frequency:   -4.7195323568
  - # 2
    frequency:   -3.4973991547
  - # 3
    frequency:    1.1110253527
  - # 4
    frequency:    1.6137169969
  - # 5
    frequency:    2.8923533975
  - # 6
    frequency:    3.1247503833
  - # 7
    frequency:    4.1576064695
  - # 8
    frequency:    5.0206884647
  - # 9
    frequency:    6.3150994934
  - # 10
    frequency:    8.9805020922
  - # 11
    frequency:   10.1084726198
  - # 12
    frequency:   10.1949038830
  - # 13
    frequency:   11.6794609196
  - # 14