nqpoint: 300    
npath: 3      
segment_nqpoint:
- 100
- 100
- 100
labels:
- [ 'G', 'M' ]
- [ 'M', 'K' ]
- [ 'K', 'G' ]
reciprocal_lattice:
- [   0.27162309,   0.15682167,  -0.00000000 ] # a*
- [   0.00000000,   0.31364333,  -0.00000000 ] # b*
- [   0.00000000,   0.00000000,   0.03888463 ] # c*
natom: 5      
lattice:
- [     3.681572087523117,     0.000000000000000,     0.000000000000000 ] # a
- [    -1.840786043761558,     3.188334953680763,     0.000000000000000 ] # b
- [     0.000000000000001,     0.000000000000003,    25.717101032683292 ] # c
points:
- symbol: C # 1
  coordinates: [  0.000000000000000,  0.000000000000000,  0.507180658300736 ]
  mass: 12.010700
- symbol: Br # 2
  coordinates: [  0.333332985432215,  0.666666983183674,  0.378468749518850 ]
  mass: 79.904000
- symbol: H # 3
  coordinates: [  0.666666984744048,  0.333332985985145,  0.599776592826807 ]
  mass: 1.007940
- symbol: Y # 4
  coordinates: [  0.333332985432215,  0.666666983183674,  0.559804551535181 ]
  mass: 88.905850
- symbol: Y # 5
  coordinates: [  0.666666984744048,  0.333332985985145,  0.454952262852628 ]
  mass: 88.905850

phonon:
- q-position: [    0.0000000,    0.0000000,    0.0000000 ]
  distance:    0.0000000
  band:
  - # 1
    frequency:   -0.0000190509
  - # 2
    frequency:    0.0000000309
  - # 3
    frequency:    0.0000205903
  - # 4
    frequency:    2.7872099742
  - # 5
    frequency:    2.7872099743
  - # 6
    frequency:    3.9763131089
  - # 7
    frequency:    3.9763131090
  - # 8
    frequency:    4.5277582826
  - # 9
    frequency:    7.6349533384
  - # 10
    frequency:    8.7439191211
  - # 11
    frequency:    8.7439191213
  - # 12
    frequency:   16.0676692819
  - # 13
    frequency:   23.4998565965
  - # 14
    frequency:   23.4998565967
  - # 15
    frequency:   24.0532444764

- q-position: [    0.0050505,    0.0000000,    0.0000000 ]
  distance:    0.0015841
  band:
  - # 1
    frequency:    0.0014252666
  - # 2
    frequency:    0.0508508532
  - # 3
    frequency:    0.0901562205
  - # 4
    frequency:    2.7872142572
  - # 5
    frequency:    2.7883916856
  - # 6
    frequency:    3.9762256486
  - # 7
    frequency:    3.9763564968
  - # 8
    frequency:    4.5283612393
  - # 9
    frequency:    7.6341631844
  - # 10
    frequency:    8.7436724516
  - # 11
    frequency:    8.7519002188
  - # 12
    frequency:   16.0655253908
  - # 13
    frequency:   23.4997493909
  - # 14
    frequency:   23.5000054491
  - # 15
    frequency:   24.0535341772

- q-position: [    0.0101010,    0.0000000,    0.0000000 ]
  distance:    0.0031681
  band:
  - # 1
    frequency:    0.0054750337
  - # 2
    frequency:    0.1016791449
  - # 3
    frequency:    0.1802860069
  - # 4
    frequency:    2.7872275979
  - # 5
    frequency:    2.7919280030
  - # 6
    frequency:    3.9759568045
  - # 7
    frequency:    3.9764865919
  - # 8
    frequency:    4.5301719232
  - # 9
    frequency:    7.6318155115
  - # 10
    frequency:    8.7429341415
  - # 11
    frequency:    8.7757494711
  - # 12
    frequency:   16.0590998535
  - # 13
    frequency:   23.4994281176
  - # 14
    frequency:   23.5004185457
  - # 15
    frequency:   24.0544346839

- q-position: [    0.0151515,    0.0000000,    0.0000000 ]
  distance:    0.0047522
  band:
  - # 1
    frequency:    0.0119842357
  - # 2
    frequency:    0.1524623354
  - # 3
    frequency:    0.2703722957
  - # 4
    frequency:    2.7872514684
  - # 5
    frequency:    2.7977928875
  - # 6
    frequency:    3.9754880361
  - # 7
    frequency:    3.9767031888
  - # 8
    frequency:    4.5331952747
  - # 9
    frequency:    7.6279733941
  - # 10
    frequency:    8.7417092803
  - # 11
    frequency:    8.8151919140
  - # 12
    frequency:   16.0484110237
  - # 13
    frequency:   23.4988938067
  - # 14
    frequency:   23.5009961974
  - # 15
    frequency:   24.0560395510

- q-position: [    0.0202020,    0.0000000,    0.0000000 ]
  distance:    0.0063362
  band:
  - # 1
    frequency:    0.0210267829
  - # 2
    frequency:    0.2031779433
  - # 3
    frequency:    0.3603908187
  - # 4
    frequency:    2.7872883139
  - # 5
    frequency:    2.8059442673
  - # 6
    frequency:    3.9747911364
  - # 7
    frequency:    3.9770059443
  - # 8
    frequency:    4.5374379545
  - # 9
    frequency:    7.6227265993
  - # 10
    frequency:    8.7400063286
  - # 11
    frequency:    8.8697907379
  - # 12
    frequency:   16.0334893106
  - # 13
    frequency:   23.4981481709
  - # 14
    frequency:   23.5015748030
  - # 15
    frequency:   24.0585022690

- q-position: [    0.0252525,    0.0000000,    0.0000000 ]
  distance:    0.0079203
  band:
  - # 1
    frequency:    0.0325799775
  - # 2
    frequency:    0.2538035695
  - # 3
    frequency:    0.4503163670
  - # 4
    frequency:    2.7873415397
  - # 5
    frequency:    2.8163258890
  - # 6
    frequency:    3.9738318226
  - # 7
    frequency:    3.9773943764
  - # 8
    frequency:    4.5429062930
  - # 9
    frequency:    7.6161750395
  - # 10
    frequency:    8.7378370851
  - # 11
    frequency:    8.9389726304
  - # 12
    frequency:   16.0143769154
  - # 13
    frequency:   23.4971936004
  - # 14
    frequency:   23.5019314561
  - # 15
    frequency:   24.0620318210

- q-position: [    0.0303030,    0.0000000,    0.0000000 ]
  distance:    0.0095043
  band:
  - # 1
    frequency:    0.0466010230
  - # 2
    frequency:    0.3043169256
  - # 3
    frequency:    0.5401217952
  - # 4
    frequency:    2.7874154937
  - # 5
    frequency:    2.8288696553
  - # 6
    frequency:    3.9725739631
  - # 7
    frequency:    3.9778678636
  - # 8
    frequency:    4.5496039703
  - # 9
    frequency:    7.6084145395
  - # 10
    frequency:    8.7352166405
  - # 11
    frequency:    9.0220536282
  - # 12
    frequency:   15.9911274743
  - # 13
    frequency:   23.4960331548
  - # 14
    frequency:   23.5017917855
  - # 15
    frequency:   24.0668850608

- q-position: [    0.0353535,    0.0000000,    0.0000000 ]
  distance:    0.0110884
  band:
  - # 1
    frequency:    0.0630357158
  - # 2
    frequency:    0.3546958622
  - # 3
    frequency:    0.6297774576
  - # 4
    frequency:    2.7875154441
  - # 5
    frequency:    2.8434982495
  - # 6
    frequency:    3.9709838404
  - # 7
    frequency:    3.9784256443
  - # 8
    frequency:    4.5575298277
  - # 9
    frequency:    7.5995278059
  - # 10
    frequency:    8.7321633173
  - # 11
    frequency:    9.1182619707
  - # 12
    frequency:   15.9638056195
  - # 13
    frequency:   23.4946705532
  - # 14
    frequency:   23.5008419377
  - # 15
    frequency:   24.0733549898

- q-position: [    0.0404040,    0.0000000,    0.0000000 ]
  distance:    0.0126725
  band:
  - # 1
    frequency:    0.0818208644
  - # 2
    frequency:    0.4049183985
  - # 3
    frequency:    0.7192507077
  - # 4
    frequency:    2.7876475532
  - # 5
    frequency:    2.8601278442
  - # 6
    frequency:    3.9690339106
  - # 7
    frequency:    3.9790668164
  - # 8
    frequency:    4.5666761622
  - # 9
    frequency:    7.5895808235
  - # 10
    frequency:    8.7286985960
  - # 11
    frequency:    9.2267570362
  - # 12
    frequency:   15.9324864735
  - # 13
    frequency:   23.4931101622
  - # 14
    frequency:   23.4987451165
  - # 15
    frequency:   24.0817545074

- q-position: [    0.0454545,    0.0000000,    0.0000000 ]
  distance:    0.0142565
  band:
  - # 1
    frequency:    0.1028856549
  - # 2
    frequency:    0.4549627515
  - # 3
    frequency:    0.8085054206
  - # 4
    frequency:    2.7878188471
  - # 5
    frequency:    2.8786707215
  - # 6
    frequency:    3.9667056680
  - # 7
    frequency:    3.9797903391
  - # 8
    frequency:    4.5770277380
  - # 9
    frequency:    7.5786232827
  - # 10
    frequency:    8.7248470265
  - # 11
    frequency:    9.3466450394
  - # 12
    frequency:   15.8972550900
  - # 13
    frequency:   23.4913569817
  - # 14
    frequency:   23.4951620699
  - # 15
    frequency:   24.0923962286

- q-position: [    0.0505051,    0.0000000,    0.0000000 ]
  distance:    0.0158406
  band:
  - # 1
    frequency:    0.1261528082
  - # 2
    frequency:    0.5048073662
  - # 3
    frequency:    0.8975015334
  - # 4
    frequency:    2.7880371817
  - # 5
    frequency:    2.8990376672
  - # 6
    frequency:    3.9639914146
  - # 7
    frequency:    3.9805950357
  - # 8
    frequency:    4.5885616058
  - # 9
    frequency:    7.5666912466
  - # 10
    frequency:    8.7206361252
  - # 11
    frequency:    9.4769926013
  - # 12
    frequency:   15.8582058608
  - # 13
    frequency:   23.4894166286
  - # 14
    frequency:   23.4897735560
  - # 15
    frequency:   24.1055703225

- q-position: [    0.0555556,    0.0000000,    0.0000000 ]
  distance:    0.0174246
  band:
  - # 1
    frequency:    0.1515397031
  - # 2
    frequency:    0.5544309464
  - # 3
    frequency:    0.9861946034
  - # 4
    frequency:    2.7883112066
  - # 5
    frequency:    2.9211400504
  - # 6
    frequency:    3.9608949318
  - # 7
    frequency:    3.9814795991
  - # 8
    frequency:    4.6012476781
  - # 9
    frequency:    7.5538106029
  - # 10
    frequency:    8.7160962565
  - # 11
    frequency:    9.6168390457
  - # 12
    frequency:   15.8154419042
  - # 13
    frequency:   23.4823016380
  - # 14
    frequency:   23.4872953187
  - # 15
    frequency:   24.1215235077

- q-position: [    0.0606061,    0.0000000,    0.0000000 ]
  distance:    0.0190087
  band:
  - # 1
    frequency:    0.1789594851
  - # 2
    frequency:    0.6038124854
  - # 3
    frequency:    1.0745353880
  - # 4
    frequency:    2.7886503258
  - # 5
    frequency:    2.9448915393
  - # 6
    frequency:    3.9574312011
  - # 7
    frequency:    3.9824426002
  - # 8
    frequency:    4.6150499046
  - # 9
    frequency:    7.5400003999
  - # 10
    frequency:    8.7112604994
  - # 11
    frequency:    9.7652078330
  - # 12
    frequency:   15.7690744531
  - # 13
    frequency:   23.4725262962
  - # 14
    frequency:   23.4849998467
  - # 15
    frequency:   24.1404427010

- q-position: [    0.0656566,    0.0000000,    0.0000000 ]
  distance:    0.0205927
  band:
  - # 1
    frequency:    0.2083221463
  - # 2
    frequency:    0.6529312978
  - # 3
    frequency:    1.1624694514
  - # 4
    frequency:    2.7890646560
  - # 5
    frequency:    2.9702094387
  - # 6
    frequency:    3.9536254204
  - # 7
    frequency:    3.9834824997
  - # 8
    frequency:    4.6299278368
  - # 9
    frequency:    7.5252756450
  - # 10
    frequency:    8.7061644976
  - # 11
    frequency:    9.9211171941
  - # 12
    frequency:   15.7192222616
  - # 13
    frequency:   23.4602946945
  - # 14
    frequency:   23.4825375646
  - # 15
    frequency:   24.1624459727

- q-position: [    0.0707071,    0.0000000,    0.0000000 ]
  distance:    0.0221768
  band:
  - # 1
    frequency:    0.2395355500
  - # 2
    frequency:    0.7017670499
  - # 3
    frequency:    1.2499368051
  - # 4
    frequency:    2.7895649851
  - # 5
    frequency:    2.9970156570
  - # 6
    frequency:    3.9495115934
  - # 7
    frequency:    3.9845976644
  - # 8
    frequency:    4.6458383592
  - # 9
    frequency:    7.5096494496
  - # 10
    frequency:    8.7008462938
  - # 11
    frequency:   10.0835898432
  - # 12
    frequency:   15.6660110465
  - # 13
    frequency:   23.4455222455
  - # 14
    frequency:   23.4799163577
  - # 15
    frequency:   24.1875816507

- q-position: [    0.0757576,    0.0000000,    0.0000000 ]
  distance:    0.0237609
  band:
  - # 1
    frequency:    0.2725063766
  - # 2
    frequency:    0.7502997920
  - # 3
    frequency:    1.3368715932
  - # 4
    frequency:    2.7901627273
  - # 5
    frequency:    3.0252373223
  - # 6
    frequency:    3.9451309548
  - # 7
    frequency:    3.9857863887
  - # 8
    frequency:    4.6627373991
  - # 9
    frequency:    7.4931345725
  - # 10
    frequency:    8.6953461478
  - # 11
    frequency:   10.2516616065
  - # 12
    frequency:   15.6095729825
  - # 13
    frequency:   23.4281866050
  - # 14
    frequency:   23.4771446198
  - # 15
    frequency:   24.2158344391

- q-position: [    0.0808081,    0.0000000,    0.0000000 ]
  distance:    0.0253449
  band:
  - # 1
    frequency:    0.3071409732
  - # 2
    frequency:    0.7985099880
  - # 3
    frequency:    1.4232018341
  - # 4
    frequency:    2.7908698801
  - # 5
    frequency:    3.0548070646
  - # 6
    frequency:    3.9405304494
  - # 7
    frequency:    3.9870469199
  - # 8
    frequency:    4.6805814729
  - # 9
    frequency:    7.4757444716
  - # 10
    frequency:    8.6897063379
  - # 11
    frequency:   10.4243888359
  - # 12
    frequency:   15.5500462709
  - # 13
    frequency:   23.4083170568
  - # 14
    frequency:   23.4742312261
  - # 15
    frequency:   24.2471360822

- q-position: [    0.0858586,    0.0000000,    0.0000000 ]
  distance:    0.0269290
  band:
  - # 1
    frequency:    0.3433460950
  - # 2
    frequency:    0.8463785460
  - # 3
    frequency:    1.5088492361
  - # 4
    frequency:    2.7916989791
  - # 5
    frequency:    3.0856629796
  - # 6
    frequency:    3.9357614271
  - # 7
    frequency:    3.9883774913
  - # 8
    frequency:    4.6993289834
  - # 9
    frequency:    7.4574939861
  - # 10
    frequency:    8.6839709465
  - # 11
    frequency:   10.6008545411
  - # 12
    frequency:   15.4875748044
  - # 13
    frequency:   23.3859820598
  - # 14
    frequency:   23.4711855055
  - # 15
    frequency:   24.2813778020

- q-position: [    0.0909091,    0.0000000,    0.0000000 ]
  distance:    0.0285130
  band:
  - # 1
    frequency:    0.3810295342
  - # 2
    frequency:    0.8938868470
  - # 3
    frequency:    1.5937291072
  - # 4
    frequency:    2.7926630542
  - # 5
    frequency:    3.1177482679
  - # 6
    frequency:    3.9308786651
  - # 7
    frequency:    3.9897763594
  - # 8
    frequency:    4.7189412333
  - # 9
    frequency:    7.4383997545
  - # 10
    frequency:    8.6781856292
  - # 11
    frequency:   10.7801732376
  - # 12
    frequency:   15.4223079540
  - # 13
    frequency:   23.3612772143
  - # 14
    frequency:   23.4680172107
  - # 15
    frequency:   24.3184222527

- q-position: [    0.0959596,    0.0000000,    0.0000000 ]
  distance:    0.0300971
  band:
  - # 1
    frequency:    0.4201006377
  - # 2
    frequency:    0.9410167719
  - # 3
    frequency:    1.6777503834
  - # 4
    frequency:    2.7937755857
  - # 5
    frequency:    3.1510105284
  - # 6
    frequency:    3.9259397887
  - # 7
    frequency:    3.9912418481
  - # 8
    frequency:    4.7393831553
  - # 9
    frequency:    7.4184804534
  - # 10
    frequency:    8.6723973689
  - # 11
    frequency:   10.9614945499
  - # 12
    frequency:   15.3544005152
  - # 13
    frequency:   23.3343150153
  - # 14
    frequency:   23.4647364871
  - # 15
    frequency:   24.3581136290

- q-position: [    0.1010101,    0.0000000,    0.0000000 ]
  distance:    0.0316811
  band:
  - # 1
    frequency:    0.4604707186
  - # 2
    frequency:    0.9877507273
  - # 3
    frequency:    1.7608158048
  - # 4
    frequency:    2.7950504616
  - # 5
    frequency:    3.1854006513
  - # 6
    frequency:    3.9210051497
  - # 7
    frequency:    3.9927723986
  - # 8
    frequency:    4.7606237839
  - # 9
    frequency:    7.3977569184
  - # 10
    frequency:    8.6666542150
  - # 11
    frequency:   11.1440056307
  - # 12
    frequency:   15.2840128630
  - # 13
    frequency:   23.3052169250
  - # 14
    frequency:   23.4613538414
  - # 15
    frequency:   24.4002854011

- q-position: [    0.1060606,    0.0000000,    0.0000000 ]
  distance:    0.0332652
  band:
  - # 1
    frequency:    0.5020533697
  - # 2
    frequency:    1.0340716685
  - # 3
    frequency:    1.8428222727
  - # 4
    frequency:    2.7965019349
  - # 5
    frequency:    3.2208712224
  - # 6
    frequency:    3.9161382223
  - # 7
    frequency:    3.9943666250
  - # 8
    frequency:    4.7826365067
  - # 9
    frequency:    7.3762521903
  - # 10
    frequency:    8.6610050086
  - # 11
    frequency:   11.3269324517
  - # 12
    frequency:   15.2113113893
  - # 13
    frequency:   23.2741077138
  - # 14
    frequency:   23.4578801079
  - # 15
    frequency:   24.4447657384

- q-position: [    0.1111111,    0.0000000,    0.0000000 ]
  distance:    0.0348493
  band:
  - # 1
    frequency:    0.5447646901
  - # 2
    frequency:    1.0799631200
  - # 3
    frequency:    1.9236614220
  - # 4
    frequency:    2.7981445823
  - # 5
    frequency:    3.2573742968
  - # 6
    frequency:    3.9114066128
  - # 7
    frequency:    3.9960233746
  - # 8
    frequency:    4.8053991363
  - # 9
    frequency:    7.3539915200
  - # 10
    frequency:    8.6554990959
  - # 11
    frequency:   11.5095399829
  - # 12
    frequency:   15.1364693335
  - # 13
    frequency:   23.2411117158
  - # 14
    frequency:   23.4543264145
  - # 15
    frequency:   24.4913809844

- q-position: [    0.1161616,    0.0000000,    0.0000000 ]
  distance:    0.0364333
  band:
  - # 1
    frequency:    0.5885234349
  - # 2
    frequency:    1.1254091927
  - # 3
    frequency:    2.0032204437
  - # 4
    frequency:    2.7999932638
  - # 5
    frequency:    3.2948583235
  - # 6
    frequency:    3.9068838449
  - # 7
    frequency:    3.9977417930
  - # 8
    frequency:    4.8288938397
  - # 9
    frequency:    7.3310023493
  - # 10
    frequency:    8.6501860304
  - # 11
    frequency:   11.6911312118
  - # 12
    frequency:   15.0596681818
  - # 13
    frequency:   23.2063505499
  - # 14
    frequency:   23.4507041478
  - # 15
    frequency:   24.5399576479

- q-position: [    0.1212121,    0.0000000,    0.0000000 ]
  distance:    0.0380174
  band:
  - # 1
    frequency:    0.6332511002
  - # 2
    frequency:    1.1703945983
  - # 3
    frequency:    2.0813831884
  - # 4
    frequency:    2.8020630823
  - # 5
    frequency:    3.3332638867
  - # 6
    frequency:    3.9026522059
  - # 7
    frequency:    3.9995213914
  - # 8
    frequency:    4.8531069569
  - # 9
    frequency:    7.3073142842
  - # 10
    frequency:    8.6451152663
  - # 11
    frequency:   11.8710448306
  - # 12
    frequency:   14.9810999171
  - # 13
    frequency:   23.1699418822
  - # 14
    frequency:   23.4470249167
  - # 15
    frequency:   24.5903233450

- q-position: [    0.1262626,    0.0000000,    0.0000000 ]
  distance:    0.0396014
  band:
  - # 1
    frequency:    0.6788719533
  - # 2
    frequency:    1.2149046593
  - # 3
    frequency:    2.1580315707
  - # 4
    frequency:    2.8043693439
  - # 5
    frequency:    3.3725177363
  - # 6
    frequency:    3.8988071379
  - # 7
    frequency:    4.0013621164
  - # 8
    frequency:    4.8780287329
  - # 9
    frequency:    7.2829590682
  - # 10
    frequency:    8.6403358454
  - # 11
    frequency:   12.0486512210
  - # 12
    frequency:   14.9009705847
  - # 13
    frequency:   23.1319988835
  - # 14
    frequency:   23.4433005161
  - # 15
    frequency:   24.6423070574

- q-position: [    0.1313131,    0.0000000,    0.0000000 ]
  distance:    0.0411855
  band:
  - # 1
    frequency:    0.7253130190
  - # 2
    frequency:    1.2589253157
  - # 3
    frequency:    2.2330472776
  - # 4
    frequency:    2.8069275182
  - # 5
    frequency:    3.4125242576
  - # 6
    frequency:    3.8954640069
  - # 7
    frequency:    4.0032644193
  - # 8
    frequency:    4.9036529777
  - # 9
    frequency:    7.2579705635
  - # 10
    frequency:    8.6358960797
  - # 11
    frequency:   12.2233460147
  - # 12
    frequency:   14.8195059756
  - # 13
    frequency:   23.0926301217
  - # 14
    frequency:   23.4395428891
  - # 15
    frequency:   24.6957389793

- q-position: [    0.1363636,    0.0000000,    0.0000000 ]
  distance:    0.0427695
  band:
  - # 1
    frequency:    0.7725040306
  - # 2
    frequency:    1.3024431268
  - # 3
    frequency:    2.3063137599
  - # 4
    frequency:    2.8097531976
  - # 5
    frequency:    3.4531529731
  - # 6
    frequency:    3.8927686649
  - # 7
    frequency:    4.0052293236
  - # 8
    frequency:    4.9299766628
  - # 9
    frequency:    7.2323847434
  - # 10
    frequency:    8.6318432329
  - # 11
    frequency:   12.3945398781
  - # 12
    frequency:   14.7369608424
  - # 13
    frequency:   23.0519397052
  - # 14
    frequency:   23.4357640893
  - # 15
    frequency:   24.7504501539

- q-position: [    0.1414141,    0.0000000,    0.0000000 ]
  distance:    0.0443536
  band:
  - # 1
    frequency:    0.8203773529
  - # 2
    frequency:    1.3454452699
  - # 3
    frequency:    2.3777184506
  - # 4
    frequency:    2.8128620563
  - # 5
    frequency:    3.4942197178
  - # 6
    frequency:    3.8909142142
  - # 7
    frequency:    4.0072584888
  - # 8
    frequency:    4.9569994541
  - # 9
    frequency:    7.2062397005
  - # 10
    frequency:    8.6282232036
  - # 11
    frequency:   12.5616419565
  - # 12
    frequency:   14.6536342614
  - # 13
    frequency:   23.0100275581
  - # 14
    frequency:   23.4319762419
  - # 15
    frequency:   24.8062720338

- q-position: [    0.1464646,    0.0000000,    0.0000000 ]
  distance:    0.0459377
  band:
  - # 1
    frequency:    0.8688678857
  - # 2
    frequency:    1.3879195335
  - # 3
    frequency:    2.4471551190
  - # 4
    frequency:    2.8162698072
  - # 5
    frequency:    3.5354575792
  - # 6
    frequency:    3.8901679692
  - # 7
    frequency:    4.0093542671
  - # 8
    frequency:    4.9847231773
  - # 9
    frequency:    7.1795756743
  - # 10
    frequency:    8.6250802135
  - # 11
    frequency:   12.7240319703
  - # 12
    frequency:   14.5698961863
  - # 13
    frequency:   22.9669897465
  - # 14
    frequency:   23.4281915048
  - # 15
    frequency:   24.8630360577

- q-position: [    0.1515152,    0.0000000,    0.0000000 ]
  distance:    0.0475217
  band:
  - # 1
    frequency:    0.9179129522
  - # 2
    frequency:    1.4298543078
  - # 3
    frequency:    2.5145262286
  - # 4
    frequency:    2.8199921561
  - # 5
    frequency:    3.5764715910
  - # 6
    frequency:    3.8909147617
  - # 7
    frequency:    4.0115197529
  - # 8
    frequency:    5.0131512059
  - # 9
    frequency:    7.1524351010
  - # 10
    frequency:    8.6224565040
  - # 11
    frequency:   12.8810107489
  - # 12
    frequency:   14.4862354343
  - # 13
    frequency:   22.9229188113
  - # 14
    frequency:   23.4244220290
  - # 15
    frequency:   24.9205733020

- q-position: [    0.1565657,    0.0000000,    0.0000000 ]
  distance:    0.0491058
  band:
  - # 1
    frequency:    0.9674521779
  - # 2
    frequency:    1.4712385706
  - # 3
    frequency:    2.5797451356
  - # 4
    frequency:    2.8240447533
  - # 5
    frequency:    3.6166700757
  - # 6
    frequency:    3.8937238600
  - # 7
    frequency:    4.0137588193
  - # 8
    frequency:    5.0422877585
  - # 9
    frequency:    7.1248626916
  - # 10
    frequency:    8.6203920443
  - # 11
    frequency:   13.0317072183
  - # 12
    frequency:   14.4033511121
  - # 13
    frequency:   22.8779040806
  - # 14
    frequency:   23.4206799190
  - # 15
    frequency:   24.9787142429

- q-position: [    0.1616162,    0.0000000,    0.0000000 ]
  distance:    0.0506898
  band:
  - # 1
    frequency:    1.0174273641
  - # 2
    frequency:    1.5120618697
  - # 3
    frequency:    2.6427379490
  - # 4
    frequency:    2.8284431413
  - # 5
    frequency:    3.6551731815
  - # 6
    frequency:    3.8994391403
  - # 7
    frequency:    4.0160761431
  - # 8
    frequency:    5.0721370892
  - # 9
    frequency:    7.0969055409
  - # 10
    frequency:    8.6189242557
  - # 11
    frequency:   13.1748917792
  - # 12
    frequency:   14.3223375566
  - # 13
    frequency:   22.8320319492
  - # 14
    frequency:   23.4169771926
  - # 15
    frequency:   25.0372886494

- q-position: [    0.1666667,    0.0000000,    0.0000000 ]
  distance:    0.0522739
  band:
  - # 1
    frequency:    1.0677823592
  - # 2
    frequency:    1.5523143027
  - # 3
    frequency:    2.7034448758
  - # 4
    frequency:    2.8332026974
  - # 5
    frequency:    3.6907399089
  - # 6
    frequency:    3.9092513974
  - # 7
    frequency:    4.0184772129
  - # 8
    frequency:    5.1027025558
  - # 9
    frequency:    7.0686132773
  - # 10
    frequency:    8.6180877533
  - # 11
    frequency:   13.3085765929
  - # 12
    frequency:   14.2450822871
  - # 13
    frequency:   22.7853861199
  - # 14
    frequency:   23.4133257405
  - # 15
    frequency:   25.0961256172

- q-position: [    0.1717172,    0.0000000,    0.0000000 ]
  distance:    0.0538579
  band:
  - # 1
    frequency:    1.1184629307
  - # 2
    frequency:    1.5919864943
  - # 3
    frequency:    2.7618209088
  - # 4
    frequency:    2.8383385714
  - # 5
    frequency:    3.7218632102
  - # 6
    frequency:    3.9246033567
  - # 7
    frequency:    4.0209683204
  - # 8
    frequency:    5.1339855473
  - # 9
    frequency:    7.0400382585
  - # 10
    frequency:    8.6179141107
  - # 11
    frequency:   13.4291194179
  - # 12
    frequency:   14.1751603352
  - # 13
    frequency:   22.7380478076
  - # 14
    frequency:   23.4097372863
  - # 15
    frequency:   25.1550537437

- q-position: [    0.1767677,    0.0000000,    0.0000000 ]
  distance:    0.0554420
  band:
  - # 1
    frequency:    1.1694166402
  - # 2
    frequency:    1.6310695715
  - # 3
    frequency:    2.8178357750
  - # 4
    frequency:    2.8438656167
  - # 5
    frequency:    3.7472619408
  - # 6
    frequency:    3.9466986904
  - # 7
    frequency:    4.0235565314
  - # 8
    frequency:    5.1659842585
  - # 9
    frequency:    7.0112358258
  - # 10
    frequency:    8.6184316492
  - # 11
    frequency:   13.5293130146
  - # 12
    frequency:   14.1197429435
  - # 13
    frequency:   22.6900959082
  - # 14
    frequency:   23.4062233460
  - # 15
    frequency:   25.2139014422

- q-position: [    0.1818182,    0.0000000,    0.0000000 ]
  distance:    0.0570261
  band:
  - # 1
    frequency:    1.2205927225
  - # 2
    frequency:    1.6695551391
  - # 3
    frequency:    2.8497983149
  - # 4
    frequency:    2.8714731355
  - # 5
    frequency:    3.7666299977
  - # 6
    frequency:    3.9757547054
  - # 7
    frequency:    4.0262496381
  - # 8
    frequency:    5.1986922966
  - # 9
    frequency:    6.9822646299
  - # 10
    frequency:    8.6196652541
  - # 11
    frequency:   13.5959685552
  - # 12
    frequency:   14.0920122056
  - # 13
    frequency:   22.6416071372
  - # 14
    frequency:   23.4027951878
  - # 15
    frequency:   25.2724973841

- q-position: [    0.1868687,    0.0000000,    0.0000000 ]
  distance:    0.0586101
  band:
  - # 1
    frequency:    1.2719419706
  - # 2
    frequency:    1.7074352537
  - # 3
    frequency:    2.8561506930
  - # 4
    frequency:    2.9227291209
  - # 5
    frequency:    3.7808491074
  - # 6
    frequency:    4.0107921456
  - # 7
    frequency:    4.0290560877
  - # 8
    frequency:    5.2320971173
  - # 9
    frequency:    6.9531870444
  - # 10
    frequency:    8.6216362215
  - # 11
    frequency:   13.6148153309
  - # 12
    frequency:   14.1062593648
  - # 13
    frequency:   22.5926561428
  - # 14
    frequency:   23.3994637916
  - # 15
    frequency:   25.3306710603

- q-position: [    0.1919192,    0.0000000,    0.0000000 ]
  distance:    0.0601942
  band:
  - # 1
    frequency:    1.3234166274
  - # 2
    frequency:    1.7447023999
  - # 3
    frequency:    2.8629362327
  - # 4
    frequency:    2.9716103600
  - # 5
    frequency:    3.7913796465
  - # 6
    frequency:    4.0319848916
  - # 7
    frequency:    4.0502475402
  - # 8
    frequency:    5.2661782844
  - # 9
    frequency:    6.9240696892
  - # 10
    frequency:    8.6243621358
  - # 11
    frequency:   13.5881296608
  - # 12
    frequency:   14.1602538778
  - # 13
    frequency:   22.5433155973
  - # 14
    frequency:   23.3962398099
  - # 15
    frequency:   25.3882534437

- q-position: [    0.1969697,    0.0000000,    0.0000000 ]
  distance:    0.0617782
  band:
  - # 1
    frequency:    1.3749702848
  - # 2
    frequency:    1.7813494680
  - # 3
    frequency:    2.8701677720
  - # 4
    frequency:    3.0181317267
  - # 5
    frequency:    3.7995895020
  - # 6
    frequency:    4.0350455120
  - # 7
    frequency:    4.0926478369
  - # 8
    frequency:    5.3009055605
  - # 9
    frequency:    6.8949840901
  - # 10
    frequency:    8.6278567805
  - # 11
    frequency:   13.5329643118
  - # 12
    frequency:   14.2370119473
  - # 13
    frequency:   22.4936562726
  - # 14
    frequency:   23.3931335277
  - # 15
    frequency:   25.4450777405

- q-position: [    0.2020202,    0.0000000,    0.0000000 ]
  distance:    0.0633623
  band:
  - # 1
    frequency:    1.4265577905
  - # 2
    frequency:    1.8173697349
  - # 3
    frequency:    2.8778573985
  - # 4
    frequency:    3.0623140639
  - # 5
    frequency:    3.8065029837
  - # 6
    frequency:    4.0382477283
  - # 7
    frequency:    4.1368650021
  - # 8
    frequency:    5.3362368356
  - # 9
    frequency:    6.8660075087
  - # 10
    frequency:    8.6321300826
  - # 11
    frequency:   13.4632268872
  - # 12
    frequency:   14.3227160762
  - # 13
    frequency:   22.4437471031
  - # 14
    frequency:   23.3901548239
  - # 15
    frequency:   25.5009802087

- q-position: [    0.2070707,    0.0000000,    0.0000000 ]
  distance:    0.0649463
  band:
  - # 1
    frequency:    1.4781351620
  - # 2
    frequency:    1.8527568495
  - # 3
    frequency:    2.8860163351
  - # 4
    frequency:    3.1041821506
  - # 5
    frequency:    3.8128261920
  - # 6
    frequency:    4.0416014853
  - # 7
    frequency:    4.1820938641
  - # 8
    frequency:    5.3721159058
  - # 9
    frequency:    6.8372239834
  - # 10
    frequency:    8.6371880893
  - # 11
    frequency:   13.3861935255
  - # 12
    frequency:   14.4101993205
  - # 13
    frequency:   22.3936552390
  - # 14
    frequency:   23.3873131327
  - # 15
    frequency:   25.5558010274

- q-position: [    0.2121212,    0.0000000,    0.0000000 ]
  distance:    0.0665304
  band:
  - # 1
    frequency:    1.5296595094
  - # 2