nqpoint: 300    
npath: 3      
segment_nqpoint:
- 100
- 100
- 100
labels:
- [ 'G', 'M' ]
- [ 'M', 'K' ]
- [ 'K', 'G' ]
reciprocal_lattice:
- [   0.31443540,   0.18153936,   0.00000000 ] # a*
- [   0.00000000,   0.36307872,   0.00000000 ] # b*
- [   0.00000000,   0.00000000,   0.04437277 ] # c*
natom: 5      
lattice:
- [     3.180303511588588,     0.000000000000000,     0.000000000000000 ] # a
- [    -1.590151755794294,     2.754223632792122,     0.000000000000000 ] # b
- [     0.000000000000000,     0.000000000000000,    22.536345868757678 ] # c
points:
- symbol: H # 1
  coordinates: [  0.333332985432215,  0.666666983183674,  0.600645106690665 ]
  mass: 1.007940
- symbol: H # 2
  coordinates: [  0.666666984744047,  0.333332985985145,  0.399354893309335 ]
  mass: 1.007940
- symbol: Hf # 3
  coordinates: [  0.333332985432215,  0.666666983183674,  0.444591374205998 ]
  mass: 178.490000
- symbol: Hf # 4
  coordinates: [  0.666666984744047,  0.333332985985145,  0.555408625182305 ]
  mass: 178.490000
- symbol: N # 5
  coordinates: [  0.000000000000000,  0.000000000000000,  0.500000040982907 ]
  mass: 14.006700

phonon:
- q-position: [    0.0000000,    0.0000000,    0.0000000 ]
  distance:    0.0000000
  band:
  - # 1
    frequency:   -0.0000146388
  - # 2
    frequency:   -0.0000002399
  - # 3
    frequency:    0.0000194802
  - # 4
    frequency:    2.8849365207
  - # 5
    frequency:    2.8849365207
  - # 6
    frequency:    5.5384786620
  - # 7
    frequency:   14.4953774025
  - # 8
    frequency:   17.3570802206
  - # 9
    frequency:   17.3570802206
  - # 10
    frequency:   26.4719523252
  - # 11
    frequency:   27.1878432410
  - # 12
    frequency:   36.1652548969
  - # 13
    frequency:   36.1652548971
  - # 14
    frequency:   40.1787111990
  - # 15
    frequency:   40.1787111992

- q-position: [    0.0050505,    0.0000000,    0.0000000 ]
  distance:    0.0018337
  band:
  - # 1
    frequency:    0.0011984386
  - # 2
    frequency:    0.0606402868
  - # 3
    frequency:    0.1127715921
  - # 4
    frequency:    2.8842118459
  - # 5
    frequency:    2.8850899699
  - # 6
    frequency:    5.5371043675
  - # 7
    frequency:   14.4950366344
  - # 8
    frequency:   17.3564240559
  - # 9
    frequency:   17.3566678116
  - # 10
    frequency:   26.4735978768
  - # 11
    frequency:   27.1889649932
  - # 12
    frequency:   36.1659146486
  - # 13
    frequency:   36.1659840537
  - # 14
    frequency:   40.1773643280
  - # 15
    frequency:   40.1780126634

- q-position: [    0.0101010,    0.0000000,    0.0000000 ]
  distance:    0.0036675
  band:
  - # 1
    frequency:    0.0047946639
  - # 2
    frequency:    0.1212708546
  - # 3
    frequency:    0.2253936304
  - # 4
    frequency:    2.8820455458
  - # 5
    frequency:    2.8855518278
  - # 6
    frequency:    5.5329836628
  - # 7
    frequency:   14.4940125119
  - # 8
    frequency:   17.3544608368
  - # 9
    frequency:   17.3554310483
  - # 10
    frequency:   26.4785299358
  - # 11
    frequency:   27.1923267280
  - # 12
    frequency:   36.1678931447
  - # 13
    frequency:   36.1681699914
  - # 14
    frequency:   40.1733261220
  - # 15
    frequency:   40.1759168787

- q-position: [    0.0151515,    0.0000000,    0.0000000 ]
  distance:    0.0055012
  band:
  - # 1
    frequency:    0.0107913489
  - # 2
    frequency:    0.1818821184
  - # 3
    frequency:    0.3377162445
  - # 4
    frequency:    2.8784607443
  - # 5
    frequency:    2.8863265895
  - # 6
    frequency:    5.5261231312
  - # 7
    frequency:   14.4922996458
  - # 8
    frequency:   17.3512062864
  - # 9
    frequency:   17.3533713335
  - # 10
    frequency:   26.4867347310
  - # 11
    frequency:   27.1979178869
  - # 12
    frequency:   36.1711881057
  - # 13
    frequency:   36.1718081287
  - # 14
    frequency:   40.1666037971
  - # 15
    frequency:   40.1724233331

- q-position: [    0.0202020,    0.0000000,    0.0000000 ]
  distance:    0.0073349
  band:
  - # 1
    frequency:    0.0191927601
  - # 2
    frequency:    0.2424647584
  - # 3
    frequency:    0.4495889019
  - # 4
    frequency:    2.8734958155
  - # 5
    frequency:    2.8874216285
  - # 6
    frequency:    5.5165339010
  - # 7
    frequency:   14.4898892701
  - # 8
    frequency:   17.3466862724
  - # 9
    frequency:   17.3504910427
  - # 10
    frequency:   26.4981893652
  - # 11
    frequency:   27.2057208940
  - # 12
    frequency:   36.1757957192
  - # 13
    frequency:   36.1768908812
  - # 14
    frequency:   40.1572093633
  - # 15
    frequency:   40.1675312390

- q-position: [    0.0252525,    0.0000000,    0.0000000 ]
  distance:    0.0091687
  band:
  - # 1
    frequency:    0.0300044773
  - # 2
    frequency:    0.3030098331
  - # 3
    frequency:    0.5608600315
  - # 4
    frequency:    2.8672041354
  - # 5
    frequency:    2.8888470230
  - # 6
    frequency:    5.5042318849
  - # 7
    frequency:   14.4867695618
  - # 8
    frequency:   17.3409363061
  - # 9
    frequency:   17.3467935799
  - # 10
    frequency:   26.5128618964
  - # 11
    frequency:   27.2157111890
  - # 12
    frequency:   36.1817106202
  - # 13
    frequency:   36.1834077371
  - # 14
    frequency:   40.1451596000
  - # 15
    frequency:   40.1612396317

- q-position: [    0.0303030,    0.0000000,    0.0000000 ]
  distance:    0.0110024
  band:
  - # 1
    frequency:    0.0432330064
  - # 2
    frequency:    0.3635088735
  - # 3
    frequency:    0.6713765826
  - # 4
    frequency:    2.8596537328
  - # 5
    frequency:    2.8906153215
  - # 6
    frequency:    5.4892381265
  - # 7
    frequency:   14.4829260790
  - # 8
    frequency:   17.3340008540
  - # 9
    frequency:   17.3422834527
  - # 10
    frequency:   26.5307114511
  - # 11
    frequency:   27.2278572740
  - # 12
    frequency:   36.1889258654
  - # 13
    frequency:   36.1913453628
  - # 14
    frequency:   40.1304760205
  - # 15
    frequency:   40.1535475040

- q-position: [    0.0353535,    0.0000000,    0.0000000 ]
  distance:    0.0128361
  band:
  - # 1
    frequency:    0.0588852876
  - # 2
    frequency:    0.4239539506
  - # 3
    frequency:    0.7809834978
  - # 4
    frequency:    2.8509268394
  - # 5
    frequency:    2.8927412532
  - # 6
    frequency:    5.4715792653
  - # 7
    frequency:   14.4783423080
  - # 8
    frequency:   17.3259324734
  - # 9
    frequency:   17.3369663679
  - # 10
    frequency:   26.5516883679
  - # 11
    frequency:   27.2421207732
  - # 12
    frequency:   36.1974328999
  - # 13
    frequency:   36.2006877364
  - # 14
    frequency:   40.1131848279
  - # 15
    frequency:   40.1444539759

- q-position: [    0.0404040,    0.0000000,    0.0000000 ]
  distance:    0.0146698
  band:
  - # 1
    frequency:    0.0769681080
  - # 2
    frequency:    0.4843377126
  - # 3
    frequency:    0.8895230717
  - # 4
    frequency:    2.8411193396
  - # 5
    frequency:    2.8952413957
  - # 6
    frequency:    5.4512881359
  - # 7
    frequency:   14.4730003077
  - # 8
    frequency:   17.3167907875
  - # 9
    frequency:   17.3308493414
  - # 10
    frequency:   26.5757343712
  - # 11
    frequency:   27.2584565076
  - # 12
    frequency:   36.2072215188
  - # 13
    frequency:   36.2114163074
  - # 14
    frequency:   40.0933168607
  - # 15
    frequency:   40.1339584961

- q-position: [    0.0454545,    0.0000000,    0.0000000 ]
  distance:    0.0165036
  band:
  - # 1
    frequency:    0.0974874243
  - # 2
    frequency:    0.5446533879
  - # 3
    frequency:    0.9968341595
  - # 4
    frequency:    2.8303401215
  - # 5
    frequency:    2.8981338071
  - # 6
    frequency:    5.4284045220
  - # 7
    frequency:   14.4668814355
  - # 8
    frequency:   17.3066413207
  - # 9
    frequency:   17.3239408240
  - # 10
    frequency:   26.6027827723
  - # 11
    frequency:   27.2768125842
  - # 12
    frequency:   36.2182798239
  - # 13
    frequency:   36.2235101822
  - # 14
    frequency:   40.0709075287
  - # 15
    frequency:   40.1220610722

- q-position: [    0.0505051,    0.0000000,    0.0000000 ]
  distance:    0.0183373
  band:
  - # 1
    frequency:    0.1204476061
  - # 2
    frequency:    0.6048947515
  - # 3
    frequency:    1.1027511979
  - # 4
    frequency:    2.8187103332
  - # 5
    frequency:    2.9014376365
  - # 6
    frequency:    5.4029760928
  - # 7
    frequency:   14.4599671373
  - # 8
    frequency:   17.2955542152
  - # 9
    frequency:   17.3162508369
  - # 10
    frequency:   26.6327586976
  - # 11
    frequency:   27.2971305005
  - # 12
    frequency:   36.2305941771
  - # 13
    frequency:   36.2369463304
  - # 14
    frequency:   40.0459967398
  - # 15
    frequency:   40.1087625261

- q-position: [    0.0555556,    0.0000000,    0.0000000 ]
  distance:    0.0201710
  band:
  - # 1
    frequency:    0.1458506118
  - # 2
    frequency:    0.6650560559
  - # 3
    frequency:    1.2071029842
  - # 4
    frequency:    2.8063625516
  - # 5
    frequency:    2.9051727243
  - # 6
    frequency:    5.3750595537
  - # 7
    frequency:   14.4522397811
  - # 8
    frequency:   17.2836028558
  - # 9
    frequency:   17.3077911154
  - # 10
    frequency:   26.6655793416
  - # 11
    frequency:   27.3193452661
  - # 12
    frequency:   36.2441491506
  - # 13
    frequency:   36.2516998127
  - # 14
    frequency:   40.0186288177
  - # 15
    frequency:   40.0940647710

- q-position: [    0.0606061,    0.0000000,    0.0000000 ]
  distance:    0.0220048
  band:
  - # 1
    frequency:    0.1736951103
  - # 2
    frequency:    0.7251319246
  - # 3
    frequency:    1.3097111559
  - # 4
    frequency:    2.7934398769
  - # 5
    frequency:    2.9093592031
  - # 6
    frequency:    5.3447220552
  - # 7
    frequency:   14.4436835118
  - # 8
    frequency:   17.2708624323
  - # 9
    frequency:   17.2985752581
  - # 10
    frequency:   26.7011542428
  - # 11
    frequency:   27.3433855411
  - # 12
    frequency:   36.2589274762
  - # 13
    frequency:   36.2677440236
  - # 14
    frequency:   39.9888524104
  - # 15
    frequency:   40.0779711047

- q-position: [    0.0656566,    0.0000000,    0.0000000 ]
  distance:    0.0238385
  band:
  - # 1
    frequency:    0.2039755659
  - # 2
    frequency:    0.7851172140
  - # 3
    frequency:    1.4103882899
  - # 4
    frequency:    2.7800949721
  - # 5
    frequency:    2.9140171120
  - # 6
    frequency:    5.3120429079
  - # 7
    frequency:   14.4342851020
  - # 8
    frequency:   17.2574084700
  - # 9
    frequency:   17.2886188757
  - # 10
    frequency:   26.7393855796
  - # 11
    frequency:   27.3691737941
  - # 12
    frequency:   36.2749099948
  - # 13
    frequency:   36.2850509473
  - # 14
    frequency:   39.9567203903
  - # 15
    frequency:   40.0604865177

- q-position: [    0.0707071,    0.0000000,    0.0000000 ]
  distance:    0.0256722
  band:
  - # 1
    frequency:    0.2366813032
  - # 2
    frequency:    0.8450068445
  - # 3
    frequency:    1.5089355270
  - # 4
    frequency:    2.7664890792
  - # 5
    frequency:    2.9191660346
  - # 6
    frequency:    5.2771156695
  - # 7
    frequency:   14.4240347741
  - # 8
    frequency:   17.2433153610
  - # 9
    frequency:   17.2779397391
  - # 10
    frequency:   26.7801684866
  - # 11
    frequency:   27.3966264801
  - # 12
    frequency:   36.2920756061
  - # 13
    frequency:   36.3035914230
  - # 14
    frequency:   39.9222897454
  - # 15
    frequency:   40.0416180085

- q-position: [    0.0757576,    0.0000000,    0.0000000 ]
  distance:    0.0275060
  band:
  - # 1
    frequency:    0.2717955737
  - # 2
    frequency:    0.9047956087
  - # 3
    frequency:    1.6051395954
  - # 4
    frequency:    2.7527910595
  - # 5
    frequency:    2.9248247686
  - # 6
    frequency:    5.2400506740
  - # 7
    frequency:   14.4129269666
  - # 8
    frequency:   17.2286549319
  - # 9
    frequency:   17.2665579210
  - # 10
    frequency:   26.8233913859
  - # 11
    frequency:   27.4256542401
  - # 12
    frequency:   36.3104012212
  - # 13
    frequency:   36.3233354127
  - # 14
    frequency:   39.8856214630
  - # 15
    frequency:   40.0213749053

- q-position: [    0.0808081,    0.0000000,    0.0000000 ]
  distance:    0.0293397
  band:
  - # 1
    frequency:    0.3092946454
  - # 2
    frequency:    0.9644779604
  - # 3
    frequency:    1.6987690757
  - # 4
    frequency:    2.7391765299
  - # 5
    frequency:    2.9310110361
  - # 6
    frequency:    5.2009780902
  - # 7
    frequency:   14.4009610201
  - # 8
    frequency:   17.2134950788
  - # 9
    frequency:   17.2544959280
  - # 10
    frequency:   26.8689363339
  - # 11
    frequency:   27.4561621245
  - # 12
    frequency:   36.3298617190
  - # 13
    frequency:   36.3442522686
  - # 14
    frequency:   39.8467804055
  - # 15
    frequency:   39.9997691884

- q-position: [    0.0858586,    0.0000000,    0.0000000 ]
  distance:    0.0311734
  band:
  - # 1
    frequency:    0.3491469385
  - # 2
    frequency:    1.0240477944
  - # 3
    frequency:    1.7895696998
  - # 4
    frequency:    2.7258272082
  - # 5
    frequency:    2.9377412384
  - # 6
    frequency:    5.1600516043
  - # 7
    frequency:   14.3881417589
  - # 8
    frequency:   17.1978985044
  - # 9
    frequency:   17.2417788217
  - # 10
    frequency:   26.9166793793
  - # 11
    frequency:   27.4880498418
  - # 12
    frequency:   36.3504299056
  - # 13
    frequency:   36.3663109938
  - # 14
    frequency:   39.8058351791
  - # 15
    frequency:   39.9768158106

- q-position: [    0.0909091,    0.0000000,    0.0000000 ]
  distance:    0.0330072
  band:
  - # 1
    frequency:    0.3913122316
  - # 2
    frequency:    1.0834982222
  - # 3
    frequency:    1.8772584115
  - # 4
    frequency:    2.7129306393
  - # 5
    frequency:    2.9450302595
  - # 6
    frequency:    5.1174528257
  - # 7
    frequency:   14.3744799478
  - # 8
    frequency:   17.1819215846
  - # 9
    frequency:   17.2284343232
  - # 10
    frequency:   26.9664909321
  - # 11
    frequency:   27.5212120343
  - # 12
    frequency:   36.3720764811
  - # 13
    frequency:   36.3894804897
  - # 14
    frequency:   39.7628579951
  - # 15
    frequency:   39.9525330123

- q-position: [    0.0959596,    0.0000000,    0.0000000 ]
  distance:    0.0348409
  band:
  - # 1
    frequency:    0.4357409602
  - # 2
    frequency:    1.1428213535
  - # 3
    frequency:    1.9615158231
  - # 4
    frequency:    2.7006805765
  - # 5
    frequency:    2.9528913187
  - # 6
    frequency:    5.0733965099
  - # 7
    frequency:   14.3599926071
  - # 8
    frequency:   17.1656133916
  - # 9
    frequency:   17.2144929008
  - # 10
    frequency:   27.0182361403
  - # 11
    frequency:   27.5555385817
  - # 12
    frequency:   36.3947700105
  - # 13
    frequency:   36.4137297851
  - # 14
    frequency:   39.7179245262
  - # 15
    frequency:   39.9269426285

- q-position: [    0.1010101,    0.0000000,    0.0000000 ]
  distance:    0.0366746
  band:
  - # 1
    frequency:    0.4823736312
  - # 2
    frequency:    1.2020080899
  - # 3
    frequency:    2.0419765772
  - # 4
    frequency:    2.6892784460
  - # 5
    frequency:    2.9613358722
  - # 6
    frequency:    5.0281366591
  - # 7
    frequency:   14.3447031738
  - # 8
    frequency:   17.1490148933
  - # 9
    frequency:   17.1999878365
  - # 10
    frequency:   27.0717752716
  - # 11
    frequency:   27.5909149365
  - # 12
    frequency:   36.4184769027
  - # 13
    frequency:   36.4390282394
  - # 14
    frequency:   39.6711137564
  - # 15
    frequency:   39.9000703864

- q-position: [    0.1060606,    0.0000000,    0.0000000 ]
  distance:    0.0385083
  band:
  - # 1
    frequency:    0.5311403716
  - # 2
    frequency:    1.2610479396
  - # 3
    frequency:    2.1182169569
  - # 4
    frequency:    2.6789365522
  - # 5
    frequency:    2.9703735587
  - # 6
    frequency:    4.9819734979
  - # 7
    frequency:   14.3286415041
  - # 8
    frequency:   17.1321583449
  - # 9
    frequency:   17.1849552706
  - # 10
    frequency:   27.1269641002
  - # 11
    frequency:   27.6272224894
  - # 12
    frequency:   36.4431613956
  - # 13
    frequency:   36.4653457130
  - # 14
    frequency:   39.6225078262
  - # 15
    frequency:   39.8719461908

- q-position: [    0.1111111,    0.0000000,    0.0000000 ]
  distance:    0.0403421
  band:
  - # 1
    frequency:    0.5819606282
  - # 2
    frequency:    1.3199288591
  - # 3
    frequency:    2.1897389338
  - # 4
    frequency:    2.6698839644
  - # 5
    frequency:    2.9800121853
  - # 6
    frequency:    4.9352611873
  - # 7
    frequency:   14.3118437153
  - # 8
    frequency:   17.1150668804
  - # 9
    frequency:   17.1694342220
  - # 10
    frequency:   27.1836542945
  - # 11
    frequency:   27.6643389700
  - # 12
    frequency:   36.4687855486
  - # 13
    frequency:   36.4926526992
  - # 14
    frequency:   39.5721918746
  - # 15
    frequency:   39.8426043972

- q-position: [    0.1161616,    0.0000000,    0.0000000 ]
  distance:    0.0421758
  band:
  - # 1
    frequency:    0.6347430310
  - # 2
    frequency:    1.3786371270
  - # 3
    frequency:    2.2559499554
  - # 4
    frequency:    2.6623761365
  - # 5
    frequency:    2.9902577478
  - # 6
    frequency:    4.8884159108
  - # 7
    frequency:   14.2943518760
  - # 8
    frequency:   17.0977543068
  - # 9
    frequency:   17.1534665831
  - # 10
    frequency:   27.2416938052
  - # 11
    frequency:   27.7021388803
  - # 12
    frequency:   36.4953092418
  - # 13
    frequency:   36.5209204087
  - # 14
    frequency:   39.5202538777
  - # 15
    frequency:   39.8120840728

- q-position: [    0.1212121,    0.0000000,    0.0000000 ]
  distance:    0.0440095
  band:
  - # 1
    frequency:    0.6893854254
  - # 2
    frequency:    1.4371572565
  - # 3
    frequency:    2.3161391067
  - # 4
    frequency:    2.6567083397
  - # 5
    frequency:    3.0011144768
  - # 6
    frequency:    4.8419236020
  - # 7
    frequency:   14.2762135540
  - # 8
    frequency:   17.0802250965
  - # 9
    frequency:   17.1370970882
  - # 10
    frequency:   27.3009272507
  - # 11
    frequency:   27.7404939650
  - # 12
    frequency:   36.5226901814
  - # 13
    frequency:   36.5501208009
  - # 14
    frequency:   39.4667844857
  - # 15
    frequency:   39.7804292447

- q-position: [    0.1262626,    0.0000000,    0.0000000 ]
  distance:    0.0458433
  band:
  - # 1
    frequency:    0.7457750763
  - # 2
    frequency:    1.4954719472
  - # 3
    frequency:    2.3694558632
  - # 4
    frequency:    2.6532279345
  - # 5
    frequency:    3.0125849014
  - # 6
    frequency:    4.7963460350
  - # 7
    frequency:   14.2574812422
  - # 8
    frequency:   17.0624745662
  - # 9
    frequency:   17.1203732554
  - # 10
    frequency:   27.3611962973
  - # 11
    frequency:   27.7792737197
  - # 12
    frequency:   36.5508839104
  - # 13
    frequency:   36.5802265542
  - # 14
    frequency:   39.4118768607
  - # 15
    frequency:   39.7476891380

- q-position: [    0.1313131,    0.0000000,    0.0000000 ]
  distance:    0.0476770
  band:
  - # 1
    frequency:    0.8037890350
  - # 2
    frequency:    1.5535620800
  - # 3
    frequency:    2.4149146928
  - # 4
    frequency:    2.6523241787
  - # 5
    frequency:    3.0246699246
  - # 6
    frequency:    4.7523232863
  - # 7
    frequency:   14.2382116830
  - # 8
    frequency:   17.0444892292
  - # 9
    frequency:   17.1033453009
  - # 10
    frequency:   27.4223400315
  - # 11
    frequency:   27.8183459385
  - # 12
    frequency:   36.5798438226
  - # 13
    frequency:   36.6112109680
  - # 14
    frequency:   39.3556265153
  - # 15
    frequency:   39.7139184050

- q-position: [    0.1363636,    0.0000000,    0.0000000 ]
  distance:    0.0495107
  band:
  - # 1
    frequency:    0.8632946566
  - # 2
    frequency:    1.6114067545
  - # 3
    frequency:    2.4514835787
  - # 4
    frequency:    2.6543402389
  - # 5
    frequency:    3.0373688991
  - # 6
    frequency:    4.7105697618
  - # 7
    frequency:   14.2184651159
  - # 8
    frequency:   17.0262472981
  - # 9
    frequency:   17.0860660267
  - # 10
    frequency:   27.4841953185
  - # 11
    frequency:   27.8575773040
  - # 12
    frequency:   36.6095211794
  - # 13
    frequency:   36.6430477896
  - # 14
    frequency:   39.2981311567
  - # 15
    frequency:   39.6791773492

- q-position: [    0.1414141,    0.0000000,    0.0000000 ]
  distance:    0.0513445
  band:
  - # 1
    frequency:    0.9241502409
  - # 2
    frequency:    1.6689833675
  - # 3
    frequency:    2.4783284108
  - # 4
    frequency:    2.6593388098
  - # 5
    frequency:    3.0506796988
  - # 6
    frequency:    4.6718603557
  - # 7
    frequency:   14.1983044767
  - # 8
    frequency:   17.0077193183
  - # 9
    frequency:   17.0685906821
  - # 10
    frequency:   27.5465971413
  - # 11
    frequency:   27.8968340269
  - # 12
    frequency:   36.6398651246
  - # 13
    frequency:   36.6757109584
  - # 14
    frequency:   39.2394905359
  - # 15
    frequency:   39.6435321481

- q-position: [    0.1464646,    0.0000000,    0.0000000 ]
  distance:    0.0531782
  band:
  - # 1
    frequency:    0.9862057578
  - # 2
    frequency:    1.7262677315
  - # 3
    frequency:    2.4951290387
  - # 4
    frequency:    2.6668088207
  - # 5
    frequency:    3.0645987783
  - # 6
    frequency:    4.6370033491
  - # 7
    frequency:   14.1777945743
  - # 8
    frequency:   16.9888689049
  - # 9
    frequency:   17.0509767995
  - # 10
    frequency:   27.6093789075
  - # 11
    frequency:   27.9359825425
  - # 12
    frequency:   36.6708226952
  - # 13
    frequency:   36.7091742607
  - # 14
    frequency:   39.1798063099
  - # 15
    frequency:   39.6070550802

- q-position: [    0.1515152,    0.0000000,    0.0000000 ]
  distance:    0.0550119
  band:
  - # 1
    frequency:    1.0493035929
  - # 2
    frequency:    1.7832342278
  - # 3
    frequency:    2.5020715829
  - # 4
    frequency:    2.6757104469
  - # 5
    frequency:    3.0791212153
  - # 6
    frequency:    4.6067980751
  - # 7
    frequency:   14.1570012710
  - # 8
    frequency:   16.9696535608
  - # 9
    frequency:   17.0332840062
  - # 10
    frequency:   27.6723727048
  - # 11
    frequency:   27.9748902832
  - # 12
    frequency:   36.7023388234
  - # 13
    frequency:   36.7434108870
  - # 14
    frequency:   39.1191819170
  - # 15
    frequency:   39.5698247626

- q-position: [    0.1565657,    0.0000000,    0.0000000 ]
  distance:    0.0568457
  band:
  - # 1
    frequency:    1.1132792111
  - # 2
    frequency:    1.8398559912
  - # 3
    frequency:    2.4993060382
  - # 4
    frequency:    2.6850678034
  - # 5
    frequency:    3.0942407325
  - # 6
    frequency:    4.5819787282
  - # 7
    frequency:   14.1359906918
  - # 8
    frequency:   16.9500255491
  - # 9
    frequency:   17.0155738125
  - # 10
    frequency:   27.7354094719
  - # 11
    frequency:   28.0134265568
  - # 12
    frequency:   36.7343563231
  - # 13
    frequency:   36.7783928856
  - # 14
    frequency:   39.0577224741
  - # 15
    frequency:   39.5319264067

- q-position: [    0.1616162,    0.0000000,    0.0000000 ]
  distance:    0.0586794
  band:
  - # 1
    frequency:    1.1779615556
  - # 2
    frequency:    1.8961051199
  - # 3
    frequency:    2.4863922226
  - # 4
    frequency:    2.6945795717
  - # 5
    frequency:    3.1099496960
  - # 6
    frequency:    4.5631507438
  - # 7
    frequency:   14.1148284817
  - # 8
    frequency:   16.9299327985
  - # 9
    frequency:   16.9979093799
  - # 10
    frequency:   27.7983190203
  - # 11
    frequency:   28.0514635926
  - # 12
    frequency:   36.7668158539
  - # 13
    frequency:   36.8140905030
  - # 14
    frequency:   38.9955347032
  - # 15
    frequency:   39.4934521031

- q-position: [    0.1666667,    0.0000000,    0.0000000 ]
  distance:    0.0605131
  band:
  - # 1
    frequency:    1.2431728388
  - # 2
    frequency:    1.9519529049
  - # 3
    frequency:    2.4622921009
  - # 4
    frequency:    2.7046777103
  - # 5
    frequency:    3.1262390904
  - # 6
    frequency:    4.5507312527
  - # 7
    frequency:   14.0935791290
  - # 8
    frequency:   16.9093198212
  - # 9
    frequency:   16.9803552678
  - # 10
    frequency:   27.8609297886
  - # 11
    frequency:   28.0888778702
  - # 12
    frequency:   36.7996558517
  - # 13
    frequency:   36.8504714034
  - # 14
    frequency:   38.9327268960
  - # 15
    frequency:   39.4545011446

- q-position: [    0.1717172,    0.0000000,    0.0000000 ]
  distance:    0.0623469
  band:
  - # 1
    frequency:    1.3087270144
  - # 2
    frequency:    2.0073700728
  - # 3
    frequency:    2.4258027591
  - # 4
    frequency:    2.7161259375
  - # 5
    frequency:    3.1430984709
  - # 6
    frequency:    4.5449073750
  - # 7
    frequency:   14.0723053661
  - # 8
    frequency:   16.8881286244
  - # 9
    frequency:   16.9629771649
  - # 10
    frequency:   27.9230680822
  - # 11
    frequency:   28.1255519749
  - # 12
    frequency:   36.8328124124
  - # 13
    frequency:   36.8874997594
  - # 14
    frequency:   38.8694089315
  - # 15
    frequency:   39.4151804029

- q-position: [    0.1767677,    0.0000000,    0.0000000 ]
  distance:    0.0641806
  band:
  - # 1
    frequency:    1.3744253018
  - # 2
    frequency:    2.0623270348
  - # 3
    frequency:    2.3759792927
  - # 4
    frequency:    2.7295980164
  - # 5
    frequency:    3.1605158941
  - # 6
    frequency:    4.5456231779
  - # 7
    frequency:   14.0510676570
  - # 8
    frequency:   16.8662996013
  - # 9
    frequency:   16.9458416023
  - # 10
    frequency:   27.9845562683
  - # 11
    frequency:   28.1613775052
  - # 12
    frequency:   36.8662191098
  - # 13
    frequency:   36.9251352006
  - # 14
    frequency:   38.8056923649
  - # 15
    frequency:   39.3756047719

- q-position: [    0.1818182,    0.0000000,    0.0000000 ]
  distance:    0.0660143
  band:
  - # 1
    frequency:    1.4400446014
  - # 2
    frequency:    2.1167941363
  - # 3
    frequency:    2.3122814443
  - # 4
    frequency:    2.7455007566
  - # 5
    frequency:    3.1784778328
  - # 6
    frequency:    4.5525983289
  - # 7
    frequency:   14.0299237725
  - # 8
    frequency:   16.8437723898
  - # 9
    frequency:   16.9290156557
  - # 10
    frequency:   28.0452086740
  - # 11
    frequency:   28.1962602813
  - # 12
    frequency:   36.8998067225
  - # 13
    frequency:   36.9633316132
  - # 14
    frequency:   38.7416906117
  - # 15
    frequency:   39.3358976973

- q-position: [    0.1868687,    0.0000000,    0.0000000 ]
  distance:    0.0678480
  band:
  - # 1
    frequency:    1.5053064951
  - # 2
    frequency:    2.1707418997
  - # 3
    frequency:    2.2344984569
  - # 4
    frequency:    2.7640017578
  - # 5
    frequency:    3.1969690781
  - # 6
    frequency:    4.5653723409
  - # 7
    frequency:   14.0089284543
  - # 8
    frequency:   16.8204866907
  - # 9
    frequency:   16.9125666337
  - # 10
    frequency:   28.1048219219
  - # 11
    frequency:   28.2301311149
  - # 12
    frequency:   36.9335028342
  - # 13
    frequency:   37.0020357746
  - # 14
    frequency:   38.6775192646
  - # 15
    frequency:   39.2961918104

- q-position: [    0.1919192,    0.0000000,    0.0000000 ]
  distance:    0.0696818
  band:
  - # 1
    frequency:    1.5697827690
  - # 2
    frequency:    2.1426437577
  - # 3
    frequency:    2.2241412559
  - # 4
    frequency:    2.7851197832
  - # 5
    frequency:    3.2159726351
  - # 6
    frequency:    4.5833622705
  - # 7
    frequency:   13.9881331618
  - # 8
    frequency:   16.7963830383
  - # 9
    frequency:   16.8965617580
  - # 10
    frequency:   28.1631500237
  - # 11
    frequency:   28.2629718149
  - # 12
    frequency:   36.9672312579
  - # 13
    frequency:   37.0411858128
  - # 14
    frequency:   38.6132965910
  - # 15
    frequency:   39.2566296874

- q-position: [    0.1969697,    0.0000000,    0.0000000 ]
  distance:    0.0715155
  band:
  - # 1
    frequency:    1.6325277329
  - # 2
    frequency:    2.0371102361
  - # 3
    frequency:    2.2769637581
  - # 4
    frequency:    2.8087975436
  - # 5
    frequency:    3.2354696177
  - # 6
    frequency:    4.6059209750
  - # 7
    frequency:   13.9675858938
  - # 8
    frequency:   16.7714035207
  - # 9
    frequency:   16.8810678357
  - # 10
    frequency:   28.2198304776
  - # 11
    frequency:   28.2948901778
  - # 12
    frequency:   37.0009112117
  - # 13
    frequency:   37.0807094777
  - # 14
    frequency:   38.5491442829
  - # 15
    frequency:   39.2173647564

- q-position: [    0.2020202,    0.0000000,    0.0000000 ]
  distance:    0.0733492
  band:
  - # 1
    frequency:    1.6898307421
  - # 2
    frequency:    1.9206929010
  - # 3
    frequency:    2.3291817741
  - # 4
    frequency:    2.8349429703
  - # 5
    frequency:    3.2554391509
  - # 6
    frequency:    4.6323865346
  - # 7
    frequency:   13.9473310747
  - # 8
    frequency:   16.7454924488
  - # 9
    frequency:   16.8661509260
  - # 10
    frequency:   28.2741196772
  - # 11
    frequency:   28.3263856504
  - # 12
    frequency:   37.0344561436
  - # 13
    frequency:   37.1205222141
  - # 14
    frequency:   38.4851885638
  - # 15
    frequency:   39.1785623709

- q-position: [    0.2070707,    0.0000000,    0.0000000 ]
  distance:    0.0751830
  band:
  - # 1
    frequency:    1.7068356473
  - # 2
    frequency:    1.8266791169
  - # 3
    frequency:    2.3807686530
  - # 4
    frequency:    2.8634486060
  - # 5
    frequency:    3.2758582840
  - # 6
    frequency:    4.6621184549
  - # 7
    frequency:   13.9274094932
  - # 8
    frequency:   16.7185969738
  - # 9
    frequency:   16.8518760030
  - # 10
    frequency:   28.3238261893
  - # 11
    frequency:   28.3594170987
  - # 12
    frequency:   37.0677720502
  - # 13
    frequency:   37.1605250316
  - # 14
    frequency:   38.4215618051
  - # 15
    frequency:   39.1404010659

- q-position: [    0.2121212,    0.0000000,    0.0000000 ]
  distance:    0.0770167
  band:
  - # 1
    frequency:    1.5870940948
  - # 2