nqpoint: 300    
npath: 3      
segment_nqpoint:
- 100
- 100
- 100
labels:
- [ 'G', 'M' ]
- [ 'M', 'K' ]
- [ 'K', 'G' ]
reciprocal_lattice:
- [   0.30892583,   0.17835841,   0.00000000 ] # a*
- [   0.00000000,   0.35671682,   0.00000000 ] # b*
- [   0.00000000,   0.00000000,   0.03754910 ] # c*
natom: 6      
lattice:
- [     3.237022983997390,     0.000000000000000,     0.000000000000000 ] # a
- [    -1.618511491998695,     2.803344136774635,     0.000000000000000 ] # b
- [     0.000000000000000,     0.000000000000000,    26.631797521634045 ] # c
points:
- symbol: C # 1
  coordinates: [  0.000000000000000,  0.000000000000000,  0.429483517135795 ]
  mass: 12.010700
- symbol: Cl # 2
  coordinates: [  0.333332985432215,  0.666666983183674,  0.662058109570375 ]
  mass: 35.453000
- symbol: O # 3
  coordinates: [  0.333332985432215,  0.666666983183674,  0.520640669526144 ]
  mass: 15.999400
- symbol: O # 4
  coordinates: [  0.666666984744047,  0.333332985985145,  0.337941890429625 ]
  mass: 15.999400
- symbol: Sc # 5
  coordinates: [  0.333332985432215,  0.666666983183674,  0.365928647785250 ]
  mass: 44.955912
- symbol: Sc # 6
  coordinates: [  0.666666984744047,  0.333332985985145,  0.493805611911578 ]
  mass: 44.955912

phonon:
- q-position: [    0.0000000,    0.0000000,    0.0000000 ]
  distance:    0.0000000
  band:
  - # 1
    frequency:   -1.1011701747
  - # 2
    frequency:   -1.1011701747
  - # 3
    frequency:   -0.0000085131
  - # 4
    frequency:   -0.0000001676
  - # 5
    frequency:    0.0000086444
  - # 6
    frequency:    0.2562325352
  - # 7
    frequency:    0.2562325355
  - # 8
    frequency:    0.7772176912
  - # 9
    frequency:    2.6792951572
  - # 10
    frequency:    6.0166852457
  - # 11
    frequency:    6.0166852457
  - # 12
    frequency:    8.1878382359
  - # 13
    frequency:   13.4972687795
  - # 14
    frequency:   13.9677484271
  - # 15
    frequency:   13.9677484271
  - # 16
    frequency:   14.6215498582
  - # 17
    frequency:   14.7260133323
  - # 18
    frequency:   14.7260133323

- q-position: [    0.0050505,    0.0000000,    0.0000000 ]
  distance:    0.0018016
  band:
  - # 1
    frequency:   -1.1062663763
  - # 2
    frequency:   -1.1041750348
  - # 3
    frequency:   -0.0752272979
  - # 4
    frequency:   -0.0076356916
  - # 5
    frequency:    0.0780982834
  - # 6
    frequency:    0.2824378613
  - # 7
    frequency:    0.2921808014
  - # 8
    frequency:    0.7783964744
  - # 9
    frequency:    2.6799102309
  - # 10
    frequency:    6.0174002694
  - # 11
    frequency:    6.0206572949
  - # 12
    frequency:    8.1835002457
  - # 13
    frequency:   13.4939373970
  - # 14
    frequency:   13.9679074147
  - # 15
    frequency:   13.9749389177
  - # 16
    frequency:   14.6184052316
  - # 17
    frequency:   14.7260865417
  - # 18
    frequency:   14.7302597413

- q-position: [    0.0101010,    0.0000000,    0.0000000 ]
  distance:    0.0036032
  band:
  - # 1
    frequency:   -1.1224136108
  - # 2
    frequency:   -1.1132102534
  - # 3
    frequency:   -0.1293214453
  - # 4
    frequency:   -0.0256780589
  - # 5
    frequency:    0.1765714682
  - # 6
    frequency:    0.3411343778
  - # 7
    frequency:    0.3744240565
  - # 8
    frequency:    0.7820227091
  - # 9
    frequency:    2.6817526699
  - # 10
    frequency:    6.0195414318
  - # 11
    frequency:    6.0325214761
  - # 12
    frequency:    8.1706192885
  - # 13
    frequency:   13.4844469938
  - # 14
    frequency:   13.9683839809
  - # 15
    frequency:   13.9958884095
  - # 16
    frequency:   14.6100739546
  - # 17
    frequency:   14.7263057802
  - # 18
    frequency:   14.7419217989

- q-position: [    0.0151515,    0.0000000,    0.0000000 ]
  distance:    0.0054048
  band:
  - # 1
    frequency:   -1.1515202144
  - # 2
    frequency:   -1.1283243658
  - # 3
    frequency:   -0.1684408299
  - # 4
    frequency:   -0.0505316330
  - # 5
    frequency:    0.2913206714
  - # 6
    frequency:    0.4136533562
  - # 7
    frequency:    0.4753252446
  - # 8
    frequency:    0.7884630029
  - # 9
    frequency:    2.6848140731
  - # 10
    frequency:    6.0230970182
  - # 11
    frequency:    6.0521223946
  - # 12
    frequency:    8.1495891598
  - # 13
    frequency:   13.4700297565
  - # 14
    frequency:   13.9691769342
  - # 15
    frequency:   14.0290079832
  - # 16
    frequency:   14.5985769200
  - # 17
    frequency:   14.7266698748
  - # 18
    frequency:   14.7590624647

- q-position: [    0.0202020,    0.0000000,    0.0000000 ]
  distance:    0.0072064
  band:
  - # 1
    frequency:   -1.1950614092
  - # 2
    frequency:   -1.1495570953
  - # 3
    frequency:   -0.1989015803
  - # 4
    frequency:   -0.0804901367
  - # 5
    frequency:    0.4158519690
  - # 6
    frequency:    0.4936000007
  - # 7
    frequency:    0.5841890806
  - # 8
    frequency:    0.7988059927
  - # 9
    frequency:    2.6890802748
  - # 10
    frequency:    6.0280475417
  - # 11
    frequency:    6.0792026095
  - # 12
    frequency:    8.1210494809
  - # 13
    frequency:   13.4520946582
  - # 14
    frequency:   13.9702842851
  - # 15
    frequency:   14.0722837382
  - # 16
    frequency:   14.5854223862
  - # 17
    frequency:   14.7271768614
  - # 18
    frequency:   14.7803412909

- q-position: [    0.0252525,    0.0000000,    0.0000000 ]
  distance:    0.0090080
  band:
  - # 1
    frequency:   -1.2529933050
  - # 2
    frequency:   -1.1768894661
  - # 3
    frequency:   -0.2232599192
  - # 4
    frequency:   -0.1140362309
  - # 5
    frequency:    0.5432602684
  - # 6
    frequency:    0.5782230293
  - # 7
    frequency:    0.6957998860
  - # 8
    frequency:    0.8167315314
  - # 9
    frequency:    2.6945311775
  - # 10
    frequency:    6.0343658015
  - # 11
    frequency:    6.1134044988
  - # 12
    frequency:    8.0858632022
  - # 13
    frequency:   13.4318365988
  - # 14
    frequency:   13.9717032402
  - # 15
    frequency:   14.1236368338
  - # 16
    frequency:   14.5715257768
  - # 17
    frequency:   14.7278239705
  - # 18
    frequency:   14.8051495362

- q-position: [    0.0303030,    0.0000000,    0.0000000 ]
  distance:    0.0108096
  band:
  - # 1
    frequency:   -1.3237984200
  - # 2
    frequency:   -1.2101959915
  - # 3
    frequency:   -0.2422365319
  - # 4
    frequency:   -0.1500052997
  - # 5
    frequency:    0.6614633509
  - # 6
    frequency:    0.6659430459
  - # 7
    frequency:    0.8000271568
  - # 8
    frequency:    0.8590192576
  - # 9
    frequency:    2.7011406765
  - # 10
    frequency:    6.0420169698
  - # 11
    frequency:    6.1542719721
  - # 12
    frequency:    8.0450896707
  - # 13
    frequency:   13.4101168080
  - # 14
    frequency:   13.9734301947
  - # 15
    frequency:   14.1809560063
  - # 16
    frequency:   14.5575878613
  - # 17
    frequency:   14.7286076091
  - # 18
    frequency:   14.8333485095

- q-position: [    0.0353535,    0.0000000,    0.0000000 ]
  distance:    0.0126112
  band:
  - # 1
    frequency:   -1.4052264463
  - # 2
    frequency:   -1.2492145805
  - # 3
    frequency:   -0.2558603413
  - # 4
    frequency:   -0.1876020445
  - # 5
    frequency:    0.7438088603
  - # 6
    frequency:    0.7557400160
  - # 7
    frequency:    0.8892287520
  - # 8
    frequency:    0.9564191445
  - # 9
    frequency:    2.7088768482
  - # 10
    frequency:    6.0509587096
  - # 11
    frequency:    6.2012511726
  - # 12
    frequency:    7.9999567289
  - # 13
    frequency:   13.3875020179
  - # 14
    frequency:   13.9754607227
  - # 15
    frequency:   14.2418164589
  - # 16
    frequency:   14.5445506964
  - # 17
    frequency:   14.7295233390
  - # 18
    frequency:   14.8650872116

- q-position: [    0.0404040,    0.0000000,    0.0000000 ]
  distance:    0.0144128
  band:
  - # 1
    frequency:   -1.4949732077
  - # 2
    frequency:   -1.2935436247
  - # 3
    frequency:   -0.2639527222
  - # 4
    frequency:   -0.2262952273
  - # 5
    frequency:    0.7834375817
  - # 6
    frequency:    0.8469220253
  - # 7
    frequency:    0.9985474325
  - # 8
    frequency:    1.0784387773
  - # 9
    frequency:    2.7177026529
  - # 10
    frequency:    6.0611413286
  - # 11
    frequency:    6.2536891301
  - # 12
    frequency:    7.9518351363
  - # 13
    frequency:   13.3643487333
  - # 14
    frequency:   13.9777895661
  - # 15
    frequency:   14.3026924425
  - # 16
    frequency:   14.5344157582
  - # 17
    frequency:   14.7305658518
  - # 18
    frequency:   14.9007183454

- q-position: [    0.0454545,    0.0000000,    0.0000000 ]
  distance:    0.0162144
  band:
  - # 1
    frequency:   -1.5910193551
  - # 2
    frequency:   -1.3426653641
  - # 3
    frequency:   -0.2662795951
  - # 4
    frequency:   -0.2657076618
  - # 5
    frequency:    0.8068035548
  - # 6
    frequency:    0.9390037822
  - # 7
    frequency:    1.1165790479
  - # 8
    frequency:    1.2086820605
  - # 9
    frequency:    2.7275775189
  - # 10
    frequency:    6.0725079737
  - # 11
    frequency:    6.3108292371
  - # 12
    frequency:    7.9022180377
  - # 13
    frequency:   13.3408795768
  - # 14
    frequency:   13.9804106227
  - # 15
    frequency:   14.3568872316
  - # 16
    frequency:   14.5323023815
  - # 17
    frequency:   14.7317289442
  - # 18
    frequency:   14.9407617163

- q-position: [    0.0505051,    0.0000000,    0.0000000 ]
  distance:    0.0180160
  band:
  - # 1
    frequency:   -1.6917145040
  - # 2
    frequency:   -1.3959858036
  - # 3
    frequency:   -0.3055348570
  - # 4
    frequency:   -0.2625379457
  - # 5
    frequency:    0.8259897546
  - # 6
    frequency:    1.0316339534
  - # 7
    frequency:    1.2335701201
  - # 8
    frequency:    1.3439809165
  - # 9
    frequency:    2.7384603690
  - # 10
    frequency:    6.0849948692
  - # 11
    frequency:    6.3718025311
  - # 12
    frequency:    7.8527073301
  - # 13
    frequency:   13.3172382405
  - # 14
    frequency:   13.9833169327
  - # 15
    frequency:   14.3920331997
  - # 16
    frequency:   14.5489500812
  - # 17
    frequency:   14.7330054925
  - # 18
    frequency:   14.9858708396

- q-position: [    0.0555556,    0.0000000,    0.0000000 ]
  distance:    0.0198176
  band:
  - # 1
    frequency:   -1.7957458809
  - # 2
    frequency:   -1.4528784655
  - # 3
    frequency:   -0.3454918623
  - # 4
    frequency:   -0.2522403256
  - # 5
    frequency:    0.8443731086
  - # 6
    frequency:    1.1245498597
  - # 7
    frequency:    1.3476802659
  - # 8
    frequency:    1.4822389477
  - # 9
    frequency:    2.7503149750
  - # 10
    frequency:    6.0985316023
  - # 11
    frequency:    6.4356143957
  - # 12
    frequency:    7.8050074925
  - # 13
    frequency:   13.2935248920
  - # 14
    frequency:   13.9865006658
  - # 15
    frequency:   14.4007128288
  - # 16
    frequency:   14.5901506789
  - # 17
    frequency:   14.7343874301
  - # 18
    frequency:   15.0367635571

- q-position: [    0.0606061,    0.0000000,    0.0000000 ]
  distance:    0.0216192
  band:
  - # 1
    frequency:   -1.9020743361
  - # 2
    frequency:   -1.5127220045
  - # 3
    frequency:   -0.3852803842
  - # 4
    frequency:   -0.2344794577
  - # 5
    frequency:    0.8630834583
  - # 6
    frequency:    1.2175486827
  - # 7
    frequency:    1.4589071141
  - # 8
    frequency:    1.6219100760
  - # 9
    frequency:    2.7631190944
  - # 10
    frequency:    6.1130414576
  - # 11
    frequency:    6.5011280949
  - # 12
    frequency:    7.7609251788
  - # 13
    frequency:   13.2698174068
  - # 14
    frequency:   13.9899531083
  - # 15
    frequency:   14.3920780647
  - # 16
    frequency:   14.6452565954
  - # 17
    frequency:   14.7358657279
  - # 18
    frequency:   15.0940875309

- q-position: [    0.0656566,    0.0000000,    0.0000000 ]
  distance:    0.0234208
  band:
  - # 1
    frequency:   -2.0098718617
  - # 2
    frequency:   -1.5749269018
  - # 3
    frequency:   -0.4245690143
  - # 4
    frequency:   -0.2074060128
  - # 5
    frequency:    0.8825696707
  - # 6
    frequency:    1.3104688760
  - # 7
    frequency:    1.5674539549
  - # 8
    frequency:    1.7619803085
  - # 9
    frequency:    2.7768798965
  - # 10
    frequency:    6.1284418009
  - # 11
    frequency:    6.5670507880
  - # 12
    frequency:    7.7223684208
  - # 13
    frequency:   13.2461833301
  - # 14
    frequency:   13.9936646505
  - # 15
    frequency:   14.3753448010
  - # 16
    frequency:   14.7038756469
  - # 17
    frequency:   14.7374303811
  - # 18
    frequency:   15.1582290261

- q-position: [    0.0707071,    0.0000000,    0.0000000 ]
  distance:    0.0252224
  band:
  - # 1
    frequency:   -2.1184705405
  - # 2
    frequency:   -1.6389509476
  - # 3
    frequency:   -0.4629817299
  - # 4
    frequency:   -0.1666433045
  - # 5
    frequency:    0.9030233866
  - # 6
    frequency:    1.4031779712
  - # 7
    frequency:    1.6734481219
  - # 8
    frequency:    1.9017642398
  - # 9
    frequency:    2.7916602494
  - # 10
    frequency:    6.1446445110
  - # 11
    frequency:    6.6319361145
  - # 12
    frequency:    7.6913308368
  - # 13
    frequency:   13.2226861368
  - # 14
    frequency:   13.9976247767
  - # 15
    frequency:   14.3544283058
  - # 16
    frequency:   14.7390704022
  - # 17
    frequency:   14.7614114877
  - # 18
    frequency:   15.2291371042

- q-position: [    0.0757576,    0.0000000,    0.0000000 ]
  distance:    0.0270240
  band:
  - # 1
    frequency:   -2.2273235788
  - # 2
    frequency:   -1.7043056973
  - # 3
    frequency:   -0.5000917761
  - # 4
    frequency:   -0.0962151352
  - # 5
    frequency:    0.9245213788
  - # 6
    frequency:    1.4955644503
  - # 7
    frequency:    1.7769269324
  - # 8
    frequency:    2.0407141390
  - # 9
    frequency:    2.8076248061
  - # 10
    frequency:    6.1615564564
  - # 11
    frequency:    6.6942308585
  - # 12
    frequency:    7.6698329761
  - # 13
    frequency:   13.1993881534
  - # 14
    frequency:   14.0018220562
  - # 15
    frequency:   14.3308697344
  - # 16
    frequency:   14.7407738235
  - # 17
    frequency:   14.8161951182
  - # 18
    frequency:   15.3062660307

- q-position: [    0.0808081,    0.0000000,    0.0000000 ]
  distance:    0.0288256
  band:
  - # 1
    frequency:   -2.3359763544
  - # 2
    frequency:   -1.7705567742
  - # 3
    frequency:   -0.5354192949
  - # 4
    frequency:    0.1119647655
  - # 5
    frequency:    0.9470827532
  - # 6
    frequency:    1.5875322435
  - # 7
    frequency:    1.8778448015
  - # 8
    frequency:    2.1782640138
  - # 9
    frequency:    2.8251247860
  - # 10
    frequency:    6.1790800122
  - # 11
    frequency:    6.7524059355
  - # 12
    frequency:    7.6597804440
  - # 13
    frequency:   13.1763516232
  - # 14
    frequency:   14.0062441383
  - # 15
    frequency:   14.3053541382
  - # 16
    frequency:   14.7425277091
  - # 17
    frequency:   14.8678666060
  - # 18
    frequency:   15.3886755608

- q-position: [    0.0858586,    0.0000000,    0.0000000 ]
  distance:    0.0306272
  band:
  - # 1
    frequency:   -2.4440450818
  - # 2
    frequency:   -1.8373205640
  - # 3
    frequency:   -0.5684317255
  - # 4
    frequency:    0.1940883514
  - # 5
    frequency:    0.9706954319
  - # 6
    frequency:    1.6789969508
  - # 7
    frequency:    1.9760590401
  - # 8
    frequency:    2.3136482778
  - # 9
    frequency:    2.8448648515
  - # 10
    frequency:    6.1971136113
  - # 11
    frequency:    6.8052028445
  - # 12
    frequency:    7.6627078231
  - # 13
    frequency:   13.1536388055
  - # 14
    frequency:   14.0108777498
  - # 15
    frequency:   14.2782337978
  - # 16
    frequency:   14.7443181787
  - # 17
    frequency:   14.9166590520
  - # 18
    frequency:   15.4752229713

- q-position: [    0.0909091,    0.0000000,    0.0000000 ]
  distance:    0.0324288
  band:
  - # 1
    frequency:   -2.5512010674
  - # 2
    frequency:   -1.9042591647
  - # 3
    frequency:   -0.5985462186
  - # 4
    frequency:    0.2574000218
  - # 5
    frequency:    0.9953298488
  - # 6
    frequency:    1.7698832149
  - # 7
    frequency:    2.0712870383
  - # 8
    frequency:    2.4455748790
  - # 9
    frequency:    2.8682587216
  - # 10
    frequency:    6.2155523217
  - # 11
    frequency:    6.8519634360
  - # 12
    frequency:    7.6794409358
  - # 13
    frequency:   13.1313116257
  - # 14
    frequency:   14.0157086980
  - # 15
    frequency:   14.2497180629
  - # 16
    frequency:   14.7461304439
  - # 17
    frequency:   14.9630261455
  - # 18
    frequency:   15.5647443117

- q-position: [    0.0959596,    0.0000000,    0.0000000 ]
  distance:    0.0342304
  band:
  - # 1
    frequency:   -2.6571590154
  - # 2
    frequency:   -1.9710747905
  - # 3
    frequency:   -0.6251332291
  - # 4
    frequency:    0.3137680746
  - # 5
    frequency:    1.0209466396
  - # 6
    frequency:    1.8601228752
  - # 7
    frequency:    2.1630294889
  - # 8
    frequency:    2.5714923457
  - # 9
    frequency:    2.8982309652
  - # 10
    frequency:    6.2342884424
  - # 11
    frequency:    6.8929015705
  - # 12
    frequency:    7.7098194165
  - # 13
    frequency:   13.1094311619
  - # 14
    frequency:   14.0207218778
  - # 15
    frequency:   14.2199501394
  - # 16
    frequency:   14.7479488574
  - # 17
    frequency:   15.0074492186
  - # 18
    frequency:   15.6561686435

- q-position: [    0.1010101,    0.0000000,    0.0000000 ]
  distance:    0.0360320
  band:
  - # 1
    frequency:   -2.7616682612
  - # 2
    frequency:   -2.0375043177
  - # 3
    frequency:   -0.6475201660
  - # 4
    frequency:    0.3666992765
  - # 5
    frequency:    1.0475012085
  - # 6
    frequency:    1.9496536590
  - # 7
    frequency:    2.2504548037
  - # 8
    frequency:    2.6860929226
  - # 9
    frequency:    2.9408237945
  - # 10
    frequency:    6.2532121080
  - # 11
    frequency:    6.9291305480
  - # 12
    frequency:    7.7526662913
  - # 13
    frequency:   13.0880571183
  - # 14
    frequency:   14.0259012852
  - # 15
    frequency:   14.1890414163
  - # 16
    frequency:   14.7497569762
  - # 17
    frequency:   15.0503529423
  - # 18
    frequency:   15.7485656916

- q-position: [    0.1060606,    0.0000000,    0.0000000 ]
  distance:    0.0378336
  band:
  - # 1
    frequency:   -2.8645061296
  - # 2
    frequency:   -2.1033143163
  - # 3
    frequency:   -0.6649935228
  - # 4
    frequency:    0.4178127320
  - # 5
    frequency:    1.0749465309
  - # 6
    frequency:    2.0384182482
  - # 7
    frequency:    2.3322551171
  - # 8
    frequency:    2.7808500065
  - # 9
    frequency:    3.0057983611
  - # 10
    frequency:    6.2722118941
  - # 11
    frequency:    6.9623920091
  - # 12
    frequency:    7.8060593384
  - # 13
    frequency:   13.0672473527
  - # 14
    frequency:   14.0312300371
  - # 15
    frequency:   14.1570881311
  - # 16
    frequency:   14.7515376386
  - # 17
    frequency:   15.0920806813
  - # 18
    frequency:   15.8411512479

- q-position: [    0.1111111,    0.0000000,    0.0000000 ]
  distance:    0.0396352
  band:
  - # 1
    frequency:   -2.9654728475
  - # 2
    frequency:   -2.1682967026
  - # 3
    frequency:   -0.6767972477
  - # 4
    frequency:    0.4680282540
  - # 5
    frequency:    1.1032348915
  - # 6
    frequency:    2.1263636112
  - # 7
    frequency:    2.4065410333
  - # 8
    frequency:    2.8527590056
  - # 9
    frequency:    3.0979933508
  - # 10
    frequency:    6.2911754134
  - # 11
    frequency:    6.9946371724
  - # 12
    frequency:    7.8677536329
  - # 13
    frequency:   13.0470574859
  - # 14
    frequency:   14.0366903979
  - # 15
    frequency:   14.1241800204
  - # 16
    frequency:   14.7532730551
  - # 17
    frequency:   15.1328972708
  - # 18
    frequency:   15.9332730465

- q-position: [    0.1161616,    0.0000000,    0.0000000 ]
  distance:    0.0414368
  band:
  - # 1
    frequency:   -3.0643876085
  - # 2
    frequency:   -2.2322650266
  - # 3
    frequency:   -0.6821240881
  - # 4
    frequency:    0.5179373713
  - # 5
    frequency:    1.1323189513
  - # 6
    frequency:    2.2134405219
  - # 7
    frequency:    2.4709600471
  - # 8
    frequency:    2.9123652981
  - # 9
    frequency:    3.2091719077
  - # 10
    frequency:    6.3099898954
  - # 11
    frequency:    7.0276687527
  - # 12
    frequency:    7.9355469035
  - # 13
    frequency:   13.0275405933
  - # 14
    frequency:   14.0422638142
  - # 15
    frequency:   14.0904050638
  - # 16
    frequency:   14.7549449124
  - # 17
    frequency:   15.1730014775
  - # 18
    frequency:   16.0243908429

- q-position: [    0.1212121,    0.0000000,    0.0000000 ]
  distance:    0.0432384
  band:
  - # 1
    frequency:   -3.1610855024
  - # 2
    frequency:   -2.2950513536
  - # 3
    frequency:   -0.6800948433
  - # 4
    frequency:    0.5679518304
  - # 5
    frequency:    1.1621523760
  - # 6
    frequency:    2.2996032150
  - # 7
    frequency:    2.5232834311
  - # 8
    frequency:    2.9719098143
  - # 9
    frequency:    3.3292815842
  - # 10
    frequency:    6.3285427418
  - # 11
    frequency:    7.0629438491
  - # 12
    frequency:    8.0074870822
  - # 13
    frequency:   13.0087469695
  - # 14
    frequency:   14.0479309567
  - # 15
    frequency:   14.0558522109
  - # 16
    frequency:   14.7565344897
  - # 17
    frequency:   15.2125399368
  - # 18
    frequency:   16.1140570882

- q-position: [    0.1262626,    0.0000000,    0.0000000 ]
  distance:    0.0450400
  band:
  - # 1
    frequency:   -3.2554151057
  - # 2
    frequency:   -2.3565036696
  - # 3
    frequency:   -0.6697169330
  - # 4
    frequency:    0.6183728304
  - # 5
    frequency:    1.1926901706
  - # 6
    frequency:    2.3848091371
  - # 7
    frequency:    2.5623499531
  - # 8
    frequency:    3.0379095971
  - # 9
    frequency:    3.4529218766
  - # 10
    frequency:    6.3467220511
  - # 11
    frequency:    7.1015198216
  - # 12
    frequency:    8.0819394100
  - # 13
    frequency:   12.9907239522
  - # 14
    frequency:   14.0206130155
  - # 15
    frequency:   14.0536717712
  - # 16
    frequency:   14.7580227862
  - # 17
    frequency:   15.2516194506
  - # 18
    frequency:   16.2019004400

- q-position: [    0.1313131,    0.0000000,    0.0000000 ]
  distance:    0.0468416
  band:
  - # 1
    frequency:   -3.3472365860
  - # 2
    frequency:   -2.4164837362
  - # 3
    frequency:   -0.6498060650
  - # 4
    frequency:    0.6694269613
  - # 5
    frequency:    1.2238888139
  - # 6
    frequency:    2.4690187676
  - # 7
    frequency:    2.5885934240
  - # 8
    frequency:    3.1123300171
  - # 9
    frequency:    3.5776361299
  - # 10
    frequency:    6.3644171084
  - # 11
    frequency:    7.1440824212
  - # 12
    frequency:    8.1575730321
  - # 13
    frequency:   12.9735157898
  - # 14
    frequency:   13.9847826532
  - # 15
    frequency:   14.0594655382
  - # 16
    frequency:   14.7593906589
  - # 17
    frequency:   15.2903168559
  - # 18
    frequency:   16.2876124517

- q-position: [    0.1363636,    0.0000000,    0.0000000 ]
  distance:    0.0486432
  band:
  - # 1
    frequency:   -3.4364202096
  - # 2
    frequency:   -2.4748653245
  - # 3
    frequency:   -0.6188366327
  - # 4
    frequency:    0.7212865013
  - # 5
    frequency:    1.2557062512
  - # 6
    frequency:    2.5521954890
  - # 7
    frequency:    2.6036113923
  - # 8
    frequency:    3.1946721941
  - # 9
    frequency:    3.7022475183
  - # 10
    frequency:    6.3815188364
  - # 11
    frequency:    7.1910057678
  - # 12
    frequency:    8.2333165893
  - # 13
    frequency:   12.9571635375
  - # 14
    frequency:   13.9484605814
  - # 15
    frequency:   14.0652909409
  - # 16
    frequency:   14.7606189675
  - # 17
    frequency:   15.3286865927
  - # 18
    frequency:   16.3709370699

- q-position: [    0.1414141,    0.0000000,    0.0000000 ]
  distance:    0.0504448
  band:
  - # 1
    frequency:   -3.5228451739
  - # 2
    frequency:   -2.5315327624
  - # 3
    frequency:   -0.5746378535
  - # 4
    frequency:    0.7740817504
  - # 5
    frequency:    1.2881017803
  - # 6
    frequency:    2.6093072661
  - # 7
    frequency:    2.6343054920
  - # 8
    frequency:    3.2835469487
  - # 9
    frequency:    3.8261361174
  - # 10
    frequency:    6.3979202053
  - # 11
    frequency:    7.2424161310
  - # 12
    frequency:    8.3083099893
  - # 13
    frequency:   12.9417049679
  - # 14
    frequency:   13.9117509828
  - # 15
    frequency:   14.0711261422
  - # 16
    frequency:   14.7616887253
  - # 17
    frequency:   15.3667663724
  - # 18
    frequency:   16.4516623984

- q-position: [    0.1464646,    0.0000000,    0.0000000 ]
  distance:    0.0522464
  band:
  - # 1
    frequency:   -3.6063986972
  - # 2
    frequency:   -2.5863797418
  - # 3
    frequency:   -0.5136990849
  - # 4
    frequency:    0.8279090574
  - # 5
    frequency:    1.3210358493
  - # 6
    frequency:    2.6073266867
  - # 7
    frequency:    2.7153177044
  - # 8
    frequency:    3.3775263118
  - # 9
    frequency:    3.9489458477
  - # 10
    frequency:    6.4135166022
  - # 11
    frequency:    7.2982477046
  - # 12
    frequency:    8.3818634136
  - # 13
    frequency:   12.9271744862
  - # 14
    frequency:   13.8747630745
  - # 15
    frequency:   14.0769488702
  - # 16
    frequency:   14.7625812541
  - # 17
    frequency:   15.4045813744
  - # 18
    frequency:   16.5296142170

- q-position: [    0.1515152,    0.0000000,    0.0000000 ]
  distance:    0.0540480
  band:
  - # 1
    frequency:   -3.6869753173
  - # 2
    frequency:   -2.6393083393
  - # 3
    frequency:   -0.4292239225
  - # 4
    frequency:    0.8828363992
  - # 5
    frequency:    1.3544697684
  - # 6
    frequency:    2.5989003541
  - # 7
    frequency:    2.7952037349
  - # 8
    frequency:    3.4754236574
  - # 9
    frequency:    4.0704586508
  - # 10
    frequency:    6.4282061592
  - # 11
    frequency:    7.3582870023
  - # 12
    frequency:    8.4534263720
  - # 13
    frequency:   12.9136030367
  - # 14
    frequency:   13.8376113286
  - # 15
    frequency:   14.0827365127
  - # 16
    frequency:   14.7632783396
  - # 17
    frequency:   15.4421473334
  - # 18
    frequency:   16.6046508363

- q-position: [    0.1565657,    0.0000000,    0.0000000 ]
  distance:    0.0558496
  band:
  - # 1
    frequency:   -3.7644763566
  - # 2
    frequency:   -2.6902282106
  - # 3
    frequency:   -0.3030670852
  - # 4
    frequency:    0.9389075103
  - # 5
    frequency:    1.3883653208
  - # 6
    frequency:    2.5848931499
  - # 7
    frequency:    2.8739378276
  - # 8
    frequency:    3.5763030527
  - # 9
    frequency:    4.1905361149
  - # 10
    frequency:    6.4418900434
  - # 11
    frequency:    7.4222059798
  - # 12
    frequency:    8.5225663339
  - # 13
    frequency:   12.9010179940
  - # 14
    frequency:   13.8004156310
  - # 15
    frequency:   14.0884662191
  - # 16
    frequency:   14.7637623853
  - # 17
    frequency:   15.4794728024
  - # 18
    frequency:   16.6766589618

- q-position: [    0.1616162,    0.0000000,    0.0000000 ]
  distance:    0.0576512
  band:
  - # 1
    frequency:   -3.8388095188
  - # 2
    frequency:   -2.7390559289
  - # 3
    frequency:    0.1108660519
  - # 4
    frequency:    0.9961451139
  - # 5
    frequency:    1.4226842434
  - # 6
    frequency:    2.5659043778
  - # 7
    frequency:    2.9514968200
  - # 8
    frequency:    3.6794120654
  - # 9
    frequency:    4.3090902513
  - # 10
    frequency:    6.4544727118
  - # 11
    frequency:    7.4895850697
  - # 12
    frequency:    8.5889555943
  - # 13
    frequency:   12.8894430316
  - # 14
    frequency:   13.7633013912
  - # 15
    frequency:   14.0941150105
  - # 16
    frequency:   14.7640165629
  - # 17
    frequency:   15.5165608078
  - # 18
    frequency:   16.7455503253

- q-position: [    0.1666667,    0.0000000,    0.0000000 ]
  distance:    0.0594528
  band:
  - # 1
    frequency:   -3.9098885904
  - # 2
    frequency:   -2.7857144404
  - # 3
    frequency:    0.3561340460
  - # 4
    frequency:    1.0545535703
  - # 5
    frequency:    1.4573875211
  - # 6
    frequency:    2.5423599263
  - # 7
    frequency:    3.0278601028
  - # 8
    frequency:    3.7841140039
  - # 9
    frequency:    4.4260676659
  - # 10
    frequency:    6.4658621338
  - # 11
    frequency:    7.5599274027
  - # 12
    frequency:    8.6523651117
  - # 13
    frequency:   12.8788979611
  - # 14
    frequency:   13.7263996083
  - # 15
    frequency:   14.0996598965
  - # 16
    frequency:   14.7640249547
  - # 17
    frequency:   15.5534100552
  - # 18
    frequency:   16.8112588985

- q-position: [    0.1717172,    0.0000000,    0.0000000 ]
  distance:    0.0612544
  band:
  - # 1
    frequency:   -3.9776332225
  - # 2
    frequency:   -2.8301326156
  - # 3
    frequency:    0.4999972199
  - # 4
    frequency:    1.1141211270
  - # 5
    frequency:    1.4924344097
  - # 6
    frequency:    2.5145861954
  - # 7
    frequency:    3.1030095776
  - # 8
    frequency:    3.8898383067
  - # 9
    frequency:    4.5414400854
  - # 10
    frequency:    6.4759699877
  - # 11
    frequency:    7.6326652464
  - # 12
    frequency:    8.7126644312
  - # 13
    frequency:   12.8693985418
  - # 14
    frequency:   13.6898468935
  - # 15
    frequency:   14.1050779982
  - # 16
    frequency:   14.7637726873
  - # 17
    frequency:   15.5900158026
  - # 18
    frequency:   16.8737385548

- q-position: [    0.1767677,    0.0000000,    0.0000000 ]
  distance:    0.0630560
  band:
  - # 1
    frequency:   -4.0419687749
  - # 2
    frequency:   -2.8722448807
  - # 3
    frequency:    0.6160701437
  - # 4
    frequency:    1.1748218776
  - # 5
    frequency:    1.5277810645
  - # 6
    frequency:    2.4828717755
  - # 7
    frequency:    3.1769296116
  - # 8
    frequency:    3.9960489215
  - # 9
    frequency:    4.6551977997
  - # 10
    frequency:    6.4847118354
  - # 11
    frequency:    7.7071594153
  - # 12
    frequency:    8.7698271726
  - # 13
    frequency:   12.8609562572
  - # 14