nqpoint: 300    
npath: 3      
segment_nqpoint:
- 100
- 100
- 100
labels:
- [ 'G', 'M' ]
- [ 'M', 'K' ]
- [ 'K', 'G' ]
reciprocal_lattice:
- [   0.30892583,   0.17835841,   0.00000000 ] # a*
- [   0.00000000,   0.35671682,   0.00000000 ] # b*
- [   0.00000000,   0.00000000,   0.03754910 ] # c*
natom: 6      
lattice:
- [     3.237022983997390,     0.000000000000000,     0.000000000000000 ] # a
- [    -1.618511491998695,     2.803344136774635,     0.000000000000000 ] # b
- [     0.000000000000000,     0.000000000000000,    26.631797521634045 ] # c
points:
- symbol: C # 1
  coordinates: [  0.000000000000000,  0.000000000000000,  0.429483517135795 ]
  mass: 12.010700
- symbol: Cl # 2
  coordinates: [  0.333332985432215,  0.666666983183674,  0.662058109570375 ]
  mass: 35.453000
- symbol: O # 3
  coordinates: [  0.333332985432215,  0.666666983183674,  0.520640669526144 ]
  mass: 15.999400
- symbol: O # 4
  coordinates: [  0.666666984744047,  0.333332985985145,  0.337941890429625 ]
  mass: 15.999400
- symbol: Sc # 5
  coordinates: [  0.333332985432215,  0.666666983183674,  0.365928647785250 ]
  mass: 44.955912
- symbol: Sc # 6
  coordinates: [  0.666666984744047,  0.333332985985145,  0.493805611911578 ]
  mass: 44.955912

phonon:
- q-position: [    0.0000000,    0.0000000,    0.0000000 ]
  distance:    0.0000000
  band:
  - # 1
    frequency:   -0.3353170664
  - # 2
    frequency:   -0.3353170664
  - # 3
    frequency:   -0.0000014094
  - # 4
    frequency:   -0.0000007782
  - # 5
    frequency:    0.0000018535
  - # 6
    frequency:    0.7630219882
  - # 7
    frequency:    1.9432248768
  - # 8
    frequency:    1.9432248768
  - # 9
    frequency:    2.2062619822
  - # 10
    frequency:    6.1100834575
  - # 11
    frequency:    7.7622161277
  - # 12
    frequency:    7.7622161277
  - # 13
    frequency:   13.4991205010
  - # 14
    frequency:   13.6280740986
  - # 15
    frequency:   13.6280740986
  - # 16
    frequency:   14.4279188298
  - # 17
    frequency:   14.8313852759
  - # 18
    frequency:   14.8313852759

- q-position: [    0.0050505,    0.0000000,    0.0000000 ]
  distance:    0.0018016
  band:
  - # 1
    frequency:   -0.3624588028
  - # 2
    frequency:   -0.3472239737
  - # 3
    frequency:   -0.0435851374
  - # 4
    frequency:    0.0602400901
  - # 5
    frequency:    0.1092068359
  - # 6
    frequency:    0.7632801757
  - # 7
    frequency:    1.9419641904
  - # 8
    frequency:    1.9446577752
  - # 9
    frequency:    2.2121739487
  - # 10
    frequency:    6.1101851046
  - # 11
    frequency:    7.7596198365
  - # 12
    frequency:    7.7604462353
  - # 13
    frequency:   13.4931138299
  - # 14
    frequency:   13.6286476409
  - # 15
    frequency:   13.6389387692
  - # 16
    frequency:   14.4267023529
  - # 17
    frequency:   14.8312674342
  - # 18
    frequency:   14.8330000838

- q-position: [    0.0101010,    0.0000000,    0.0000000 ]
  distance:    0.0036032
  band:
  - # 1
    frequency:   -0.4472930515
  - # 2
    frequency:   -0.3856177442
  - # 3
    frequency:   -0.0815167743
  - # 4
    frequency:    0.1352726163
  - # 5
    frequency:    0.2424109825
  - # 6
    frequency:    0.7641629513
  - # 7
    frequency:    1.9388311546
  - # 8
    frequency:    1.9489469492
  - # 9
    frequency:    2.2291584533
  - # 10
    frequency:    6.1105641689
  - # 11
    frequency:    7.7518598609
  - # 12
    frequency:    7.7551444639
  - # 13
    frequency:   13.4788302614
  - # 14
    frequency:   13.6303654244
  - # 15
    frequency:   13.6677208866
  - # 16
    frequency:   14.4231006129
  - # 17
    frequency:   14.8309144516
  - # 18
    frequency:   14.8378021116

- q-position: [    0.0151515,    0.0000000,    0.0000000 ]
  distance:    0.0054048
  band:
  - # 1
    frequency:   -0.5687564439
  - # 2
    frequency:   -0.4485337548
  - # 3
    frequency:   -0.1195521564
  - # 4
    frequency:    0.2200610829
  - # 5
    frequency:    0.3818832679
  - # 6
    frequency:    0.7660335793
  - # 7
    frequency:    1.9353472277
  - # 8
    frequency:    1.9560641338
  - # 9
    frequency:    2.2553995670
  - # 10
    frequency:    6.1114382726
  - # 11
    frequency:    7.7390232973
  - # 12
    frequency:    7.7463344924
  - # 13
    frequency:   13.4613806697
  - # 14
    frequency:   13.6332189342
  - # 15
    frequency:   13.7090850848
  - # 16
    frequency:   14.4172472323
  - # 17
    frequency:   14.8303279558
  - # 18
    frequency:   14.8456745120

- q-position: [    0.0202020,    0.0000000,    0.0000000 ]
  distance:    0.0072064
  band:
  - # 1
    frequency:   -0.7062667691
  - # 2
    frequency:   -0.5274664787
  - # 3
    frequency:   -0.1558939639
  - # 4
    frequency:    0.3071822134
  - # 5
    frequency:    0.5193965874
  - # 6
    frequency:    0.7697665167
  - # 7
    frequency:    1.9331468592
  - # 8
    frequency:    1.9659632009
  - # 9
    frequency:    2.2888110721
  - # 10
    frequency:    6.1131545814
  - # 11
    frequency:    7.7212566597
  - # 12
    frequency:    7.7340556600
  - # 13
    frequency:   13.4430865147
  - # 14
    frequency:   13.6371940295
  - # 15
    frequency:   13.7603415669
  - # 16
    frequency:   14.4093372794
  - # 17
    frequency:   14.8295106589
  - # 18
    frequency:   14.8564532613

- q-position: [    0.0252525,    0.0000000,    0.0000000 ]
  distance:    0.0090080
  band:
  - # 1
    frequency:   -0.8508603128
  - # 2
    frequency:   -0.6153795382
  - # 3
    frequency:   -0.1897108384
  - # 4
    frequency:    0.3939079251
  - # 5
    frequency:    0.6512397875
  - # 6
    frequency:    0.7787720822
  - # 7
    frequency:    1.9335455787
  - # 8
    frequency:    1.9785815811
  - # 9
    frequency:    2.3275171517
  - # 10
    frequency:    6.1161674514
  - # 11
    frequency:    7.6987679492
  - # 12
    frequency:    7.7183627773
  - # 13
    frequency:   13.4245987590
  - # 14
    frequency:   13.6422710193
  - # 15
    frequency:   13.8203346215
  - # 16
    frequency:   14.3995967854
  - # 17
    frequency:   14.8284663553
  - # 18
    frequency:   14.8699627323

- q-position: [    0.0303030,    0.0000000,    0.0000000 ]
  distance:    0.0108096
  band:
  - # 1
    frequency:   -0.9986676130
  - # 2
    frequency:   -0.7082132629
  - # 3
    frequency:   -0.2204387374
  - # 4
    frequency:    0.4796247918
  - # 5
    frequency:    0.7463095612
  - # 6
    frequency:    0.8246221978
  - # 7
    frequency:    1.9374722000
  - # 8
    frequency:    1.9938421610
  - # 9
    frequency:    2.3699726521
  - # 10
    frequency:    6.1210089200
  - # 11
    frequency:    7.6718296525
  - # 12
    frequency:    7.6993258623
  - # 13
    frequency:   13.4059584416
  - # 14
    frequency:   13.6484247663
  - # 15
    frequency:   13.8883898621
  - # 16
    frequency:   14.3882552350
  - # 17
    frequency:   14.8271999203
  - # 18
    frequency:   14.8860513934

- q-position: [    0.0353535,    0.0000000,    0.0000000 ]
  distance:    0.0126112
  band:
  - # 1
    frequency:   -1.1477656295
  - # 2
    frequency:   -0.8037185852
  - # 3
    frequency:   -0.2476859376
  - # 4
    frequency:    0.5642612075
  - # 5
    frequency:    0.7693869484
  - # 6
    frequency:    0.9428997566
  - # 7
    frequency:    1.9455477603
  - # 8
    frequency:    2.0116555703
  - # 9
    frequency:    2.4149311059
  - # 10
    frequency:    6.1282535554
  - # 11
    frequency:    7.6407828285
  - # 12
    frequency:    7.6770298001
  - # 13
    frequency:   13.3870319523
  - # 14
    frequency:   13.6556248195
  - # 15
    frequency:   13.9638843845
  - # 16
    frequency:   14.3755264316
  - # 17
    frequency:   14.8257173064
  - # 18
    frequency:   14.9046237540

- q-position: [    0.0404040,    0.0000000,    0.0000000 ]
  distance:    0.0144128
  band:
  - # 1
    frequency:   -1.2970548832
  - # 2
    frequency:   -0.9005812211
  - # 3
    frequency:   -0.2712200197
  - # 4
    frequency:    0.6478405900
  - # 5
    frequency:    0.7805018234
  - # 6
    frequency:    1.0737712323
  - # 7
    frequency:    1.9581758970
  - # 8
    frequency:    2.0319227621
  - # 9
    frequency:    2.4613898787
  - # 10
    frequency:    6.1384792811
  - # 11
    frequency:    7.6060425642
  - # 12
    frequency:    7.6515739278
  - # 13
    frequency:   13.3676687807
  - # 14
    frequency:   13.6638355724
  - # 15
    frequency:   14.0460876075
  - # 16
    frequency:   14.3615999043
  - # 17
    frequency:   14.8240255397
  - # 18
    frequency:   14.9256695856

- q-position: [    0.0454545,    0.0000000,    0.0000000 ]
  distance:    0.0162144
  band:
  - # 1
    frequency:   -1.4458263027
  - # 2
    frequency:   -0.9979744386
  - # 3
    frequency:   -0.2909518947
  - # 4
    frequency:    0.7303781368
  - # 5
    frequency:    0.7913178517
  - # 6
    frequency:    1.2056333401
  - # 7
    frequency:    1.9756037852
  - # 8
    frequency:    2.0545377814
  - # 9
    frequency:    2.5085514356
  - # 10
    frequency:    6.1522256999
  - # 11
    frequency:    7.5681052732
  - # 12
    frequency:    7.6230715420
  - # 13
    frequency:   13.3477540040
  - # 14
    frequency:   13.6730164464
  - # 15
    frequency:   14.1340897972
  - # 16
    frequency:   14.3466477676
  - # 17
    frequency:   14.8221327143
  - # 18
    frequency:   14.9492950956

- q-position: [    0.0505051,    0.0000000,    0.0000000 ]
  distance:    0.0180160
  band:
  - # 1
    frequency:   -1.5935747569
  - # 2
    frequency:   -1.0953388189
  - # 3
    frequency:   -0.3069017170
  - # 4
    frequency:    0.8032625525
  - # 5
    frequency:    0.8118628869
  - # 6
    frequency:    1.3370169106
  - # 7
    frequency:    1.9979525237
  - # 8
    frequency:    2.0793906193
  - # 9
    frequency:    2.5558038553
  - # 10
    frequency:    6.1699511332
  - # 11
    frequency:    7.5275585925
  - # 12
    frequency:    7.5916493292
  - # 13
    frequency:   13.3272208251
  - # 14
    frequency:   13.6831220975
  - # 15
    frequency:   14.2266843864
  - # 16
    frequency:   14.3309077470
  - # 17
    frequency:   14.8200479851
  - # 18
    frequency:   14.9757629941

- q-position: [    0.0555556,    0.0000000,    0.0000000 ]
  distance:    0.0198176
  band:
  - # 1
    frequency:   -1.7399107023
  - # 2
    frequency:   -1.1922698935
  - # 3
    frequency:   -0.3191476700
  - # 4
    frequency:    0.8166620259
  - # 5
    frequency:    0.8922589783
  - # 6
    frequency:    1.4674733427
  - # 7
    frequency:    2.0252274739
  - # 8
    frequency:    2.1063700550
  - # 9
    frequency:    2.6027158775
  - # 10
    frequency:    6.1919890302
  - # 11
    frequency:    7.4850950425
  - # 12
    frequency:    7.5574467194
  - # 13
    frequency:   13.3060482987
  - # 14
    frequency:   13.6941026449
  - # 15
    frequency:   14.3101312988
  - # 16
    frequency:   14.3268813071
  - # 17
    frequency:   14.8177815581
  - # 18
    frequency:   15.0055495039

- q-position: [    0.0606061,    0.0000000,    0.0000000 ]
  distance:    0.0216192
  band:
  - # 1
    frequency:   -1.8845148990
  - # 2
    frequency:   -1.2884578996
  - # 3
    frequency:   -0.3277631291
  - # 4
    frequency:    0.8315904780
  - # 5
    frequency:    0.9715099979
  - # 6
    frequency:    1.5967253728
  - # 7
    frequency:    2.0573236459
  - # 8
    frequency:    2.1353663938
  - # 9
    frequency:    2.6490422216
  - # 10
    frequency:    6.2185035367
  - # 11
    frequency:    7.4415311900
  - # 12
    frequency:    7.5206151580
  - # 13
    frequency:   13.2842542658
  - # 14
    frequency:   13.7059039208
  - # 15
    frequency:   14.2956483152
  - # 16
    frequency:   14.4217830819
  - # 17
    frequency:   14.8153446774
  - # 18
    frequency:   15.0394246667

- q-position: [    0.0656566,    0.0000000,    0.0000000 ]
  distance:    0.0234208
  band:
  - # 1
    frequency:   -2.0271136809
  - # 2
    frequency:   -1.3836538664
  - # 3
    frequency:   -0.3327480878
  - # 4
    frequency:    0.8480389414
  - # 5
    frequency:    1.0495428284
  - # 6
    frequency:    1.7244605936
  - # 7
    frequency:    2.0940508016
  - # 8
    frequency:    2.1662740177
  - # 9
    frequency:    2.6947366580
  - # 10
    frequency:    6.2494428488
  - # 11
    frequency:    7.3978347743
  - # 12
    frequency:    7.4813172985
  - # 13
    frequency:   13.2618874832
  - # 14
    frequency:   13.7184677399
  - # 15
    frequency:   14.2774586923
  - # 16
    frequency:   14.5194147815
  - # 17
    frequency:   14.8127496072
  - # 18
    frequency:   15.0785504121

- q-position: [    0.0707071,    0.0000000,    0.0000000 ]
  distance:    0.0252224
  band:
  - # 1
    frequency:   -2.1674647407
  - # 2
    frequency:   -1.4776496742
  - # 3
    frequency:   -0.3339585670
  - # 4
    frequency:    0.8659666641
  - # 5
    frequency:    1.1262704861
  - # 6
    frequency:    1.8501513813
  - # 7
    frequency:    2.1352376210
  - # 8
    frequency:    2.1989936697
  - # 9
    frequency:    2.7399713777
  - # 10
    frequency:    6.2844877203
  - # 11
    frequency:    7.3551629447
  - # 12
    frequency:    7.4397261107
  - # 13
    frequency:   13.2390204314
  - # 14
    frequency:   13.7317321875
  - # 15
    frequency:   14.2584326809
  - # 16
    frequency:   14.6144704271
  - # 17
    frequency:   14.8100096088
  - # 18
    frequency:   15.1245504392

- q-position: [    0.0757576,    0.0000000,    0.0000000 ]
  distance:    0.0270240
  band:
  - # 1
    frequency:   -2.3053486196
  - # 2
    frequency:   -1.5702658742
  - # 3
    frequency:   -0.3310326139
  - # 4
    frequency:    0.8853207011
  - # 5
    frequency:    1.2015941595
  - # 6
    frequency:    1.9726254752
  - # 7
    frequency:    2.1811110838
  - # 8
    frequency:    2.2334343921
  - # 9
    frequency:    2.7851607938
  - # 10
    frequency:    6.3229919762
  - # 11
    frequency:    7.3149146145
  - # 12
    frequency:    7.3960239034
  - # 13
    frequency:   13.2157432344
  - # 14
    frequency:   13.7456319278
  - # 15
    frequency:   14.2386706361
  - # 16
    frequency:   14.7040600423
  - # 17
    frequency:   14.8071389091
  - # 18
    frequency:   15.1794168114

- q-position: [    0.0808081,    0.0000000,    0.0000000 ]
  distance:    0.0288256
  band:
  - # 1
    frequency:   -2.4405634438
  - # 2
    frequency:   -1.6613440064
  - # 3
    frequency:   -0.3233013986
  - # 4
    frequency:    0.9060440069
  - # 5
    frequency:    1.2754047668
  - # 6
    frequency:    2.0886138935
  - # 7
    frequency:    2.2337114340
  - # 8
    frequency:    2.2695150373
  - # 9
    frequency:    2.8309851055
  - # 10
    frequency:    6.3639145069
  - # 11
    frequency:    7.2787966566
  - # 12
    frequency:    7.3504012605
  - # 13
    frequency:   13.1921587072
  - # 14
    frequency:   13.7600985300
  - # 15
    frequency:   14.2181975581
  - # 16
    frequency:   14.7854952337
  - # 17
    frequency:   14.8041526600
  - # 18
    frequency:   15.2450402178

- q-position: [    0.0858586,    0.0000000,    0.0000000 ]
  distance:    0.0306272
  band:
  - # 1
    frequency:   -2.5729215886
  - # 2
    frequency:   -1.7507416178
  - # 3
    frequency:   -0.3096526884
  - # 4
    frequency:    0.9280786425
  - # 5
    frequency:    1.3475843291
  - # 6
    frequency:    2.1885279692
  - # 7
    frequency:    2.3010964078
  - # 8
    frequency:    2.3071652652
  - # 9
    frequency:    2.8784028750
  - # 10
    frequency:    6.4057537183
  - # 11
    frequency:    7.2488916186
  - # 12
    frequency:    7.3030558857
  - # 13
    frequency:   13.1683783930
  - # 14
    frequency:   13.7750608149
  - # 15
    frequency:   14.1970203284
  - # 16
    frequency:   14.8010668846
  - # 17
    frequency:   14.8570961427
  - # 18
    frequency:   15.3223535645

- q-position: [    0.0909091,    0.0000000,    0.0000000 ]
  distance:    0.0324288
  band:
  - # 1
    frequency:   -2.7022475267
  - # 2
    frequency:   -1.8383289585
  - # 3
    frequency:   -0.2882597618
  - # 4
    frequency:    0.9513668191
  - # 5
    frequency:    1.4180074123
  - # 6
    frequency:    2.2600675745
  - # 7
    frequency:    2.3463259331
  - # 8
    frequency:    2.3937496127
  - # 9
    frequency:    2.9286332374
  - # 10
    frequency:    6.4465258307
  - # 11
    frequency:    7.2276838707
  - # 12
    frequency:    7.2541913569
  - # 13
    frequency:   13.1445194187
  - # 14
    frequency:   13.7904452211
  - # 15
    frequency:   14.1751383689
  - # 16
    frequency:   14.7978984099
  - # 17
    frequency:   14.9188460945
  - # 18
    frequency:   15.4106722926

- q-position: [    0.0959596,    0.0000000,    0.0000000 ]
  distance:    0.0342304
  band:
  - # 1
    frequency:   -2.8283764251
  - # 2
    frequency:   -1.9239867476
  - # 3
    frequency:   -0.2559070474
  - # 4
    frequency:    0.9758510508
  - # 5
    frequency:    1.4865428520
  - # 6
    frequency:    2.3099467454
  - # 7
    frequency:    2.3869487904
  - # 8
    frequency:    2.5029304410
  - # 9
    frequency:    2.9830825911
  - # 10
    frequency:    6.4838828861
  - # 11
    frequency:    7.2040157863
  - # 12
    frequency:    7.2179465489
  - # 13
    frequency:   13.1207019991
  - # 14
    frequency:   13.8061761930
  - # 15
    frequency:   14.1525476762
  - # 16
    frequency:   14.7946647799
  - # 17
    frequency:   14.9721677935
  - # 18
    frequency:   15.5079180537

- q-position: [    0.1010101,    0.0000000,    0.0000000 ]
  distance:    0.0360320
  band:
  - # 1
    frequency:   -2.9511532268
  - # 2
    frequency:   -2.0076046403
  - # 3
    frequency:   -0.2057650641
  - # 4
    frequency:    1.0014740058
  - # 5
    frequency:    1.5530559266
  - # 6
    frequency:    2.3477552832
  - # 7
    frequency:    2.4289954034
  - # 8
    frequency:    2.6169627035
  - # 9
    frequency:    3.0431988947
  - # 10
    frequency:    6.5155046607
  - # 11
    frequency:    7.1527403889
  - # 12
    frequency:    7.2223535166
  - # 13
    frequency:   13.0970474498
  - # 14
    frequency:   13.8221765924
  - # 15
    frequency:   14.1292431005
  - # 16
    frequency:   14.7913841485
  - # 17
    frequency:   15.0190638077
  - # 18
    frequency:   15.6114785063

- q-position: [    0.1060606,    0.0000000,    0.0000000 ]
  distance:    0.0378336
  band:
  - # 1
    frequency:   -3.0704320531
  - # 2
    frequency:   -2.0890801634
  - # 3
    frequency:   -0.1134699243
  - # 4
    frequency:    1.0281782864
  - # 5
    frequency:    1.6174110887
  - # 6
    frequency:    2.3760331607
  - # 7
    frequency:    2.4724352775
  - # 8
    frequency:    2.7313712449
  - # 9
    frequency:    3.1102666959
  - # 10
    frequency:    6.5397872660
  - # 11
    frequency:    7.1005779575
  - # 12
    frequency:    7.2427924093
  - # 13
    frequency:   13.0736765877
  - # 14
    frequency:   13.8383681340
  - # 15
    frequency:   14.1052199268
  - # 16
    frequency:   14.7880751461
  - # 17
    frequency:   15.0614011815
  - # 18
    frequency:   15.7189226547

- q-position: [    0.1111111,    0.0000000,    0.0000000 ]
  distance:    0.0396352
  band:
  - # 1
    frequency:   -3.1860758206
  - # 2
    frequency:   -2.1683179696
  - # 3
    frequency:    0.1539080123
  - # 4
    frequency:    1.0559061728
  - # 5
    frequency:    1.6794752798
  - # 6
    frequency:    2.3948806240
  - # 7
    frequency:    2.5172432057
  - # 8
    frequency:    2.8444927046
  - # 9
    frequency:    3.1851932378
  - # 10
    frequency:    6.5565113397
  - # 11
    frequency:    7.0477412497
  - # 12
    frequency:    7.2796953117
  - # 13
    frequency:   13.0507084251
  - # 14
    frequency:   13.8546718475
  - # 15
    frequency:   14.0804750940
  - # 16
    frequency:   14.7847567192
  - # 17
    frequency:   15.1006347528
  - # 18
    frequency:   15.8282770819

- q-position: [    0.1161616,    0.0000000,    0.0000000 ]
  distance:    0.0414368
  band:
  - # 1
    frequency:   -3.2979560023
  - # 2
    frequency:   -2.2452293119
  - # 3
    frequency:    0.2610022653
  - # 4
    frequency:    1.0845992731
  - # 5
    frequency:    1.7391217515
  - # 6
    frequency:    2.4039904580
  - # 7
    frequency:    2.5633959726
  - # 8
    frequency:    2.9556108146
  - # 9
    frequency:    3.2683481895
  - # 10
    frequency:    6.5669672781
  - # 11
    frequency:    6.9944412905
  - # 12
    frequency:    7.3319097260
  - # 13
    frequency:   13.0282590820
  - # 14
    frequency:   13.8710085677
  - # 15
    frequency:   14.0550081929
  - # 16
    frequency:   14.7814479365
  - # 17
    frequency:   15.1378101287
  - # 18
    frequency:   15.9380221870

- q-position: [    0.1212121,    0.0000000,    0.0000000 ]
  distance:    0.0432384
  band:
  - # 1
    frequency:   -3.4059524876
  - # 2
    frequency:   -2.3197316730
  - # 3
    frequency:    0.3480853015
  - # 4
    frequency:    1.1141979659
  - # 5
    frequency:    1.7962341912
  - # 6
    frequency:    2.4031625888
  - # 7
    frequency:    2.6108686496
  - # 8
    frequency:    3.0645111297
  - # 9
    frequency:    3.3595012341
  - # 10
    frequency:    6.5734210599
  - # 11
    frequency:    6.9408855989
  - # 12
    frequency:    7.3972270190
  - # 13
    frequency:   13.0064408592
  - # 14
    frequency:   13.8872994534
  - # 15
    frequency:   14.0288223237
  - # 16
    frequency:   14.7781677605
  - # 17
    frequency:   15.1736561963
  - # 18
    frequency:   16.0469986359

- q-position: [    0.1262626,    0.0000000,    0.0000000 ]
  distance:    0.0450400
  band:
  - # 1
    frequency:   -3.5099535083
  - # 2
    frequency:   -2.3917485028
  - # 3
    frequency:    0.4283534964
  - # 4
    frequency:    1.1446404741
  - # 5
    frequency:    1.8507108390
  - # 6
    frequency:    2.3923699214
  - # 7
    frequency:    2.6596308262
  - # 8
    frequency:    3.1713623722
  - # 9
    frequency:    3.4578806055
  - # 10
    frequency:    6.5783723762
  - # 11
    frequency:    6.8872763504
  - # 12
    frequency:    7.4731178561
  - # 13
    frequency:   12.9853614268
  - # 14
    frequency:   13.9034665357
  - # 15
    frequency:   14.0019248615
  - # 16
    frequency:   14.7749347823
  - # 17
    frequency:   15.2086783302
  - # 18
    frequency:   16.1543129357

- q-position: [    0.1313131,    0.0000000,    0.0000000 ]
  distance:    0.0468416
  band:
  - # 1
    frequency:   -3.6098556081
  - # 2
    frequency:   -2.4612090331
  - # 3
    frequency:    0.5056532309
  - # 4
    frequency:    1.1758613153
  - # 5
    frequency:    1.9024682026
  - # 6
    frequency:    2.3717020095
  - # 7
    frequency:    2.7096431912
  - # 8
    frequency:    3.2766020781
  - # 9
    frequency:    3.5623474806
  - # 10
    frequency:    6.5840456986
  - # 11
    frequency:    6.8338084895
  - # 12
    frequency:    7.5572354544
  - # 13
    frequency:   12.9651230967
  - # 14
    frequency:   13.9194332951
  - # 15
    frequency:   13.9743281686
  - # 16
    frequency:   14.7717669175
  - # 17
    frequency:   15.2432289828
  - # 18
    frequency:   16.2592655050

- q-position: [    0.1363636,    0.0000000,    0.0000000 ]
  distance:    0.0486432
  band:
  - # 1
    frequency:   -3.7055636405
  - # 2
    frequency:   -2.5280481477
  - # 3
    frequency:    0.5815883378
  - # 4
    frequency:    1.2077886891
  - # 5
    frequency:    1.9514439702
  - # 6
    frequency:    2.3412985470
  - # 7
    frequency:    2.7608548789
  - # 8
    frequency:    3.3807741957
  - # 9
    frequency:    3.6716261034
  - # 10
    frequency:    6.5921931210
  - # 11
    frequency:    6.7806678129
  - # 12
    frequency:    7.6476092550
  - # 13
    frequency:   12.9458221540
  - # 14
    frequency:   13.9351252645
  - # 15
    frequency:   13.9460502791
  - # 16
    frequency:   14.7686810641
  - # 17
    frequency:   15.2775562063
  - # 18
    frequency:   16.3613007296

- q-position: [    0.1414141,    0.0000000,    0.0000000 ]
  distance:    0.0504448
  band:
  - # 1
    frequency:   -3.7969907825
  - # 2
    frequency:   -2.5922062901
  - # 3
    frequency:    0.6568990563
  - # 4
    frequency:    1.2403399648
  - # 5
    frequency:    1.9975987953
  - # 6
    frequency:    2.3013055648
  - # 7
    frequency:    2.8132019155
  - # 8
    frequency:    3.4843783777
  - # 9
    frequency:    3.7844974107
  - # 10
    frequency:    6.6040878531
  - # 11
    frequency:    6.7280290464
  - # 12
    frequency:    7.7426512442
  - # 13
    frequency:   12.9275482337
  - # 14
    frequency:   13.9171155777
  - # 15
    frequency:   13.9504706549
  - # 16
    frequency:   14.7656927261
  - # 17
    frequency:   15.3118358888
  - # 18
    frequency:   16.4599732470

- q-position: [    0.1464646,    0.0000000,    0.0000000 ]
  distance:    0.0522464
  band:
  - # 1
    frequency:   -3.8840585570
  - # 2
    frequency:   -2.6536293992
  - # 3
    frequency:    0.7318974693
  - # 4
    frequency:    1.2734135864
  - # 5
    frequency:    2.0409167766
  - # 6
    frequency:    2.2518567339
  - # 7
    frequency:    2.8666069394
  - # 8
    frequency:    3.5877844125
  - # 9
    frequency:    3.8999025297
  - # 10
    frequency:    6.6205907523
  - # 11
    frequency:    6.6760539452
  - # 12
    frequency:    7.8410931063
  - # 13
    frequency:   12.9103837311
  - # 14
    frequency:   13.8875554874
  - # 15
    frequency:   13.9654009955
  - # 16
    frequency:   14.7628156068
  - # 17
    frequency:   15.3461930184
  - # 18
    frequency:   16.5549251623

- q-position: [    0.1515152,    0.0000000,    0.0000000 ]
  distance:    0.0540480
  band:
  - # 1
    frequency:   -3.9666968572
  - # 2
    frequency:   -2.7122688625
  - # 3
    frequency:    0.8066320256
  - # 4
    frequency:    1.3068737763
  - # 5
    frequency:    2.0814046503
  - # 6
    frequency:    2.1930768986
  - # 7
    frequency:    2.9209801764
  - # 8
    frequency:    3.6912117469
  - # 9
    frequency:    4.0169651381
  - # 10
    frequency:    6.6248894507
  - # 11
    frequency:    6.6422293401
  - # 12
    frequency:    7.9419146912
  - # 13
    frequency:   12.8944032423
  - # 14
    frequency:   13.8574091776
  - # 15
    frequency:   13.9798517798
  - # 16
    frequency:   14.7600611817
  - # 17
    frequency:   15.3807157913
  - # 18
    frequency:   16.6458703854

- q-position: [    0.1565657,    0.0000000,    0.0000000 ]
  distance:    0.0558496
  band:
  - # 1
    frequency:   -4.0448439685
  - # 2
    frequency:   -2.7680814813
  - # 3
    frequency:    0.8809390587
  - # 4
    frequency:    1.3405197118
  - # 5
    frequency:    2.1190898897
  - # 6
    frequency:    2.1251144005
  - # 7
    frequency:    2.9762214586
  - # 8
    frequency:    3.7947455742
  - # 9
    frequency:    4.1349696900
  - # 10
    frequency:    6.5746659426
  - # 11
    frequency:    6.6692679450
  - # 12
    frequency:    8.0442844933
  - # 13
    frequency:   12.8796730338
  - # 14
    frequency:   13.8267242970
  - # 15
    frequency:   13.9937631032
  - # 16
    frequency:   14.7574382618
  - # 17
    frequency:   15.4154650844
  - # 18
    frequency:   16.7325835703

- q-position: [    0.1616162,    0.0000000,    0.0000000 ]
  distance:    0.0576512
  band:
  - # 1
    frequency:   -4.1184465844
  - # 2
    frequency:   -2.8210294438
  - # 3
    frequency:    0.9544135971
  - # 4
    frequency:    1.3740183470
  - # 5
    frequency:    2.0482353356
  - # 6
    frequency:    2.1540180316
  - # 7
    frequency:    3.0322229492
  - # 8
    frequency:    3.8983641027
  - # 9
    frequency:    4.2533264755
  - # 10
    frequency:    6.5254956277
  - # 11
    frequency:    6.7017647095
  - # 12
    frequency:    8.1475153194
  - # 13
    frequency:   12.8662505426
  - # 14
    frequency:   13.7955577351
  - # 15
    frequency:   14.0070802770
  - # 16
    frequency:   14.7549525639
  - # 17
    frequency:   15.4504809123
  - # 18
    frequency:   16.8148920342

- q-position: [    0.1666667,    0.0000000,    0.0000000 ]
  distance:    0.0594528
  band:
  - # 1
    frequency:   -4.1874598144
  - # 2
    frequency:   -2.8710803005
  - # 3
    frequency:    1.0262600399
  - # 4
    frequency:    1.4067436619
  - # 5
    frequency:    1.9630861658
  - # 6
    frequency:    2.1862495965
  - # 7
    frequency:    3.0888721846
  - # 8
    frequency:    4.0019641204
  - # 9
    frequency:    4.3715394118
  - # 10
    frequency:    6.4774711096
  - # 11
    frequency:    6.7396166266
  - # 12
    frequency:    8.2510327243
  - # 13
    frequency:   12.8541839109
  - # 14
    frequency:   13.7639764093
  - # 15
    frequency:   14.0197543980
  - # 16
    frequency:   14.7526063065
  - # 17
    frequency:   15.4857869040
  - # 18
    frequency:   16.8926696175

- q-position: [    0.1717172,    0.0000000,    0.0000000 ]
  distance:    0.0612544
  band:
  - # 1
    frequency:   -4.2518471808
  - # 2
    frequency:   -2.9182069410
  - # 3
    frequency:    1.0948423728
  - # 4
    frequency:    1.4373506692
  - # 5
    frequency:    1.8714676123
  - # 6
    frequency:    2.2158569316
  - # 7
    frequency:    3.1460550719
  - # 8
    frequency:    4.1053809943
  - # 9
    frequency:    4.4891817166
  - # 10
    frequency:    6.4306641858
  - # 11
    frequency:    6.7825947568
  - # 12
    frequency:    8.3543528812
  - # 13
    frequency:   12.8435115612
  - # 14
    frequency:   13.7320580693
  - # 15
    frequency:   14.0317428537
  - # 16
    frequency:   14.7503978519
  - # 17
    frequency:   15.5213934618
  - # 18
    frequency:   16.9658318149

- q-position: [    0.1767677,    0.0000000,    0.0000000 ]
  distance:    0.0630560
  band:
  - # 1
    frequency:   -4.3115806051
  - # 2
    frequency:   -2.9623875697
  - # 3
    frequency:    1.1562484520
  - # 4
    frequency:    1.4625850685
  - # 5
    frequency:    1.7787726622
  - # 6
    frequency:    2.2429212258
  - # 7
    frequency:    3.2036585664
  - # 8
    frequency:    4.2084033403
  - # 9
    frequency:    4.6058795041
  - # 10
    frequency:    6.3851249164
  - # 11
    frequency:    6.8303715546
  - # 12
    frequency:    8.4570670521
  - # 13
    frequency:   12.8342618171
  - # 14