nqpoint: 300    
npath: 3      
segment_nqpoint:
- 100
- 100
- 100
labels:
- [ 'G', 'M' ]
- [ 'M', 'K' ]
- [ 'K', 'G' ]
reciprocal_lattice:
- [   0.29509224,   0.17037158,   0.00000000 ] # a*
- [   0.00000000,   0.34074317,   0.00000000 ] # b*
- [   0.00000000,   0.00000000,   0.03685099 ] # c*
natom: 8      
lattice:
- [     3.388770917717451,     0.000000000000000,     0.000000000000000 ] # a
- [    -1.694385458858725,     2.934761702352835,     0.000000000000000 ] # b
- [     0.000000000000000,     0.000000000000000,    27.136314008596187 ] # c
points:
- symbol: C # 1
  coordinates: [  0.000000000000000,  0.000000000000000,  0.516444908691594 ]
  mass: 12.010700
- symbol: C # 2
  coordinates: [  0.666666984744047,  0.333332985985145,  0.376069127594612 ]
  mass: 12.010700
- symbol: Cl # 3
  coordinates: [  0.333332985432215,  0.666666983183674,  0.668341101995319 ]
  mass: 35.453000
- symbol: N # 4
  coordinates: [  0.666666984744047,  0.333332985985145,  0.421965877959531 ]
  mass: 14.006700
- symbol: O # 5
  coordinates: [  0.333332985432215,  0.666666983183674,  0.604124888806217 ]
  mass: 15.999400
- symbol: O # 6
  coordinates: [  0.666666984744047,  0.333332985985145,  0.331658898004681 ]
  mass: 15.999400
- symbol: Sc # 7
  coordinates: [  0.333332985432215,  0.666666983183674,  0.471068516804312 ]
  mass: 44.955912
- symbol: Sc # 8
  coordinates: [  0.666666984744047,  0.333332985985145,  0.563445405386896 ]
  mass: 44.955912

phonon:
- q-position: [    0.0000000,    0.0000000,    0.0000000 ]
  distance:    0.0000000
  band:
  - # 1
    frequency:   -1.5464082726
  - # 2
    frequency:   -1.5464082726
  - # 3
    frequency:   -0.9447784891
  - # 4
    frequency:   -0.9447784891
  - # 5
    frequency:   -0.0000012826
  - # 6
    frequency:   -0.0000004501
  - # 7
    frequency:    0.0000015675
  - # 8
    frequency:    4.3257921068
  - # 9
    frequency:    4.3257921068
  - # 10
    frequency:    5.1194840862
  - # 11
    frequency:    6.2767456010
  - # 12
    frequency:    6.2767456010
  - # 13
    frequency:    8.1896386113
  - # 14
    frequency:    8.1896386113
  - # 15
    frequency:    8.3583682165
  - # 16
    frequency:   11.0961964947
  - # 17
    frequency:   11.0961964947
  - # 18
    frequency:   11.6306207512
  - # 19
    frequency:   16.7288482243
  - # 20
    frequency:   17.7022653022
  - # 21
    frequency:   17.7022653022
  - # 22
    frequency:   19.4103238925
  - # 23
    frequency:   38.8267977233
  - # 24
    frequency:   69.3756817561

- q-position: [    0.0050505,    0.0000000,    0.0000000 ]
  distance:    0.0017209
  band:
  - # 1
    frequency:   -1.5453066419
  - # 2
    frequency:   -1.5423945677
  - # 3
    frequency:   -0.9440534943
  - # 4
    frequency:   -0.9424521616
  - # 5
    frequency:   -0.0448063482
  - # 6
    frequency:    0.0752848499
  - # 7
    frequency:    0.1252132643
  - # 8
    frequency:    4.3262835644
  - # 9
    frequency:    4.3277102845
  - # 10
    frequency:    5.1193345983
  - # 11
    frequency:    6.2770296258
  - # 12
    frequency:    6.2797890355
  - # 13
    frequency:    8.1898299985
  - # 14
    frequency:    8.1911363521
  - # 15
    frequency:    8.3591877116
  - # 16
    frequency:   11.0967606418
  - # 17
    frequency:   11.1021413008
  - # 18
    frequency:   11.6302063365
  - # 19
    frequency:   16.7285496047
  - # 20
    frequency:   17.7023189143
  - # 21
    frequency:   17.7026506015
  - # 22
    frequency:   19.4090425420
  - # 23
    frequency:   38.8267402175
  - # 24
    frequency:   69.3741801105

- q-position: [    0.0101010,    0.0000000,    0.0000000 ]
  distance:    0.0034419
  band:
  - # 1
    frequency:   -1.5420032239
  - # 2
    frequency:   -1.5303297874
  - # 3
    frequency:   -0.9418982394
  - # 4
    frequency:   -0.9355523107
  - # 5
    frequency:   -0.0519652963
  - # 6
    frequency:    0.1507220278
  - # 7
    frequency:    0.2402811176
  - # 8
    frequency:    4.3277561296
  - # 9
    frequency:    4.3334153992
  - # 10
    frequency:    5.1188896075
  - # 11
    frequency:    6.2778792402
  - # 12
    frequency:    6.2888122888
  - # 13
    frequency:    8.1904014767
  - # 14
    frequency:    8.1954916288
  - # 15
    frequency:    8.3617445268
  - # 16
    frequency:   11.0984496200
  - # 17
    frequency:   11.1198847425
  - # 18
    frequency:   11.6290829870
  - # 19
    frequency:   16.7276544315
  - # 20
    frequency:   17.7024796083
  - # 21
    frequency:   17.7038048621
  - # 22
    frequency:   19.4052025118
  - # 23
    frequency:   38.8265678794
  - # 24
    frequency:   69.3696797394

- q-position: [    0.0151515,    0.0000000,    0.0000000 ]
  distance:    0.0051628
  band:
  - # 1
    frequency:   -1.5365022470
  - # 2
    frequency:   -1.5101408883
  - # 3
    frequency:   -0.9383692741
  - # 4
    frequency:   -0.9242916925
  - # 5
    frequency:   -0.0578679652
  - # 6
    frequency:    0.2264492339
  - # 7
    frequency:    0.3583803177
  - # 8
    frequency:    4.3302043980
  - # 9
    frequency:    4.3427637526
  - # 10
    frequency:    5.1181595800
  - # 11
    frequency:    6.2792871018
  - # 12
    frequency:    6.3035018482
  - # 13
    frequency:    8.1913450312
  - # 14
    frequency:    8.2022886980
  - # 15
    frequency:    8.3663353016
  - # 16
    frequency:   11.1012530561
  - # 17
    frequency:   11.1491022765
  - # 18
    frequency:   11.6276573218
  - # 19
    frequency:   16.7261647351
  - # 20
    frequency:   17.7027469582
  - # 21
    frequency:   17.7057231991
  - # 22
    frequency:   19.3988158618
  - # 23
    frequency:   38.8262812450
  - # 24
    frequency:   69.3621943164

- q-position: [    0.0202020,    0.0000000,    0.0000000 ]
  distance:    0.0068837
  band:
  - # 1
    frequency:   -1.5288101177
  - # 2
    frequency:   -1.4816990997
  - # 3
    frequency:   -0.9335525513
  - # 4
    frequency:   -0.9089518633
  - # 5
    frequency:   -0.0603623515
  - # 6
    frequency:    0.3025771506
  - # 7
    frequency:    0.4785000334
  - # 8
    frequency:    4.3336194263
  - # 9
    frequency:    4.3555301578
  - # 10
    frequency:    5.1171621190
  - # 11
    frequency:    6.2812410928
  - # 12
    frequency:    6.3233600434
  - # 13
    frequency:    8.1926474195
  - # 14
    frequency:    8.2108401163
  - # 15
    frequency:    8.3734485719
  - # 16
    frequency:   11.1051537136
  - # 17
    frequency:   11.1890498806
  - # 18
    frequency:   11.6267948046
  - # 19
    frequency:   16.7240838141
  - # 20
    frequency:   17.7031202571
  - # 21
    frequency:   17.7083975546
  - # 22
    frequency:   19.3899026777
  - # 23
    frequency:   38.8258812054
  - # 24
    frequency:   69.3517465527

- q-position: [    0.0252525,    0.0000000,    0.0000000 ]
  distance:    0.0086046
  band:
  - # 1
    frequency:   -1.5189344835
  - # 2
    frequency:   -1.4448087174
  - # 3
    frequency:   -0.9275526379
  - # 4
    frequency:   -0.8898016132
  - # 5
    frequency:   -0.0549269046
  - # 6
    frequency:    0.3791810704
  - # 7
    frequency:    0.6004501742
  - # 8
    frequency:    4.3379888271
  - # 9
    frequency:    4.3714265793
  - # 10
    frequency:    5.1159222201
  - # 11
    frequency:    6.2837244970
  - # 12
    frequency:    6.3477401625
  - # 13
    frequency:    8.1942903430
  - # 14
    frequency:    8.2202363241
  - # 15
    frequency:    8.3837160651
  - # 16
    frequency:   11.1101275739
  - # 17
    frequency:   11.2381272522
  - # 18
    frequency:   11.6282344186
  - # 19
    frequency:   16.7214161114
  - # 20
    frequency:   17.7035985217
  - # 21
    frequency:   17.7118168211
  - # 22
    frequency:   19.3784910502
  - # 23
    frequency:   38.8253690021
  - # 24
    frequency:   69.3383680804

- q-position: [    0.0303030,    0.0000000,    0.0000000 ]
  distance:    0.0103256
  band:
  - # 1
    frequency:   -1.5068829626
  - # 2
    frequency:   -1.3991904238
  - # 3
    frequency:   -0.9204805571
  - # 4
    frequency:   -0.8670251178
  - # 5
    frequency:   -0.0264310116
  - # 6
    frequency:    0.4562974863
  - # 7
    frequency:    0.7241234005
  - # 8
    frequency:    4.3432968981
  - # 9
    frequency:    4.3901234027
  - # 10
    frequency:    5.1144726540
  - # 11
    frequency:    6.2867162405
  - # 12
    frequency:    6.3758912055
  - # 13
    frequency:    8.1962506820
  - # 14
    frequency:    8.2294828471
  - # 15
    frequency:    8.3977792831
  - # 16
    frequency:   11.1161439511
  - # 17
    frequency:   11.2929371299
  - # 18
    frequency:   11.6355003509
  - # 19
    frequency:   16.7181670497
  - # 20
    frequency:   17.7041804988
  - # 21
    frequency:   17.7159670051
  - # 22
    frequency:   19.3646170480
  - # 23
    frequency:   38.8247462214
  - # 24
    frequency:   69.3220992896

- q-position: [    0.0353535,    0.0000000,    0.0000000 ]
  distance:    0.0120465
  band:
  - # 1
    frequency:   -1.4926615825
  - # 2
    frequency:   -1.3444592699
  - # 3
    frequency:   -0.9124423894
  - # 4
    frequency:   -0.8406749137
  - # 5
    frequency:    0.0656480624
  - # 6
    frequency:    0.5339255411
  - # 7
    frequency:    0.8493817190
  - # 8
    frequency:    4.3495247851
  - # 9
    frequency:    4.4112701033
  - # 10
    frequency:    5.1128545009
  - # 11
    frequency:    6.2901911892
  - # 12
    frequency:    6.4070079040
  - # 13
    frequency:    8.1985007897
  - # 14
    frequency:    8.2377217636
  - # 15
    frequency:    8.4160763820
  - # 16
    frequency:   11.1231656447
  - # 17
    frequency:   11.3466861013
  - # 18
    frequency:   11.6554675947
  - # 19
    frequency:   16.7143428326
  - # 20
    frequency:   17.7048646733
  - # 21
    frequency:   17.7208314255
  - # 22
    frequency:   19.3483246861
  - # 23
    frequency:   38.8240147875
  - # 24
    frequency:   69.3029891218

- q-position: [    0.0404040,    0.0000000,    0.0000000 ]
  distance:    0.0137674
  band:
  - # 1
    frequency:   -1.4762729719
  - # 2
    frequency:   -1.2801004778
  - # 3
    frequency:   -0.9035303325
  - # 4
    frequency:   -0.8106450342
  - # 5
    frequency:    0.1153289484
  - # 6
    frequency:    0.6120322869
  - # 7
    frequency:    0.9760562544
  - # 8
    frequency:    4.3566506747
  - # 9
    frequency:    4.4345127652
  - # 10
    frequency:    5.1111178642
  - # 11
    frequency:    6.2941204969
  - # 12
    frequency:    6.4402808780
  - # 13
    frequency:    8.2010088397
  - # 14
    frequency:    8.2444324826
  - # 15
    frequency:    8.4386553109
  - # 16
    frequency:   11.1311491321
  - # 17
    frequency:   11.3888805648
  - # 18
    frequency:   11.6986309019
  - # 19
    frequency:   16.7099502233
  - # 20
    frequency:   17.7056492776
  - # 21
    frequency:   17.7263909377
  - # 22
    frequency:   19.3296658911
  - # 23
    frequency:   38.8231769526
  - # 24
    frequency:   69.2810948195

- q-position: [    0.0454545,    0.0000000,    0.0000000 ]
  distance:    0.0154883
  band:
  - # 1
    frequency:   -1.4577143462
  - # 2
    frequency:   -1.2054559315
  - # 3
    frequency:   -0.8938171169
  - # 4
    frequency:   -0.7766392863
  - # 5
    frequency:    0.1673086780
  - # 6
    frequency:    0.6905601438
  - # 7
    frequency:    1.1039630590
  - # 8
    frequency:    4.3646500131
  - # 9
    frequency:    4.4595069635
  - # 10
    frequency:    5.1093227910
  - # 11
    frequency:    6.2984719931
  - # 12
    frequency:    6.4749418154
  - # 13
    frequency:    8.2037392204
  - # 14
    frequency:    8.2494802375
  - # 15
    frequency:    8.4651446752
  - # 16
    frequency:   11.1400448040
  - # 17
    frequency:   11.4116815539
  - # 18
    frequency:   11.7727170711
  - # 19
    frequency:   16.7049963079
  - # 20
    frequency:   17.7065323033
  - # 21
    frequency:   17.7326241765
  - # 22
    frequency:   19.3087004674
  - # 23
    frequency:   38.8222352874
  - # 24
    frequency:   69.2564816340

- q-position: [    0.0505051,    0.0000000,    0.0000000 ]
  distance:    0.0172093
  band:
  - # 1
    frequency:   -1.4369753238
  - # 2
    frequency:   -1.1197645997
  - # 3
    frequency:   -0.8833537763
  - # 4
    frequency:   -0.7380829328
  - # 5
    frequency:    0.2253306312
  - # 6
    frequency:    0.7694349007
  - # 7
    frequency:    1.2329133360
  - # 8
    frequency:    4.3734957483
  - # 9
    frequency:    4.4859256017
  - # 10
    frequency:    5.1075404304
  - # 11
    frequency:    6.3032106040
  - # 12
    frequency:    6.5102994788
  - # 13
    frequency:    8.2066529678
  - # 14
    frequency:    8.2530082328
  - # 15
    frequency:    8.4948849209
  - # 16
    frequency:   11.1497972460
  - # 17
    frequency:   11.4166283580
  - # 18
    frequency:   11.8759344402
  - # 19
    frequency:   16.6994882583
  - # 20
    frequency:   17.7075115139
  - # 21
    frequency:   17.7395078052
  - # 22
    frequency:   19.2854960685
  - # 23
    frequency:   38.8211926688
  - # 24
    frequency:   69.2292224937

- q-position: [    0.0555556,    0.0000000,    0.0000000 ]
  distance:    0.0189302
  band:
  - # 1
    frequency:   -1.4140355844
  - # 2
    frequency:   -1.0223969849
  - # 3
    frequency:   -0.8721701035
  - # 4
    frequency:   -0.6938552968
  - # 5
    frequency:    0.2918687540
  - # 6
    frequency:    0.8485729842
  - # 7
    frequency:    1.3627166201
  - # 8
    frequency:    4.3831585911
  - # 9
    frequency:    4.5134621452
  - # 10
    frequency:    5.1058544549
  - # 11
    frequency:    6.3082987944
  - # 12
    frequency:    6.5457640105
  - # 13
    frequency:    8.2097082302
  - # 14
    frequency:    8.2552861644
  - # 15
    frequency:    8.5271045598
  - # 16
    frequency:   11.1603455671
  - # 17
    frequency:   11.4095274151
  - # 18
    frequency:   12.0020663466
  - # 19
    frequency:   16.6934331029
  - # 20
    frequency:   17.7085844588
  - # 21
    frequency:   17.7470167664
  - # 22
    frequency:   19.2601281766
  - # 23
    frequency:   38.8200522665
  - # 24
    frequency:   69.1993976349

- q-position: [    0.0606061,    0.0000000,    0.0000000 ]
  distance:    0.0206511
  band:
  - # 1
    frequency:   -1.3888623552
  - # 2
    frequency:   -0.9137287304
  - # 3
    frequency:   -0.8602768100
  - # 4
    frequency:   -0.6414890089
  - # 5
    frequency:    0.3699245875
  - # 6
    frequency:    0.9278872859
  - # 7
    frequency:    1.4931803762
  - # 8
    frequency:    4.3936072912
  - # 9
    frequency:    4.5418302004
  - # 10
    frequency:    5.1043627572
  - # 11
    frequency:    6.3136970237
  - # 12
    frequency:    6.5808589882
  - # 13
    frequency:    8.2128607548
  - # 14
    frequency:    8.2566036365
  - # 15
    frequency:    8.5610498570
  - # 16
    frequency:   11.1716237797
  - # 17
    frequency:   11.3947671263
  - # 18
    frequency:   12.1461499311
  - # 19
    frequency:   16.6868375211
  - # 20
    frequency:   17.7097484886
  - # 21
    frequency:   17.7551245215
  - # 22
    frequency:   19.2326800999
  - # 23
    frequency:   38.8188175283
  - # 24
    frequency:   69.1670941970

- q-position: [    0.0656566,    0.0000000,    0.0000000 ]
  distance:    0.0223720
  band:
  - # 1
    frequency:   -1.3614076662
  - # 2
    frequency:   -0.8476684370
  - # 3
    frequency:   -0.7978342465
  - # 4
    frequency:   -0.5748613693
  - # 5
    frequency:    0.4636342621
  - # 6
    frequency:    1.0072913591
  - # 7
    frequency:    1.6241090305
  - # 8
    frequency:    4.4048089247
  - # 9
    frequency:    4.5707605799
  - # 10
    frequency:    5.1031794023
  - # 11
    frequency:    6.3193642047
  - # 12
    frequency:    6.6152224830
  - # 13
    frequency:    8.2160643887
  - # 14
    frequency:    8.2572215990
  - # 15
    frequency:    8.5960520924
  - # 16
    frequency:   11.1835612289
  - # 17
    frequency:   11.3748117860
  - # 18
    frequency:   12.3049874828
  - # 19
    frequency:   16.6797076737
  - # 20
    frequency:   17.7110007719
  - # 21
    frequency:   17.7638032738
  - # 22
    frequency:   19.2032429919
  - # 23
    frequency:   38.8174921643
  - # 24
    frequency:   69.1324057854

- q-position: [    0.0707071,    0.0000000,    0.0000000 ]
  distance:    0.0240930
  band:
  - # 1
    frequency:   -1.3316052613
  - # 2
    frequency:   -0.8343262838
  - # 3
    frequency:   -0.6870663104
  - # 4
    frequency:   -0.4799271536
  - # 5
    frequency:    0.5773820237
  - # 6
    frequency:    1.0867021470
  - # 7
    frequency:    1.7553037558
  - # 8
    frequency:    4.4167291892
  - # 9
    frequency:    4.5999969903
  - # 10
    frequency:    5.1024367455
  - # 11
    frequency:    6.3252581597
  - # 12
    frequency:    6.6485995947
  - # 13
    frequency:    8.2192715853
  - # 14
    frequency:    8.2573600566
  - # 15
    frequency:    8.6315523157
  - # 16
    frequency:   11.1960830736
  - # 17
    frequency:   11.3509999796
  - # 18
    frequency:   12.4763637106
  - # 19
    frequency:   16.6720490869
  - # 20
    frequency:   17.7123383127
  - # 21
    frequency:   17.7730241642
  - # 22
    frequency:   19.1719159075
  - # 23
    frequency:   38.8160801293
  - # 24
    frequency:   69.0954320044

- q-position: [    0.0757576,    0.0000000,    0.0000000 ]
  distance:    0.0258139
  band:
  - # 1
    frequency:   -1.2993669768
  - # 2
    frequency:   -0.8202208888
  - # 3
    frequency:   -0.5946485143
  - # 4
    frequency:   -0.3357407342
  - # 5
    frequency:    0.7112699440
  - # 6
    frequency:    1.1660415598
  - # 7
    frequency:    1.8865630087
  - # 8
    frequency:    4.4293327022
  - # 9
    frequency:    4.6292914031
  - # 10
    frequency:    5.1022875007
  - # 11
    frequency:    6.3313360649
  - # 12
    frequency:    6.6808294426
  - # 13
    frequency:    8.2224339089
  - # 14
    frequency:    8.2572013180
  - # 15
    frequency:    8.6671037344
  - # 16
    frequency:   11.2091108159
  - # 17
    frequency:   11.3240959965
  - # 18
    frequency:   12.6585178458
  - # 19
    frequency:   16.6638666095
  - # 20
    frequency:   17.7137579685
  - # 21
    frequency:   17.7827574327
  - # 22
    frequency:   19.1388059043
  - # 23
    frequency:   38.8145856047
  - # 24
    frequency:   69.0562779634

- q-position: [    0.0808081,    0.0000000,    0.0000000 ]
  distance:    0.0275348
  band:
  - # 1
    frequency:   -1.2645783021
  - # 2
    frequency:   -0.8053138284
  - # 3
    frequency:   -0.5154235558
  - # 4
    frequency:    0.0697386145
  - # 5
    frequency:    0.8571195822
  - # 6
    frequency:    1.2452372406
  - # 7
    frequency:    2.0176832036
  - # 8
    frequency:    4.4425833008
  - # 9
    frequency:    4.6584001545
  - # 10
    frequency:    5.1029063269
  - # 11
    frequency:    6.3375548781
  - # 12
    frequency:    6.7118294525
  - # 13
    frequency:    8.2255025286
  - # 14
    frequency:    8.2568975520
  - # 15
    frequency:    8.7023635285
  - # 16
    frequency:   11.2225628778
  - # 17
    frequency:   11.2945696008
  - # 18
    frequency:   12.8498920168
  - # 19
    frequency:   16.6551644714
  - # 20
    frequency:   17.7152564699
  - # 21
    frequency:   17.7929725342
  - # 22
    frequency:   19.1040282108
  - # 23
    frequency:   38.8130129793
  - # 24
    frequency:   69.0150537596

- q-position: [    0.0858586,    0.0000000,    0.0000000 ]
  distance:    0.0292557
  band:
  - # 1
    frequency:   -1.2270926970
  - # 2
    frequency:   -0.7895587401
  - # 3
    frequency:   -0.4361918129
  - # 4
    frequency:    0.3396648020
  - # 5
    frequency:    1.0044209499
  - # 6
    frequency:    1.3242228060
  - # 7
    frequency:    2.1484588454
  - # 8
    frequency:    4.4564443384
  - # 9
    frequency:    4.6870819481
  - # 10
    frequency:    5.1044901614
  - # 11
    frequency:    6.3438717445
  - # 12
    frequency:    6.7415792286
  - # 13
    frequency:    8.2284286963
  - # 14
    frequency:    8.2565781258
  - # 15
    frequency:    8.7370799633
  - # 16
    frequency:   11.2363552202
  - # 17
    frequency:   11.2627333430
  - # 18
    frequency:   13.0490234797
  - # 19
    frequency:   16.6459464810
  - # 20
    frequency:   17.7168304395
  - # 21
    frequency:   17.8036381963
  - # 22
    frequency:   19.0677064807
  - # 23
    frequency:   38.8113668285
  - # 24
    frequency:   68.9718739402

- q-position: [    0.0909091,    0.0000000,    0.0000000 ]
  distance:    0.0309767
  band:
  - # 1
    frequency:   -1.1867240322
  - # 2
    frequency:   -0.7729015366
  - # 3
    frequency:   -0.3441226157
  - # 4
    frequency:    0.4715007552
  - # 5
    frequency:    1.1472536056
  - # 6
    frequency:    1.4029377715
  - # 7
    frequency:    2.2786816354
  - # 8
    frequency:    4.4708789760
  - # 9
    frequency:    4.7150992418
  - # 10
    frequency:    5.1072560705
  - # 11
    frequency:    6.3502443780
  - # 12
    frequency:    6.7701055862
  - # 13
    frequency:    8.2311642036
  - # 14
    frequency:    8.2563554144
  - # 15
    frequency:    8.7710777871
  - # 16
    frequency:   11.2288121250
  - # 17
    frequency:   11.2504019994
  - # 18
    frequency:   13.2545032391
  - # 19
    frequency:   16.6362164168
  - # 20
    frequency:   17.7184764126
  - # 21
    frequency:   17.8147224041
  - # 22
    frequency:   19.0299731654
  - # 23
    frequency:   38.8096518933
  - # 24
    frequency:   68.9268569481

- q-position: [    0.0959596,    0.0000000,    0.0000000 ]
  distance:    0.0326976
  band:
  - # 1
    frequency:   -1.1432361998
  - # 2
    frequency:   -0.7552797531
  - # 3
    frequency:   -0.2136939757
  - # 4
    frequency:    0.5741953587
  - # 5
    frequency:    1.2838677214
  - # 6
    frequency:    1.4813273011
  - # 7
    frequency:    2.4081383129
  - # 8
    frequency:    4.4858504657
  - # 9
    frequency:    4.7422248797
  - # 10
    frequency:    5.1114349049
  - # 11
    frequency:    6.3566314146
  - # 12
    frequency:    6.7974696316
  - # 13
    frequency:    8.2336618106
  - # 14
    frequency:    8.2563289974
  - # 15
    frequency:    8.8042436123
  - # 16
    frequency:   11.1929801440
  - # 17
    frequency:   11.2646162536
  - # 18
    frequency:   13.4649639257
  - # 19
    frequency:   16.6259786998
  - # 20
    frequency:   17.7201908569
  - # 21
    frequency:   17.8261922861
  - # 22
    frequency:   18.9909700441
  - # 23
    frequency:   38.8078730586
  - # 24
    frequency:   68.8801245546

- q-position: [    0.1010101,    0.0000000,    0.0000000 ]
  distance:    0.0344185
  band:
  - # 1
    frequency:   -1.0963284074
  - # 2
    frequency:   -0.7366208532
  - # 3
    frequency:    0.1751973351
  - # 4
    frequency:    0.6632099024
  - # 5
    frequency:    1.4143420315
  - # 6
    frequency:    1.5593418673
  - # 7
    frequency:    2.5366071737
  - # 8
    frequency:    4.5013224244
  - # 9
    frequency:    4.7682559952
  - # 10
    frequency:    5.1172588369
  - # 11
    frequency:    6.3629927368
  - # 12
    frequency:    6.8237562268
  - # 13
    frequency:    8.2358756463
  - # 14
    frequency:    8.2565885251
  - # 15
    frequency:    8.8365123066
  - # 16
    frequency:   11.1553814786
  - # 17
    frequency:   11.2789106136
  - # 18
    frequency:   13.6790794243
  - # 19
    frequency:   16.6152394779
  - # 20
    frequency:   17.7219701928
  - # 21
    frequency:   17.8380138724
  - # 22
    frequency:   18.9508489663
  - # 23
    frequency:   38.8060353305
  - # 24
    frequency:   68.8318012813

- q-position: [    0.1060606,    0.0000000,    0.0000000 ]
  distance:    0.0361394
  band:
  - # 1
    frequency:   -1.0456137923
  - # 2
    frequency:   -0.7168390313
  - # 3
    frequency:    0.3354383156
  - # 4
    frequency:    0.7442187674
  - # 5
    frequency:    1.5393027473
  - # 6
    frequency:    1.6369368707
  - # 7
    frequency:    2.6638532908
  - # 8
    frequency:    4.5172590940
  - # 9
    frequency:    4.7930365628
  - # 10
    frequency:    5.1249414862
  - # 11
    frequency:    6.3692897699
  - # 12
    frequency:    6.8490658026
  - # 13
    frequency:    8.2377615755
  - # 14
    frequency:    8.2572155820
  - # 15
    frequency:    8.8678549772
  - # 16
    frequency:   11.1161420889
  - # 17
    frequency:   11.2931980269
  - # 18
    frequency:   13.8955678636
  - # 19
    frequency:   16.6040083406
  - # 20
    frequency:   17.7238108140
  - # 21
    frequency:   17.8501516732
  - # 22
    frequency:   18.9097728827
  - # 23
    frequency:   38.8041438133
  - # 24
    frequency:   68.7820138178

- q-position: [    0.1111111,    0.0000000,    0.0000000 ]
  distance:    0.0378604
  band:
  - # 1
    frequency:   -0.9905874966
  - # 2
    frequency:   -0.6958293474
  - # 3
    frequency:    0.4485418300
  - # 4
    frequency:    0.8198892950
  - # 5
    frequency:    1.6594479996
  - # 6
    frequency:    1.7140722473
  - # 7
    frequency:    2.7896224787
  - # 8
    frequency:    4.5336255894
  - # 9
    frequency:    4.8164878623
  - # 10
    frequency:    5.1346514596
  - # 11
    frequency:    6.3754857487
  - # 12
    frequency:    6.8735082585
  - # 13
    frequency:    8.2392775340
  - # 14
    frequency:    8.2582848281
  - # 15
    frequency:    8.8982687990
  - # 16
    frequency:   11.0753771093
  - # 17
    frequency:   11.3073924877
  - # 18
    frequency:   14.1131938355
  - # 19
    frequency:   16.5923010256
  - # 20
    frequency:   17.7257091069
  - # 21
    frequency:   17.8625680106
  - # 22
    frequency:   18.8679172687
  - # 23
    frequency:   38.8022036863
  - # 24
    frequency:   68.7308904361

- q-position: [    0.1161616,    0.0000000,    0.0000000 ]
  distance:    0.0395813
  band:
  - # 1
    frequency:   -0.9305779648
  - # 2
    frequency:   -0.6734560349
  - # 3
    frequency:    0.5456797242
  - # 4
    frequency:    0.8916781784
  - # 5
    frequency:    1.7754030595
  - # 6
    frequency:    1.7907120771
  - # 7
    frequency:    2.9136340211
  - # 8
    frequency:    4.5503881297
  - # 9
    frequency:    4.8386424691
  - # 10
    frequency:    5.1464837755
  - # 11
    frequency:    6.3815459572
  - # 12
    frequency:    6.8971985907
  - # 13
    frequency:    8.2403838282
  - # 14
    frequency:    8.2598646334
  - # 15
    frequency:    8.9277686961
  - # 16
    frequency:   11.0331954630
  - # 17
    frequency:   11.3214097625
  - # 18
    frequency:   14.3307676148
  - # 19
    frequency:   16.5801437430
  - # 20
    frequency:   17.7276614703
  - # 21
    frequency:   17.8752219979
  - # 22
    frequency:   18.8254720888
  - # 23
    frequency:   38.8002201799
  - # 24
    frequency:   68.6785604064

- q-position: [    0.1212121,    0.0000000,    0.0000000 ]
  distance:    0.0413022
  band:
  - # 1
    frequency:   -0.8646726130
  - # 2
    frequency:   -0.6495250122
  - # 3
    frequency:    0.6348817724
  - # 4
    frequency:    0.9604735521
  - # 5
    frequency:    1.8668242033
  - # 6
    frequency:    1.8876902509
  - # 7
    frequency:    3.0355721841
  - # 8
    frequency:    4.5675142529
  - # 9
    frequency:    4.8596737072
  - # 10
    frequency:    5.1604372936
  - # 11
    frequency:    6.3874379418
  - # 12
    frequency:    6.9202538664
  - # 13
    frequency:    8.2410434034
  - # 14
    frequency:    8.2620173684
  - # 15
    frequency:    8.9563807279
  - # 16
    frequency:   10.9897029077
  - # 17
    frequency:   11.3351681016
  - # 18
    frequency:   14.5471397098
  - # 19
    frequency:   16.5675802521
  - # 20
    frequency:   17.7296643342
  - # 21
    frequency:   17.8880680121
  - # 22
    frequency:   18.7826445115
  - # 23
    frequency:   38.7981985526
  - # 24
    frequency:   68.6251534189

- q-position: [    0.1262626,    0.0000000,    0.0000000 ]
  distance:    0.0430231
  band:
  - # 1
    frequency:   -0.7916165211
  - # 2
    frequency:   -0.6237007283
  - # 3
    frequency:    0.7195558970
  - # 4
    frequency:    1.0268658851
  - # 5
    frequency:    1.9423798646
  - # 6
    frequency:    1.9967348045
  - # 7
    frequency:    3.1550766089
  - # 8
    frequency:    4.5849730134
  - # 9
    frequency:    4.8799117370
  - # 10
    frequency:    5.1764069201
  - # 11
    frequency:    6.3931317001
  - # 12
    frequency:    6.9427911923
  - # 13
    frequency:    8.2412220792
  - # 14
    frequency:    8.2647994703
  - # 15
    frequency:    8.9841369449
  - # 16
    frequency:   10.9450041463
  - # 17
    frequency:   11.3485889266
  - # 18
    frequency:   14.7611885695
  - # 19
    frequency:   16.5546838259
  - # 20
    frequency:   17.7317141784
  - # 21
    frequency:   17.9010534330
  - # 22
    frequency:   18.7396626708
  - # 23
    frequency:   38.7961440666
  - # 24
    frequency:   68.5707990137

- q-position: [    0.1313131,    0.0000000,    0.0000000 ]
  distance:    0.0447441
  band:
  - # 1
    frequency:   -0.7098130006
  - # 2
    frequency:   -0.5951368298
  - # 3
    frequency:    0.8014483538
  - # 4
    frequency:    1.0912771121
  - # 5
    frequency:    2.0173533454
  - # 6
    frequency:    2.1028797685
  - # 7
    frequency:    3.2717319065
  - # 8
    frequency:    4.6027351597
  - # 9
    frequency:    4.8998415348
  - # 10
    frequency:    5.1941950240
  - # 11
    frequency:    6.3985998471
  - # 12
    frequency:    6.9649263700
  - # 13
    frequency:    8.2408887562
  - # 14
    frequency:    8.2682613756
  - # 15
    frequency:    9.0110714435
  - # 16
    frequency:   10.8992043851
  - # 17
    frequency:   11.3615974852
  - # 18
    frequency:   14.9717973500
  - # 19
    frequency:   16.5415783635
  - # 20
    frequency:   17.7338075490
  - # 21
    frequency:   17.9141153116
  - # 22
    frequency:   18.6967808994
  - # 23
    frequency:   38.7940619651
  - # 24
    frequency:   68.5156260233

- q-position: [    0.1363636,    0.0000000,    0.0000000 ]
  distance:    0.0464650
  band:
  - # 1
    frequency:   -0.6196578340
  - # 2
    frequency:   -0.5592924291
  - # 3
    frequency:    0.8815400990
  - # 4
    frequency:    1.1540292009
  - # 5
    frequency:    2.0917216437
  - # 6
    frequency:    2.2064012682
  - # 7