nqpoint: 300    
npath: 3      
segment_nqpoint:
- 100
- 100
- 100
labels:
- [ 'G', 'M' ]
- [ 'M', 'K' ]
- [ 'K', 'G' ]
reciprocal_lattice:
- [   0.27264156,   0.15740968,   0.00000000 ] # a*
- [   0.00000000,   0.31481935,   0.00000000 ] # b*
- [   0.00000000,   0.00000000,   0.03690324 ] # c*
natom: 8      
lattice:
- [     3.667819453067622,     0.000000000000000,     0.000000000000000 ] # a
- [    -1.833909726533811,     3.176424822859609,     0.000000000000000 ] # b
- [     0.000000000000000,     0.000000000000000,    27.097889218867291 ] # c
points:
- symbol: C # 1
  coordinates: [  0.000000000000000,  0.000000000000000,  0.521483354217310 ]
  mass: 12.010700
- symbol: C # 2
  coordinates: [  0.666666984744047,  0.333332985985145,  0.376027587273699 ]
  mass: 12.010700
- symbol: N # 3
  coordinates: [  0.333332985432215,  0.666666983183674,  0.620105447432577 ]
  mass: 14.006700
- symbol: N # 4
  coordinates: [  0.666666984744047,  0.333332985985145,  0.332129190111738 ]
  mass: 14.006700
- symbol: O # 5
  coordinates: [  0.333332985432215,  0.666666983183674,  0.667870809888262 ]
  mass: 15.999400
- symbol: O # 6
  coordinates: [  0.666666984744047,  0.333332985985145,  0.425235503238284 ]
  mass: 15.999400
- symbol: Y # 7
  coordinates: [  0.333332985432215,  0.666666983183674,  0.471878896291011 ]
  mass: 88.905850
- symbol: Y # 8
  coordinates: [  0.666666984744047,  0.333332985985145,  0.573217513213572 ]
  mass: 88.905850

phonon:
- q-position: [    0.0000000,    0.0000000,    0.0000000 ]
  distance:    0.0000000
  band:
  - # 1
    frequency:   -1.5353250915
  - # 2
    frequency:   -1.5353250915
  - # 3
    frequency:   -0.0000112438
  - # 4
    frequency:   -0.0000000605
  - # 5
    frequency:    0.0000134008
  - # 6
    frequency:    2.9437322836
  - # 7
    frequency:    2.9437322837
  - # 8
    frequency:    4.1121847533
  - # 9
    frequency:    4.1121847533
  - # 10
    frequency:    4.7683590900
  - # 11
    frequency:    5.5510346344
  - # 12
    frequency:    5.5510346344
  - # 13
    frequency:    6.2662650429
  - # 14
    frequency:    7.5645774992
  - # 15
    frequency:    7.7744336581
  - # 16
    frequency:    7.7744336581
  - # 17
    frequency:   10.2924030602
  - # 18
    frequency:   10.2924030603
  - # 19
    frequency:   13.9759086777
  - # 20
    frequency:   13.9759086778
  - # 21
    frequency:   15.2137041035
  - # 22
    frequency:   32.0229988526
  - # 23
    frequency:   43.5011567429
  - # 24
    frequency:   67.5571752381

- q-position: [    0.0050505,    0.0000000,    0.0000000 ]
  distance:    0.0015900
  band:
  - # 1
    frequency:   -1.5350938230
  - # 2
    frequency:   -1.5342510657
  - # 3
    frequency:    0.0007333970
  - # 4
    frequency:    0.0486575301
  - # 5
    frequency:    0.0822745332
  - # 6
    frequency:    2.9438188788
  - # 7
    frequency:    2.9445133009
  - # 8
    frequency:    4.1118582493
  - # 9
    frequency:    4.1120822499
  - # 10
    frequency:    4.7684339611
  - # 11
    frequency:    5.5510424981
  - # 12
    frequency:    5.5510513267
  - # 13
    frequency:    6.2661924393
  - # 14
    frequency:    7.5640729441
  - # 15
    frequency:    7.7737291670
  - # 16
    frequency:    7.7743985912
  - # 17
    frequency:   10.2923385096
  - # 18
    frequency:   10.2938962384
  - # 19
    frequency:   13.9759305513
  - # 20
    frequency:   13.9759753566
  - # 21
    frequency:   15.2129700686
  - # 22
    frequency:   32.0226312410
  - # 23
    frequency:   43.5004207287
  - # 24
    frequency:   67.5569980690

- q-position: [    0.0101010,    0.0000000,    0.0000000 ]
  distance:    0.0031800
  band:
  - # 1
    frequency:   -1.5344004141
  - # 2
    frequency:   -1.5310322519
  - # 3
    frequency:    0.0040380976
  - # 4
    frequency:    0.0973281444
  - # 5
    frequency:    0.1645840903
  - # 6
    frequency:    2.9440788950
  - # 7
    frequency:    2.9468520402
  - # 8
    frequency:    4.1108812044
  - # 9
    frequency:    4.1117751276
  - # 10
    frequency:    4.7686583942
  - # 11
    frequency:    5.5510660759
  - # 12
    frequency:    5.5511010267
  - # 13
    frequency:    6.2659757108
  - # 14
    frequency:    7.5625601971
  - # 15
    frequency:    7.7716162418
  - # 16
    frequency:    7.7742937139
  - # 17
    frequency:   10.2921452437
  - # 18
    frequency:   10.2983712853
  - # 19
    frequency:   13.9759961541
  - # 20
    frequency:   13.9761750376
  - # 21
    frequency:   15.2107700878
  - # 22
    frequency:   32.0215293104
  - # 23
    frequency:   43.4982137852
  - # 24
    frequency:   67.5564669289

- q-position: [    0.0151515,    0.0000000,    0.0000000 ]
  distance:    0.0047700
  band:
  - # 1
    frequency:   -1.5332460486
  - # 2
    frequency:   -1.5256782336
  - # 3
    frequency:    0.0094668248
  - # 4
    frequency:    0.1460247423
  - # 5
    frequency:    0.2469619356
  - # 6
    frequency:    2.9445130210
  - # 7
    frequency:    2.9507355948
  - # 8
    frequency:    4.1092610298
  - # 9
    frequency:    4.1112645472
  - # 10
    frequency:    4.7690318675
  - # 11
    frequency:    5.5511053276
  - # 12
    frequency:    5.5511826194
  - # 13
    frequency:    6.2656180799
  - # 14
    frequency:    7.5600419884
  - # 15
    frequency:    7.7680965274
  - # 16
    frequency:    7.7741200175
  - # 17
    frequency:   10.2918244203
  - # 18
    frequency:   10.3058147668
  - # 19
    frequency:   13.9761054321
  - # 20
    frequency:   13.9765066511
  - # 21
    frequency:   15.2071105323
  - # 22
    frequency:   32.0196957701
  - # 23
    frequency:   43.4945392079
  - # 24
    frequency:   67.5555829176

- q-position: [    0.0202020,    0.0000000,    0.0000000 ]
  distance:    0.0063600
  band:
  - # 1
    frequency:   -1.5316326834
  - # 2
    frequency:   -1.5182043025
  - # 3
    frequency:    0.0170463112
  - # 4
    frequency:    0.1947598596
  - # 5
    frequency:    0.3294378034
  - # 6
    frequency:    2.9451223938
  - # 7
    frequency:    2.9561425538
  - # 8
    frequency:    4.1070101132
  - # 9
    frequency:    4.1105524359
  - # 10
    frequency:    4.7695535715
  - # 11
    frequency:    5.5511601853
  - # 12
    frequency:    5.5512942980
  - # 13
    frequency:    6.2651248360
  - # 14
    frequency:    7.5565227886
  - # 15
    frequency:    7.7631727674
  - # 16
    frequency:    7.7738792242
  - # 17
    frequency:   10.2913779660
  - # 18
    frequency:   10.3162043903
  - # 19
    frequency:   13.9762582955
  - # 20
    frequency:   13.9769684056
  - # 21
    frequency:   15.2020020168
  - # 22
    frequency:   32.0171351249
  - # 23
    frequency:   43.4894024806
  - # 24
    frequency:   67.5543478644

- q-position: [    0.0252525,    0.0000000,    0.0000000 ]
  distance:    0.0079500
  band:
  - # 1
    frequency:   -1.5295630229
  - # 2
    frequency:   -1.5086304685
  - # 3
    frequency:    0.0267659758
  - # 4
    frequency:    0.2435454885
  - # 5
    frequency:    0.4120363745
  - # 6
    frequency:    2.9459085820
  - # 7
    frequency:    2.9630431440
  - # 8
    frequency:    4.1041458753
  - # 9
    frequency:    4.1096414758
  - # 10
    frequency:    4.7702224959
  - # 11
    frequency:    5.5512305530
  - # 12
    frequency:    5.5514336409
  - # 13
    frequency:    6.2645032152
  - # 14
    frequency:    7.5520086993
  - # 15
    frequency:    7.7568488085
  - # 16
    frequency:    7.7735738828
  - # 17
    frequency:   10.2908085735
  - # 18
    frequency:   10.3295091470
  - # 19
    frequency:   13.9764546182
  - # 20
    frequency:   13.9775577741
  - # 21
    frequency:   15.1954593959
  - # 22
    frequency:   32.0138536597
  - # 23
    frequency:   43.4828112641
  - # 24
    frequency:   67.5527643220

- q-position: [    0.0303030,    0.0000000,    0.0000000 ]
  distance:    0.0095400
  band:
  - # 1
    frequency:   -1.5270404854
  - # 2
    frequency:   -1.4969801347
  - # 3
    frequency:    0.0386094868
  - # 4
    frequency:    0.2923929023
  - # 5
    frequency:    0.4947759622
  - # 6
    frequency:    2.9468735634
  - # 7
    frequency:    2.9713994108
  - # 8
    frequency:    4.1006908559
  - # 9
    frequency:    4.1085350882
  - # 10
    frequency:    4.7710375454
  - # 11
    frequency:    5.5513163046
  - # 12
    frequency:    5.5515977164
  - # 13
    frequency:    6.2637622373
  - # 14
    frequency:    7.5465073191
  - # 15
    frequency:    7.7491296058
  - # 16
    frequency:    7.7732074850
  - # 17
    frequency:   10.2901196957
  - # 18
    frequency:   10.3456895090
  - # 19
    frequency:   13.9766942375
  - # 20
    frequency:   13.9782714749
  - # 21
    frequency:   15.1875017574
  - # 22
    frequency:   32.0098594171
  - # 23
    frequency:   43.4747753787
  - # 24
    frequency:   67.5508355582

- q-position: [    0.0353535,    0.0000000,    0.0000000 ]
  distance:    0.0111300
  band:
  - # 1
    frequency:   -1.5240691602
  - # 2
    frequency:   -1.4832784975
  - # 3
    frequency:    0.0525570059
  - # 4
    frequency:    0.3413124857
  - # 5
    frequency:    0.5776674979
  - # 6
    frequency:    2.9480196963
  - # 7
    frequency:    2.9811654243
  - # 8
    frequency:    4.0966728352
  - # 9
    frequency:    4.1072374129
  - # 10
    frequency:    4.7719976791
  - # 11
    frequency:    5.5514172823
  - # 12
    frequency:    5.5517832135
  - # 13
    frequency:    6.2629125024
  - # 14
    frequency:    7.5400275994
  - # 15
    frequency:    7.7400212304
  - # 16
    frequency:    7.7727845897
  - # 17
    frequency:   10.2893155382
  - # 18
    frequency:   10.3646976743
  - # 19
    frequency:   13.9769769542
  - # 20
    frequency:   13.9791054459
  - # 21
    frequency:   15.1781524159
  - # 22
    frequency:   32.0051621696
  - # 23
    frequency:   43.4653067828
  - # 24
    frequency:   67.5485655453

- q-position: [    0.0404040,    0.0000000,    0.0000000 ]
  distance:    0.0127200
  band:
  - # 1
    frequency:   -1.5206537565
  - # 2
    frequency:   -1.4675507473
  - # 3
    frequency:    0.0685859063
  - # 4
    frequency:    0.3903135710
  - # 5
    frequency:    0.6607138565
  - # 6
    frequency:    2.9493496856
  - # 7
    frequency:    2.9922874905
  - # 8
    frequency:    4.0921249981
  - # 9
    frequency:    4.1057532844
  - # 10
    frequency:    4.7731020676
  - # 11
    frequency:    5.5515332946
  - # 12
    frequency:    5.5519865955
  - # 13
    frequency:    6.2619659549
  - # 14
    frequency:    7.5325797041
  - # 15
    frequency:    7.7295308800
  - # 16
    frequency:    7.7723109431
  - # 17
    frequency:   10.2884010504
  - # 18
    frequency:   10.3864778572
  - # 19
    frequency:   13.9773025320
  - # 20
    frequency:   13.9800548127
  - # 21
    frequency:   15.1674389056
  - # 22
    frequency:   31.9997733856
  - # 23
    frequency:   43.4544195463
  - # 24
    frequency:   67.5459589475

- q-position: [    0.0454545,    0.0000000,    0.0000000 ]
  distance:    0.0143100
  band:
  - # 1
    frequency:   -1.5167995456
  - # 2
    frequency:   -1.4498201469
  - # 3
    frequency:    0.0866712679
  - # 4
    frequency:    0.4394042822
  - # 5
    frequency:    0.7439095424
  - # 6
    frequency:    2.9508665430
  - # 7
    frequency:    3.0047043469
  - # 8
    frequency:    4.0870861511
  - # 9
    frequency:    4.1040882030
  - # 10
    frequency:    4.7743502596
  - # 11
    frequency:    5.5516641134
  - # 12
    frequency:    5.5522042736
  - # 13
    frequency:    6.2609356181
  - # 14
    frequency:    7.5241748858
  - # 15
    frequency:    7.7176668915
  - # 16
    frequency:    7.7717935823
  - # 17
    frequency:   10.2873819134
  - # 18
    frequency:   10.4109666165
  - # 19
    frequency:   13.9776706973
  - # 20
    frequency:   13.9811138487
  - # 21
    frequency:   15.1553929737
  - # 22
    frequency:   31.9937061892
  - # 23
    frequency:   43.4421298198
  - # 24
    frequency:   67.5430211055

- q-position: [    0.0505051,    0.0000000,    0.0000000 ]
  distance:    0.0159000
  band:
  - # 1
    frequency:   -1.5125122968
  - # 2
    frequency:   -1.4301060716
  - # 3
    frequency:    0.1067863134
  - # 4
    frequency:    0.4885913872
  - # 5
    frequency:    0.8272407281
  - # 6
    frequency:    2.9525735444
  - # 7
    frequency:    3.0183473222
  - # 8
    frequency:    4.0816009995
  - # 9
    frequency:    4.1022483026
  - # 10
    frequency:    4.7757423549
  - # 11
    frequency:    5.5518094711
  - # 12
    frequency:    5.5524327939
  - # 13
    frequency:    6.2598353083
  - # 14
    frequency:    7.5148253866
  - # 15
    frequency:    7.7044387575
  - # 16
    frequency:    7.7712409188
  - # 17
    frequency:   10.2862645248
  - # 18
    frequency:   10.4380932190
  - # 19
    frequency:   13.9780811386
  - # 20
    frequency:   13.9822759283
  - # 21
    frequency:   15.1420505764
  - # 22
    frequency:   31.9869753155
  - # 23
    frequency:   43.4284557991
  - # 24
    frequency:   67.5397580200

- q-position: [    0.0555556,    0.0000000,    0.0000000 ]
  distance:    0.0174900
  band:
  - # 1
    frequency:   -1.5077982093
  - # 2
    frequency:   -1.4084220747
  - # 3
    frequency:    0.1289028009
  - # 4
    frequency:    0.5378801589
  - # 5
    frequency:    0.9106856125
  - # 6
    frequency:    2.9544741820
  - # 7
    frequency:    3.0331404365
  - # 8
    frequency:    4.0757204968
  - # 9
    frequency:    4.1002403148
  - # 10
    frequency:    4.7772791748
  - # 11
    frequency:    5.5519690571
  - # 12
    frequency:    5.5526690354
  - # 13
    frequency:    6.2586793355
  - # 14
    frequency:    7.5045443684
  - # 15
    frequency:    7.6898571459
  - # 16
    frequency:    7.7706627945
  - # 17
    frequency:   10.2850559820
  - # 18
    frequency:   10.4677800293
  - # 19
    frequency:   13.9785335061
  - # 20
    frequency:   13.9835334700
  - # 21
    frequency:   15.1274518760
  - # 22
    frequency:   31.9795970591
  - # 23
    frequency:   43.4134176852
  - # 24
    frequency:   67.5361763318

- q-position: [    0.0606061,    0.0000000,    0.0000000 ]
  distance:    0.0190800
  band:
  - # 1
    frequency:   -1.5026638396
  - # 2
    frequency:   -1.3847740267
  - # 3
    frequency:    0.1529913610
  - # 4
    frequency:    0.5872742472
  - # 5
    frequency:    0.9942150400
  - # 6
    frequency:    2.9565721141
  - # 7
    frequency:    3.0490004234
  - # 8
    frequency:    4.0695022752
  - # 9
    frequency:    4.0980715289
  - # 10
    frequency:    4.7789624269
  - # 11
    frequency:    5.5521425138
  - # 12
    frequency:    5.5529104113
  - # 13
    frequency:    6.2574821962
  - # 14
    frequency:    7.4933458747
  - # 15
    frequency:    7.6739339239
  - # 16
    frequency:    7.7700705128
  - # 17
    frequency:   10.2837640601
  - # 18
    frequency:   10.4999429227
  - # 19
    frequency:   13.9790274117
  - # 20
    frequency:   13.9848778702
  - # 21
    frequency:   15.1116412440
  - # 22
    frequency:   31.9715892187
  - # 23
    frequency:   43.3970376402
  - # 24
    frequency:   67.5322833011

- q-position: [    0.0656566,    0.0000000,    0.0000000 ]
  distance:    0.0206700
  band:
  - # 1
    frequency:   -1.4971160280
  - # 2
    frequency:   -1.3591583335
  - # 3
    frequency:    0.1790217543
  - # 4
    frequency:    0.6367755596
  - # 5
    frequency:    1.0777933039
  - # 6
    frequency:    2.9588711134
  - # 7
    frequency:    3.0658366550
  - # 8
    frequency:    4.0630111665
  - # 9
    frequency:    4.0957497490
  - # 10
    frequency:    4.7807948589
  - # 11
    frequency:    5.5523294320
  - # 12
    frequency:    5.5531550688
  - # 13
    frequency:    6.2562582676
  - # 14
    frequency:    7.4812448237
  - # 15
    frequency:    7.6566821864
  - # 16
    frequency:    7.7694768441
  - # 17
    frequency:   10.2823971880
  - # 18
    frequency:   10.5344917140
  - # 19
    frequency:   13.9795624279
  - # 20
    frequency:   13.9862994258
  - # 21
    frequency:   15.0946672684
  - # 22
    frequency:   31.9629710361
  - # 23
    frequency:   43.3793397389
  - # 24
    frequency:   67.5280867844

- q-position: [    0.0707071,    0.0000000,    0.0000000 ]
  distance:    0.0222600
  band:
  - # 1
    frequency:   -1.4911618244
  - # 2
    frequency:   -1.3315602019
  - # 3
    frequency:    0.2069630208
  - # 4
    frequency:    0.6863841538
  - # 5
    frequency:    1.1613790498
  - # 6
    frequency:    2.9613750133
  - # 7
    frequency:    3.0835509560
  - # 8
    frequency:    4.0563198206
  - # 9
    frequency:    4.0932832479
  - # 10
    frequency:    4.7827803997
  - # 11
    frequency:    5.5525293465
  - # 12
    frequency:    5.5534020809
  - # 13
    frequency:    6.2550215097
  - # 14
    frequency:    7.4682570271
  - # 15
    frequency:    7.6381162891
  - # 16
    frequency:    7.7688960107
  - # 17
    frequency:   10.2809644197
  - # 18
    frequency:   10.5713305986
  - # 19
    frequency:   13.9801380879
  - # 20
    frequency:   13.9877872444
  - # 21
    frequency:   15.0765827697
  - # 22
    frequency:   31.9537631308
  - # 23
    frequency:   43.3603499164
  - # 24
    frequency:   67.5235952099

- q-position: [    0.0757576,    0.0000000,    0.0000000 ]
  distance:    0.0238500
  band:
  - # 1
    frequency:   -1.4848084153
  - # 2
    frequency:   -1.3019518624
  - # 3
    frequency:    0.2367834900
  - # 4
    frequency:    0.7360981390
  - # 5
    frequency:    1.2449261949
  - # 6
    frequency:    2.9640876549
  - # 7
    frequency:    3.1020373000
  - # 8
    frequency:    4.0495094254
  - # 9
    frequency:    4.0906807168
  - # 10
    frequency:    4.7849242847
  - # 11
    frequency:    5.5527417303
  - # 12
    frequency:    5.5536516242
  - # 13
    frequency:    6.2537851817
  - # 14
    frequency:    7.4543992345
  - # 15
    frequency:    7.6182518868
  - # 16
    frequency:    7.7683436538
  - # 17
    frequency:   10.2794754019
  - # 18
    frequency:   10.6103585993
  - # 19
    frequency:   13.9807538847
  - # 20
    frequency:   13.9893291407
  - # 21
    frequency:   15.0574448252
  - # 22
    frequency:   31.9439874304
  - # 23
    frequency:   43.3400959121
  - # 24
    frequency:   67.5188175504

- q-position: [    0.0808081,    0.0000000,    0.0000000 ]
  distance:    0.0254399
  band:
  - # 1
    frequency:   -1.4780630536
  - # 2
    frequency:   -1.2702905980
  - # 3
    frequency:    0.2684506119
  - # 4
    frequency:    0.7859135881
  - # 5
    frequency:    1.3283847858
  - # 6
    frequency:    2.9670128360
  - # 7
    frequency:    3.1211813899
  - # 8
    frequency:    4.0426705235
  - # 9
    frequency:    4.0879512132
  - # 10
    frequency:    4.7872331654
  - # 11
    frequency:    5.5529659890
  - # 12
    frequency:    5.5539051361
  - # 13
    frequency:    6.2525615783
  - # 14
    frequency:    7.4396891963
  - # 15
    frequency:    7.5971059771
  - # 16
    frequency:    7.7678367864
  - # 17
    frequency:   10.2779403375
  - # 18
    frequency:   10.6514700156
  - # 19
    frequency:   13.9814092713
  - # 20
    frequency:   13.9909115181
  - # 21
    frequency:   15.0373148059
  - # 22
    frequency:   31.9336670970
  - # 23
    frequency:   43.3186072093
  - # 24
    frequency:   67.5137632962

- q-position: [    0.0858586,    0.0000000,    0.0000000 ]
  distance:    0.0270299
  band:
  - # 1
    frequency:   -1.4709329924
  - # 2
    frequency:   -1.2365163489
  - # 3
    frequency:    0.3019305697
  - # 4
    frequency:    0.8358244585
  - # 5
    frequency:    1.4117017350
  - # 6
    frequency:    2.9701542610
  - # 7
    frequency:    3.1408601390
  - # 8
    frequency:    4.0359039111
  - # 9
    frequency:    4.0851041046
  - # 10
    frequency:    4.7897152018
  - # 11
    frequency:    5.5532014538
  - # 12
    frequency:    5.5541654471
  - # 13
    frequency:    6.2513617918
  - # 14
    frequency:    7.4241457420
  - # 15
    frequency:    7.5746969495
  - # 16
    frequency:    7.7673937360
  - # 17
    frequency:   10.2763699457
  - # 18
    frequency:   10.6945548710
  - # 19
    frequency:   13.9821036600
  - # 20
    frequency:   13.9925192334
  - # 21
    frequency:   15.0162584257
  - # 22
    frequency:   31.9228264496
  - # 23
    frequency:   43.2959149726
  - # 24
    frequency:   67.5084424251

- q-position: [    0.0909091,    0.0000000,    0.0000000 ]
  distance:    0.0286199
  band:
  - # 1
    frequency:   -1.4634254239
  - # 2
    frequency:   -1.2005485645
  - # 3
    frequency:    0.3371876242
  - # 4
    frequency:    0.8858225211
  - # 5
    frequency:    1.4948213901
  - # 6
    frequency:    2.9735154971
  - # 7
    frequency:    3.1609410917
  - # 8
    frequency:    4.0293215859
  - # 9
    frequency:    4.0821490092
  - # 10
    frequency:    4.7923801394
  - # 11
    frequency:    5.5534473753
  - # 12
    frequency:    5.5544368825
  - # 13
    frequency:    6.2501955029
  - # 14
    frequency:    7.4077888711
  - # 15
    frequency:    7.5510446407
  - # 16
    frequency:    7.7670340796
  - # 17
    frequency:   10.2747754171
  - # 18
    frequency:   10.7394993540
  - # 19
    frequency:   13.9828364222
  - # 20
    frequency:   13.9941354435
  - # 21
    frequency:   14.9943458067
  - # 22
    frequency:   31.9114908838
  - # 23
    frequency:   43.2720519800
  - # 24
    frequency:   67.5028653716

- q-position: [    0.0959596,    0.0000000,    0.0000000 ]
  distance:    0.0302099
  band:
  - # 1
    frequency:   -1.4555474251
  - # 2
    frequency:   -1.1622818282
  - # 3
    frequency:    0.3741831445
  - # 4
    frequency:    0.9358972964
  - # 5
    frequency:    1.5776859083
  - # 6
    frequency:    2.9770999347
  - # 7
    frequency:    3.1812818525
  - # 8
    frequency:    4.0230476825
  - # 9
    frequency:    4.0790957334
  - # 10
    frequency:    4.7952393707
  - # 11
    frequency:    5.5537029154
  - # 12
    frequency:    5.5547253305
  - # 13
    frequency:    6.2490708039
  - # 14
    frequency:    7.3906398516
  - # 15
    frequency:    7.5261703944
  - # 16
    frequency:    7.7667785728
  - # 17
    frequency:   10.2731683659
  - # 18
    frequency:   10.7861862499
  - # 19
    frequency:   13.9836068882
  - # 20
    frequency:   13.9957414339
  - # 21
    frequency:   14.9716515624
  - # 22
    frequency:   31.8996867877
  - # 23
    frequency:   43.2470525541
  - # 24
    frequency:   67.4970429954

- q-position: [    0.1010101,    0.0000000,    0.0000000 ]
  distance:    0.0317999
  band:
  - # 1
    frequency:   -1.4473059106
  - # 2
    frequency:   -1.1215795671
  - # 3
    frequency:    0.4128742775
  - # 4
    frequency:    0.9860359966
  - # 5
    frequency:    1.6602354209
  - # 6
    frequency:    2.9809107555
  - # 7
    frequency:    3.2017296370
  - # 8
    frequency:    4.0172192958
  - # 9
    frequency:    4.0759542052
  - # 10
    frequency:    4.7983059827
  - # 11
    frequency:    5.5539671391
  - # 12
    frequency:    5.5550382729
  - # 13
    frequency:    6.2479940541
  - # 14
    frequency:    7.3727213258
  - # 15
    frequency:    7.5000971285
  - # 16
    frequency:    7.7666490746
  - # 17
    frequency:   10.2715607782
  - # 18
    frequency:   10.8344953599
  - # 19
    frequency:   13.9844143471
  - # 20
    frequency:   13.9973164277
  - # 21
    frequency:   14.9482548986
  - # 22
    frequency:   31.8874414560
  - # 23
    frequency:   43.2209524884
  - # 24
    frequency:   67.4909865481

- q-position: [    0.1060606,    0.0000000,    0.0000000 ]
  distance:    0.0333899
  band:
  - # 1
    frequency:   -1.4387075925
  - # 2
    frequency:   -1.0782648192
  - # 3
    frequency:    0.4532122310
  - # 4
    frequency:    1.0362234718
  - # 5
    frequency:    1.7424079823
  - # 6
    frequency:    2.9849509100
  - # 7
    frequency:    3.2221211148
  - # 8
    frequency:    4.0119870368
  - # 9
    frequency:    4.0727344038
  - # 10
    frequency:    4.8015947907
  - # 11
    frequency:    5.5542390060
  - # 12
    frequency:    5.5553847787
  - # 13
    frequency:    6.2469697689
  - # 14
    frequency:    7.3540574202
  - # 15
    frequency:    7.4728494057
  - # 16
    frequency:    7.7666684687
  - # 17
    frequency:   10.2699649573
  - # 18
    frequency:   10.8843039037
  - # 19
    frequency:   13.9852580465
  - # 20
    frequency:   13.9988373764
  - # 21
    frequency:   14.9242397339
  - # 22
    frequency:   31.8747830010
  - # 23
    frequency:   43.1937889722
  - # 24
    frequency:   67.4847076396

- q-position: [    0.1111111,    0.0000000,    0.0000000 ]
  distance:    0.0349799
  band:
  - # 1
    frequency:   -1.4297589492
  - # 2
    frequency:   -1.0321064722
  - # 3
    frequency:    0.4951401715
  - # 4
    frequency:    1.0864421590
  - # 5
    frequency:    1.8241393022
  - # 6
    frequency:    2.9892231053
  - # 7
    frequency:    3.2422827897
  - # 8
    frequency:    4.0075151015
  - # 9
    frequency:    4.0694462854
  - # 10
    frequency:    4.8051223598
  - # 11
    frequency:    5.5545173603
  - # 12
    frequency:    5.5557754586
  - # 13
    frequency:    6.2460005411
  - # 14
    frequency:    7.3346738589
  - # 15
    frequency:    7.4444535113
  - # 16
    frequency:    7.7668605814
  - # 17
    frequency:   10.2683934658
  - # 18
    frequency:   10.9354869043
  - # 19
    frequency:   13.9861371931
  - # 20
    frequency:   14.0002787342
  - # 21
    frequency:   14.8996948386
  - # 22
    frequency:   31.8617402622
  - # 23
    frequency:   43.1656005125
  - # 24
    frequency:   67.4782182031

- q-position: [    0.1161616,    0.0000000,    0.0000000 ]
  distance:    0.0365699
  band:
  - # 1
    frequency:   -1.4204662019
  - # 2
    frequency:   -0.9827984221
  - # 3
    frequency:    0.5385908015
  - # 4
    frequency:    1.1366720326
  - # 5
    frequency:    1.9053622589
  - # 6
    frequency:    2.9937298062
  - # 7
    frequency:    3.2620322402
  - # 8
    frequency:    4.0039805560
  - # 9
    frequency:    4.0660997028
  - # 10
    frequency:    4.8089070140
  - # 11
    frequency:    5.5548009211
  - # 12
    frequency:    5.5562223829
  - # 13
    frequency:    6.2450869900
  - # 14
    frequency:    7.3145980794
  - # 15
    frequency:    7.4149375351
  - # 16
    frequency:    7.7672500961
  - # 17
    frequency:   10.2668590660
  - # 18
    frequency:   10.9879175507
  - # 19
    frequency:   13.9870509522
  - # 20
    frequency:   14.0016122212
  - # 21
    frequency:   14.8747139868
  - # 22
    frequency:   31.8483427139
  - # 23
    frequency:   43.1364268531
  - # 24
    frequency:   67.4715304600

- q-position: [    0.1212121,    0.0000000,    0.0000000 ]
  distance:    0.0381599
  band:
  - # 1
    frequency:   -1.4108352995
  - # 2
    frequency:   -0.9299273427
  - # 3
    frequency:    0.5834837617
  - # 4
    frequency:    1.1868905550
  - # 5
    frequency:    1.9860061826
  - # 6
    frequency:    2.9984732504
  - # 7
    frequency:    3.2811806209
  - # 8
    frequency:    4.0015714791
  - # 9
    frequency:    4.0627043208
  - # 10
    frequency:    4.8129688319
  - # 11
    frequency:    5.5550882713
  - # 12
    frequency:    5.5567389646
  - # 13
    frequency:    6.2442277378
  - # 14
    frequency:    7.2938593521
  - # 15
    frequency:    7.3843314575
  - # 16
    frequency:    7.7678624649
  - # 17
    frequency:   10.2653746576
  - # 18
    frequency:   11.0414675360
  - # 19
    frequency:   13.9879984484
  - # 20
    frequency:   14.0028065832
  - # 21
    frequency:   14.8493961184
  - # 22
    frequency:   31.8346203719
  - # 23
    frequency:   43.1063088928
  - # 24
    frequency:   67.4646568842

- q-position: [    0.1262626,    0.0000000,    0.0000000 ]
  distance:    0.0397499
  band:
  - # 1
    frequency:   -1.4008719099
  - # 2
    frequency:   -0.8729213130
  - # 3
    frequency:    0.6297231179
  - # 4
    frequency:    1.2370726248
  - # 5
    frequency:    2.0659958893
  - # 6
    frequency:    3.0034554803
  - # 7
    frequency:    3.2995368634
  - # 8
    frequency:    4.0004835728
  - # 9
    frequency:    4.0592695250
  - # 10
    frequency:    4.8173296296
  - # 11
    frequency:    5.5553778453
  - # 12
    frequency:    5.5573398110
  - # 13
    frequency:    6.2434194051
  - # 14
    frequency:    7.2724889012
  - # 15
    frequency:    7.3526672414
  - # 16
    frequency:    7.7687238152
  - # 17
    frequency:   10.2639532151
  - # 18
    frequency:   11.0960073690
  - # 19
    frequency:   13.9889787658
  - # 20
    frequency:   14.0038273623
  - # 21
    frequency:   14.8238454944
  - # 22
    frequency:   31.8206036988
  - # 23
    frequency:   43.0752886007
  - # 24
    frequency:   67.4576101656

- q-position: [    0.1313131,    0.0000000,    0.0000000 ]
  distance:    0.0413399
  band:
  - # 1
    frequency:   -1.3905814206
  - # 2
    frequency:   -0.8109642466
  - # 3
    frequency:    0.6771953044
  - # 4
    frequency:    1.2871905230
  - # 5
    frequency:    2.1452504236
  - # 6
    frequency:    3.0086783938
  - # 7
    frequency:    3.3169139732
  - # 8
    frequency:    4.0009149142
  - # 9
    frequency:    4.0558043233
  - # 10
    frequency:    4.8220129279
  - # 11
    frequency:    5.5556679171
  - # 12
    frequency:    5.5580405481
  - # 13
    frequency:    6.2426566231
  - # 14
    frequency:    7.2505200309
  - # 15
    frequency:    7.3199789263
  - # 16
    frequency:    7.7698608533
  - # 17
    frequency:   10.2626077238
  - # 18
    frequency:   11.1514066562
  - # 19
    frequency:   13.9899909486
  - # 20
    frequency:   14.0046366972
  - # 21
    frequency:   14.7981718318
  - # 22
    frequency:   31.8063235088
  - # 23
    frequency:   43.0434089302
  - # 24
    frequency:   67.4504031741

- q-position: [    0.1363636,    0.0000000,    0.0000000 ]
  distance:    0.0429299
  band:
  - # 1
    frequency:   -1.3799689432
  - # 2
    frequency:   -0.7428439535
  - # 3
    frequency:    0.7257679843
  - # 4
    frequency:    1.3372138549
  - # 5
    frequency:    2.2236814423
  - # 6
    frequency:    3.0141438143
  - # 7