nqpoint: 300    
npath: 3      
segment_nqpoint:
- 100
- 100
- 100
labels:
- [ 'G', 'M' ]
- [ 'M', 'K' ]
- [ 'K', 'G' ]
reciprocal_lattice:
- [   0.29851163,   0.17234577,   0.00000000 ] # a*
- [   0.00000000,   0.34469154,   0.00000000 ] # b*
- [   0.00000000,   0.00000000,   0.03720238 ] # c*
natom: 6      
lattice:
- [     3.349953250845938,     0.000000000000000,     0.000000000000000 ] # a
- [    -1.674976625422969,     2.901144616718734,     0.000000000000000 ] # b
- [     0.000000000000000,     0.000000000000000,    26.880000121672705 ] # c
points:
- symbol: Br # 1
  coordinates: [  0.666666984744047,  0.333332985985145,  0.334821427055855 ]
  mass: 79.904000
- symbol: Cl # 2
  coordinates: [  0.333332985432215,  0.666666983183674,  0.665178572944145 ]
  mass: 35.453000
- symbol: N # 3
  coordinates: [  0.000000000000000,  0.000000000000000,  0.442879415406365 ]
  mass: 14.006700
- symbol: O # 4
  coordinates: [  0.333332985432215,  0.666666983183674,  0.526416550879379 ]
  mass: 15.999400
- symbol: Sc # 5
  coordinates: [  0.333332985432215,  0.666666983183674,  0.407415045549696 ]
  mass: 44.955912
- symbol: Sc # 6
  coordinates: [  0.666666984744047,  0.333332985985145,  0.503809827011315 ]
  mass: 44.955912

phonon:
- q-position: [    0.0000000,    0.0000000,    0.0000000 ]
  distance:    0.0000000
  band:
  - # 1
    frequency:   -0.4227922192
  - # 2
    frequency:   -0.4227922192
  - # 3
    frequency:   -0.0000010860
  - # 4
    frequency:    0.0000007721
  - # 5
    frequency:    0.0000009208
  - # 6
    frequency:    0.8699493875
  - # 7
    frequency:    2.4906619397
  - # 8
    frequency:    2.4906619397
  - # 9
    frequency:    4.4842846805
  - # 10
    frequency:    4.4842846805
  - # 11
    frequency:    4.6788280939
  - # 12
    frequency:    8.8195314165
  - # 13
    frequency:   11.9644322634
  - # 14
    frequency:   11.9644322634
  - # 15
    frequency:   12.9941838891
  - # 16
    frequency:   14.3967648486
  - # 17
    frequency:   14.3967648486
  - # 18
    frequency:   16.6551423354

- q-position: [    0.0050505,    0.0000000,    0.0000000 ]
  distance:    0.0017409
  band:
  - # 1
    frequency:   -0.4409147740
  - # 2
    frequency:   -0.4314340358
  - # 3
    frequency:   -0.0256666287
  - # 4
    frequency:    0.0381024807
  - # 5
    frequency:    0.0956379552
  - # 6
    frequency:    0.8703438592
  - # 7
    frequency:    2.4914074467
  - # 8
    frequency:    2.4939041447
  - # 9
    frequency:    4.4839295462
  - # 10
    frequency:    4.4851015131
  - # 11
    frequency:    4.6810709241
  - # 12
    frequency:    8.8189096068
  - # 13
    frequency:   11.9647299754
  - # 14
    frequency:   11.9703777727
  - # 15
    frequency:   12.9917408300
  - # 16
    frequency:   14.3966567838
  - # 17
    frequency:   14.3981576359
  - # 18
    frequency:   16.6561988099

- q-position: [    0.0101010,    0.0000000,    0.0000000 ]
  distance:    0.0034817
  band:
  - # 1
    frequency:   -0.4965159386
  - # 2
    frequency:   -0.4574612612
  - # 3
    frequency:   -0.0395048650
  - # 4
    frequency:    0.0827670140
  - # 5
    frequency:    0.2019475881
  - # 6
    frequency:    0.8715579640
  - # 7
    frequency:    2.4936410218
  - # 8
    frequency:    2.5035850302
  - # 9
    frequency:    4.4829017970
  - # 10
    frequency:    4.4875494006
  - # 11
    frequency:    4.6877595217
  - # 12
    frequency:    8.8170507891
  - # 13
    frequency:   11.9656196152
  - # 14
    frequency:   11.9880850064
  - # 15
    frequency:   12.9845305876
  - # 16
    frequency:   14.3963318444
  - # 17
    frequency:   14.4022692652
  - # 18
    frequency:   16.6593856548

- q-position: [    0.0151515,    0.0000000,    0.0000000 ]
  distance:    0.0052226
  band:
  - # 1
    frequency:   -0.5831611757
  - # 2
    frequency:   -0.4999928849
  - # 3
    frequency:   -0.0586512588
  - # 4
    frequency:    0.1348700405
  - # 5
    frequency:    0.3176380850
  - # 6
    frequency:    0.8736930730
  - # 7
    frequency:    2.4973538874
  - # 8
    frequency:    2.5195703965
  - # 9
    frequency:    4.4813014811
  - # 10
    frequency:    4.4916205461
  - # 11
    frequency:    4.6987871542
  - # 12
    frequency:    8.8139743154
  - # 13
    frequency:   11.9670907383
  - # 14
    frequency:   12.0171550455
  - # 15
    frequency:   12.9729169437
  - # 16
    frequency:   14.3957878015
  - # 17
    frequency:   14.4089056451
  - # 18
    frequency:   16.6647548114

- q-position: [    0.0202020,    0.0000000,    0.0000000 ]
  distance:    0.0069635
  band:
  - # 1
    frequency:   -0.6889625535
  - # 2
    frequency:   -0.5561709545
  - # 3
    frequency:   -0.0778940305
  - # 4
    frequency:    0.1917315544
  - # 5
    frequency:    0.4350431240
  - # 6
    frequency:    0.8769560478
  - # 7
    frequency:    2.5025316087
  - # 8
    frequency:    2.5416460934
  - # 9
    frequency:    4.4792607704
  - # 10
    frequency:    4.4973020670
  - # 11
    frequency:    4.7140106214
  - # 12
    frequency:    8.8097109130
  - # 13
    frequency:   11.9691260866
  - # 14
    frequency:   12.0568813206
  - # 15
    frequency:   12.9575355088
  - # 16
    frequency:   14.3950209599
  - # 17
    frequency:   14.4177623688
  - # 18
    frequency:   16.6723917645

- q-position: [    0.0252525,    0.0000000,    0.0000000 ]
  distance:    0.0087043
  band:
  - # 1
    frequency:   -0.8054156858
  - # 2
    frequency:   -0.6222941266
  - # 3
    frequency:   -0.0949406498
  - # 4
    frequency:    0.2508196345
  - # 5
    frequency:    0.5514655498
  - # 6
    frequency:    0.8817658383
  - # 7
    frequency:    2.5091543775
  - # 8
    frequency:    2.5695308423
  - # 9
    frequency:    4.4769133363
  - # 10
    frequency:    4.5045761596
  - # 11
    frequency:    4.7332810452
  - # 12
    frequency:    8.8043006488
  - # 13
    frequency:   11.9717018084
  - # 14
    frequency:   12.1061675243
  - # 15
    frequency:   12.9393607353
  - # 16
    frequency:   14.3940261876
  - # 17
    frequency:   14.4284493707
  - # 18
    frequency:   16.6824138879

- q-position: [    0.0303030,    0.0000000,    0.0000000 ]
  distance:    0.0104452
  band:
  - # 1
    frequency:   -0.9277446075
  - # 2
    frequency:   -0.6951497461
  - # 3
    frequency:   -0.1085046859
  - # 4
    frequency:    0.3107594666
  - # 5
    frequency:    0.6654569597
  - # 6
    frequency:    0.8891719148
  - # 7
    frequency:    2.5171973902
  - # 8
    frequency:    2.6028916631
  - # 9
    frequency:    4.4743749164
  - # 10
    frequency:    4.5134203241
  - # 11
    frequency:    4.7564635312
  - # 12
    frequency:    8.7977905237
  - # 13
    frequency:   11.9747877621
  - # 14
    frequency:   12.1633645274
  - # 15
    frequency:   12.9198535356
  - # 16
    frequency:   14.3927969572
  - # 17
    frequency:   14.4405189913
  - # 18
    frequency:   16.6949680817

- q-position: [    0.0353535,    0.0000000,    0.0000000 ]
  distance:    0.0121861
  band:
  - # 1
    frequency:   -1.0532785063
  - # 2
    frequency:   -0.7723990658
  - # 3
    frequency:   -0.1173952474
  - # 4
    frequency:    0.3709766829
  - # 5
    frequency:    0.7730564905
  - # 6
    frequency:    0.9031746461
  - # 7
    frequency:    2.5266313038
  - # 8
    frequency:    2.6413601100
  - # 9
    frequency:    4.4717366051
  - # 10
    frequency:    4.5238076431
  - # 11
    frequency:    4.7834441696
  - # 12
    frequency:    8.7902320108
  - # 13
    frequency:   11.9783478974
  - # 14
    frequency:   12.2259569433
  - # 15
    frequency:   12.9012620315
  - # 16
    frequency:   14.3913253985
  - # 17
    frequency:   14.4534936371
  - # 18
    frequency:   16.7102276675

- q-position: [    0.0404040,    0.0000000,    0.0000000 ]
  distance:    0.0139269
  band:
  - # 1
    frequency:   -1.1804298074
  - # 2
    frequency:   -0.8524362557
  - # 3
    frequency:   -0.1200959418
  - # 4
    frequency:    0.4312803285
  - # 5
    frequency:    0.8532176918
  - # 6
    frequency:    0.9449148310
  - # 7
    frequency:    2.5374227515
  - # 8
    frequency:    2.6845477481
  - # 9
    frequency:    4.4690667051
  - # 10
    frequency:    4.5357071071
  - # 11
    frequency:    4.8141285384
  - # 12
    frequency:    8.7816788074
  - # 13
    frequency:   11.9823407073
  - # 14
    frequency:   12.2900017856
  - # 15
    frequency:   12.8871749380
  - # 16
    frequency:   14.3896023636
  - # 17
    frequency:   14.4668904128
  - # 18
    frequency:   16.7283885243

- q-position: [    0.0454545,    0.0000000,    0.0000000 ]
  distance:    0.0156678
  band:
  - # 1
    frequency:   -1.3081831271
  - # 2
    frequency:   -0.9341604406
  - # 3
    frequency:   -0.1142044424
  - # 4
    frequency:    0.4916351141
  - # 5
    frequency:    0.8842250123
  - # 6
    frequency:    1.0361671480
  - # 7
    frequency:    2.5495348970
  - # 8
    frequency:    2.7320597226
  - # 9
    frequency:    4.4664163937
  - # 10
    frequency:    4.5490839796
  - # 11
    frequency:    4.8484364609
  - # 12
    frequency:    8.7721849885
  - # 13
    frequency:   11.9867197448
  - # 14
    frequency:   12.3493490566
  - # 15
    frequency:   12.8832983553
  - # 16
    frequency:   14.3876175032
  - # 17
    frequency:   14.4802415009
  - # 18
    frequency:   16.7496644667

- q-position: [    0.0505051,    0.0000000,    0.0000000 ]
  distance:    0.0174087
  band:
  - # 1
    frequency:   -1.4358414957
  - # 2
    frequency:   -1.0167988683
  - # 3
    frequency:   -0.0946716048
  - # 4
    frequency:    0.5520596473
  - # 5
    frequency:    0.8995307327
  - # 6
    frequency:    1.1434870548
  - # 7
    frequency:    2.5629280069
  - # 8
    frequency:    2.7835057407
  - # 9
    frequency:    4.4638260795
  - # 10
    frequency:    4.5639001911
  - # 11
    frequency:    4.8862961566
  - # 12
    frequency:    8.7618036520
  - # 13
    frequency:   11.9914341940
  - # 14
    frequency:   12.3954967191
  - # 15
    frequency:   12.8976030571
  - # 16
    frequency:   14.3853593540
  - # 17
    frequency:   14.4931101988
  - # 18
    frequency:   16.7742819034

- q-position: [    0.0555556,    0.0000000,    0.0000000 ]
  distance:    0.0191495
  band:
  - # 1
    frequency:   -1.5628950874
  - # 2
    frequency:   -1.0997906329
  - # 3
    frequency:   -0.0387223812
  - # 4
    frequency:    0.6125843282
  - # 5
    frequency:    0.9125533225
  - # 6
    frequency:    1.2534152606
  - # 7
    frequency:    2.5775600236
  - # 8
    frequency:    2.8385081989
  - # 9
    frequency:    4.4613310045
  - # 10
    frequency:    4.5801147562
  - # 11
    frequency:    4.9276392463
  - # 12
    frequency:    8.7505860659
  - # 13
    frequency:   11.9964294890
  - # 14
    frequency:   12.4204099636
  - # 15
    frequency:   12.9375112814
  - # 16
    frequency:   14.3828154376
  - # 17
    frequency:   14.5051032449
  - # 18
    frequency:   16.8024738453

- q-position: [    0.0606061,    0.0000000,    0.0000000 ]
  distance:    0.0208904
  band:
  - # 1
    frequency:   -1.6889498966
  - # 2
    frequency:   -1.1827136412
  - # 3
    frequency:    0.1001041154
  - # 4
    frequency:    0.6732348359
  - # 5
    frequency:    0.9257524036
  - # 6
    frequency:    1.3634104886
  - # 7
    frequency:    2.5933871196
  - # 8
    frequency:    2.8967074880
  - # 9
    frequency:    4.4589657105
  - # 10
    frequency:    4.5976842015
  - # 11
    frequency:    4.9723970270
  - # 12
    frequency:    8.7385812612
  - # 13
    frequency:   12.0016479699
  - # 14
    frequency:   12.4218781877
  - # 15
    frequency:   13.0045482584
  - # 16
    frequency:   14.3799723706
  - # 17
    frequency:   14.5158804105
  - # 18
    frequency:   16.8344733661

- q-position: [    0.0656566,    0.0000000,    0.0000000 ]
  distance:    0.0226313
  band:
  - # 1
    frequency:   -1.8136871255
  - # 2
    frequency:   -1.2652389202
  - # 3
    frequency:    0.1620103566
  - # 4
    frequency:    0.7340262695
  - # 5
    frequency:    0.9397921916
  - # 6
    frequency:    1.4726947260
  - # 7
    frequency:    2.6103642217
  - # 8
    frequency:    2.9577646917
  - # 9
    frequency:    4.4567674933
  - # 10
    frequency:    4.6165629988
  - # 11
    frequency:    5.0204979323
  - # 12
    frequency:    8.7258359832
  - # 13
    frequency:   12.0070295665
  - # 14
    frequency:   12.4041428982
  - # 15
    frequency:   13.0937238480
  - # 16
    frequency:   14.3768159841
  - # 17
    frequency:   14.5251624879
  - # 18
    frequency:   16.8705066371

- q-position: [    0.0707071,    0.0000000,    0.0000000 ]
  distance:    0.0243721
  band:
  - # 1
    frequency:   -1.9368390709
  - # 2
    frequency:   -1.3471016700
  - # 3
    frequency:    0.2186173535
  - # 4
    frequency:    0.7949616829
  - # 5
    frequency:    0.9549038518
  - # 6
    frequency:    1.5808992875
  - # 7
    frequency:    2.6284454924
  - # 8
    frequency:    3.0213619743
  - # 9
    frequency:    4.4547791550
  - # 10
    frequency:    4.6367039928
  - # 11
    frequency:    5.0718659306
  - # 12
    frequency:    8.7123949026
  - # 13
    frequency:   12.0125125016
  - # 14
    frequency:   12.3731582258
  - # 15
    frequency:   13.1982810904
  - # 16
    frequency:   14.3733314541
  - # 17
    frequency:   14.5327389733
  - # 18
    frequency:   16.9107856545

- q-position: [    0.0757576,    0.0000000,    0.0000000 ]
  distance:    0.0261130
  band:
  - # 1
    frequency:   -2.0581742790
  - # 2
    frequency:   -1.4280825812
  - # 3
    frequency:    0.2742773102
  - # 4
    frequency:    0.8560324030
  - # 5
    frequency:    0.9711716819
  - # 6
    frequency:    1.6877863581
  - # 7
    frequency:    2.6475847614
  - # 8
    frequency:    3.0872009571
  - # 9
    frequency:    4.4530513954
  - # 10
    frequency:    4.6580588172
  - # 11
    frequency:    5.1264196022
  - # 12
    frequency:    8.6983009913
  - # 13
    frequency:   12.0180340041
  - # 14
    frequency:   12.3335223372
  - # 15
    frequency:   13.3127715231
  - # 16
    frequency:   14.3695034398
  - # 17
    frequency:   14.5384771729
  - # 18
    frequency:   16.9555007654

- q-position: [    0.0808081,    0.0000000,    0.0000000 ]
  distance:    0.0278539
  band:
  - # 1
    frequency:   -2.1774881182
  - # 2
    frequency:   -1.5079955289
  - # 3
    frequency:    0.3302549571
  - # 4
    frequency:    0.9172190443
  - # 5
    frequency:    0.9886179700
  - # 6
    frequency:    1.7931710405
  - # 7
    frequency:    2.6677359025
  - # 8
    frequency:    3.1549993449
  - # 9
    frequency:    4.4516451770
  - # 10
    frequency:    4.6805782929
  - # 11
    frequency:    5.1840716777
  - # 12
    frequency:    8.6835959828
  - # 13
    frequency:   12.0235310227
  - # 14
    frequency:   12.2882040333
  - # 15
    frequency:   13.4333301330
  - # 16
    frequency:   14.3653162312
  - # 17
    frequency:   14.5423355174
  - # 18
    frequency:   17.0048130674

- q-position: [    0.0858586,    0.0000000,    0.0000000 ]
  distance:    0.0295947
  band:
  - # 1
    frequency:   -2.2945966350
  - # 2
    frequency:   -1.5866793056
  - # 3
    frequency:    0.3870097654
  - # 4
    frequency:    0.9784927632
  - # 5
    frequency:    1.0072350440
  - # 6
    frequency:    1.8968953879
  - # 7
    frequency:    2.6888531539
  - # 8
    frequency:    3.2244859831
  - # 9
    frequency:    4.4506343889
  - # 10
    frequency:    4.7042128002
  - # 11
    frequency:    5.2447288771
  - # 12
    frequency:    8.6683208583
  - # 13
    frequency:   12.0289409331
  - # 14
    frequency:   12.2390688639
  - # 15
    frequency:   13.5571404340
  - # 16
    frequency:   14.3607539029
  - # 17
    frequency:   14.5443862509
  - # 18
    frequency:   17.0588467378

- q-position: [    0.0909091,    0.0000000,    0.0000000 ]
  distance:    0.0313356
  band:
  - # 1
    frequency:   -2.4093324602
  - # 2
    frequency:   -1.6639919623
  - # 3
    frequency:    0.4446987180
  - # 4
    frequency:    1.0269997599
  - # 5
    frequency:    1.0398165630
  - # 6
    frequency:    1.9988192301
  - # 7
    frequency:    2.7108913816
  - # 8
    frequency:    3.2953944288
  - # 9
    frequency:    4.4501091559
  - # 10
    frequency:    4.7289126236
  - # 11
    frequency:    5.3082919342
  - # 12
    frequency:    8.6525163141
  - # 13
    frequency:   12.0342022317
  - # 14
    frequency:   12.1873289377
  - # 15
    frequency:   13.6819549833
  - # 16
    frequency:   14.3558004744
  - # 17
    frequency:   14.5448580086
  - # 18
    frequency:   17.1176813551

- q-position: [    0.0959596,    0.0000000,    0.0000000 ]
  distance:    0.0330765
  band:
  - # 1
    frequency:   -2.5215420346
  - # 2
    frequency:   -1.7398068695
  - # 3
    frequency:    0.5033433870
  - # 4
    frequency:    1.0478810398
  - # 5
    frequency:    1.1011465707
  - # 6
    frequency:    2.0988172479
  - # 7
    frequency:    2.7338062881
  - # 8
    frequency:    3.3674549862
  - # 9
    frequency:    4.4501802059
  - # 10
    frequency:    4.7546282613
  - # 11
    frequency:    5.3746557272
  - # 12
    frequency:    8.6362231845
  - # 13
    frequency:   12.0392552073
  - # 14
    frequency:   12.1338161873
  - # 15
    frequency:   13.8057486805
  - # 16
    frequency:   14.3504400743
  - # 17
    frequency:   14.5442211429
  - # 18
    frequency:   17.1813443263

- q-position: [    0.1010101,    0.0000000,    0.0000000 ]
  distance:    0.0348173
  band:
  - # 1
    frequency:   -2.6310837001
  - # 2
    frequency:   -1.8140099337
  - # 3
    frequency:    0.5628985024
  - # 4
    frequency:    1.0698442964
  - # 5
    frequency:    1.1624332567
  - # 6
    frequency:    2.1967785273
  - # 7
    frequency:    2.7575545707
  - # 8
    frequency:    3.4403849907
  - # 9
    frequency:    4.4509848186
  - # 10
    frequency:    4.7813107003
  - # 11
    frequency:    5.4437094621
  - # 12
    frequency:    8.6194828049
  - # 13
    frequency:   12.0440425867
  - # 14
    frequency:   12.0791367146
  - # 15
    frequency:   13.9263947686
  - # 16
    frequency:   14.3446571086
  - # 17
    frequency:   14.5433681247
  - # 18
    frequency:   17.2498036381

- q-position: [    0.1060606,    0.0000000,    0.0000000 ]
  distance:    0.0365582
  band:
  - # 1
    frequency:   -2.7378263744
  - # 2
    frequency:   -1.8864976038
  - # 3
    frequency:    0.6232838201
  - # 4
    frequency:    1.0928543703
  - # 5
    frequency:    1.2236225856
  - # 6
    frequency:    2.2926070327
  - # 7
    frequency:    2.7820940316
  - # 8
    frequency:    3.5138769074
  - # 9
    frequency:    4.4526950566
  - # 10
    frequency:    4.8089116517
  - # 11
    frequency:    5.5153368711
  - # 12
    frequency:    8.6023373110
  - # 13
    frequency:   12.0237581159
  - # 14
    frequency:   12.0485101486
  - # 15
    frequency:   14.0411901299
  - # 16
    frequency:   14.3384364292
  - # 17
    frequency:   14.5440102529
  - # 18
    frequency:   17.3229612901

- q-position: [    0.1111111,    0.0000000,    0.0000000 ]
  distance:    0.0382991
  band:
  - # 1
    frequency:   -2.8416486224
  - # 2
    frequency:   -1.9571754276
  - # 3
    frequency:    0.6843999222
  - # 4
    frequency:    1.1168778053
  - # 5
    frequency:    1.2846570942
  - # 6
    frequency:    2.3862222595
  - # 7
    frequency:    2.8073836466
  - # 8
    frequency:    3.5875835452
  - # 9
    frequency:    4.4555291969
  - # 10
    frequency:    4.8373837466
  - # 11
    frequency:    5.5894164025
  - # 12
    frequency:    8.5848298748
  - # 13
    frequency:   11.9680602505
  - # 14
    frequency:   12.0526073005
  - # 15
    frequency:   14.1459560246
  - # 16
    frequency:   14.3317635031
  - # 17
    frequency:   14.5495336437
  - # 18
    frequency:   17.4006479191

- q-position: [    0.1161616,    0.0000000,    0.0000000 ]
  distance:    0.0400399
  band:
  - # 1
    frequency:   -2.9424380039
  - # 2
    frequency:   -2.0259569937
  - # 3
    frequency:    0.7461359836
  - # 4
    frequency:    1.1418849900
  - # 5
    frequency:    1.3454768976
  - # 6
    frequency:    2.4775596786
  - # 7
    frequency:    2.8333835967
  - # 8
    frequency:    3.6610994248
  - # 9
    frequency:    4.4597675022
  - # 10
    frequency:    4.8666806921
  - # 11
    frequency:    5.6658213852
  - # 12
    frequency:    8.5670048821
  - # 13
    frequency:   11.9123658175
  - # 14
    frequency:   12.0562876167
  - # 15
    frequency:   14.2336120682
  - # 16
    frequency:   14.3246245790
  - # 17
    frequency:   14.5663998054
  - # 18
    frequency:   17.4826192271

- q-position: [    0.1212121,    0.0000000,    0.0000000 ]
  distance:    0.0417808
  band:
  - # 1
    frequency:   -3.0400906138
  - # 2
    frequency:   -2.0927631516
  - # 3
    frequency:    0.8083728837
  - # 4
    frequency:    1.1678526395
  - # 5
    frequency:    1.4060206224
  - # 6
    frequency:    2.5665707581
  - # 7
    frequency:    2.8600552680
  - # 8
    frequency:    3.7339372721
  - # 9
    frequency:    4.4657734869
  - # 10
    frequency:    4.8967573861
  - # 11
    frequency:    5.7444201559
  - # 12
    frequency:    8.5489080620
  - # 13
    frequency:   11.8569594632
  - # 14
    frequency:   12.0595093320
  - # 15
    frequency:   14.2946210940
  - # 16
    frequency:   14.3170068508
  - # 17
    frequency:   14.6036838852
  - # 18
    frequency:   17.5685548361

- q-position: [    0.1262626,    0.0000000,    0.0000000 ]
  distance:    0.0435217
  band:
  - # 1
    frequency:   -3.1345107591
  - # 2
    frequency:   -2.1575214301
  - # 3
    frequency:    0.8709829792
  - # 4
    frequency:    1.1947672004
  - # 5
    frequency:    1.4662262689
  - # 6
    frequency:    2.6532224568
  - # 7
    frequency:    2.8873612246
  - # 8
    frequency:    3.8054992639
  - # 9
    frequency:    4.4740211186
  - # 10
    frequency:    4.9275699934
  - # 11
    frequency:    5.8250761432
  - # 12
    frequency:    8.5305865754
  - # 13
    frequency:   11.8021001422
  - # 14
    frequency:   12.0622357914
  - # 15
    frequency:   14.3088986147
  - # 16
    frequency:   14.3250457056
  - # 17
    frequency:   14.6650046181
  - # 18
    frequency:   17.6580600789

- q-position: [    0.1313131,    0.0000000,    0.0000000 ]
  distance:    0.0452625
  band:
  - # 1
    frequency:   -3.2256107316
  - # 2
    frequency:   -2.2201656015
  - # 3
    frequency:    0.9338266340
  - # 4
    frequency:    1.2226300873
  - # 5
    frequency:    1.5260320019
  - # 6
    frequency:    2.7374961659
  - # 7
    frequency:    2.9152651610
  - # 8
    frequency:    3.8750452972
  - # 9
    frequency:    4.4851256971
  - # 10
    frequency:    4.9590759834
  - # 11
    frequency:    5.9076479038
  - # 12
    frequency:    8.5120890768
  - # 13
    frequency:   11.7480293693
  - # 14
    frequency:   12.0644358511
  - # 15
    frequency:   14.3002894200
  - # 16
    frequency:   14.3321205343
  - # 17
    frequency:   14.7429391283
  - # 18
    frequency:   17.7506709875

- q-position: [    0.1363636,    0.0000000,    0.0000000 ]
  distance:    0.0470034
  band:
  - # 1
    frequency:   -3.3133106495
  - # 2
    frequency:   -2.2806353523
  - # 3
    frequency:    0.9967444681
  - # 4
    frequency:    1.2514663538
  - # 5
    frequency:    1.5853768714
  - # 6
    frequency:    2.8193861332
  - # 7
    frequency:    2.9437318375
  - # 8
    frequency:    3.9416675735
  - # 9
    frequency:    4.4998690770
  - # 10
    frequency:    4.9912341309
  - # 11
    frequency:    5.9919891083
  - # 12
    frequency:    8.4934657604
  - # 13
    frequency:   11.6949768725
  - # 14
    frequency:   12.0660842310
  - # 15
    frequency:   14.2911702104
  - # 16
    frequency:   14.3253137264
  - # 17
    frequency:   14.8279476686
  - # 18
    frequency:   17.8458624043

- q-position: [    0.1414141,    0.0000000,    0.0000000 ]
  distance:    0.0487443
  band:
  - # 1
    frequency:   -3.3975383457
  - # 2
    frequency:   -2.3388760319
  - # 3
    frequency:    1.0595426407
  - # 4
    frequency:    1.2813398130
  - # 5
    frequency:    1.6442014629
  - # 6
    frequency:    2.8988974567
  - # 7
    frequency:    2.9727270048
  - # 8
    frequency:    4.0042949713
  - # 9
    frequency:    4.5191956725
  - # 10
    frequency:    5.0240044832
  - # 11
    frequency:    6.0779484742
  - # 12
    frequency:    8.4747684069
  - # 13
    frequency:   11.6431645409
  - # 14
    frequency:   12.0671618163
  - # 15
    frequency:   14.2815334558
  - # 16
    frequency:   14.3104723281
  - # 17
    frequency:   14.9142132135
  - # 18
    frequency:   17.9430587877

- q-position: [    0.1464646,    0.0000000,    0.0000000 ]
  distance:    0.0504851
  band:
  - # 1
    frequency:   -3.4782292899
  - # 2
    frequency:   -2.3948384600
  - # 3
    frequency:    1.1219655444
  - # 4
    frequency:    1.3123804327
  - # 5
    frequency:    1.7024484783
  - # 6
    frequency:    2.9760437630
  - # 7
    frequency:    3.0022173217
  - # 8
    frequency:    4.0617694614
  - # 9
    frequency:    4.5441368743
  - # 10
    frequency:    5.0573482960
  - # 11
    frequency:    6.1653696434
  - # 12
    frequency:    8.4560504490
  - # 13
    frequency:   11.5928092052
  - # 14
    frequency:   12.0676559080
  - # 15
    frequency:   14.2713732719
  - # 16
    frequency:   14.2906017907
  - # 17
    frequency:   14.9988459034
  - # 18
    frequency:   18.0416469798

- q-position: [    0.1515152,    0.0000000,    0.0000000 ]
  distance:    0.0522260
  band:
  - # 1
    frequency:   -3.5553265315
  - # 2
    frequency:   -2.4484787756
  - # 3
    frequency:    1.1836450814
  - # 4
    frequency:    1.3448349586
  - # 5
    frequency:    1.7600632459
  - # 6
    frequency:    3.0321702701
  - # 7
    frequency:    3.0508447031
  - # 8
    frequency:    4.1130381428
  - # 9
    frequency:    4.5756201685
  - # 10
    frequency:    5.0912279408
  - # 11
    frequency:    6.2540909968
  - # 12
    frequency:    8.4373670789
  - # 13
    frequency:   11.5441245876
  - # 14
    frequency:   12.0675604197
  - # 15
    frequency:   14.2606855282
  - # 16
    frequency:   14.2672838165
  - # 17
    frequency:   15.0804487231
  - # 18
    frequency:   18.1409900259

- q-position: [    0.1565657,    0.0000000,    0.0000000 ]
  distance:    0.0539669
  band:
  - # 1
    frequency:   -3.6287806567
  - # 2
    frequency:   -2.4997583180
  - # 3
    frequency:    1.2440094359
  - # 4
    frequency:    1.3791579337
  - # 5
    frequency:    1.8169941610
  - # 6
    frequency:    3.0625540734
  - # 7
    frequency:    3.1233233968
  - # 8
    frequency:    4.1574437676
  - # 9
    frequency:    4.6141799558
  - # 10
    frequency:    5.1256067876
  - # 11
    frequency:    6.3439453959
  - # 12
    frequency:    8.4187754273
  - # 13
    frequency:   11.4973226252
  - # 14
    frequency:   12.0668760210
  - # 15
    frequency:   14.2414246283
  - # 16
    frequency:   14.2494679419
  - # 17
    frequency:   15.1583530845
  - # 18
    frequency:   18.2404411001

- q-position: [    0.1616162,    0.0000000,    0.0000000 ]
  distance:    0.0557077
  band:
  - # 1
    frequency:   -3.6985497522
  - # 2
    frequency:   -2.5486435303
  - # 3
    frequency:    1.3021455067
  - # 4
    frequency:    1.4161490001
  - # 5
    frequency:    1.8731930563
  - # 6
    frequency:    3.0933376195
  - # 7
    frequency:    3.1935039499
  - # 8
    frequency:    4.1949742688
  - # 9
    frequency:    4.6597094401
  - # 10
    frequency:    5.1604490674
  - # 11
    frequency:    6.4347598277
  - # 12
    frequency:    8.4003348565
  - # 13
    frequency:   11.4526142991
  - # 14
    frequency:   12.0656102271
  - # 15
    frequency:   14.2135947796
  - # 16
    frequency:   14.2377201590
  - # 17
    frequency:   15.2322639171
  - # 18
    frequency:   18.3393566908

- q-position: [    0.1666667,    0.0000000,    0.0000000 ]
  distance:    0.0574486
  band:
  - # 1
    frequency:   -3.7645993717
  - # 2
    frequency:   -2.5951058784
  - # 3
    frequency:    1.3567242381
  - # 4
    frequency:    1.4570272797
  - # 5
    frequency:    1.9286155011
  - # 6
    frequency:    3.1244903949
  - # 7
    frequency:    3.2614091498
  - # 8
    frequency:    4.2262871349
  - # 9
    frequency:    4.7114376362
  - # 10
    frequency:    5.1957197175
  - # 11
    frequency:    6.5263549191
  - # 12
    frequency:    8.3821074231
  - # 13
    frequency:   11.4102100461
  - # 14
    frequency:   12.0637774307
  - # 15
    frequency:   14.1841859205
  - # 16
    frequency:   14.2254438203
  - # 17
    frequency:   15.3020894245
  - # 18
    frequency:   18.4371083967

- q-position: [    0.1717172,    0.0000000,    0.0000000 ]
  distance:    0.0591895
  band:
  - # 1
    frequency:   -3.8269025017
  - # 2
    frequency:   -2.6391217817
  - # 3
    frequency:    1.4064074109
  - # 4
    frequency:    1.5030242949
  - # 5
    frequency:    1.9832210311
  - # 6
    frequency:    3.1559824312
  - # 7
    frequency:    3.3270584327
  - # 8
    frequency:    4.2524825167
  - # 9
    frequency:    4.7681575282
  - # 10
    frequency:    5.2313842153
  - # 11
    frequency:    6.6185442597
  - # 12
    frequency:    8.3641585941
  - # 13
    frequency:   11.3703197991
  - # 14
    frequency:   12.0613988788
  - # 15
    frequency:   14.1534871800
  - # 16
    frequency:   14.2126426140
  - # 17
    frequency:   15.3678532041
  - # 18
    frequency:   18.5330929184

- q-position: [    0.1767677,    0.0000000,    0.0000000 ]
  distance:    0.0609303
  band:
  - # 1
    frequency:   -3.8854395231
  - # 2
    frequency:   -2.6806725505
  - # 3
    frequency:    1.4509128226
  - # 4
    frequency:    1.5543185128
  - # 5
    frequency:    2.0369733071
  - # 6
    frequency:    3.1877842665
  - # 7
    frequency:    3.3904662033
  - # 8
    frequency:    4.2747932905
  - # 9
    frequency:    4.8285370750
  - # 10
    frequency:    5.2674084049
  - # 11
    frequency:    6.7111334371
  - # 12
    frequency:    8.3465583343
  - # 13
    frequency:   11.3331526760
  - # 14