nqpoint: 300    
npath: 3      
segment_nqpoint:
- 100
- 100
- 100
labels:
- [ 'G', 'M' ]
- [ 'M', 'K' ]
- [ 'K', 'G' ]
reciprocal_lattice:
- [   0.29223624,   0.16872267,   0.00000000 ] # a*
- [   0.00000000,   0.33744534,   0.00000000 ] # b*
- [   0.00000000,   0.00000000,   0.04288648 ] # c*
natom: 5      
lattice:
- [     3.421889110254575,     0.000000000000000,     0.000000000000000 ] # a
- [    -1.710944555127288,     2.963442898408950,     0.000000000000000 ] # b
- [     0.000000000000000,     0.000000000000000,    23.317371597929771 ] # c
points:
- symbol: Br # 1
  coordinates: [  0.333332985432215,  0.666666983183674,  0.614021676405454 ]
  mass: 79.904000
- symbol: C # 2
  coordinates: [  0.000000000000000,  0.000000000000000,  0.480834889420842 ]
  mass: 12.010700
- symbol: H # 3
  coordinates: [  0.666666984744047,  0.333332985985145,  0.385978323594545 ]
  mass: 1.007940
- symbol: Sc # 4
  coordinates: [  0.333332985432215,  0.666666983183674,  0.427890438839792 ]
  mass: 44.955912
- symbol: Sc # 5
  coordinates: [  0.666666984744047,  0.333332985985145,  0.533618292746851 ]
  mass: 44.955912

phonon:
- q-position: [    0.0000000,    0.0000000,    0.0000000 ]
  distance:    0.0000000
  band:
  - # 1
    frequency:   -0.0000018642
  - # 2
    frequency:    0.0000007436
  - # 3
    frequency:    0.0000016085
  - # 4
    frequency:    3.1076618189
  - # 5
    frequency:    3.1076618189
  - # 6
    frequency:    5.6034651775
  - # 7
    frequency:    5.7594249005
  - # 8
    frequency:    5.7594249005
  - # 9
    frequency:   10.3521723141
  - # 10
    frequency:   10.3521723141
  - # 11
    frequency:   10.9791479342
  - # 12
    frequency:   18.1772957134
  - # 13
    frequency:   23.5355058177
  - # 14
    frequency:   23.5355058177
  - # 15
    frequency:   26.2967877737

- q-position: [    0.0050505,    0.0000000,    0.0000000 ]
  distance:    0.0017043
  band:
  - # 1
    frequency:   -0.0325473545
  - # 2
    frequency:    0.0756233470
  - # 3
    frequency:    0.1193970599
  - # 4
    frequency:    3.1083149945
  - # 5
    frequency:    3.1108302870
  - # 6
    frequency:    5.5974867304
  - # 7
    frequency:    5.7596270845
  - # 8
    frequency:    5.7662125843
  - # 9
    frequency:   10.3529963997
  - # 10
    frequency:   10.3624308731
  - # 11
    frequency:   10.9785556084
  - # 12
    frequency:   18.1744554597
  - # 13
    frequency:   23.5355771068
  - # 14
    frequency:   23.5378428953
  - # 15
    frequency:   26.2956890967

- q-position: [    0.0101010,    0.0000000,    0.0000000 ]
  distance:    0.0034085
  band:
  - # 1
    frequency:   -0.0510664415
  - # 2
    frequency:    0.1511786360
  - # 3
    frequency:    0.2354137644
  - # 4
    frequency:    3.1102732097
  - # 5
    frequency:    3.1202865635
  - # 6
    frequency:    5.5819132925
  - # 7
    frequency:    5.7602323212
  - # 8
    frequency:    5.7842034958
  - # 9
    frequency:   10.3554622024
  - # 10
    frequency:   10.3930093470
  - # 11
    frequency:   10.9768562901
  - # 12
    frequency:   18.1659484665
  - # 13
    frequency:   23.5357900131
  - # 14
    frequency:   23.5448425660
  - # 15
    frequency:   26.2923985914

- q-position: [    0.0151515,    0.0000000,    0.0000000 ]
  distance:    0.0051128
  band:
  - # 1
    frequency:   -0.0702104657
  - # 2
    frequency:    0.2265980132
  - # 3
    frequency:    0.3519249230
  - # 4
    frequency:    3.1135325394
  - # 5
    frequency:    3.1358871443
  - # 6
    frequency:    5.5608252417
  - # 7
    frequency:    5.7612366784
  - # 8
    frequency:    5.8092874477
  - # 9
    frequency:   10.3595504310
  - # 10
    frequency:   10.4432760880
  - # 11
    frequency:   10.9743262750
  - # 12
    frequency:   18.1518157525
  - # 13
    frequency:   23.5361416639
  - # 14
    frequency:   23.5564703082
  - # 15
    frequency:   26.2869328731

- q-position: [    0.0202020,    0.0000000,    0.0000000 ]
  distance:    0.0068171
  band:
  - # 1
    frequency:   -0.0877034817
  - # 2
    frequency:    0.3018140323
  - # 3
    frequency:    0.4683247409
  - # 4
    frequency:    3.1180864728
  - # 5
    frequency:    3.1574051618
  - # 6
    frequency:    5.5370039642
  - # 7
    frequency:    5.7626336493
  - # 8
    frequency:    5.8386362445
  - # 9
    frequency:   10.3652291695
  - # 10
    frequency:   10.5119949760
  - # 11
    frequency:   10.9716202109
  - # 12
    frequency:   18.1321247532
  - # 13
    frequency:   23.5366273030
  - # 14
    frequency:   23.5726691083
  - # 15
    frequency:   26.2793197642

- q-position: [    0.0252525,    0.0000000,    0.0000000 ]
  distance:    0.0085213
  band:
  - # 1
    frequency:   -0.1022018696
  - # 2
    frequency:    0.3767598564
  - # 3
    frequency:    0.5844031434
  - # 4
    frequency:    3.1239259599
  - # 5
    frequency:    3.1845468271
  - # 6
    frequency:    5.5119045165
  - # 7
    frequency:    5.7644142212
  - # 8
    frequency:    5.8707348936
  - # 9
    frequency:   10.3724542282
  - # 10
    frequency:   10.5967761962
  - # 11
    frequency:   10.9703359668
  - # 12
    frequency:   18.1069679894
  - # 13
    frequency:   23.5372403387
  - # 14
    frequency:   23.5933601721
  - # 15
    frequency:   26.2695985000

- q-position: [    0.0303030,    0.0000000,    0.0000000 ]
  distance:    0.0102256
  band:
  - # 1
    frequency:   -0.1124857710
  - # 2
    frequency:    0.4513694578
  - # 3
    frequency:    0.7000219030
  - # 4
    frequency:    3.1310394738
  - # 5
    frequency:    3.2169709338
  - # 6
    frequency:    5.4862604561
  - # 7
    frequency:    5.7665669709
  - # 8
    frequency:    5.9047814293
  - # 9
    frequency:   10.3811696264
  - # 10
    frequency:   10.6921207160
  - # 11
    frequency:   10.9749910161
  - # 12
    frequency:   18.0764613231
  - # 13
    frequency:   23.5379724099
  - # 14
    frequency:   23.6184437803
  - # 15
    frequency:   26.2578200404

- q-position: [    0.0353535,    0.0000000,    0.0000000 ]
  distance:    0.0119299
  band:
  - # 1
    frequency:   -0.1171199936
  - # 2
    frequency:    0.5255778145
  - # 3
    frequency:    0.8150632740
  - # 4
    frequency:    3.1394130893
  - # 5
    frequency:    3.2543089304
  - # 6
    frequency:    5.4604562626
  - # 7
    frequency:    5.7690781819
  - # 8
    frequency:    5.9403193570
  - # 9
    frequency:   10.3913082033
  - # 10
    frequency:   10.7824330334
  - # 11
    frequency:   11.0000347456
  - # 12
    frequency:   18.0407419037
  - # 13
    frequency:   23.5388134701
  - # 14
    frequency:   23.6478001612
  - # 15
    frequency:   26.2440475094

- q-position: [    0.0404040,    0.0000000,    0.0000000 ]
  distance:    0.0136342
  band:
  - # 1
    frequency:   -0.1140181382
  - # 2
    frequency:    0.5993211041
  - # 3
    frequency:    0.9294167317
  - # 4
    frequency:    3.1490305734
  - # 5
    frequency:    3.2961834110
  - # 6
    frequency:    5.4347068450
  - # 7
    frequency:    5.7719319850
  - # 8
    frequency:    5.9770627146
  - # 9
    frequency:   10.4027923440
  - # 10
    frequency:   10.8364296765
  - # 11
    frequency:   11.0754679908
  - # 12
    frequency:   17.9999659217
  - # 13
    frequency:   23.5397518893
  - # 14
    frequency:   23.6812902359
  - # 15
    frequency:   26.2283567983

- q-position: [    0.0454545,    0.0000000,    0.0000000 ]
  distance:    0.0153384
  band:
  - # 1
    frequency:   -0.0992270625
  - # 2
    frequency:    0.6725368924
  - # 3
    frequency:    1.0429745283
  - # 4
    frequency:    3.1598734886
  - # 5
    frequency:    3.3422235200
  - # 6
    frequency:    5.4091424730
  - # 7
    frequency:    5.7751105156
  - # 8
    frequency:    6.0148150379
  - # 9
    frequency:   10.4155348144
  - # 10
    frequency:   10.8500885739
  - # 11
    frequency:   11.2039233277
  - # 12
    frequency:   17.9543062877
  - # 13
    frequency:   23.5407745719
  - # 14
    frequency:   23.7187560781
  - # 15
    frequency:   26.2108373774

- q-position: [    0.0505051,    0.0000000,    0.0000000 ]
  distance:    0.0170427
  band:
  - # 1
    frequency:   -0.0599664003
  - # 2
    frequency:    0.7451643184
  - # 3
    frequency:    1.1556299976
  - # 4
    frequency:    3.1719213034
  - # 5
    frequency:    3.3920764935
  - # 6
    frequency:    5.3838503034
  - # 7
    frequency:    5.7785940881
  - # 8
    frequency:    6.0534308544
  - # 9
    frequency:   10.4294396906
  - # 10
    frequency:   10.8453421377
  - # 11
    frequency:   11.3620019356
  - # 12
    frequency:   17.9039503487
  - # 13
    frequency:   23.5418670903
  - # 14
    frequency:   23.7600209279
  - # 15
    frequency:   26.1915933769

- q-position: [    0.0555556,    0.0000000,    0.0000000 ]
  distance:    0.0187470
  band:
  - # 1
    frequency:    0.0799914106
  - # 2
    frequency:    0.8171442737
  - # 3
    frequency:    1.2672769337
  - # 4
    frequency:    3.1851515109
  - # 5
    frequency:    3.4454152084
  - # 6
    frequency:    5.3588954937
  - # 7
    frequency:    5.7823613829
  - # 8
    frequency:    6.0927966721
  - # 9
    frequency:   10.4444033713
  - # 10
    frequency:   10.8327785679
  - # 11
    frequency:   11.5376012814
  - # 12
    frequency:   17.8490977429
  - # 13
    frequency:   23.5430138327
  - # 14
    frequency:   23.8048885942
  - # 15
    frequency:   26.1707450175

- q-position: [    0.0606061,    0.0000000,    0.0000000 ]
  distance:    0.0204512
  band:
  - # 1
    frequency:    0.1441074517
  - # 2
    frequency:    0.8884195759
  - # 3
    frequency:    1.3778094844
  - # 4
    frequency:    3.1995397507
  - # 5
    frequency:    3.5019420776
  - # 6
    frequency:    5.3343323076
  - # 7
    frequency:    5.7863896431
  - # 8
    frequency:    6.1328211502
  - # 9
    frequency:   10.4603156602
  - # 10
    frequency:   10.8159151907
  - # 11
    frequency:   11.7256687837
  - # 12
    frequency:   17.7899584809
  - # 13
    frequency:   23.5441981647
  - # 14
    frequency:   23.8531420823
  - # 15
    frequency:   26.1484304959

- q-position: [    0.0656566,    0.0000000,    0.0000000 ]
  distance:    0.0221555
  band:
  - # 1
    frequency:    0.2002802402
  - # 2
    frequency:    0.9589351363
  - # 3
    frequency:    1.4871223466
  - # 4
    frequency:    3.2150599339
  - # 5
    frequency:    3.5613898915
  - # 6
    frequency:    5.3102101530
  - # 7
    frequency:    5.7906548791
  - # 8
    frequency:    6.1734296863
  - # 9
    frequency:   10.4770609030
  - # 10
    frequency:   10.7961017557
  - # 11
    frequency:   11.9233227616
  - # 12
    frequency:   17.7267513241
  - # 13
    frequency:   23.5454026023
  - # 14
    frequency:   23.9045412730
  - # 15
    frequency:   26.1248084607

- q-position: [    0.0707071,    0.0000000,    0.0000000 ]
  distance:    0.0238598
  band:
  - # 1
    frequency:    0.2549646427
  - # 2
    frequency:    1.0286381199
  - # 3
    frequency:    1.5951111713
  - # 4
    frequency:    3.2316843687
  - # 5
    frequency:    3.6235202959
  - # 6
    frequency:    5.2865770257
  - # 7
    frequency:    5.7951320772
  - # 8
    frequency:    6.2145611653
  - # 9
    frequency:   10.4945191663
  - # 10
    frequency:   10.7739622936
  - # 11
    frequency:   12.1284315775
  - # 12
    frequency:   17.6597025252
  - # 13
    frequency:   23.5466089951
  - # 14
    frequency:   23.9588194685
  - # 15
    frequency:   26.1000612551

- q-position: [    0.0757576,    0.0000000,    0.0000000 ]
  distance:    0.0255640
  band:
  - # 1
    frequency:    0.3098237356
  - # 2
    frequency:    1.0974780980
  - # 3
    frequency:    1.7016731301
  - # 4
    frequency:    3.2493838847
  - # 5
    frequency:    3.6881205517
  - # 6
    frequency:    5.2634816747
  - # 7
    frequency:    5.7997954121
  - # 8
    frequency:    6.2561657881
  - # 9
    frequency:   10.5125674423
  - # 10
    frequency:   10.7498361624
  - # 11
    frequency:   12.3391901075
  - # 12
    frequency:   17.5890449898
  - # 13
    frequency:   23.5477987190
  - # 14
    frequency:   24.0156785942
  - # 15
    frequency:   26.0743991509

- q-position: [    0.0808081,    0.0000000,    0.0000000 ]
  distance:    0.0272683
  band:
  - # 1
    frequency:    0.3654694522
  - # 2
    frequency:    1.1654071924
  - # 3
    frequency:    1.8067076089
  - # 4
    frequency:    3.2681279556
  - # 5
    frequency:    3.7549991091
  - # 6
    frequency:    5.2409752301
  - # 7
    frequency:    5.8046184588
  - # 8
    frequency:    6.2982034627
  - # 9
    frequency:   10.5310808671
  - # 10
    frequency:   10.7239358714
  - # 11
    frequency:   12.5539759076
  - # 12
    frequency:   17.5150179244
  - # 13
    frequency:   23.5489528747
  - # 14
    frequency:   24.0747828160
  - # 15
    frequency:   26.0480658522

- q-position: [    0.0858586,    0.0000000,    0.0000000 ]
  distance:    0.0289726
  band:
  - # 1
    frequency:    0.4221456587
  - # 2
    frequency:    1.2323802088
  - # 3
    frequency:    1.9101169974
  - # 4
    frequency:    3.2878848195
  - # 5
    frequency:    3.8239803674
  - # 6
    frequency:    5.2191127642
  - # 7
    frequency:    5.8095744042
  - # 8
    frequency:    6.3406425169
  - # 9
    frequency:   10.5499339373
  - # 10
    frequency:   10.6964119035
  - # 11
    frequency:   12.7712949414
  - # 12
    frequency:   17.4378670596
  - # 13
    frequency:   23.5500524932
  - # 14
    frequency:   24.1357502928
  - # 15
    frequency:   26.0213456015

- q-position: [    0.0909091,    0.0000000,    0.0000000 ]
  distance:    0.0306768
  band:
  - # 1
    frequency:    0.4799374193
  - # 2
    frequency:    1.2983547606
  - # 3
    frequency:    2.0118075391
  - # 4
    frequency:    3.3086215960
  - # 5
    frequency:    3.8948988170
  - # 6
    frequency:    5.1979551394
  - # 7
    frequency:    5.8146362570
  - # 8
    frequency:    6.3834586216
  - # 9
    frequency:   10.5690017121
  - # 10
    frequency:   10.6673824089
  - # 11
    frequency:   12.9897591325
  - # 12
    frequency:   17.3578455792
  - # 13
    frequency:   23.5510787429
  - # 14
    frequency:   24.1981427671
  - # 15
    frequency:   25.9945722587

- q-position: [    0.0959596,    0.0000000,    0.0000000 ]
  distance:    0.0323811
  band:
  - # 1
    frequency:    0.5388528079
  - # 2
    frequency:    1.3632913796
  - # 3
    frequency:    2.1116902002
  - # 4
    frequency:    3.3303044000
  - # 5
    frequency:    3.9675925632
  - # 6
    frequency:    5.1775715015
  - # 7
    frequency:    5.8197770543
  - # 8
    frequency:    6.4266338752
  - # 9
    frequency:   10.5881609889
  - # 10
    frequency:   10.6369480250
  - # 11
    frequency:   13.2080755854
  - # 12
    frequency:   17.2752159646
  - # 13
    frequency:   23.5520131394
  - # 14
    frequency:   24.2614527293
  - # 15
    frequency:   25.9681406971

- q-position: [    0.1010101,    0.0000000,    0.0000000 ]
  distance:    0.0340854
  band:
  - # 1
    frequency:    0.5988599351
  - # 2
    frequency:    1.4271536139
  - # 3
    frequency:    2.2096815089
  - # 4
    frequency:    3.3528984545
  - # 5
    frequency:    4.0418959844
  - # 6
    frequency:    5.1580428884
  - # 7
    frequency:    5.8249700649
  - # 8
    frequency:    6.4701560220
  - # 9
    frequency:   10.6051997930
  - # 10
    frequency:   10.6072914411
  - # 11
    frequency:   13.4250394790
  - # 12
    frequency:   17.1902530930
  - # 13
    frequency:   23.5528377545
  - # 14
    frequency:   24.3250880668
  - # 15
    frequency:   25.9425206960

- q-position: [    0.1060606,    0.0000000,    0.0000000 ]
  distance:    0.0357897
  band:
  - # 1
    frequency:    0.6599053997
  - # 2
    frequency:    1.4899081098
  - # 3
    frequency:    2.3057043158
  - # 4
    frequency:    3.3763682000
  - # 5
    frequency:    4.1176309267
  - # 6
    frequency:    5.1394676886
  - # 7
    frequency:    5.8301889892
  - # 8
    frequency:    6.5140177892
  - # 9
    frequency:   10.5722236203
  - # 10
    frequency:   10.6262767059
  - # 11
    frequency:   13.6395269112
  - # 12
    frequency:   17.1032491561
  - # 13
    frequency:   23.5535354220
  - # 14
    frequency:   24.3883545775
  - # 15
    frequency:   25.9182730416

- q-position: [    0.1111111,    0.0000000,    0.0000000 ]
  distance:    0.0374939
  band:
  - # 1
    frequency:    0.7219241093
  - # 2
    frequency:    1.5515246778
  - # 3
    frequency:    2.3996884207
  - # 4
    frequency:    3.4006774049
  - # 5
    frequency:    4.1945952555
  - # 6
    frequency:    5.1219702116
  - # 7
    frequency:    5.8354081552
  - # 8
    frequency:    6.5582163246
  - # 9
    frequency:   10.5381029070
  - # 10
    frequency:   10.6450054146
  - # 11
    frequency:   13.8504853813
  - # 12
    frequency:   17.0145213507
  - # 13
    frequency:   23.5540899401
  - # 14
    frequency:   24.4504377594
  - # 15
    frequency:   25.8960665180

- q-position: [    0.1161616,    0.0000000,    0.0000000 ]
  distance:    0.0391982
  band:
  - # 1
    frequency:    0.7848447420
  - # 2
    frequency:    1.6119763407
  - # 3
    frequency:    2.4915710195
  - # 4
    frequency:    3.4257892752
  - # 5
    frequency:    4.2725465159
  - # 6
    frequency:    5.1057146561
  - # 7
    frequency:    5.8406027115
  - # 8
    frequency:    6.6027527210
  - # 9
    frequency:   10.5029201449
  - # 10
    frequency:   10.6633721555
  - # 11
    frequency:   14.0569196743
  - # 12
    frequency:   16.9244239881
  - # 13
    frequency:   23.5544862658
  - # 14
    frequency:   24.5103872525
  - # 15
    frequency:   25.8766924975

- q-position: [    0.1212121,    0.0000000,    0.0000000 ]
  distance:    0.0409025
  band:
  - # 1
    frequency:    0.8485928653
  - # 2
    frequency:    1.6712393617
  - # 3
    frequency:    2.5812969285
  - # 4
    frequency:    3.4516665663
  - # 5
    frequency:    4.3511763915
  - # 6
    frequency:    5.0909288098
  - # 7
    frequency:    5.8457488166
  - # 8
    frequency:    6.6476316058
  - # 9
    frequency:   10.4667579166
  - # 10
    frequency:   10.6812783622
  - # 11
    frequency:   14.2578699828
  - # 12
    frequency:   16.8333679354
  - # 13
    frequency:   23.5547107023
  - # 14
    frequency:   24.5671105789
  - # 15
    frequency:   25.8610705633

- q-position: [    0.1262626,    0.0000000,    0.0000000 ]
  distance:    0.0426067
  band:
  - # 1
    frequency:    0.9130927360
  - # 2
    frequency:    1.7292932532
  - # 3
    frequency:    2.6688185599
  - # 4
    frequency:    3.4782716979
  - # 5
    frequency:    4.4300674461
  - # 6
    frequency:    5.0779459882
  - # 7
    frequency:    5.8508238259
  - # 8
    frequency:    6.6928607791
  - # 9
    frequency:   10.4296995338
  - # 10
    frequency:   10.6986331212
  - # 11
    frequency:   14.4523768398
  - # 12
    frequency:   16.7418527240
  - # 13
    frequency:   23.5547510741
  - # 14
    frequency:   24.6193872336
  - # 15
    frequency:   25.8502341760

- q-position: [    0.1313131,    0.0000000,    0.0000000 ]
  distance:    0.0443110
  band:
  - # 1
    frequency:    0.9782683272
  - # 2
    frequency:    1.7861207629
  - # 3
    frequency:    2.7540956345
  - # 4
    frequency:    3.5055668721
  - # 5
    frequency:    4.5086149557
  - # 6
    frequency:    5.0672823889
  - # 7
    frequency:    5.8558064751
  - # 8
    frequency:    6.7384508763
  - # 9
    frequency:   10.3918294529
  - # 10
    frequency:   10.7153538926
  - # 11
    frequency:   14.6394227430
  - # 12
    frequency:   16.6505214255
  - # 13
    frequency:   23.5545968914
  - # 14
    frequency:   24.6659179932
  - # 15
    frequency:   25.8452815661

- q-position: [    0.1363636,    0.0000000,    0.0000000 ]
  distance:    0.0460153
  band:
  - # 1
    frequency:    1.0440438904
  - # 2
    frequency:    1.8417078395
  - # 3
    frequency:    2.8370946410
  - # 4
    frequency:    3.5335141966
  - # 5
    frequency:    4.5858792233
  - # 6
    frequency:    5.0597844353
  - # 7
    frequency:    5.8606770627
  - # 8
    frequency:    6.7844150341
  - # 9
    frequency:   10.3532335524
  - # 10
    frequency:   10.7313671400
  - # 11
    frequency:   14.8178306882
  - # 12
    frequency:   16.5602580953
  - # 13
    frequency:   23.5542394986
  - # 14
    frequency:   24.7054228637
  - # 15
    frequency:   25.8472784594

- q-position: [    0.1414141,    0.0000000,    0.0000000 ]
  distance:    0.0477195
  band:
  - # 1
    frequency:    1.1103442335
  - # 2
    frequency:    1.8960435756
  - # 3
    frequency:    2.9177880635
  - # 4
    frequency:    3.5620758128
  - # 5
    frequency:    4.6603052857
  - # 6
    frequency:    5.0569091510
  - # 7
    frequency:    5.8654176284
  - # 8
    frequency:    6.8307685370
  - # 9
    frequency:   10.3139993257
  - # 10
    frequency:   10.7466088659
  - # 11
    frequency:   14.9860797779
  - # 12
    frequency:   16.4723676593
  - # 13
    frequency:   23.5536722084
  - # 14
    frequency:   24.7367876133
  - # 15
    frequency:   25.8571126992

- q-position: [    0.1464646,    0.0000000,    0.0000000 ]
  distance:    0.0494238
  band:
  - # 1
    frequency:    1.1770948202
  - # 2
    frequency:    1.9491201298
  - # 3
    frequency:    2.9961534225
  - # 4
    frequency:    3.5912140285
  - # 5
    frequency:    4.7292455679
  - # 6
    frequency:    5.0612019537
  - # 7
    frequency:    5.8700121300
  - # 8
    frequency:    6.8775284176
  - # 9
    frequency:   10.2742160256
  - # 10
    frequency:   10.7610250494
  - # 11
    frequency:   15.1419577228
  - # 12
    frequency:   16.3889184790
  - # 13
    frequency:   23.5528904173
  - # 14
    frequency:   24.7592311803
  - # 15
    frequency:   25.8753284593

- q-position: [    0.1515152,    0.0000000,    0.0000000 ]
  distance:    0.0511281
  band:
  - # 1
    frequency:    1.2442217586
  - # 2
    frequency:    2.0009326278
  - # 3
    frequency:    3.0721721865
  - # 4
    frequency:    3.6208914561
  - # 5
    frequency:    4.7885097967
  - # 6
    frequency:    5.0767474873
  - # 7
    frequency:    5.8744466170
  - # 8
    frequency:    6.9247129858
  - # 9
    frequency:   10.2339747873
  - # 10
    frequency:   10.7745719844
  - # 11
    frequency:   15.2819029662
  - # 12
    frequency:   16.3133949309
  - # 13
    frequency:   23.5518917032
  - # 14
    frequency:   24.7724379121
  - # 15
    frequency:   25.9019960609

- q-position: [    0.1565657,    0.0000000,    0.0000000 ]
  distance:    0.0528324
  band:
  - # 1
    frequency:    1.3116517206
  - # 2
    frequency:    2.0514790444
  - # 3
    frequency:    3.1458286234
  - # 4
    frequency:    3.6510711543
  - # 5
    frequency:    4.8333169656
  - # 6
    frequency:    5.1082186297
  - # 7
    frequency:    5.8787093992
  - # 8
    frequency:    6.9723412583
  - # 9
    frequency:   10.1933687480
  - # 10
    frequency:   10.7872165168
  - # 11
    frequency:   15.3998775982
  - # 12
    frequency:   16.2518189104
  - # 13
    frequency:   23.5506759024
  - # 14
    frequency:   24.7765971984
  - # 15
    frequency:   25.9366747752

- q-position: [    0.1616162,    0.0000000,    0.0000000 ]
  distance:    0.0545366
  band:
  - # 1
    frequency:    1.3793118183
  - # 2
    frequency:    2.1007600682
  - # 3
    frequency:    3.2171086718
  - # 4
    frequency:    3.6817167723
  - # 5
    frequency:    4.8620212272
  - # 6
    frequency:    5.1571517205
  - # 7
    frequency:    5.8827912119
  - # 8
    frequency:    7.0204322598
  - # 9
    frequency:   10.1524931828
  - # 10
    frequency:   10.7989361814
  - # 11
    frequency:   15.4862524549
  - # 12
    frequency:   16.2138589480
  - # 13
    frequency:   23.5492451654
  - # 14
    frequency:   24.7723321169
  - # 15
    frequency:   25.9784869264

- q-position: [    0.1666667,    0.0000000,    0.0000000 ]
  distance:    0.0562409
  band:
  - # 1
    frequency:    1.4471294562
  - # 2
    frequency:    2.1487789502
  - # 3
    frequency:    3.2859989153
  - # 4
    frequency:    3.7127926953
  - # 5
    frequency:    4.8780576476
  - # 6
    frequency:    5.2200019987
  - # 7
    frequency:    5.8866853724
  - # 8
    frequency:    7.0690041639
  - # 9
    frequency:   10.1114456707
  - # 10
    frequency:   10.8097192363
  - # 11
    frequency:   15.5299178961
  - # 12
    frequency:   16.2107135325
  - # 13
    frequency:   23.5476039917
  - # 14
    frequency:   24.7605522320
  - # 15
    frequency:   26.0262680726

- q-position: [    0.1717172,    0.0000000,    0.0000000 ]
  distance:    0.0579452
  band:
  - # 1
    frequency:    1.5150321692
  - # 2
    frequency:    2.1955413413
  - # 3
    frequency:    3.3524857493
  - # 4
    frequency:    3.7442641887
  - # 5
    frequency:    4.8864921803
  - # 6
    frequency:    5.2915948097
  - # 7
    frequency:    5.8903879295
  - # 8
    frequency:    7.1180732439
  - # 9
    frequency:   10.0703263066
  - # 10
    frequency:   10.8195645982
  - # 11
    frequency:   15.5273338863
  - # 12
    frequency:   16.2460551104
  - # 13
    frequency:   23.5457592413
  - # 14
    frequency:   24.7422916077
  - # 15
    frequency:   26.0787321189

- q-position: [    0.1767677,    0.0000000,    0.0000000 ]
  distance:    0.0596494
  band:
  - # 1
    frequency:    1.5829474552
  - # 2
    frequency:    2.2410551177
  - # 3
    frequency:    3.4165548309
  - # 4
    frequency:    3.7760975390
  - # 5
    frequency:    4.8910734985
  - # 6
    frequency:    5.3680748650
  - # 7
    frequency:    5.8938977998
  - # 8
    frequency:    7.1676526014
  - # 9
    frequency:   10.0292379769
  - # 10
    frequency:   10.8284816780
  - # 11
    frequency:   15.4878160843
  - # 12
    frequency:   16.3107381440
  - # 13
    frequency:   23.5437201240
  - # 14
    frequency:   24.7185795488
  - # 15
    frequency:   26.1346037567

- q-position: [    0.1818182,    0.0000000,    0.0000000 ]
  distance:    0.0613537
  band:
  - # 1
    frequency:    1.6508026083
  - # 2
    frequency:    2.2853302010
  - # 3
    frequency:    3.4781909017
  - # 4
    frequency:    3.8082601884
  - # 5
    frequency:    4.8940303056
  - # 6
    frequency:    5.4471098479
  - # 7
    frequency:    5.8972168920
  - # 8
    frequency:    7.2177506453
  - # 9
    frequency:    9.9882867134
  - # 10
    frequency:   10.8364901207
  - # 11
    frequency:   15.4249178531
  - # 12
    frequency:   16.3914114027
  - # 13
    frequency:   23.5414981649
  - # 14
    frequency:   24.6903611095
  - # 15
    frequency:   26.1927011044

- q-position: [    0.1868687,    0.0000000,    0.0000000 ]
  distance:    0.0630580
  band:
  - # 1
    frequency:    1.7185245554
  - # 2
    frequency:    2.3283783727
  - # 3
    frequency:    3.5373780713
  - # 4
    frequency:    3.8407208608
  - # 5
    frequency:    4.8966453987
  - # 6
    frequency:    5.5273170087
  - # 7
    frequency:    5.9003502112
  - # 8
    frequency:    7.2683692964
  - # 9
    frequency:    9.9475821480
  - # 10
    frequency:   10.8436194511
  - # 11
    frequency:   15.3486150178
  - # 12
    frequency:   16.4783277385
  - # 13
    frequency:   23.5391071481
  - # 14
    frequency:   24.6584613788
  - # 15
    frequency:   26.2519744574

- q-position: [    0.1919192,    0.0000000,    0.0000000 ]
  distance:    0.0647622
  band:
  - # 1
    frequency:    1.7860397008
  - # 2
    frequency:    2.3702130881
  - # 3
    frequency:    3.5941006405
  - # 4
    frequency:    3.8734496766
  - # 5
    frequency:    4.8996875649
  - # 6
    frequency:    5.6078315833
  - # 7
    frequency:    5.9033059441
  - # 8
    frequency:    7.3195018996
  - # 9
    frequency:    9.9072380883
  - # 10
    frequency:   10.8499086295
  - # 11
    frequency:   15.2647586082
  - # 12
    frequency:   16.5658861760
  - # 13
    frequency:   23.5365630372
  - # 14
    frequency:   24.6235789901
  - # 15
    frequency:   26.3115156281

- q-position: [    0.1969697,    0.0000000,    0.0000000 ]
  distance:    0.0664665
  band:
  - # 1
    frequency:    1.8532737814
  - # 2
    frequency:    2.4108492914
  - # 3
    frequency:    3.6483445221
  - # 4
    frequency:    3.9064182523
  - # 5
    frequency:    4.9036471970
  - # 6
    frequency:    5.6880710743
  - # 7
    frequency:    5.9060955173
  - # 8
    frequency:    7.3711308372
  - # 9
    frequency:    9.8673732371
  - # 10
    frequency:   10.8554055224
  - # 11
    frequency:   15.1766469147
  - # 12
    frequency:   16.6510550437
  - # 13
    frequency:   23.5338838736
  - # 14
    frequency:   24.5862953170
  - # 15
    frequency:   26.3705513525

- q-position: [    0.2020202,    0.0000000,    0.0000000 ]
  distance:    0.0681708
  band:
  - # 1
    frequency:    1.9201517349
  - # 2
    frequency:    2.4503032335
  - # 3
    frequency:    3.7000992870
  - # 4
    frequency:    3.9395997847
  - # 5
    frequency:    4.9088569233
  - # 6
    frequency:    5.7676140421
  - # 7
    frequency:    5.9087336268
  - # 8
    frequency:    7.4232248476
  - # 9
    frequency:    9.8281120833
  - # 10
    frequency:   10.8601662925
  - # 11
    frequency:   15.0862021477
  - # 12
    frequency:   16.7321909015
  - # 13
    frequency:   23.5310896542
  - # 14
    frequency:   24.5470900886
  - # 15
    frequency:   26.4284299813

- q-position: [    0.2070707,    0.0000000,    0.0000000 ]
  distance:    0.0698750
  band:
  - # 1
    frequency:    1.9865975860
  - # 2
    frequency:    2.4885922971
  - # 3
    frequency:    3.7493608085
  - # 4
    frequency:    3.9729691144
  - # 5
    frequency:    4.9155533875
  - # 6
    frequency:    5.8461372475
  - # 7
    frequency:    5.9112382324
  - # 8
    frequency:    7.4757360704
  - # 9
    frequency:    9.7895859900
  - # 10
    frequency:   10.8642547140
  - # 11
    frequency:   14.9946088961
  - # 12
    frequency:   16.8083960962
  - # 13
    frequency:   23.5282021882
  - # 14
    frequency:   24.5063581839
  - # 15
    frequency:   26.4846066597

- q-position: [    0.2121212,    0.0000000,    0.0000000 ]
  distance:    0.0715793
  band:
  - # 1
    frequency:    2.0525343524
  - # 2