nqpoint: 300    
npath: 3      
segment_nqpoint:
- 100
- 100
- 100
labels:
- [ 'G', 'M' ]
- [ 'M', 'K' ]
- [ 'K', 'G' ]
reciprocal_lattice:
- [   0.29536983,   0.17053185,   0.00000000 ] # a*
- [   0.00000000,   0.34106370,   0.00000000 ] # b*
- [   0.00000000,   0.00000000,   0.04128509 ] # c*
natom: 6      
lattice:
- [     3.385586130141916,     0.000000000000000,     0.000000000000000 ] # a
- [    -1.692793065070958,     2.932003595398461,     0.000000000000000 ] # b
- [     0.000000000000000,     0.000000000000000,    24.221822044483041 ] # c
points:
- symbol: C # 1
  coordinates: [  0.000000000000000,  0.000000000000000,  0.468701966856999 ]
  mass: 12.010700
- symbol: C # 2
  coordinates: [  0.333332985432215,  0.666666983183674,  0.578963566224020 ]
  mass: 12.010700
- symbol: F # 3
  coordinates: [  0.666666984744047,  0.333332985985145,  0.371565771702543 ]
  mass: 18.998403
- symbol: N # 4
  coordinates: [  0.333332985432215,  0.666666983183674,  0.628434228297457 ]
  mass: 14.006700
- symbol: Sc # 5
  coordinates: [  0.333332985432215,  0.666666983183674,  0.416675277530593 ]
  mass: 44.955912
- symbol: Sc # 6
  coordinates: [  0.666666984744047,  0.333332985985145,  0.519729695776475 ]
  mass: 44.955912

phonon:
- q-position: [    0.0000000,    0.0000000,    0.0000000 ]
  distance:    0.0000000
  band:
  - # 1
    frequency:   -2.4379987815
  - # 2
    frequency:   -2.4379987815
  - # 3
    frequency:   -0.0000159790
  - # 4
    frequency:   -0.0000004932
  - # 5
    frequency:    0.0000128573
  - # 6
    frequency:    4.9885040036
  - # 7
    frequency:    4.9885040036
  - # 8
    frequency:    6.6018577036
  - # 9
    frequency:    6.7411594587
  - # 10
    frequency:    6.7411594588
  - # 11
    frequency:    8.1077806257
  - # 12
    frequency:    8.1077806258
  - # 13
    frequency:    9.8805411990
  - # 14
    frequency:   12.4165191144
  - # 15
    frequency:   12.4165191144
  - # 16
    frequency:   12.5834761047
  - # 17
    frequency:   18.8939738941
  - # 18
    frequency:   62.9120241088

- q-position: [    0.0050505,    0.0000000,    0.0000000 ]
  distance:    0.0017225
  band:
  - # 1
    frequency:   -2.4378801284
  - # 2
    frequency:   -2.4376315815
  - # 3
    frequency:    0.0019739419
  - # 4
    frequency:    0.0797772418
  - # 5
    frequency:    0.1330386034
  - # 6
    frequency:    4.9884417046
  - # 7
    frequency:    4.9893224033
  - # 8
    frequency:    6.6016840138
  - # 9
    frequency:    6.7408826361
  - # 10
    frequency:    6.7438924636
  - # 11
    frequency:    8.1077203805
  - # 12
    frequency:    8.1088546790
  - # 13
    frequency:    9.8803116735
  - # 14
    frequency:   12.4161588847
  - # 15
    frequency:   12.4187099666
  - # 16
    frequency:   12.5851043666
  - # 17
    frequency:   18.8927469362
  - # 18
    frequency:   62.9119403741

- q-position: [    0.0101010,    0.0000000,    0.0000000 ]
  distance:    0.0034451
  band:
  - # 1
    frequency:   -2.4375259334
  - # 2
    frequency:   -2.4365383676
  - # 3
    frequency:    0.0078902887
  - # 4
    frequency:    0.1595539146
  - # 5
    frequency:    0.2660888095
  - # 6
    frequency:    4.9882556359
  - # 7
    frequency:    4.9917736190
  - # 8
    frequency:    6.6012245564
  - # 9
    frequency:    6.7400531106
  - # 10
    frequency:    6.7519524047
  - # 11
    frequency:    8.1075397813
  - # 12
    frequency:    8.1120797709
  - # 13
    frequency:    9.8796257816
  - # 14
    frequency:   12.4150793755
  - # 15
    frequency:   12.4246442596
  - # 16
    frequency:   12.5906296156
  - # 17
    frequency:   18.8890681514
  - # 18
    frequency:   62.9116893409

- q-position: [    0.0151515,    0.0000000,    0.0000000 ]
  distance:    0.0051676
  band:
  - # 1
    frequency:   -2.4369414284
  - # 2
    frequency:   -2.4347437891
  - # 3
    frequency:    0.0177313186
  - # 4
    frequency:    0.2393288252
  - # 5
    frequency:    0.3991591942
  - # 6
    frequency:    4.9879482780
  - # 7
    frequency:    4.9958458114
  - # 8
    frequency:    6.6006289586
  - # 9
    frequency:    6.7386737068
  - # 10
    frequency:    6.7649611920
  - # 11
    frequency:    8.1072392371
  - # 12
    frequency:    8.1174639263
  - # 13
    frequency:    9.8784914922
  - # 14
    frequency:   12.4132841235
  - # 15
    frequency:   12.4324160304
  - # 16
    frequency:   12.6019633581
  - # 17
    frequency:   18.8829438040
  - # 18
    frequency:   62.9112715218

- q-position: [    0.0202020,    0.0000000,    0.0000000 ]
  distance:    0.0068902
  band:
  - # 1
    frequency:   -2.4361351306
  - # 2
    frequency:   -2.4322872913
  - # 3
    frequency:    0.0314677176
  - # 4
    frequency:    0.3190995568
  - # 5
    frequency:    0.5322525726
  - # 6
    frequency:    4.9875237506
  - # 7
    frequency:    5.0015196068
  - # 8
    frequency:    6.6000635209
  - # 9
    frequency:    6.7367491251
  - # 10
    frequency:    6.7823846199
  - # 11
    frequency:    8.1068194278
  - # 12
    frequency:    8.1250179673
  - # 13
    frequency:    9.8769218079
  - # 14
    frequency:   12.4107790108
  - # 15
    frequency:   12.4391859991
  - # 16
    frequency:   12.6219506422
  - # 17
    frequency:   18.8743843302
  - # 18
    frequency:   62.9106877689

- q-position: [    0.0252525,    0.0000000,    0.0000000 ]
  distance:    0.0086127
  band:
  - # 1
    frequency:   -2.4351185505
  - # 2
    frequency:   -2.4292208627
  - # 3
    frequency:    0.0490584680
  - # 4
    frequency:    0.3988619250
  - # 5
    frequency:    0.6653637898
  - # 6
    frequency:    4.9869877909
  - # 7
    frequency:    5.0087685977
  - # 8
    frequency:    6.5996590642
  - # 9
    frequency:    6.7342859307
  - # 10
    frequency:    6.8036030870
  - # 11
    frequency:    8.1062813021
  - # 12
    frequency:    8.1347517634
  - # 13
    frequency:    9.8749343698
  - # 14
    frequency:   12.4075722465
  - # 15
    frequency:   12.4423023872
  - # 16
    frequency:   12.6532442187
  - # 17
    frequency:   18.8634043319
  - # 18
    frequency:   62.9099392721

- q-position: [    0.0303030,    0.0000000,    0.0000000 ]
  distance:    0.0103353
  band:
  - # 1
    frequency:   -2.4339058040
  - # 2
    frequency:   -2.4256062415
  - # 3
    frequency:    0.0704508848
  - # 4
    frequency:    0.4786095092
  - # 5
    frequency:    0.7984781986
  - # 6
    frequency:    4.9863477238
  - # 7
    frequency:    5.0175599775
  - # 8
    frequency:    6.5994956731
  - # 9
    frequency:    6.7312925380
  - # 10
    frequency:    6.8279513890
  - # 11
    frequency:    8.1056260743
  - # 12
    frequency:    8.1466691869
  - # 13
    frequency:    9.8725509473
  - # 14
    frequency:   12.4036743411
  - # 15
    frequency:   12.4405077500
  - # 16
    frequency:   12.6970910550
  - # 17
    frequency:   18.8500225691
  - # 18
    frequency:   62.9090275546

- q-position: [    0.0353535,    0.0000000,    0.0000000 ]
  distance:    0.0120578
  band:
  - # 1
    frequency:   -2.4325131508
  - # 2
    frequency:   -2.4215118628
  - # 3
    frequency:    0.0955806818
  - # 4
    frequency:    0.5583332778
  - # 5
    frequency:    0.9315708750
  - # 6
    frequency:    4.9856124237
  - # 7
    frequency:    5.0278552597
  - # 8
    frequency:    6.5996106195
  - # 9
    frequency:    6.7277791903
  - # 10
    frequency:    6.8547398578
  - # 11
    frequency:    8.1048552206
  - # 12
    frequency:    8.1607620669
  - # 13
    frequency:    9.8697968487
  - # 14
    frequency:   12.3990980725
  - # 15
    frequency:   12.4339164491
  - # 16
    frequency:   12.7533469570
  - # 17
    frequency:   18.8342619534
  - # 18
    frequency:   62.9079544694

- q-position: [    0.0404040,    0.0000000,    0.0000000 ]
  distance:    0.0137804
  band:
  - # 1
    frequency:   -2.4309584795
  - # 2
    frequency:   -2.4170098062
  - # 3
    frequency:    0.1243720827
  - # 4
    frequency:    0.6380213180
  - # 5
    frequency:    1.0646065278
  - # 6
    frequency:    4.9847922687
  - # 7
    frequency:    5.0396110329
  - # 8
    frequency:    6.6000127809
  - # 9
    frequency:    6.7237579358
  - # 10
    frequency:    6.8832717276
  - # 11
    frequency:    8.1039704747
  - # 12
    frequency:    8.1770036206
  - # 13
    frequency:    9.8667002950
  - # 14
    frequency:   12.3938584447
  - # 15
    frequency:   12.4231891660
  - # 16
    frequency:   12.8212933878
  - # 17
    frequency:   18.8161495436
  - # 18
    frequency:   62.9067221927

- q-position: [    0.0454545,    0.0000000,    0.0000000 ]
  distance:    0.0155029
  band:
  - # 1
    frequency:   -2.4292607664
  - # 2
    frequency:   -2.4121729557
  - # 3
    frequency:    0.1567379919
  - # 4
    frequency:    0.7176586793
  - # 5
    frequency:    1.1975399785
  - # 6
    frequency:    4.9838990876
  - # 7
    frequency:    5.0527797130
  - # 8
    frequency:    6.6006950858
  - # 9
    frequency:    6.7192425977
  - # 10
    frequency:    6.9128631013
  - # 11
    frequency:    8.1029738231
  - # 12
    frequency:    8.1953420437
  - # 13
    frequency:    9.8632917945
  - # 14
    frequency:   12.3879726382
  - # 15
    frequency:   12.4089750242
  - # 16
    frequency:   12.9001864977
  - # 17
    frequency:   18.7957165470
  - # 18
    frequency:   62.9053332181

- q-position: [    0.0505051,    0.0000000,    0.0000000 ]
  distance:    0.0172254
  band:
  - # 1
    frequency:   -2.4274395308
  - # 2
    frequency:   -2.4070725058
  - # 3
    frequency:    0.1925802471
  - # 4
    frequency:    0.7972273267
  - # 5
    frequency:    1.3303170429
  - # 6
    frequency:    4.9829460999
  - # 7
    frequency:    5.0673102641
  - # 8
    frequency:    6.6016429128
  - # 9
    frequency:    6.7142487406
  - # 10
    frequency:    6.9428653432
  - # 11
    frequency:    8.1018675005
  - # 12
    frequency:    8.2156951064
  - # 13
    frequency:    9.8596035570
  - # 14
    frequency:   12.3814599516
  - # 15
    frequency:   12.3917605897
  - # 16
    frequency:   12.9893997249
  - # 17
    frequency:   18.7729983294
  - # 18
    frequency:   62.9037903491

- q-position: [    0.0555556,    0.0000000,    0.0000000 ]
  distance:    0.0189480
  band:
  - # 1
    frequency:   -2.4255143120
  - # 2
    frequency:   -2.4017758769
  - # 3
    frequency:    0.2317899742
  - # 4
    frequency:    0.8767062017
  - # 5
    frequency:    1.4628756353
  - # 6
    frequency:    4.9819478492
  - # 7
    frequency:    5.0831488682
  - # 8
    frequency:    6.6028390291
  - # 9
    frequency:    6.7087936312
  - # 10
    frequency:    6.9726871243
  - # 11
    frequency:    8.1006539848
  - # 12
    frequency:    8.2379466594
  - # 13
    frequency:    9.8556689777
  - # 14
    frequency:   12.3718854098
  - # 15
    frequency:   12.3743417357
  - # 16
    frequency:   13.0884009472
  - # 17
    frequency:   18.7480344388
  - # 18
    frequency:   62.9020966904

- q-position: [    0.0606061,    0.0000000,    0.0000000 ]
  distance:    0.0206705
  band:
  - # 1
    frequency:   -2.4235041842
  - # 2
    frequency:   -2.3963450347
  - # 3
    frequency:    0.2742480691
  - # 4
    frequency:    0.9560713774
  - # 5
    frequency:    1.5951469318
  - # 6
    frequency:    4.9809201316
  - # 7
    frequency:    5.1002395358
  - # 8
    frequency:    6.6042662028
  - # 9
    frequency:    6.7028961949
  - # 10
    frequency:    7.0018131157
  - # 11
    frequency:    8.0993359926
  - # 12
    frequency:    8.2619458406
  - # 13
    frequency:    9.8515222136
  - # 14
    frequency:   12.3495870552
  - # 15
    frequency:   12.3666413172
  - # 16
    frequency:   13.1967017954
  - # 17
    frequency:   18.7208686497
  - # 18
    frequency:   62.9002556391

- q-position: [    0.0656566,    0.0000000,    0.0000000 ]
  distance:    0.0223931
  band:
  - # 1
    frequency:   -2.4214273293
  - # 2
    frequency:   -2.3908351731
  - # 3
    frequency:    0.3198258328
  - # 4
    frequency:    1.0352962943
  - # 5
    frequency:    1.7270564661
  - # 6
    frequency:    4.9798799183
  - # 7
    frequency:    5.1185246528
  - # 8
    frequency:    6.6059084339
  - # 9
    frequency:    6.6965769659
  - # 10
    frequency:    7.0298171111
  - # 11
    frequency:    8.0979164750
  - # 12
    frequency:    8.2875094537
  - # 13
    frequency:    9.8471978709
  - # 14
    frequency:   12.3250378166
  - # 15
    frequency:   12.3583839147
  - # 16
    frequency:   13.3138174305
  - # 17
    frequency:   18.6915490341
  - # 18
    frequency:   62.8982708743

- q-position: [    0.0707071,    0.0000000,    0.0000000 ]
  distance:    0.0241156
  band:
  - # 1
    frequency:   -2.4193006758
  - # 2
    frequency:   -2.3852936977
  - # 3
    frequency:    0.3683857796
  - # 4
    frequency:    1.1143520608
  - # 5
    frequency:    1.8585250722
  - # 6
    frequency:    4.9788452743
  - # 7
    frequency:    5.1379454635
  - # 8
    frequency:    6.6077514301
  - # 9
    frequency:    6.6898580333
  - # 10
    frequency:    7.0563684762
  - # 11
    frequency:    8.0963986141
  - # 12
    frequency:    8.3144275122
  - # 13
    frequency:    9.8427308102
  - # 14
    frequency:   12.2983692043
  - # 15
    frequency:   12.3495965452
  - # 16
    frequency:   13.4392409137
  - # 17
    frequency:   18.6601280727
  - # 18
    frequency:   62.8961463463

- q-position: [    0.0757576,    0.0000000,    0.0000000 ]
  distance:    0.0258382
  band:
  - # 1
    frequency:   -2.4171396112
  - # 2
    frequency:   -2.3797594529
  - # 3
    frequency:    0.4197826394
  - # 4
    frequency:    1.1932077991
  - # 5
    frequency:    1.9894696318
  - # 6
    frequency:    4.9778352725
  - # 7
    frequency:    5.1584424940
  - # 8
    frequency:    6.6097826999
  - # 9
    frequency:    6.6827629807
  - # 10
    frequency:    7.0812319441
  - # 11
    frequency:    8.0947858198
  - # 12
    frequency:    8.3424714137
  - # 13
    frequency:    9.8381560745
  - # 14
    frequency:   12.2696874158
  - # 15
    frequency:   12.3403079206
  - # 16
    frequency:   13.5724290685
  - # 17
    frequency:   18.6266628177
  - # 18
    frequency:   62.8938862653

- q-position: [    0.0808081,    0.0000000,    0.0000000 ]
  distance:    0.0275607
  band:
  - # 1
    frequency:   -2.4149577707
  - # 2
    frequency:   -2.3742621508
  - # 3
    frequency:    0.4738645582
  - # 4
    frequency:    1.2718310192
  - # 5
    frequency:    2.1198036153
  - # 6
    frequency:    4.9768699057
  - # 7
    frequency:    5.1799559175
  - # 8
    frequency:    6.6119914664
  - # 9
    frequency:    6.6753168205
  - # 10
    frequency:    7.1042616973
  - # 11
    frequency:    8.0930817283
  - # 12
    frequency:    8.3714037605
  - # 13
    frequency:    9.8335089358
  - # 14
    frequency:   12.2390830083
  - # 15
    frequency:   12.3305483358
  - # 16
    frequency:   13.7127964514
  - # 17
    frequency:   18.5912151276
  - # 18
    frequency:   62.8914950884

- q-position: [    0.0858586,    0.0000000,    0.0000000 ]
  distance:    0.0292832
  band:
  - # 1
    frequency:   -2.4127668989
  - # 2
    frequency:   -2.3688219836
  - # 3
    frequency:    0.5304744943
  - # 4
    frequency:    1.3501880051
  - # 5
    frequency:    2.2494374323
  - # 6
    frequency:    4.9759699957
  - # 7
    frequency:    5.2024258686
  - # 8
    frequency:    6.6143685076
  - # 9
    frequency:    6.6675459217
  - # 10
    frequency:    7.1253912764
  - # 11
    frequency:    8.0912902003
  - # 12
    frequency:    8.4009886084
  - # 13
    frequency:    9.8288250556
  - # 14
    frequency:   12.2066369953
  - # 15
    frequency:   12.3203495470
  - # 16
    frequency:   13.8597148683
  - # 17
    frequency:   18.5538519994
  - # 18
    frequency:   62.8889775071

- q-position: [    0.0909091,    0.0000000,    0.0000000 ]
  distance:    0.0310058
  band:
  - # 1
    frequency:   -2.4105767797
  - # 2
    frequency:   -2.3634494180
  - # 3
    frequency:    0.5894517863
  - # 4
    frequency:    1.4282441988
  - # 5
    frequency:    2.3782786199
  - # 6
    frequency:    4.9751571004
  - # 7
    frequency:    5.2257927103
  - # 8
    frequency:    6.6169059702
  - # 9
    frequency:    6.6594779321
  - # 10
    frequency:    7.1446210758
  - # 11
    frequency:    8.0894153211
  - # 12
    frequency:    8.4310009442
  - # 13
    frequency:    9.8241407492
  - # 14
    frequency:   12.1724247484
  - # 15
    frequency:   12.3097446415
  - # 16
    frequency:   14.0125165680
  - # 17
    frequency:   18.5146460325
  - # 18
    frequency:   62.8863384331

- q-position: [    0.0959596,    0.0000000,    0.0000000 ]
  distance:    0.0327283
  band:
  - # 1
    frequency:   -2.4083952276
  - # 2
    frequency:   -2.3581451899
  - # 3
    frequency:    0.6506338555
  - # 4
    frequency:    1.5059645687
  - # 5
    frequency:    2.5062319044
  - # 6
    frequency:    4.9744534202
  - # 7
    frequency:    5.2499972610
  - # 8
    frequency:    6.6195971770
  - # 9
    frequency:    6.6511416931
  - # 10
    frequency:    7.1620050765
  - # 11
    frequency:    8.0874614013
  - # 12
    frequency:    8.4612344342
  - # 13
    frequency:    9.8194933440
  - # 14
    frequency:   12.1365185365
  - # 15
    frequency:   12.2987678977
  - # 16
    frequency:   14.1704997051
  - # 17
    frequency:   18.4736760732
  - # 18
    frequency:   62.8835829845

- q-position: [    0.1010101,    0.0000000,    0.0000000 ]
  distance:    0.0344509
  band:
  - # 1
    frequency:   -2.4062281300
  - # 2
    frequency:   -2.3529005174
  - # 3
    frequency:    0.7138579853
  - # 4
    frequency:    1.5833139564
  - # 5
    frequency:    2.6331991731
  - # 6
    frequency:    4.9738817038
  - # 7
    frequency:    5.2749809893
  - # 8
    frequency:    6.6224364277
  - # 9
    frequency:    6.6425671484
  - # 10
    frequency:    7.1776381256
  - # 11
    frequency:    8.0854329774
  - # 12
    frequency:    8.4915068626
  - # 13
    frequency:    9.8149216198
  - # 14
    frequency:   12.0989892063
  - # 15
    frequency:   12.2874546381
  - # 16
    frequency:   14.3329349548
  - # 17
    frequency:   18.4310281092
  - # 18
    frequency:   62.8807164706

- q-position: [    0.1060606,    0.0000000,    0.0000000 ]
  distance:    0.0361734
  band:
  - # 1
    frequency:   -2.4040795317
  - # 2
    frequency:   -2.3476975496
  - # 3
    frequency:    0.7789631123
  - # 4
    frequency:    1.6602573920
  - # 5
    frequency:    2.7590793900
  - # 6
    frequency:    4.9734651538
  - # 7
    frequency:    5.3006861847
  - # 8
    frequency:    6.6254187913
  - # 9
    frequency:    6.6337852453
  - # 10
    frequency:    7.1916446414
  - # 11
    frequency:    8.0833348147
  - # 12
    frequency:    8.5216630752
  - # 13
    frequency:    9.8104663204
  - # 14
    frequency:   12.0599073125
  - # 15
    frequency:   12.2758410738
  - # 16
    frequency:   14.4990723775
  - # 17
    frequency:   18.3867965099
  - # 18
    frequency:   62.8777443765

- q-position: [    0.1111111,    0.0000000,    0.0000000 ]
  distance:    0.0378960
  band:
  - # 1
    frequency:   -2.4019517518
  - # 2
    frequency:   -2.3425100548
  - # 3
    frequency:    0.8457915530
  - # 4
    frequency:    1.7367603778
  - # 5
    frequency:    2.8837684839
  - # 6
    frequency:    4.9732273330
  - # 7
    frequency:    5.3270561153
  - # 8
    frequency:    6.6248278288
  - # 9
    frequency:    6.6285398796
  - # 10
    frequency:    7.2041691943
  - # 11
    frequency:    8.0811719087
  - # 12
    frequency:    8.5515755759
  - # 13
    frequency:    9.8061707225
  - # 14
    frequency:   12.0193438882
  - # 15
    frequency:   12.2639641418
  - # 16
    frequency:   14.6681477752
  - # 17
    frequency:   18.3410857563
  - # 18
    frequency:   62.8746723477

- q-position: [    0.1161616,    0.0000000,    0.0000000 ]
  distance:    0.0396185
  band:
  - # 1
    frequency:   -2.3998455239
  - # 2
    frequency:   -2.3373043358
  - # 3
    frequency:    0.9141905948
  - # 4
    frequency:    1.8127891351
  - # 5
    frequency:    3.0071592342
  - # 6
    frequency:    4.9731920713
  - # 7
    frequency:    5.3540351839
  - # 8
    frequency:    6.6157275286
  - # 9
    frequency:    6.6317955955
  - # 10
    frequency:    7.2153690790
  - # 11
    frequency:    8.0789494879
  - # 12
    frequency:    8.5811431453
  - # 13
    frequency:    9.8020812525
  - # 14
    frequency:   11.9773709785
  - # 15
    frequency:   12.2518613367
  - # 16
    frequency:   14.8393878922
  - # 17
    frequency:   18.2940128697
  - # 18
    frequency:   62.8715061737

- q-position: [    0.1212121,    0.0000000,    0.0000000 ]
  distance:    0.0413411
  band:
  - # 1
    frequency:   -2.3977601512
  - # 2
    frequency:   -2.3320403427
  - # 3
    frequency:    0.9840138845
  - # 4
    frequency:    1.8883108178
  - # 5
    frequency:    3.1291411712
  - # 6
    frequency:    4.9733833740
  - # 7
    frequency:    5.3815690951
  - # 8
    frequency:    6.6065176374
  - # 9
    frequency:    6.6351818476
  - # 10
    frequency:    7.2254087535
  - # 11
    frequency:    8.0766730155
  - # 12
    frequency:    8.6102879605
  - # 13
    frequency:    9.7982481353
  - # 14
    frequency:   11.9340620163
  - # 15
    frequency:   12.2395705370
  - # 16
    frequency:   15.0120138510
  - # 17
    frequency:   18.2457108553
  - # 18
    frequency:   62.8682517714

- q-position: [    0.1262626,    0.0000000,    0.0000000 ]
  distance:    0.0430636
  band:
  - # 1
    frequency:   -2.3956936696
  - # 2
    frequency:   -2.3266729381
  - # 3
    frequency:    1.0551225649
  - # 4
    frequency:    1.9632936911
  - # 5
    frequency:    3.2496005087
  - # 6
    frequency:    4.9738253307
  - # 7
    frequency:    5.4096050483
  - # 8
    frequency:    6.5972319833
  - # 9
    frequency:    6.6386942297
  - # 10
    frequency:    7.2344558896
  - # 11
    frequency:    8.0743481909
  - # 12
    frequency:    8.6389517065
  - # 13
    frequency:    9.7947260609
  - # 14
    frequency:   11.8894920930
  - # 15
    frequency:   12.2271298273
  - # 16
    frequency:   15.1852421736
  - # 17
    frequency:   18.1963336452
  - # 18
    frequency:   62.8649151686

- q-position: [    0.1313131,    0.0000000,    0.0000000 ]
  distance:    0.0447861
  band:
  - # 1
    frequency:   -2.3936430136
  - # 2
    frequency:   -2.3211532572
  - # 3
    frequency:    1.1273861259
  - # 4
    frequency:    2.0377072794
  - # 5
    frequency:    3.3684201176
  - # 6
    frequency:    4.9745420267
  - # 7
    frequency:    5.4380919699
  - # 8
    frequency:    6.5879047928
  - # 9
    frequency:    6.6423276632
  - # 10
    frequency:    7.2426787219
  - # 11
    frequency:    8.0719809496
  - # 12
    frequency:    8.6670911254
  - # 13
    frequency:    9.7915748492
  - # 14
    frequency:   11.8437381614
  - # 15
    frequency:   12.2145773185
  - # 16
    frequency:   15.3582825624
  - # 17
    frequency:   18.1460632980
  - # 18
    frequency:   62.8615024868

- q-position: [    0.1363636,    0.0000000,    0.0000000 ]
  distance:    0.0465087
  band:
  - # 1
    frequency:   -2.3916041791
  - # 2
    frequency:   -2.3154301047
  - # 3
    frequency:    1.2006829591
  - # 4
    frequency:    2.1115224861
  - # 5
    frequency:    3.4854795494
  - # 6
    frequency:    4.9755574538
  - # 7
    frequency:    5.4669807999
  - # 8
    frequency:    6.5785705471
  - # 9
    frequency:    6.6460760101
  - # 10
    frequency:    7.2502443782
  - # 11
    frequency:    8.0695774618
  - # 12
    frequency:    8.6946733685
  - # 13
    frequency:    9.7888600859
  - # 14
    frequency:   11.7968791974
  - # 15
    frequency:   12.2019509660
  - # 16
    frequency:   15.5303312402
  - # 17
    frequency:   18.0951206670
  - # 18
    frequency:   62.8580199246

- q-position: [    0.1414141,    0.0000000,    0.0000000 ]
  distance:    0.0482312
  band:
  - # 1
    frequency:   -2.3895723817
  - # 2
    frequency:   -2.3094513262
  - # 3
    frequency:    1.2749006205
  - # 4
    frequency:    2.1847116878
  - # 5
    frequency:    3.6006551177
  - # 6
    frequency:    4.9768954235
  - # 7
    frequency:    5.4962248471
  - # 8
    frequency:    6.5692638313
  - # 9
    frequency:    6.6499316690
  - # 10
    frequency:    7.2573179004
  - # 11
    frequency:    8.0671441285
  - # 12
    frequency:    8.7216714392
  - # 13
    frequency:    9.7866536958
  - # 14
    frequency:   11.7489963420
  - # 15
    frequency:   12.1892883886
  - # 16
    frequency:   15.7005579322
  - # 17
    frequency:   18.0437815113
  - # 18
    frequency:   62.8544737396

- q-position: [    0.1464646,    0.0000000,    0.0000000 ]
  distance:    0.0499538
  band:
  - # 1
    frequency:   -2.3875422055
  - # 2
    frequency:   -2.3031651036
  - # 3
    frequency:    1.3499358262
  - # 4
    frequency:    2.2572488057
  - # 5
    frequency:    3.7138200410
  - # 6
    frequency:    4.9785794801
  - # 7
    frequency:    5.5257802228
  - # 8
    frequency:    6.5600191761
  - # 9
    frequency:    6.6538851760
  - # 10
    frequency:    7.2640617011
  - # 11
    frequency:    8.0646875750
  - # 12
    frequency:    8.7480599373
  - # 13
    frequency:    9.7850344024
  - # 14
    frequency:   11.7001730404
  - # 15
    frequency:   12.1766266896
  - # 16
    frequency:   15.8680832980
  - # 17
    frequency:   17.9924013338
  - # 18
    frequency:   62.8508702319

- q-position: [    0.1515152,    0.0000000,    0.0000000 ]
  distance:    0.0516763
  band:
  - # 1
    frequency:   -2.3855077437
  - # 2
    frequency:   -2.2965211303
  - # 3
    frequency:    1.4256942144
  - # 4
    frequency:    2.3291093592
  - # 5
    frequency:    3.8248446541
  - # 6
    frequency:    4.9806328137
  - # 7
    frequency:    5.5556063622
  - # 8
    frequency:    6.5508708933
  - # 9
    frequency:    6.6579248405
  - # 10
    frequency:    7.2706352388
  - # 11
    frequency:    8.0622146412
  - # 12
    frequency:    8.7738112642
  - # 13
    frequency:    9.7840880097
  - # 14
    frequency:   11.6504951947
  - # 15
    frequency:   12.1640022816
  - # 16
    frequency:   16.0319413679
  - # 17
    frequency:   17.9414544997
  - # 18
    frequency:   62.8472157269

- q-position: [    0.1565657,    0.0000000,    0.0000000 ]
  distance:    0.0533989
  band:
  - # 1
    frequency:   -2.3834627273
  - # 2
    frequency:   -2.2894716357
  - # 3
    frequency:    1.5020899160
  - # 4
    frequency:    2.4002705012
  - # 5
    frequency:    3.9335966929
  - # 6
    frequency:    4.9830781725
  - # 7
    frequency:    5.5856666330
  - # 8
    frequency:    6.5418529055
  - # 9
    frequency:    6.6620364586
  - # 10
    frequency:    7.2771947341
  - # 11
    frequency:    8.0597323685
  - # 12
    frequency:    8.7988924128
  - # 13
    frequency:    9.7839074186
  - # 14
    frequency:   11.6000513464
  - # 15
    frequency:   12.1514507157
  - # 16
    frequency:   16.1910176388
  - # 17
    frequency:   17.8915970905
  - # 18
    frequency:   62.8435165575

- q-position: [    0.1616162,    0.0000000,    0.0000000 ]
  distance:    0.0551214
  band:
  - # 1
    frequency:   -2.3814006443
  - # 2
    frequency:   -2.2819722406
  - # 3
    frequency:    1.5790449805
  - # 4
    frequency:    2.4707110408
  - # 5
    frequency:    4.0399416599
  - # 6
    frequency:    4.9859377737
  - # 7
    frequency:    5.6159290259
  - # 8
    frequency:    6.5329985713
  - # 9
    frequency:    6.6662031511
  - # 10
    frequency:    7.2838927783
  - # 11
    frequency:    8.0572479819
  - # 12
    frequency:    8.8232624496
  - # 13
    frequency:    9.7845922660
  - # 14
    frequency:   11.5489329082
  - # 15
    frequency:   12.1390065194
  - # 16
    frequency:   16.3439470469
  - # 17
    frequency:   17.8437693863
  - # 18
    frequency:   62.8397790479

- q-position: [    0.1666667,    0.0000000,    0.0000000 ]
  distance:    0.0568440
  band:
  - # 1
    frequency:   -2.3793148469
  - # 2
    frequency:   -2.2739826366
  - # 3
    frequency:    1.6564886995
  - # 4
    frequency:    2.5404114527
  - # 5
    frequency:    4.1437432846
  - # 6
    frequency:    4.9892332123
  - # 7
    frequency:    5.6463669043
  - # 8
    frequency:    6.5243405061
  - # 9
    frequency:    6.6704053858
  - # 10
    frequency:    7.2908777153
  - # 11
    frequency:    8.0547688682
  - # 12
    frequency:    8.8468707941
  - # 13
    frequency:    9.7862480519
  - # 14
    frequency:   11.4972344637
  - # 15
    frequency:   12.1267030418
  - # 16
    frequency:   16.4889468732
  - # 17
    frequency:   17.7993630164
  - # 18
    frequency:   62.8360094963

- q-position: [    0.1717172,    0.0000000,    0.0000000 ]
  distance:    0.0585665
  band:
  - # 1
    frequency:   -2.3771986491
  - # 2
    frequency:   -2.2654670914
  - # 3
    frequency:    1.7343568699
  - # 4
    frequency:    2.6093538776
  - # 5
    frequency:    4.2448640922
  - # 6
    frequency:    4.9929853662
  - # 7
    frequency:    5.6769597793
  - # 8
    frequency:    6.5159104006
  - # 9
    frequency:    6.6746212396
  - # 10
    frequency:    7.2982927075
  - # 11
    frequency:    8.0523025490
  - # 12
    frequency:    8.8696563998
  - # 13
    frequency:    9.7889845978
  - # 14
    frequency:   11.4450541657
  - # 15
    frequency:   12.1145723103
  - # 16
    frequency:   16.6235532514
  - # 17
    frequency:   17.7604841995
  - # 18
    frequency:   62.8322141587

- q-position: [    0.1767677,    0.0000000,    0.0000000 ]
  distance:    0.0602890
  band:
  - # 1
    frequency:   -2.3750454142
  - # 2
    frequency:   -2.2563947902
  - # 3
    frequency:    1.8125910323
  - # 4
    frequency:    2.6775221126
  - # 5
    frequency:    4.3431661093
  - # 6
    frequency:    4.9972142971
  - # 7
    frequency:    5.7076940502
  - # 8
    frequency:    6.5077388387
  - # 9
    frequency:    6.6788269574
  - # 10
    frequency:    7.3062744280
  - # 11
    frequency:    8.0498566491
  - # 12
    frequency:    8.8915479398
  - # 13
    frequency:    9.7929136685
  - # 14