nqpoint: 300    
npath: 3      
segment_nqpoint:
- 100
- 100
- 100
labels:
- [ 'G', 'M' ]
- [ 'M', 'K' ]
- [ 'K', 'G' ]
reciprocal_lattice:
- [   0.29983732,   0.17311116,   0.00000000 ] # a*
- [   0.00000000,   0.34622231,   0.00000000 ] # b*
- [   0.00000000,   0.00000000,   0.03612859 ] # c*
natom: 7      
lattice:
- [     3.335141869745124,     0.000000000000000,     0.000000000000000 ] # a
- [    -1.667570934872562,     2.888317584423742,     0.000000000000000 ] # b
- [     0.000000000000000,     0.000000000000000,    27.678909774797432 ] # c
points:
- symbol: C # 1
  coordinates: [  0.000000000000000,  0.000000000000000,  0.535029996165510 ]
  mass: 12.010700
- symbol: Cl # 2
  coordinates: [  0.666666984744047,  0.333332985985145,  0.325157315559979 ]
  mass: 35.453000
- symbol: N # 3
  coordinates: [  0.333332985432215,  0.666666983183674,  0.627640330002068 ]
  mass: 14.006700
- symbol: O # 4
  coordinates: [  0.333332985432215,  0.666666983183674,  0.674842684440021 ]
  mass: 15.999400
- symbol: O # 5
  coordinates: [  0.666666984744047,  0.333332985985145,  0.451244077601084 ]
  mass: 15.999400
- symbol: Zr # 6
  coordinates: [  0.333332985432215,  0.666666983183674,  0.482903067564772 ]
  mass: 91.224000
- symbol: Zr # 7
  coordinates: [  0.666666984744047,  0.333332985985145,  0.582655575074129 ]
  mass: 91.224000

phonon:
- q-position: [    0.0000000,    0.0000000,    0.0000000 ]
  distance:    0.0000000
  band:
  - # 1
    frequency:   -7.6664846113
  - # 2
    frequency:   -7.6664846113
  - # 3
    frequency:   -0.0000047409
  - # 4
    frequency:   -0.0000001122
  - # 5
    frequency:    0.0000045796
  - # 6
    frequency:    0.7232695862
  - # 7
    frequency:    0.7752486991
  - # 8
    frequency:    0.7752486991
  - # 9
    frequency:    3.5350018518
  - # 10
    frequency:    3.5350018518
  - # 11
    frequency:    4.6404139531
  - # 12
    frequency:    4.6404139531
  - # 13
    frequency:    6.1416512291
  - # 14
    frequency:    8.3279390877
  - # 15
    frequency:   10.5563539799
  - # 16
    frequency:   10.5563539799
  - # 17
    frequency:   13.7965459429
  - # 18
    frequency:   14.1982074750
  - # 19
    frequency:   14.1982074750
  - # 20
    frequency:   18.3956584194
  - # 21
    frequency:   41.0288563203

- q-position: [    0.0050505,    0.0000000,    0.0000000 ]
  distance:    0.0017486
  band:
  - # 1
    frequency:   -7.6652864239
  - # 2
    frequency:   -7.6621334145
  - # 3
    frequency:   -0.0025569281
  - # 4
    frequency:    0.0550181170
  - # 5
    frequency:    0.1077309356
  - # 6
    frequency:    0.7230050312
  - # 7
    frequency:    0.7689592882
  - # 8
    frequency:    0.7715534727
  - # 9
    frequency:    3.5351936047
  - # 10
    frequency:    3.5366943806
  - # 11
    frequency:    4.6400199494
  - # 12
    frequency:    4.6401921908
  - # 13
    frequency:    6.1415374502
  - # 14
    frequency:    8.3236286381
  - # 15
    frequency:   10.5567673245
  - # 16
    frequency:   10.5597650080
  - # 17
    frequency:   13.7956857754
  - # 18
    frequency:   14.1982720623
  - # 19
    frequency:   14.1995530342
  - # 20
    frequency:   18.3959193080
  - # 21
    frequency:   41.0282668646

- q-position: [    0.0101010,    0.0000000,    0.0000000 ]
  distance:    0.0034972
  band:
  - # 1
    frequency:   -7.6616952839
  - # 2
    frequency:   -7.6490801224
  - # 3
    frequency:   -0.0110258009
  - # 4
    frequency:    0.1079764369
  - # 5
    frequency:    0.2086058580
  - # 6
    frequency:    0.7196320505
  - # 7
    frequency:    0.7542941474
  - # 8
    frequency:    0.7606586882
  - # 9
    frequency:    3.5357687535
  - # 10
    frequency:    3.5417571433
  - # 11
    frequency:    4.6388406958
  - # 12
    frequency:    4.6395309345
  - # 13
    frequency:    6.1411941038
  - # 14
    frequency:    8.3108309295
  - # 15
    frequency:   10.5580064836
  - # 16
    frequency:   10.5698656583
  - # 17
    frequency:   13.7931622595
  - # 18
    frequency:   14.1984664810
  - # 19
    frequency:   14.2035454051
  - # 20
    frequency:   18.3966993413
  - # 21
    frequency:   41.0264991434

- q-position: [    0.0151515,    0.0000000,    0.0000000 ]
  distance:    0.0052458
  band:
  - # 1
    frequency:   -7.6557214500
  - # 2
    frequency:   -7.6273256601
  - # 3
    frequency:   -0.0285871869
  - # 4
    frequency:    0.1560585663
  - # 5
    frequency:    0.2882575237
  - # 6
    frequency:    0.7059640415
  - # 7
    frequency:    0.7432954858
  - # 8
    frequency:    0.7466392052
  - # 9
    frequency:    3.5367269676
  - # 10
    frequency:    3.5501460606
  - # 11
    frequency:    4.6368844582
  - # 12
    frequency:    4.6384423408
  - # 13
    frequency:    6.1406151441
  - # 14
    frequency:    8.2899334167
  - # 15
    frequency:   10.5600688327
  - # 16
    frequency:   10.5862722991
  - # 17
    frequency:   13.7891380486
  - # 18
    frequency:   14.1987926963
  - # 19
    frequency:   14.2100597392
  - # 20
    frequency:   18.3979906527
  - # 21
    frequency:   41.0235550932

- q-position: [    0.0202020,    0.0000000,    0.0000000 ]
  distance:    0.0069944
  band:
  - # 1
    frequency:   -7.6473819916
  - # 2
    frequency:   -7.5968716742
  - # 3
    frequency:   -0.0654396727
  - # 4
    frequency:    0.1944302285
  - # 5
    frequency:    0.3104489697
  - # 6
    frequency:    0.7027713907
  - # 7
    frequency:    0.7213114858
  - # 8
    frequency:    0.7508290981
  - # 9
    frequency:    3.5380676919
  - # 10
    frequency:    3.5617889441
  - # 11
    frequency:    4.6341649928
  - # 12
    frequency:    4.6369468900
  - # 13
    frequency:    6.1397904411
  - # 14
    frequency:    8.2615403350
  - # 15
    frequency:   10.5629499985
  - # 16
    frequency:   10.6083877531
  - # 17
    frequency:   13.7838594712
  - # 18
    frequency:   14.1992539647
  - # 19
    frequency:   14.2189119251
  - # 20
    frequency:   18.3997802367
  - # 21
    frequency:   41.0194379396

- q-position: [    0.0252525,    0.0000000,    0.0000000 ]
  distance:    0.0087430
  band:
  - # 1
    frequency:   -7.6367007462
  - # 2
    frequency:   -7.5577206924
  - # 3
    frequency:   -0.1645885551
  - # 4
    frequency:    0.2135997704
  - # 5
    frequency:    0.2350714675
  - # 6
    frequency:    0.6988739434
  - # 7
    frequency:    0.7366607767
  - # 8
    frequency:    0.7711665357
  - # 9
    frequency:    3.5397901414
  - # 10
    frequency:    3.5765873150
  - # 11
    frequency:    4.6307015152
  - # 12
    frequency:    4.6350737166
  - # 13
    frequency:    6.1387057074
  - # 14
    frequency:    8.2264207461
  - # 15
    frequency:   10.5666438602
  - # 16
    frequency:   10.6354543048
  - # 17
    frequency:   13.7776278366
  - # 18
    frequency:   14.1998548053
  - # 19
    frequency:   14.2298860605
  - # 20
    frequency:   18.4020501053
  - # 21
    frequency:   41.0141521940

- q-position: [    0.0303030,    0.0000000,    0.0000000 ]
  distance:    0.0104916
  band:
  - # 1
    frequency:   -7.6237082594
  - # 2
    frequency:   -7.5098763595
  - # 3
    frequency:   -0.3668544056
  - # 4
    frequency:    0.1704021795
  - # 5
    frequency:    0.1930790909
  - # 6
    frequency:    0.6837240780
  - # 7
    frequency:    0.7577732188
  - # 8
    frequency:    0.8470717293
  - # 9
    frequency:    3.5418932953
  - # 10
    frequency:    3.5944187665
  - # 11
    frequency:    4.6265186546
  - # 12
    frequency:    4.6328610767
  - # 13
    frequency:    6.1373424129
  - # 14
    frequency:    8.1854521686
  - # 15
    frequency:   10.5711425519
  - # 16
    frequency:   10.6666115919
  - # 17
    frequency:   13.7707712863
  - # 18
    frequency:   14.2006009599
  - # 19
    frequency:   14.2427608273
  - # 20
    frequency:   18.4047775014
  - # 21
    frequency:   41.0077036484

- q-position: [    0.0353535,    0.0000000,    0.0000000 ]
  distance:    0.0122402
  band:
  - # 1
    frequency:   -7.6084417081
  - # 2
    frequency:   -7.4533437568
  - # 3
    frequency:   -0.5602762703
  - # 4
    frequency:    0.0335939394
  - # 5
    frequency:    0.1645875793
  - # 6
    frequency:    0.6849436436
  - # 7
    frequency:    0.7709239297
  - # 8
    frequency:    0.9513185856
  - # 9
    frequency:    3.5443758913
  - # 10
    frequency:    3.6151397113
  - # 11
    frequency:    4.6216463950
  - # 12
    frequency:    4.6303569548
  - # 13
    frequency:    6.1356777049
  - # 14
    frequency:    8.1395687174
  - # 15
    frequency:   10.5764364669
  - # 16
    frequency:   10.7009504860
  - # 17
    frequency:   13.7636218070
  - # 18
    frequency:   14.2014993415
  - # 19
    frequency:   14.2573300972
  - # 20
    frequency:   18.4079351666
  - # 21
    frequency:   41.0000993703

- q-position: [    0.0404040,    0.0000000,    0.0000000 ]
  distance:    0.0139888
  band:
  - # 1
    frequency:   -7.5909448050
  - # 2
    frequency:   -7.3881298214
  - # 3
    frequency:   -0.7315057176
  - # 4
    frequency:   -0.2596308802
  - # 5
    frequency:    0.1758364627
  - # 6
    frequency:    0.7057482856
  - # 7
    frequency:    0.7846648880
  - # 8
    frequency:    1.0648097815
  - # 9
    frequency:    3.5472364208
  - # 10
    frequency:    3.6385883459
  - # 11
    frequency:    4.6161199986
  - # 12
    frequency:    4.6276198129
  - # 13
    frequency:    6.1336843628
  - # 14
    frequency:    8.0897191938
  - # 15
    frequency:   10.5825142646
  - # 16
    frequency:   10.7375575494
  - # 17
    frequency:   13.7564987838
  - # 18
    frequency:   14.2025579703
  - # 19
    frequency:   14.2734163358
  - # 20
    frequency:   18.4114916568
  - # 21
    frequency:   40.9913476947

- q-position: [    0.0454545,    0.0000000,    0.0000000 ]
  distance:    0.0157374
  band:
  - # 1
    frequency:   -7.5712676864
  - # 2
    frequency:   -7.3142438814
  - # 3
    frequency:   -0.8888480997
  - # 4
    frequency:   -0.4055450034
  - # 5
    frequency:    0.1940825941
  - # 6
    frequency:    0.7419516664
  - # 7
    frequency:    0.7998196936
  - # 8
    frequency:    1.1825157122
  - # 9
    frequency:    3.5504731292
  - # 10
    frequency:    3.6645876607
  - # 11
    frequency:    4.6099799107
  - # 12
    frequency:    4.6247194823
  - # 13
    frequency:    6.1313308236
  - # 14
    frequency:    8.0368369393
  - # 15
    frequency:   10.5893628809
  - # 16
    frequency:   10.7755482569
  - # 17
    frequency:   13.7496982472
  - # 18
    frequency:   14.2037858980
  - # 19
    frequency:   14.2908776076
  - # 20
    frequency:   18.4154117003
  - # 21
    frequency:   40.9814582161

- q-position: [    0.0505051,    0.0000000,    0.0000000 ]
  distance:    0.0174860
  band:
  - # 1
    frequency:   -7.5494667809
  - # 2
    frequency:   -7.2316983334
  - # 3
    frequency:   -1.0369698227
  - # 4
    frequency:   -0.5331003866
  - # 5
    frequency:    0.2165106027
  - # 6
    frequency:    0.7877954704
  - # 7
    frequency:    0.8165105696
  - # 8
    frequency:    1.3024341826
  - # 9
    frequency:    3.5540840192
  - # 10
    frequency:    3.6929483495
  - # 11
    frequency:    4.6032716443
  - # 12
    frequency:    4.6217381965
  - # 13
    frequency:    6.1285813315
  - # 14
    frequency:    7.9818206340
  - # 15
    frequency:   10.5969675423
  - # 16
    frequency:   10.8140897655
  - # 17
    frequency:   13.7434860867
  - # 18
    frequency:   14.2051931202
  - # 19
    frequency:   14.3096098927
  - # 20
    frequency:   18.4196565915
  - # 21
    frequency:   40.9704417783

- q-position: [    0.0555556,    0.0000000,    0.0000000 ]
  distance:    0.0192346
  band:
  - # 1
    frequency:   -7.5256046605
  - # 2
    frequency:   -7.1405094878
  - # 3
    frequency:   -1.1784384323
  - # 4
    frequency:   -0.6498025340
  - # 5
    frequency:    0.2419809027
  - # 6
    frequency:    0.8347244777
  - # 7
    frequency:    0.8391767244
  - # 8
    frequency:    1.4236087853
  - # 9
    frequency:    3.5580668631
  - # 10
    frequency:    3.7234714970
  - # 11
    frequency:    4.5960456389
  - # 12
    frequency:    4.6187717557
  - # 13
    frequency:    6.1253962772
  - # 14
    frequency:    7.9255238426
  - # 15
    frequency:   10.6053117868
  - # 16
    frequency:   10.8524153339
  - # 17
    frequency:   13.7380935682
  - # 18
    frequency:   14.2067904752
  - # 19
    frequency:   14.3295464070
  - # 20
    frequency:   18.4241846129
  - # 21
    frequency:   40.9583104632

- q-position: [    0.0606061,    0.0000000,    0.0000000 ]
  distance:    0.0209832
  band:
  - # 1
    frequency:   -7.4997498727
  - # 2
    frequency:   -7.0406986184
  - # 3
    frequency:   -1.3147568841
  - # 4
    frequency:   -0.7588080070
  - # 5
    frequency:    0.2698801000
  - # 6
    frequency:    0.8544053509
  - # 7
    frequency:    0.8936294447
  - # 8
    frequency:    1.5455278958
  - # 9
    frequency:    3.5624192222
  - # 10
    frequency:    3.7559509635
  - # 11
    frequency:    4.5883570931
  - # 12
    frequency:    4.6159308051
  - # 13
    frequency:    6.1217328118
  - # 14
    frequency:    7.8687507426
  - # 15
    frequency:   10.6143774903
  - # 16
    frequency:   10.8898327884
  - # 17
    frequency:   13.7337139644
  - # 18
    frequency:   14.2085895316
  - # 19
    frequency:   14.3506552051
  - # 20
    frequency:   18.4289514789
  - # 21
    frequency:   40.9450775786

- q-position: [    0.0656566,    0.0000000,    0.0000000 ]
  distance:    0.0227318
  band:
  - # 1
    frequency:   -7.4719767538
  - # 2
    frequency:   -6.9322932579
  - # 3
    frequency:   -1.4468497582
  - # 4
    frequency:   -0.8619379988
  - # 5
    frequency:    0.2997935153
  - # 6
    frequency:    0.8754792139
  - # 7
    frequency:    0.9496928884
  - # 8
    frequency:    1.6678964901
  - # 9
    frequency:    3.5671384780
  - # 10
    frequency:    3.7901754258
  - # 11
    frequency:    4.5802657636
  - # 12
    frequency:    4.6133421954
  - # 13
    frequency:    6.1175458312
  - # 14
    frequency:    7.8122556940
  - # 15
    frequency:   10.6241449019
  - # 16
    frequency:   10.9257291132
  - # 17
    frequency:   13.7304996608
  - # 18
    frequency:   14.2106024620
  - # 19
    frequency:   14.3729358735
  - # 20
    frequency:   18.4339107931
  - # 21
    frequency:   40.9307576441

- q-position: [    0.0707071,    0.0000000,    0.0000000 ]
  distance:    0.0244804
  band:
  - # 1
    frequency:   -7.4423652237
  - # 2
    frequency:   -6.8153287869
  - # 3
    frequency:   -1.5753052547
  - # 4
    frequency:   -0.9603540489
  - # 5
    frequency:    0.3313907945
  - # 6
    frequency:    0.8978641578
  - # 7
    frequency:    1.0064676880
  - # 8
    frequency:    1.7905367257
  - # 9
    frequency:    3.5722218756
  - # 10
    frequency:    3.8259300834
  - # 11
    frequency:    4.5718357273
  - # 12
    frequency:    4.6111503716
  - # 13
    frequency:    6.1127894409
  - # 14
    frequency:    7.7567447852
  - # 15
    frequency:   10.6345926878
  - # 16
    frequency:   10.9595726871
  - # 17
    frequency:   13.7285595579
  - # 18
    frequency:   14.2128419056
  - # 19
    frequency:   14.3964157380
  - # 20
    frequency:   18.4390145139
  - # 21
    frequency:   40.9153663760

- q-position: [    0.0757576,    0.0000000,    0.0000000 ]
  distance:    0.0262290
  band:
  - # 1
    frequency:   -7.4110005610
  - # 2
    frequency:   -6.6898503719
  - # 3
    frequency:   -1.7005047415
  - # 4
    frequency:   -1.0548306795
  - # 5
    frequency:    0.3643809345
  - # 6
    frequency:    0.9214755778
  - # 7
    frequency:    1.0633693935
  - # 8
    frequency:    1.9133398815
  - # 9
    frequency:    3.5776665812
  - # 10
    frequency:    3.8629980905
  - # 11
    frequency:    4.5631351012
  - # 12
    frequency:    4.6095187073
  - # 13
    frequency:    6.1074190058
  - # 14
    frequency:    7.7028779980
  - # 15
    frequency:   10.6456979855
  - # 16
    frequency:   10.9909141002
  - # 17
    frequency:   13.7279569303
  - # 18
    frequency:   14.2153208171
  - # 19
    frequency:   14.4211457543
  - # 20
    frequency:   18.4442134200
  - # 21
    frequency:   40.8989206708

- q-position: [    0.0808081,    0.0000000,    0.0000000 ]
  distance:    0.0279776
  band:
  - # 1
    frequency:   -7.3779731600
  - # 2
    frequency:   -6.5559153106
  - # 3
    frequency:   -1.8226966241
  - # 4
    frequency:   -1.1458980234
  - # 5
    frequency:    0.3984936605
  - # 6
    frequency:    0.9462293925
  - # 7
    frequency:    1.1199965390
  - # 8
    frequency:    2.0362409722
  - # 9
    frequency:    3.5834697565
  - # 10
    frequency:    3.9011618366
  - # 11
    frequency:    4.5542357132
  - # 12
    frequency:    4.6086306546
  - # 13
    frequency:    6.1013938685
  - # 14
    frequency:    7.6512710948
  - # 15
    frequency:   10.6574364700
  - # 16
    frequency:   11.0193860043
  - # 17
    frequency:   13.7287081022
  - # 18
    frequency:   14.2180523046
  - # 19
    frequency:   14.4471961027
  - # 20
    frequency:   18.4494575708
  - # 21
    frequency:   40.8814385878

- q-position: [    0.0858586,    0.0000000,    0.0000000 ]
  distance:    0.0297262
  band:
  - # 1
    frequency:   -7.3433782675
  - # 2
    frequency:   -6.4135958462
  - # 3
    frequency:   -1.9420407385
  - # 4
    frequency:   -1.2339250393
  - # 5
    frequency:    0.4334719161
  - # 6
    frequency:    0.9720441210
  - # 7
    frequency:    1.1760587669
  - # 8
    frequency:    2.1592040715
  - # 9
    frequency:    3.5896286499
  - # 10
    frequency:    3.9402042796
  - # 11
    frequency:    4.5452127186
  - # 12
    frequency:    4.6086905204
  - # 13
    frequency:    6.0946807713
  - # 14
    frequency:    7.6024967025
  - # 15
    frequency:   10.6697824319
  - # 16
    frequency:   11.0447021037
  - # 17
    frequency:   13.7307823802
  - # 18
    frequency:   14.2210494561
  - # 19
    frequency:   14.4746514437
  - # 20
    frequency:   18.4546967565
  - # 21
    frequency:   40.8629393293

- q-position: [    0.0909091,    0.0000000,    0.0000000 ]
  distance:    0.0314748
  band:
  - # 1
    frequency:   -7.3073157021
  - # 2
    frequency:   -6.2629825033
  - # 3
    frequency:   -2.0586362247
  - # 4
    frequency:   -1.3191709445
  - # 5
    frequency:    0.4690694176
  - # 6
    frequency:    0.9988421735
  - # 7
    frequency:    1.2313363674
  - # 8
    frequency:    2.2822128087
  - # 9
    frequency:    3.5961407070
  - # 10
    frequency:    3.9799106357
  - # 11
    frequency:    4.5361441554
  - # 12
    frequency:    4.6099235902
  - # 13
    frequency:    6.0872579315
  - # 14
    frequency:    7.5570843846
  - # 15
    frequency:   10.6827088692
  - # 16
    frequency:   11.0666552043
  - # 17
    frequency:   13.7341036505
  - # 18
    frequency:   14.2243251550
  - # 19
    frequency:   14.5036057976
  - # 20
    frequency:   18.4598809322
  - # 21
    frequency:   40.8434432208

- q-position: [    0.0959596,    0.0000000,    0.0000000 ]
  distance:    0.0332234
  band:
  - # 1
    frequency:   -7.2698895540
  - # 2
    frequency:   -6.1041879824
  - # 3
    frequency:   -2.1725396865
  - # 4
    frequency:   -1.4018182850
  - # 5
    frequency:    0.5050506854
  - # 6
    frequency:    1.0265505481
  - # 7
    frequency:    1.2856567048
  - # 8
    frequency:    2.4052631845
  - # 9
    frequency:    3.6030036994
  - # 10
    frequency:    4.0200708601
  - # 11
    frequency:    4.5271104328
  - # 12
    frequency:    4.6125752167
  - # 13
    frequency:    6.0791195993
  - # 14
    frequency:    7.5155197570
  - # 15
    frequency:   10.6961875925
  - # 16
    frequency:   11.0851141688
  - # 17
    frequency:   13.7385539114
  - # 18
    frequency:   14.2278918865
  - # 19
    frequency:   14.5341570569
  - # 20
    frequency:   18.4649606330
  - # 21
    frequency:   40.8229716892

- q-position: [    0.1010101,    0.0000000,    0.0000000 ]
  distance:    0.0349720
  band:
  - # 1
    frequency:   -7.2312078669
  - # 2
    frequency:   -5.9373516126
  - # 3
    frequency:   -2.2837774025
  - # 4
    frequency:   -1.4819948864
  - # 5
    frequency:    0.5411923903
  - # 6
    frequency:    1.0551010652
  - # 7
    frequency:    1.3388800548
  - # 8
    frequency:    2.5283570341
  - # 9
    frequency:    3.6102158736
  - # 10
    frequency:    4.0604835050
  - # 11
    frequency:    4.5181937481
  - # 12
    frequency:    4.6169083636
  - # 13
    frequency:    6.0702807843
  - # 14
    frequency:    7.4782429339
  - # 15
    frequency:   10.7101893450
  - # 16
    frequency:   11.1000196708
  - # 17
    frequency:   13.7439787989
  - # 18
    frequency:   14.2317615359
  - # 19
    frequency:   14.5664012280
  - # 20
    frequency:   18.4698873672
  - # 21
    frequency:   40.8015472391

- q-position: [    0.1060606,    0.0000000,    0.0000000 ]
  distance:    0.0367205
  band:
  - # 1
    frequency:   -7.1913823028
  - # 2
    frequency:   -5.7626442959
  - # 3
    frequency:   -2.3923537624
  - # 4
    frequency:   -1.5597888251
  - # 5
    frequency:    0.5772854833
  - # 6
    frequency:    1.0844302441
  - # 7
    frequency:    1.3908908898
  - # 8
    frequency:    2.6514949833
  - # 9
    frequency:    3.6177761164
  - # 10
    frequency:    4.1009616732
  - # 11
    frequency:    4.5094774275
  - # 12
    frequency:    4.6231990054
  - # 13
    frequency:    6.0607816915
  - # 14
    frequency:    7.4456467760
  - # 15
    frequency:   10.7246839361
  - # 16
    frequency:   11.1113787394
  - # 17
    frequency:   13.7501949081
  - # 18
    frequency:   14.2359451800
  - # 19
    frequency:   14.6004265929
  - # 20
    frequency:   18.4746139832
  - # 21
    frequency:   40.7791934291

- q-position: [    0.1111111,    0.0000000,    0.0000000 ]
  distance:    0.0384691
  band:
  - # 1
    frequency:   -7.1505277882
  - # 2
    frequency:   -5.5802737735
  - # 3
    frequency:   -2.4982572324
  - # 4
    frequency:   -1.6352588888
  - # 5
    frequency:    0.6131378504
  - # 6
    frequency:    1.1144789134
  - # 7
    frequency:    1.4415924359
  - # 8
    frequency:    2.7746679630
  - # 9
    frequency:    3.6256841348
  - # 10
    frequency:    4.1413418326
  - # 11
    frequency:    4.5010451906
  - # 12
    frequency:    4.6317287924
  - # 13
    frequency:    6.0506913038
  - # 14
    frequency:    7.4180755255
  - # 15
    frequency:   10.7396403900
  - # 16
    frequency:   11.1192582192
  - # 17
    frequency:   13.7569984599
  - # 18
    frequency:   14.2404528738
  - # 19
    frequency:   14.6363080777
  - # 20
    frequency:   18.4790950115
  - # 21
    frequency:   40.7559348457

- q-position: [    0.1161616,    0.0000000,    0.0000000 ]
  distance:    0.0402177
  band:
  - # 1
    frequency:   -7.1087621453
  - # 2
    frequency:   -5.3904898830
  - # 3
    frequency:   -2.6014646563
  - # 4
    frequency:   -1.7084420442
  - # 5
    frequency:    0.6485773505
  - # 6
    frequency:    1.1451916394
  - # 7
    frequency:    1.4909032672
  - # 8
    frequency:    2.8978464273
  - # 9
    frequency:    3.6339406459
  - # 10
    frequency:    4.1814960512
  - # 11
    frequency:    4.4929803386
  - # 12
    frequency:    4.6427746671
  - # 13
    frequency:    6.0401095293
  - # 14
    frequency:    7.3958244167
  - # 15
    frequency:   10.7550271065
  - # 16
    frequency:   11.1237773901
  - # 17
    frequency:   13.7641746679
  - # 18
    frequency:   14.2452934356
  - # 19
    frequency:   14.6741021732
  - # 20
    frequency:   18.4832869782
  - # 21
    frequency:   40.7317970761

- q-position: [    0.1212121,    0.0000000,    0.0000000 ]
  distance:    0.0419663
  band:
  - # 1
    frequency:   -7.0662057064
  - # 2
    frequency:   -5.1935892553
  - # 3
    frequency:   -2.7019443971
  - # 4
    frequency:   -1.7793588733
  - # 5
    frequency:    0.6834551302
  - # 6
    frequency:    1.1765160571
  - # 7
    frequency:    1.5387552092
  - # 8
    frequency:    3.0209664647
  - # 9
    frequency:    3.6425475684
  - # 10
    frequency:    4.2213475647
  - # 11
    frequency:    4.4853648730
  - # 12
    frequency:    4.6565958417
  - # 13
    frequency:    6.0291674249
  - # 14
    frequency:    7.3791407206
  - # 15
    frequency:   10.7708120354
  - # 16
    frequency:   11.1251000770
  - # 17
    frequency:   13.7715070606
  - # 18
    frequency:   14.2504742305
  - # 19
    frequency:   14.7138427670
  - # 20
    frequency:   18.4871486916
  - # 21
    frequency:   40.7068066799

- q-position: [    0.1262626,    0.0000000,    0.0000000 ]
  distance:    0.0437149
  band:
  - # 1
    frequency:   -7.0229809131
  - # 2
    frequency:   -4.9899186042
  - # 3
    frequency:   -2.7996586379
  - # 4
    frequency:   -1.8480176015
  - # 5
    frequency:    0.7176491104
  - # 6
    frequency:    1.2084021823
  - # 7
    frequency:    1.5850921091
  - # 8
    frequency:    3.1439120923
  - # 9
    frequency:    3.6515082078
  - # 10
    frequency:    4.2608883336
  - # 11
    frequency:    4.4782785539
  - # 12
    frequency:    4.6734198635
  - # 13
    frequency:    6.0180252264
  - # 14
    frequency:    7.3682264198
  - # 15
    frequency:   10.7869628611
  - # 16
    frequency:   11.1234266116
  - # 17
    frequency:   13.7787860290
  - # 18
    frequency:   14.2560009581
  - # 19
    frequency:   14.7555381940
  - # 20
    frequency:   18.4906415011
  - # 21
    frequency:   40.6809911593

- q-position: [    0.1313131,    0.0000000,    0.0000000 ]
  distance:    0.0454635
  band:
  - # 1
    frequency:   -6.9792119021
  - # 2
    frequency:   -4.7798754268
  - # 3
    frequency:   -2.8945650108
  - # 4
    frequency:   -1.9144171311
  - # 5
    frequency:    0.7510675343
  - # 6
    frequency:    1.2408017856
  - # 7
    frequency:    1.6298691939
  - # 8
    frequency:    3.2664932873
  - # 9
    frequency:    3.6608274217
  - # 10
    frequency:    4.3001954573
  - # 11
    frequency:    4.4717979119
  - # 12
    frequency:    4.6934312756
  - # 13
    frequency:    6.0068682097
  - # 14
    frequency:    7.3632423514
  - # 15
    frequency:   10.8034471962
  - # 16
    frequency:   11.1189859973
  - # 17
    frequency:   13.7858159999
  - # 18
    frequency:   14.2618774452
  - # 19
    frequency:   14.7991697046
  - # 20
    frequency:   18.4937295301
  - # 21
    frequency:   40.6543789275

- q-position: [    0.1363636,    0.0000000,    0.0000000 ]
  distance:    0.0472121
  band:
  - # 1
    frequency:   -6.9350240761
  - # 2
    frequency:   -4.5639046116
  - # 3
    frequency:   -2.9866175675
  - # 4
    frequency:   -1.9785493604
  - # 5
    frequency:    0.7836524680
  - # 6
    frequency:    1.2736678949
  - # 7
    frequency:    1.6730528297
  - # 8
    frequency:    3.3884199171
  - # 9
    frequency:    3.6705117529
  - # 10
    frequency:    4.3394415126
  - # 11
    frequency:    4.4659952369
  - # 12
    frequency:    4.7167679857
  - # 13
    frequency:    5.9959007212
  - # 14
    frequency:    7.3643132896
  - # 15
    frequency:   10.8202327833
  - # 16
    frequency:   11.1120285685
  - # 17
    frequency:   13.7924208422
  - # 18
    frequency:   14.2681054472
  - # 19
    frequency:   14.8446913991
  - # 20
    frequency:   18.4963798837
  - # 21
    frequency:   40.6269992768

- q-position: [    0.1414141,    0.0000000,    0.0000000 ]
  distance:    0.0489607
  band:
  - # 1
    frequency:   -6.8905436630
  - # 2
    frequency:   -4.3424893662
  - # 3
    frequency:   -3.0757667675
  - # 4
    frequency:   -2.0404009812
  - # 5
    frequency:    0.8153831753
  - # 6
    frequency:    1.3069544775
  - # 7
    frequency:    1.7146205554
  - # 8
    frequency:    3.5092729192
  - # 9
    frequency:    3.6805695133
  - # 10
    frequency:    4.3788929066
  - # 11
    frequency:    4.4609375673
  - # 12
    frequency:    4.7435308246
  - # 13
    frequency:    5.9853389625
  - # 14
    frequency:    7.3715331361
  - # 15
    frequency:   10.8372876997
  - # 16
    frequency:   11.1028193602
  - # 17
    frequency:   13.7984473556
  - # 18
    frequency:   14.2746844619
  - # 19
    frequency:   14.8920315234
  - # 20
    frequency:   18.4985628336
  - # 21
    frequency:   40.5988823439

- q-position: [    0.1464646,    0.0000000,    0.0000000 ]
  distance:    0.0507093
  band:
  - # 1
    frequency:   -6.8458972627
  - # 2
    frequency:   -4.1161357648
  - # 3
    frequency:   -3.1619569899
  - # 4
    frequency:   -2.0999548900
  - # 5
    frequency:    0.8462793605
  - # 6
    frequency:    1.3406163273
  - # 7
    frequency:    1.7545612931
  - # 8
    frequency:    3.6284762671
  - # 9
    frequency:    3.6910108037
  - # 10
    frequency:    4.4188907465
  - # 11
    frequency:    4.4566857108
  - # 12
    frequency:    4.7738099258
  - # 13
    frequency:    5.9754032435
  - # 14
    frequency:    7.3849692324
  - # 15
    frequency:   10.8545805654
  - # 16
    frequency:   11.0916323116
  - # 17
    frequency:   13.8037669189
  - # 18
    frequency:   14.2816115590
  - # 19
    frequency:   14.9410948850
  - # 20
    frequency:   18.5002519812
  - # 21
    frequency:   40.5700590754

- q-position: [    0.1515152,    0.0000000,    0.0000000 ]
  distance:    0.0524579
  band:
  - # 1
    frequency:   -6.8012113826
  - # 2
    frequency:   -3.8853563769
  - # 3
    frequency:   -3.2451138639
  - # 4
    frequency:   -2.1571913096
  - # 5
    frequency:    0.8764043953
  - # 6
    frequency:    1.3746091562
  - # 7
    frequency:    1.7928756602
  - # 8
    frequency:    3.7018474541
  - # 9
    frequency:    3.7452769244
  - # 10
    frequency:    4.4532933328
  - # 11
    frequency:    4.4598100862
  - # 12
    frequency:    4.8077273268
  - # 13
    frequency:    5.9663104094
  - # 14
    frequency:    7.4046648232
  - # 15
    frequency:   10.8720807484
  - # 16
    frequency:   11.0787453506
  - # 17
    frequency:   13.8082755470
  - # 18
    frequency:   14.2888812279
  - # 19
    frequency:   14.9917660606
  - # 20
    frequency:   18.5014244029
  - # 21