nqpoint: 300    
npath: 3      
segment_nqpoint:
- 100
- 100
- 100
labels:
- [ 'G', 'M' ]
- [ 'M', 'K' ]
- [ 'K', 'G' ]
reciprocal_lattice:
- [   0.30415328,   0.17560298,   0.00000000 ] # a*
- [   0.00000000,   0.35120596,   0.00000000 ] # b*
- [   0.00000000,   0.00000000,   0.04147207 ] # c*
natom: 6      
lattice:
- [     3.287815912520590,     0.000000000000000,     0.000000000000000 ] # a
- [    -1.643907956260295,     2.847332103210217,     0.000000000000000 ] # b
- [     0.000000000000000,     0.000000000000000,    24.112613355857963 ] # c
points:
- symbol: H # 1
  coordinates: [  0.666666984744047,  0.333332985985145,  0.373248634114291 ]
  mass: 1.007940
- symbol: N # 2
  coordinates: [  0.000000000000000,  0.000000000000000,  0.466855554793707 ]
  mass: 14.006700
- symbol: N # 3
  coordinates: [  0.333332985432215,  0.666666983183674,  0.572251239374303 ]
  mass: 14.006700
- symbol: O # 4
  coordinates: [  0.333332985432215,  0.666666983183674,  0.626751365885709 ]
  mass: 15.999400
- symbol: Zr # 5
  coordinates: [  0.333332985432215,  0.666666983183674,  0.414183293668209 ]
  mass: 91.224000
- symbol: Zr # 6
  coordinates: [  0.666666984744047,  0.333332985985145,  0.520231306346462 ]
  mass: 91.224000

phonon:
- q-position: [    0.0000000,    0.0000000,    0.0000000 ]
  distance:    0.0000000
  band:
  - # 1
    frequency:   -1.8618377521
  - # 2
    frequency:   -1.8618377521
  - # 3
    frequency:   -0.0000043059
  - # 4
    frequency:   -0.0000003645
  - # 5
    frequency:    0.0000051780
  - # 6
    frequency:    3.6042643883
  - # 7
    frequency:    3.6042643883
  - # 8
    frequency:    5.6780688512
  - # 9
    frequency:    6.9912715103
  - # 10
    frequency:    6.9912715103
  - # 11
    frequency:    8.3662455229
  - # 12
    frequency:   14.1494321428
  - # 13
    frequency:   14.4889177719
  - # 14
    frequency:   14.4889177719
  - # 15
    frequency:   27.4447050824
  - # 16
    frequency:   30.4698913230
  - # 17
    frequency:   30.4698913230
  - # 18
    frequency:   39.7024839793

- q-position: [    0.0050505,    0.0000000,    0.0000000 ]
  distance:    0.0017738
  band:
  - # 1
    frequency:   -1.8644007668
  - # 2
    frequency:   -1.8634555002
  - # 3
    frequency:    0.0015132097
  - # 4
    frequency:    0.0709768696
  - # 5
    frequency:    0.1112538705
  - # 6
    frequency:    3.6047511005
  - # 7
    frequency:    3.6055889166
  - # 8
    frequency:    5.6783516435
  - # 9
    frequency:    6.9901453675
  - # 10
    frequency:    6.9905428409
  - # 11
    frequency:    8.3657919106
  - # 12
    frequency:   14.1488534621
  - # 13
    frequency:   14.4886934636
  - # 14
    frequency:   14.4890784915
  - # 15
    frequency:   27.4442155533
  - # 16
    frequency:   30.4700949227
  - # 17
    frequency:   30.4705392097
  - # 18
    frequency:   39.7019562317

- q-position: [    0.0101010,    0.0000000,    0.0000000 ]
  distance:    0.0035475
  band:
  - # 1
    frequency:   -1.8720826649
  - # 2
    frequency:   -1.8683220148
  - # 3
    frequency:    0.0060445889
  - # 4
    frequency:    0.1420447258
  - # 5
    frequency:    0.2226484097
  - # 6
    frequency:    3.6062094143
  - # 7
    frequency:    3.6095556993
  - # 8
    frequency:    5.6791953602
  - # 9
    frequency:    6.9867721592
  - # 10
    frequency:    6.9883625621
  - # 11
    frequency:    8.3644347064
  - # 12
    frequency:   14.1471199229
  - # 13
    frequency:   14.4880212258
  - # 14
    frequency:   14.4895589579
  - # 15
    frequency:   27.4427487205
  - # 16
    frequency:   30.4707047801
  - # 17
    frequency:   30.4724810943
  - # 18
    frequency:   39.7003735751

- q-position: [    0.0151515,    0.0000000,    0.0000000 ]
  distance:    0.0053213
  band:
  - # 1
    frequency:   -1.8848608465
  - # 2
    frequency:   -1.8764737128
  - # 3
    frequency:    0.0135695249
  - # 4
    frequency:    0.2132817565
  - # 5
    frequency:    0.3343078974
  - # 6
    frequency:    3.6086338809
  - # 7
    frequency:    3.6161444716
  - # 8
    frequency:    5.6805860608
  - # 9
    frequency:    6.9811675216
  - # 10
    frequency:    6.9847478809
  - # 11
    frequency:    8.3621847479
  - # 12
    frequency:   14.1442389811
  - # 13
    frequency:   14.4869031289
  - # 14
    frequency:   14.4903541521
  - # 15
    frequency:   27.4403098326
  - # 16
    frequency:   30.4717180737
  - # 17
    frequency:   30.4757116622
  - # 18
    frequency:   39.6977377669

- q-position: [    0.0202020,    0.0000000,    0.0000000 ]
  distance:    0.0070951
  band:
  - # 1
    frequency:   -1.9026941605
  - # 2
    frequency:   -1.8879608548
  - # 3
    frequency:    0.0240475576
  - # 4
    frequency:    0.2847426933
  - # 5
    frequency:    0.4463270086
  - # 6
    frequency:    3.6120154833
  - # 7
    frequency:    3.6253219234
  - # 8
    frequency:    5.6825006435
  - # 9
    frequency:    6.9733574351
  - # 10
    frequency:    6.9797275342
  - # 11
    frequency:    8.3590598986
  - # 12
    frequency:   14.1402228895
  - # 13
    frequency:   14.4853426519
  - # 14
    frequency:   14.4914558943
  - # 15
    frequency:   27.4369075868
  - # 16
    frequency:   30.4731301143
  - # 17
    frequency:   30.4802220954
  - # 18
    frequency:   39.6940517322

- q-position: [    0.0252525,    0.0000000,    0.0000000 ]
  distance:    0.0088688
  band:
  - # 1
    frequency:   -1.9255188936
  - # 2
    frequency:   -1.9028346490
  - # 3
    frequency:    0.0374231991
  - # 4
    frequency:    0.3564518735
  - # 5
    frequency:    0.5587629692
  - # 6
    frequency:    3.6163417308
  - # 7
    frequency:    3.6370423732
  - # 8
    frequency:    5.6849070435
  - # 9
    frequency:    6.9633781044
  - # 10
    frequency:    6.9733418639
  - # 11
    frequency:    8.3550847574
  - # 12
    frequency:   14.1350884594
  - # 13
    frequency:   14.4833447228
  - # 14
    frequency:   14.4928531000
  - # 15
    frequency:   27.4325540549
  - # 16
    frequency:   30.4749343644
  - # 17
    frequency:   30.4860001307
  - # 18
    frequency:   39.6893195575

- q-position: [    0.0303030,    0.0000000,    0.0000000 ]
  distance:    0.0106426
  band:
  - # 1
    frequency:   -1.9532451390
  - # 2
    frequency:   -1.9211336881
  - # 3
    frequency:    0.0536270596
  - # 4
    frequency:    0.4284006867
  - # 5
    frequency:    0.6716337379
  - # 6
    frequency:    3.6215967880
  - # 7
    frequency:    3.6512486695
  - # 8
    frequency:    5.6877645096
  - # 9
    frequency:    6.9512757904
  - # 10
    frequency:    6.9656428988
  - # 11
    frequency:    8.3502902657
  - # 12
    frequency:   14.1288567651
  - # 13
    frequency:   14.4809157744
  - # 14
    frequency:   14.4945320998
  - # 15
    frequency:   27.4272645817
  - # 16
    frequency:   30.4771224655
  - # 17
    frequency:   30.4930301396
  - # 18
    frequency:   39.6835464830

- q-position: [    0.0353535,    0.0000000,    0.0000000 ]
  distance:    0.0124164
  band:
  - # 1
    frequency:   -1.9857546877
  - # 2
    frequency:   -1.9428723167
  - # 3
    frequency:    0.0725772454
  - # 4
    frequency:    0.5005491118
  - # 5
    frequency:    0.7849213703
  - # 6
    frequency:    3.6277616348
  - # 7
    frequency:    3.6678732780
  - # 8
    frequency:    5.6910239582
  - # 9
    frequency:    6.9371065948
  - # 10
    frequency:    6.9566944184
  - # 11
    frequency:    8.3447132277
  - # 12
    frequency:   14.1215528175
  - # 13
    frequency:   14.4780638107
  - # 14
    frequency:   14.4964769941
  - # 15
    frequency:   27.4210576590
  - # 16
    frequency:   30.4796842727
  - # 17
    frequency:   30.5012932271
  - # 18
    frequency:   39.6767388915

- q-position: [    0.0404040,    0.0000000,    0.0000000 ]
  distance:    0.0141901
  band:
  - # 1
    frequency:   -2.0229011103
  - # 2
    frequency:   -1.9680325490
  - # 3
    frequency:    0.0941809835
  - # 4
    frequency:    0.5728303348
  - # 5
    frequency:    0.8985787669
  - # 6
    frequency:    3.6348142535
  - # 7
    frequency:    3.6868395145
  - # 8
    frequency:    5.6946284055
  - # 9
    frequency:    6.9209361959
  - # 10
    frequency:    6.9465719715
  - # 11
    frequency:    8.3383957593
  - # 12
    frequency:   14.1132052372
  - # 13
    frequency:   14.4747984832
  - # 14
    frequency:   14.4986700146
  - # 15
    frequency:   27.4139547775
  - # 16
    frequency:   30.4826078968
  - # 17
    frequency:   30.5107673477
  - # 18
    frequency:   39.6689042962

- q-position: [    0.0454545,    0.0000000,    0.0000000 ]
  distance:    0.0159639
  band:
  - # 1
    frequency:   -2.0645121132
  - # 2
    frequency:   -1.9965599879
  - # 3
    frequency:    0.1183364122
  - # 4
    frequency:    0.6451571131
  - # 5
    frequency:    1.0125377711
  - # 6
    frequency:    3.6427298393
  - # 7
    frequency:    3.7080628730
  - # 8
    frequency:    5.6985134795
  - # 9
    frequency:    6.9028395363
  - # 10
    frequency:    6.9353628152
  - # 11
    frequency:    8.3313846862
  - # 12
    frequency:   14.1038459434
  - # 13
    frequency:   14.4711311719
  - # 14
    frequency:   14.5010918715
  - # 15
    frequency:   27.4059802604
  - # 16
    frequency:   30.4858797530
  - # 17
    frequency:   30.5214274356
  - # 18
    frequency:   39.6600513253

- q-position: [    0.0505051,    0.0000000,    0.0000000 ]
  distance:    0.0177377
  band:
  - # 1
    frequency:   -2.1103937539
  - # 2
    frequency:   -2.0283632708
  - # 3
    frequency:    0.1449344665
  - # 4
    frequency:    0.7174286083
  - # 5
    frequency:    1.1267169399
  - # 6
    frequency:    3.6514810303
  - # 7
    frequency:    3.7314524064
  - # 8
    frequency:    5.7026080155
  - # 9
    frequency:    6.8829004623
  - # 10
    frequency:    6.9231657374
  - # 11
    frequency:    8.3237309101
  - # 12
    frequency:   14.0935098748
  - # 13
    frequency:   14.4670750695
  - # 14
    frequency:   14.5037220718
  - # 15
    frequency:   27.3971610814
  - # 16
    frequency:   30.4894846171
  - # 17
    frequency:   30.5332455476
  - # 18
    frequency:   39.6501897057

- q-position: [    0.0555556,    0.0000000,    0.0000000 ]
  distance:    0.0195114
  band:
  - # 1
    frequency:   -2.1603358084
  - # 2
    frequency:   -2.0633160663
  - # 3
    frequency:    0.1738607800
  - # 4
    frequency:    0.7895367184
  - # 5
    frequency:    1.2410279457
  - # 6
    frequency:    3.6610381528
  - # 7
    frequency:    3.7569121169
  - # 8
    frequency:    5.7068347411
  - # 9
    frequency:    6.8612113127
  - # 10
    frequency:    6.9100907259
  - # 11
    frequency:    8.3154887651
  - # 12
    frequency:   14.0822347460
  - # 13
    frequency:   14.4626452629
  - # 14
    frequency:   14.5065392015
  - # 15
    frequency:   27.3875266712
  - # 16
    frequency:   30.4934056870
  - # 17
    frequency:   30.5461910133
  - # 18
    frequency:   39.6393302438

- q-position: [    0.0606061,    0.0000000,    0.0000000 ]
  distance:    0.0212852
  band:
  - # 1
    frequency:   -2.2141175275
  - # 2
    frequency:   -2.1012605556
  - # 3
    frequency:    0.2049975251
  - # 4
    frequency:    0.8613713344
  - # 5
    frequency:    1.3553802004
  - # 6
    frequency:    3.6713694793
  - # 7
    frequency:    3.7843423196
  - # 8
    frequency:    5.7111110604
  - # 9
    frequency:    6.8378724574
  - # 10
    frequency:    6.8962584420
  - # 11
    frequency:    8.3067153830
  - # 12
    frequency:   14.0700608408
  - # 13
    frequency:   14.4578588100
  - # 14
    frequency:   14.5095211710
  - # 15
    frequency:   27.3771087163
  - # 16
    frequency:   30.4976246511
  - # 17
    frequency:   30.5602305938
  - # 18
    frequency:   39.6274848055

- q-position: [    0.0656566,    0.0000000,    0.0000000 ]
  distance:    0.0230590
  band:
  - # 1
    frequency:   -2.2715131277
  - # 2
    frequency:   -2.1420115067
  - # 3
    frequency:    0.2382251205
  - # 4
    frequency:    0.9328243158
  - # 5
    frequency:    1.4696837551
  - # 6
    frequency:    3.6824414958
  - # 7
    frequency:    3.8136409496
  - # 8
    frequency:    5.7153499492
  - # 9
    frequency:    6.8129917848
  - # 10
    frequency:    6.8817994625
  - # 11
    frequency:    8.2974700877
  - # 12
    frequency:   14.0570308346
  - # 13
    frequency:   14.4527348054
  - # 14
    frequency:   14.5126454266
  - # 15
    frequency:   27.3659409522
  - # 16
    frequency:   30.5021217625
  - # 17
    frequency:   30.5753286426
  - # 18
    frequency:   39.6146662938

- q-position: [    0.0707071,    0.0000000,    0.0000000 ]
  distance:    0.0248327
  band:
  - # 1
    frequency:   -2.3322965612
  - # 2
    frequency:   -2.1853603226
  - # 3
    frequency:    0.2734237480
  - # 4
    frequency:    1.0037922317
  - # 5
    frequency:    1.5838507786
  - # 6
    frequency:    3.6942191764
  - # 7
    frequency:    3.8447047915
  - # 8
    frequency:    5.7194609767
  - # 9
    frequency:    6.7866841340
  - # 10
    frequency:    6.8668532543
  - # 11
    frequency:    8.2878138330
  - # 12
    frequency:   14.0431896413
  - # 13
    frequency:   14.4472944335
  - # 14
    frequency:   14.5158891344
  - # 15
    frequency:   27.3540589558
  - # 16
    frequency:   30.5068759174
  - # 17
    frequency:   30.5914472697
  - # 18
    frequency:   39.6008886254

- q-position: [    0.0757576,    0.0000000,    0.0000000 ]
  distance:    0.0266065
  band:
  - # 1
    frequency:   -2.3962453222
  - # 2
    frequency:   -2.2310787143
  - # 3
    frequency:    0.3104746377
  - # 4
    frequency:    1.0741780671
  - # 5
    frequency:    1.6977959977
  - # 6
    frequency:    3.7066662640
  - # 7
    frequency:    3.8774306144
  - # 8
    frequency:    5.7233514704
  - # 9
    frequency:    6.7590706740
  - # 10
    frequency:    6.8515668529
  - # 11
    frequency:    8.2778086988
  - # 12
    frequency:   14.0285842750
  - # 13
    frequency:   14.4415610029
  - # 14
    frequency:   14.5192293428
  - # 15
    frequency:   27.3414999376
  - # 16
    frequency:   30.5118647396
  - # 17
    frequency:   30.6085465056
  - # 18
    frequency:   39.5861667055

- q-position: [    0.0808081,    0.0000000,    0.0000000 ]
  distance:    0.0283803
  band:
  - # 1
    frequency:   -2.4631432225
  - # 2
    frequency:   -2.2789218553
  - # 3
    frequency:    0.3492610987
  - # 4
    frequency:    1.1438921406
  - # 5
    frequency:    1.8114364565
  - # 6
    frequency:    3.7197455558
  - # 7
    frequency:    3.9117162059
  - # 8
    frequency:    5.7269278400
  - # 9
    frequency:    6.7302782244
  - # 10
    frequency:    6.8360932248
  - # 11
    frequency:    8.2675174532
  - # 12
    frequency:   14.0132637180
  - # 13
    frequency:   14.4355599604
  - # 14
    frequency:   14.5226431288
  - # 15
    frequency:   27.3283025388
  - # 16
    frequency:   30.5170646691
  - # 17
    frequency:   30.6265844632
  - # 18
    frequency:   39.5705164023

- q-position: [    0.0858586,    0.0000000,    0.0000000 ]
  distance:    0.0301540
  band:
  - # 1
    frequency:   -2.5327821953
  - # 2
    frequency:   -2.3286310045
  - # 3
    frequency:    0.3896692892
  - # 4
    frequency:    1.2128524772
  - # 5
    frequency:    1.9246908794
  - # 6
    frequency:    3.7334191932
  - # 7
    frequency:    3.9474613024
  - # 8
    frequency:    5.7300970745
  - # 9
    frequency:    6.7004385194
  - # 10
    frequency:    6.8205893059
  - # 11
    frequency:    8.2570031890
  - # 12
    frequency:   13.9972787912
  - # 13
    frequency:   14.4293188804
  - # 14
    frequency:   14.5261077343
  - # 15
    frequency:   27.3145066322
  - # 16
    frequency:   30.5224510544
  - # 17
    frequency:   30.6455174983
  - # 18
    frequency:   39.5539545193

- q-position: [    0.0909091,    0.0000000,    0.0000000 ]
  distance:    0.0319278
  band:
  - # 1
    frequency:   -2.6049632564
  - # 2
    frequency:   -2.3799356644
  - # 3
    frequency:    0.4315887368
  - # 4
    frequency:    1.2809848393
  - # 5
    frequency:    2.0374788394
  - # 6
    frequency:    3.7476489556
  - # 7
    frequency:    3.9845684186
  - # 8
    frequency:    5.7327684168
  - # 9
    frequency:    6.6696874123
  - # 10
    frequency:    6.8052137268
  - # 11
    frequency:    8.2463290343
  - # 12
    frequency:   13.9806820187
  - # 13
    frequency:   14.4228674266
  - # 14
    frequency:   14.5296006954
  - # 15
    frequency:   27.3001531312
  - # 16
    frequency:   30.5279982494
  - # 17
    frequency:   30.6653003671
  - # 18
    frequency:   39.5364987676

- q-position: [    0.0959596,    0.0000000,    0.0000000 ]
  distance:    0.0337016
  band:
  - # 1
    frequency:   -2.6794967843
  - # 2
    frequency:   -2.4325553677
  - # 3
    frequency:    0.4749126278
  - # 4
    frequency:    1.3482225684
  - # 5
    frequency:    2.1497198611
  - # 6
    frequency:    3.7623965583
  - # 7
    frequency:    4.0229435817
  - # 8
    frequency:    5.7348552101
  - # 9
    frequency:    6.6381640210
  - # 10
    frequency:    6.7901242546
  - # 11
    frequency:    8.2355579366
  - # 12
    frequency:   13.9635274849
  - # 13
    frequency:   14.4162372860
  - # 14
    frequency:   14.5330999662
  - # 15
    frequency:   27.2852838057
  - # 16
    frequency:   30.5336797127
  - # 17
    frequency:   30.6858863795
  - # 18
    frequency:   39.5181677376

- q-position: [    0.1010101,    0.0000000,    0.0000000 ]
  distance:    0.0354753
  band:
  - # 1
    frequency:   -2.7562022831
  - # 2
    frequency:   -2.4862011931
  - # 3
    frequency:    0.5195378947
  - # 4
    frequency:    1.4145063495
  - # 5
    frequency:    2.2613325319
  - # 6
    frequency:    3.7776239543
  - # 7
    frequency:    4.0624969831
  - # 8
    frequency:    5.7362768909
  - # 9
    frequency:    6.6060098164
  - # 10
    frequency:    6.7754750085
  - # 11
    frequency:    8.2247525168
  - # 12
    frequency:   13.9458706818
  - # 13
    frequency:   14.4094620700
  - # 14
    frequency:   14.5365840391
  - # 15
    frequency:   27.2699411077
  - # 16
    frequency:   30.5394681106
  - # 17
    frequency:   30.7072275495
  - # 18
    frequency:   39.4989808691

- q-position: [    0.1060606,    0.0000000,    0.0000000 ]
  distance:    0.0372491
  band:
  - # 1
    frequency:   -2.8349077787
  - # 2
    frequency:   -2.5405771044
  - # 3
    frequency:    0.5653651317
  - # 4
    frequency:    1.4797839646
  - # 5
    frequency:    2.3722336553
  - # 6
    frequency:    3.7932936399
  - # 7
    frequency:    4.1031435552
  - # 8
    frequency:    5.7369610818
  - # 9
    frequency:    6.5733676546
  - # 10
    frequency:    6.7614135347
  - # 11
    frequency:    8.2139749841
  - # 12
    frequency:   13.9277683447
  - # 13
    frequency:   14.4025771853
  - # 14
    frequency:   14.5400320613
  - # 15
    frequency:   27.2541680057
  - # 16
    frequency:   30.5453354223
  - # 17
    frequency:   30.7292747426
  - # 18
    frequency:   39.4789584224

- q-position: [    0.1111111,    0.0000000,    0.0000000 ]
  distance:    0.0390229
  band:
  - # 1
    frequency:   -2.9154489770
  - # 2
    frequency:   -2.5953811868
  - # 3
    frequency:    0.6122983713
  - # 4
    frequency:    1.5440100784
  - # 5
    frequency:    2.4823374556
  - # 6
    frequency:    3.8093689621
  - # 7
    frequency:    4.1448034904
  - # 8
    frequency:    5.7368457132
  - # 9
    frequency:    6.5403807595
  - # 10
    frequency:    6.7480778555
  - # 11
    frequency:    8.2032871036
  - # 12
    frequency:   13.9092782765
  - # 13
    frequency:   14.3956196720
  - # 14
    frequency:   14.5434239459
  - # 15
    frequency:   27.2380078278
  - # 16
    frequency:   30.5512530474
  - # 17
    frequency:   30.7519778199
  - # 18
    frequency:   39.4581214482

- q-position: [    0.1161616,    0.0000000,    0.0000000 ]
  distance:    0.0407967
  band:
  - # 1
    frequency:   -2.9976682918
  - # 2
    frequency:   -2.6503068416
  - # 3
    frequency:    0.6602447505
  - # 4
    frequency:    1.6071460743
  - # 5
    frequency:    2.5915548265
  - # 6
    frequency:    3.8258144285
  - # 7
    frequency:    4.1874027123
  - # 8
    frequency:    5.7358810783
  - # 9
    frequency:    6.5071916609
  - # 10
    frequency:    6.7355936334
  - # 11
    frequency:    8.1927502062
  - # 12
    frequency:   13.8904591614
  - # 13
    frequency:   14.3886280098
  - # 14
    frequency:   14.5467404781
  - # 15
    frequency:   27.2215041152
  - # 16
    frequency:   30.5571919158
  - # 17
    frequency:   30.7752857795
  - # 18
    frequency:   39.4364917575

- q-position: [    0.1212121,    0.0000000,    0.0000000 ]
  distance:    0.0425704
  band:
  - # 1
    frequency:   -3.0814138236
  - # 2
    frequency:   -2.7050439786
  - # 3
    frequency:    0.7091140967
  - # 4
    frequency:    1.6691599475
  - # 5
    frequency:    2.6997926084
  - # 6
    frequency:    3.8425960158
  - # 7
    frequency:    4.2308733144
  - # 8
    frequency:    5.7340317108
  - # 9
    frequency:    6.4739410974
  - # 10
    frequency:    6.7240716080
  - # 11
    frequency:    8.1824252281
  - # 12
    frequency:   13.8713703688
  - # 13
    frequency:   14.3816418941
  - # 14
    frequency:   14.5499634140
  - # 15
    frequency:   27.2047004835
  - # 16
    frequency:   30.5631225982
  - # 17
    frequency:   30.7991468971
  - # 18
    frequency:   39.4140918922

- q-position: [    0.1262626,    0.0000000,    0.0000000 ]
  distance:    0.0443442
  band:
  - # 1
    frequency:   -3.1665383559
  - # 2
    frequency:   -2.7592802312
  - # 3
    frequency:    0.7588184533
  - # 4
    frequency:    1.7300262509
  - # 5
    frequency:    2.8069528750
  - # 6
    frequency:    3.8596814743
  - # 7
    frequency:    4.2751539776
  - # 8
    frequency:    5.7312779665
  - # 9
    frequency:    6.4407668975
  - # 10
    frequency:    6.7136054682
  - # 11
    frequency:    8.1723727700
  - # 12
    frequency:   13.8520717488
  - # 13
    frequency:   14.3747019830
  - # 14
    frequency:   14.5530755713
  - # 15
    frequency:   27.1876404930
  - # 16
    frequency:   30.5690154192
  - # 17
    frequency:   30.8235088640
  - # 18
    frequency:   39.3909450948

- q-position: [    0.1313131,    0.0000000,    0.0000000 ]
  distance:    0.0461180
  band:
  - # 1
    frequency:   -3.2528984162
  - # 2
    frequency:   -2.8127022035
  - # 3
    frequency:    0.8092715684
  - # 4
    frequency:    1.7897260843
  - # 5
    frequency:    2.9129322095
  - # 6
    frequency:    3.8770406253
  - # 7
    frequency:    4.3201903781
  - # 8
    frequency:    5.7276172030
  - # 9
    frequency:    6.4078028501
  - # 10
    frequency:    6.7042703070
  - # 11
    frequency:    8.1626531629
  - # 12
    frequency:   13.8326234205
  - # 13
    frequency:   14.3678496180
  - # 14
    frequency:   14.5560609103
  - # 15
    frequency:   27.1703675266
  - # 16
    frequency:   30.5748405700
  - # 17
    frequency:   30.8483189258
  - # 18
    frequency:   39.3670752790

- q-position: [    0.1363636,    0.0000000,    0.0000000 ]
  distance:    0.0478917
  band:
  - # 1
    frequency:   -3.3403534348
  - # 2
    frequency:   -2.8649967476
  - # 3
    frequency:    0.8603883611
  - # 4
    frequency:    1.8482471164
  - # 5
    frequency:    3.0176209528
  - # 6
    frequency:    3.8946456460
  - # 7
    frequency:    4.3659355905
  - # 8
    frequency:    5.7230644796
  - # 9
    frequency:    6.3751775854
  - # 10
    frequency:    6.6961217712
  - # 11
    frequency:    8.1533265322
  - # 12
    frequency:   13.8130855554
  - # 13
    frequency:   14.3611265215
  - # 14
    frequency:   14.5589046042
  - # 15
    frequency:   27.1529246749
  - # 16
    frequency:   30.5805682233
  - # 17
    frequency:   30.8735240198
  - # 18
    frequency:   39.3425070009

- q-position: [    0.1414141,    0.0000000,    0.0000000 ]
  distance:    0.0496655
  band:
  - # 1
    frequency:   -3.4287650254
  - # 2
    frequency:   -2.9158522602
  - # 3
    frequency:    0.9120843785
  - # 4
    frequency:    1.9055836239
  - # 5
    frequency:    3.1209024094
  - # 6
    frequency:    3.9124713365
  - # 7
    frequency:    4.4123504912
  - # 8
    frequency:    5.7176527434
  - # 9
    frequency:    6.3430134808
  - # 10
    frequency:    6.6891959683
  - # 11
    frequency:    8.1444528488
  - # 12
    frequency:   13.7935181569
  - # 13
    frequency:   14.3545744747
  - # 14
    frequency:   14.5615930985
  - # 15
    frequency:   27.1353546279
  - # 16
    frequency:   30.5861686473
  - # 17
    frequency:   30.8990709131
  - # 18
    frequency:   39.3172654298

- q-position: [    0.1464646,    0.0000000,    0.0000000 ]
  distance:    0.0514393
  band:
  - # 1
    frequency:   -3.5179964013
  - # 2
    frequency:   -2.9649599782
  - # 3
    frequency:    0.9642752556
  - # 4
    frequency:    1.9617365353
  - # 5
    frequency:    3.2226520077
  - # 6
    frequency:    3.9304953621
  - # 7
    frequency:    4.4594041549
  - # 8
    frequency:    5.7114325228
  - # 9
    frequency:    6.3114256167
  - # 10
    frequency:    6.6835101298
  - # 11
    frequency:    8.1360919598
  - # 12
    frequency:   13.7739808376
  - # 13
    frequency:   14.3482349810
  - # 14
    frequency:   14.5641141583
  - # 15
    frequency:   27.1176995729
  - # 16
    frequency:   30.5916123207
  - # 17
    frequency:   30.9249063415
  - # 18
    frequency:   39.2913763198

- q-position: [    0.1515152,    0.0000000,    0.0000000 ]
  distance:    0.0532130
  band:
  - # 1
    frequency:   -3.6079119335
  - # 2
    frequency:   -3.0120152547
  - # 3
    frequency:    1.0168761850
  - # 4
    frequency:    2.0167134650
  - # 5
    frequency:    3.3227364181
  - # 6
    frequency:    3.9486984651
  - # 7
    frequency:    4.5070742296
  - # 8
    frequency:    5.7044712066
  - # 9
    frequency:    6.2805208004
  - # 10
    frequency:    6.6790639641
  - # 11
    frequency:    8.1283035929
  - # 12
    frequency:   13.7545325970
  - # 13
    frequency:   14.3421489174
  - # 14
    frequency:   14.5664569025
  - # 15
    frequency:   27.1000010972
  - # 16
    frequency:   30.5968700475
  - # 17
    frequency:   30.9509771485
  - # 18
    frequency:   39.2648659827

- q-position: [    0.1565657,    0.0000000,    0.0000000 ]
  distance:    0.0549868
  band:
  - # 1
    frequency:   -3.6983768502
  - # 2
    frequency:   -3.0567187877
  - # 3
    frequency:    1.0698014039
  - # 4
    frequency:    2.0705287231
  - # 5
    frequency:    3.4210126533
  - # 6
    frequency:    3.9670646383
  - # 7
    frequency:    4.5553472558
  - # 8
    frequency:    5.6968520319
  - # 9
    frequency:    6.2503966821
  - # 10
    frequency:    6.6758415797
  - # 11
    frequency:    8.1211473288
  - # 12
    frequency:   13.7352316001
  - # 13
    frequency:   14.3363561821
  - # 14
    frequency:   14.5686118272
  - # 15
    frequency:   27.0823000959
  - # 16
    frequency:   30.6019130711
  - # 17
    frequency:   30.9772304258
  - # 18
    frequency:   39.2377612598

- q-position: [    0.1616162,    0.0000000,    0.0000000 ]
  distance:    0.0567606
  band:
  - # 1
    frequency:   -3.7892570759
  - # 2
    frequency:   -3.0987777817
  - # 3
    frequency:    1.1229637062
  - # 4
    frequency:    2.1232032914
  - # 5
    frequency:    3.5173271947
  - # 6
    frequency:    3.9855812531
  - # 7
    frequency:    4.6042188793
  - # 8
    frequency:    5.6886729350
  - # 9
    frequency:    6.2211409843
  - # 10
    frequency:    6.6738138202
  - # 11
    frequency:    8.1146825370
  - # 12
    frequency:   13.7161349583
  - # 13
    frequency:   14.3308953398
  - # 14
    frequency:   14.5705708156
  - # 15
    frequency:   27.0646366836
  - # 16
    frequency:   30.6067131881
  - # 17
    frequency:   31.0036136537
  - # 18
    frequency:   39.2100894963

- q-position: [    0.1666667,    0.0000000,    0.0000000 ]
  distance:    0.0585343
  band:
  - # 1
    frequency:   -3.8804191978
  - # 2
    frequency:   -3.1379070177
  - # 3
    frequency:    1.1762739832
  - # 4
    frequency:    2.1747647512
  - # 5
    frequency:    3.6115152224
  - # 6
    frequency:    4.0042391369
  - # 7
    frequency:    4.6536938707
  - # 8
    frequency:    5.6800454288
  - # 9
    frequency:    6.1928308619
  - # 10
    frequency:    6.6729408337
  - # 11
    frequency:    8.1089682762
  - # 12
    frequency:   13.6972985159
  - # 13
    frequency:   14.3258032743
  - # 14
    frequency:   14.5723271367
  - # 15
    frequency:   27.0470501101
  - # 16
    frequency:   30.6112428611
  - # 17
    frequency:   31.0300748425
  - # 18
    frequency:   39.1818785144

- q-position: [    0.1717172,    0.0000000,    0.0000000 ]
  distance:    0.0603081
  band:
  - # 1
    frequency:   -3.9717305506
  - # 2
    frequency:   -3.1738298151
  - # 3
    frequency:    1.2296408004
  - # 4
    frequency:    2.2252471548
  - # 5
    frequency:    3.7034000636
  - # 6
    frequency:    4.0230325931
  - # 7
    frequency:    4.7037858362
  - # 8
    frequency:    5.6710936537
  - # 9
    frequency:    6.1655324121
  - # 10
    frequency:    6.6731747095
  - # 11
    frequency:    8.1040631550
  - # 12
    frequency:   13.6787766419
  - # 13
    frequency:   14.3211148496
  - # 14
    frequency:   14.5738754330
  - # 15
    frequency:   27.0295786788
  - # 16
    frequency:   30.6154753303
  - # 17
    frequency:   31.0565626735
  - # 18
    frequency:   39.1531565884

- q-position: [    0.1767677,    0.0000000,    0.0000000 ]
  distance:    0.0620819
  band:
  - # 1
    frequency:   -4.0630594052
  - # 2
    frequency:   -3.2062788703
  - # 3
    frequency:    1.2829700174
  - # 4
    frequency:    2.2746908317
  - # 5
    frequency:    3.7927930207
  - # 6
    frequency:    4.0419593612
  - # 7
    frequency:    4.7545164550
  - # 8
    frequency:    5.6619537232
  - # 9
    frequency:    6.1393003453
  - # 10
    frequency:    6.6744620318
  - # 11
    frequency:    8.1000251567
  - # 12
    frequency:   13.6606220287
  - # 13
    frequency:   14.3168625887
  - # 14