nqpoint: 300    
npath: 3      
segment_nqpoint:
- 100
- 100
- 100
labels:
- [ 'G', 'M' ]
- [ 'M', 'K' ]
- [ 'K', 'G' ]
reciprocal_lattice:
- [   0.32306112,   0.18651943,   0.00000000 ] # a*
- [   0.00000000,   0.37303885,   0.00000000 ] # b*
- [   0.00000000,   0.00000000,   0.03987048 ] # c*
natom: 7      
lattice:
- [     3.095389494270167,     0.000000000000000,     0.000000000000000 ] # a
- [    -1.547694747135083,     2.680685936644676,     0.000000000000000 ] # b
- [     0.000000000000000,     0.000000000000000,    25.081212011671688 ] # c
points:
- symbol: C # 1
  coordinates: [  0.333332985432215,  0.666666983183674,  0.593178213712882 ]
  mass: 12.010700
- symbol: N # 2
  coordinates: [  0.000000000000000,  0.000000000000000,  0.445103923343141 ]
  mass: 14.006700
- symbol: N # 3
  coordinates: [  0.333332985432215,  0.666666983183674,  0.543431216784246 ]
  mass: 14.006700
- symbol: O # 4
  coordinates: [  0.333332985432215,  0.666666983183674,  0.641165666323789 ]
  mass: 15.999400
- symbol: O # 5
  coordinates: [  0.666666984744047,  0.333332985985145,  0.358834333676211 ]
  mass: 15.999400
- symbol: Ti # 6
  coordinates: [  0.333332985432215,  0.666666983183674,  0.395152408135774 ]
  mass: 47.867000
- symbol: Ti # 7
  coordinates: [  0.666666984744047,  0.333332985985145,  0.490043212397164 ]
  mass: 47.867000

phonon:
- q-position: [    0.0000000,    0.0000000,    0.0000000 ]
  distance:    0.0000000
  band:
  - # 1
    frequency:   -3.0293675731
  - # 2
    frequency:   -3.0293675730
  - # 3
    frequency:   -0.0000066938
  - # 4
    frequency:   -0.0000001697
  - # 5
    frequency:    0.0000046549
  - # 6
    frequency:    1.6352231734
  - # 7
    frequency:    1.6352231734
  - # 8
    frequency:    6.5078884817
  - # 9
    frequency:    6.5078884817
  - # 10
    frequency:    6.8843247957
  - # 11
    frequency:    8.4345215086
  - # 12
    frequency:    8.4345215086
  - # 13
    frequency:   10.7232519126
  - # 14
    frequency:   15.2955909907
  - # 15
    frequency:   15.2955909907
  - # 16
    frequency:   15.3569080070
  - # 17
    frequency:   16.7906602328
  - # 18
    frequency:   16.7906602328
  - # 19
    frequency:   16.8710895917
  - # 20
    frequency:   38.0276585408
  - # 21
    frequency:   69.1027899865

- q-position: [    0.0050505,    0.0000000,    0.0000000 ]
  distance:    0.0018840
  band:
  - # 1
    frequency:   -3.0267687810
  - # 2
    frequency:   -3.0229020144
  - # 3
    frequency:   -0.0687261710
  - # 4
    frequency:    0.0021233938
  - # 5
    frequency:    0.1043796531
  - # 6
    frequency:    1.6361766349
  - # 7
    frequency:    1.6391970841
  - # 8
    frequency:    6.5080072265
  - # 9
    frequency:    6.5085137966
  - # 10
    frequency:    6.8857134718
  - # 11
    frequency:    8.4346974348
  - # 12
    frequency:    8.4354869459
  - # 13
    frequency:   10.7230225105
  - # 14
    frequency:   15.2917861822
  - # 15
    frequency:   15.2944665476
  - # 16
    frequency:   15.3595709835
  - # 17
    frequency:   16.7906506255
  - # 18
    frequency:   16.7908588922
  - # 19
    frequency:   16.8706294568
  - # 20
    frequency:   38.0276832713
  - # 21
    frequency:   69.1015984013

- q-position: [    0.0101010,    0.0000000,    0.0000000 ]
  distance:    0.0037681
  band:
  - # 1
    frequency:   -3.0189817622
  - # 2
    frequency:   -3.0034689181
  - # 3
    frequency:   -0.1369485853
  - # 4
    frequency:    0.0085109739
  - # 5
    frequency:    0.2089179695
  - # 6
    frequency:    1.6390120775
  - # 7
    frequency:    1.6510684035
  - # 8
    frequency:    6.5083318434
  - # 9
    frequency:    6.5103916905
  - # 10
    frequency:    6.8899108728
  - # 11
    frequency:    8.4352284148
  - # 12
    frequency:    8.4383665388
  - # 13
    frequency:   10.7223367278
  - # 14
    frequency:   15.2816793346
  - # 15
    frequency:   15.2910955018
  - # 16
    frequency:   15.3662505653
  - # 17
    frequency:   16.7906223887
  - # 18
    frequency:   16.7914537882
  - # 19
    frequency:   16.8692536824
  - # 20
    frequency:   38.0277574778
  - # 21
    frequency:   69.0980258361

- q-position: [    0.0151515,    0.0000000,    0.0000000 ]
  distance:    0.0056521
  band:
  - # 1
    frequency:   -3.0060344919
  - # 2
    frequency:   -2.9709566156
  - # 3
    frequency:   -0.2041763662
  - # 4
    frequency:    0.0192121605
  - # 5
    frequency:    0.3137646090
  - # 6
    frequency:    1.6436572828
  - # 7
    frequency:    1.6706901221
  - # 8
    frequency:    6.5087720394
  - # 9
    frequency:    6.5135279687
  - # 10
    frequency:    6.8970063925
  - # 11
    frequency:    8.4361240295
  - # 12
    frequency:    8.4431104830
  - # 13
    frequency:   10.7212018232
  - # 14
    frequency:   15.2672809448
  - # 15
    frequency:   15.2854846897
  - # 16
    frequency:   15.3749309495
  - # 17
    frequency:   16.7905772615
  - # 18
    frequency:   16.7924414045
  - # 19
    frequency:   16.8669764607
  - # 20
    frequency:   38.0278812054
  - # 21
    frequency:   69.0920788556

- q-position: [    0.0202020,    0.0000000,    0.0000000 ]
  distance:    0.0075361
  band:
  - # 1
    frequency:   -2.9879732634
  - # 2
    frequency:   -2.9251706977
  - # 3
    frequency:   -0.2699421368
  - # 4
    frequency:    0.0343018483
  - # 5
    frequency:    0.4190523143
  - # 6
    frequency:    1.6499999974
  - # 7
    frequency:    1.6978307028
  - # 8
    frequency:    6.5091919325
  - # 9
    frequency:    6.5179321638
  - # 10
    frequency:    6.9071338760
  - # 11
    frequency:    8.4374001680
  - # 12
    frequency:    8.4496369313
  - # 13
    frequency:   10.7196298520
  - # 14
    frequency:   15.2497186244
  - # 15
    frequency:   15.2776454567
  - # 16
    frequency:   15.3844756944
  - # 17
    frequency:   16.7905180904
  - # 18
    frequency:   16.7938148658
  - # 19
    frequency:   16.8638225640
  - # 20
    frequency:   38.0280545282
  - # 21
    frequency:   69.0837683818

- q-position: [    0.0252525,    0.0000000,    0.0000000 ]
  distance:    0.0094202
  band:
  - # 1
    frequency:   -2.9648621652
  - # 2
    frequency:   -2.8658205744
  - # 3
    frequency:   -0.3338087484
  - # 4
    frequency:    0.0538724974
  - # 5
    frequency:    0.5248911261
  - # 6
    frequency:    1.6578982795
  - # 7
    frequency:    1.7321922465
  - # 8
    frequency:    6.5094298107
  - # 9
    frequency:    6.5236173121
  - # 10
    frequency:    6.9204510980
  - # 11
    frequency:    8.4390789092
  - # 12
    frequency:    8.4578336822
  - # 13
    frequency:   10.7176375948
  - # 14
    frequency:   15.2294483720
  - # 15
    frequency:   15.2675935847
  - # 16
    frequency:   15.3944164702
  - # 17
    frequency:   16.7904487537
  - # 18
    frequency:   16.7955619143
  - # 19
    frequency:   16.8598295187
  - # 20
    frequency:   38.0282775479
  - # 21
    frequency:   69.0731096660

- q-position: [    0.0303030,    0.0000000,    0.0000000 ]
  distance:    0.0113042
  band:
  - # 1
    frequency:   -2.9367823010
  - # 2
    frequency:   -2.7924984680
  - # 3
    frequency:   -0.3953714557
  - # 4
    frequency:    0.0780286721
  - # 5
    frequency:    0.6313657306
  - # 6
    frequency:    1.6671920006
  - # 7
    frequency:    1.7734321884
  - # 8
    frequency:    6.5093214165
  - # 9
    frequency:    6.5305996212
  - # 10
    frequency:    6.9371154911
  - # 11
    frequency:    8.4411883566
  - # 12
    frequency:    8.4675604461
  - # 13
    frequency:   10.7152464410
  - # 14
    frequency:   15.2066248325
  - # 15
    frequency:   15.2553491902
  - # 16
    frequency:   15.4045828425
  - # 17
    frequency:   16.7903740611
  - # 18
    frequency:   16.7976606077
  - # 19
    frequency:   16.8550521017
  - # 20
    frequency:   38.0285503921
  - # 21
    frequency:   69.0601222484

- q-position: [    0.0353535,    0.0000000,    0.0000000 ]
  distance:    0.0131882
  band:
  - # 1
    frequency:   -2.9038307041
  - # 2
    frequency:   -2.7046481147
  - # 3
    frequency:   -0.4542558187
  - # 4
    frequency:    0.1068877371
  - # 5
    frequency:    0.7385369647
  - # 6
    frequency:    1.6777137175
  - # 7
    frequency:    1.8211855774
  - # 8
    frequency:    6.5087227006
  - # 9
    frequency:    6.5388980137
  - # 10
    frequency:    6.9572602442
  - # 11
    frequency:    8.4437624252
  - # 12
    frequency:    8.4786516118
  - # 13
    frequency:   10.7124822151
  - # 14
    frequency:   15.1812842697
  - # 15
    frequency:   15.2409365947
  - # 16
    frequency:   15.4149193680
  - # 17
    frequency:   16.7902996317
  - # 18
    frequency:   16.8000695333
  - # 19
    frequency:   16.8495723516
  - # 20
    frequency:   38.0288732116
  - # 21
    frequency:   69.0448299072

- q-position: [    0.0404040,    0.0000000,    0.0000000 ]
  distance:    0.0150723
  band:
  - # 1
    frequency:   -2.8661188934
  - # 2
    frequency:   -2.6015187376
  - # 3
    frequency:   -0.5101122123
  - # 4
    frequency:    0.1405904959
  - # 5
    frequency:    0.8464487044
  - # 6
    frequency:    1.6892976781
  - # 7
    frequency:    1.8750851006
  - # 8
    frequency:    6.5075280578
  - # 9
    frequency:    6.5485335288
  - # 10
    frequency:    6.9809748265
  - # 11
    frequency:    8.4468405825
  - # 12
    frequency:    8.4909194298
  - # 13
    frequency:   10.7093749238
  - # 14
    frequency:   15.1534226882
  - # 15
    frequency:   15.2243841673
  - # 16
    frequency:   15.4254075849
  - # 17
    frequency:   16.7902317565
  - # 18
    frequency:   16.8027028408
  - # 19
    frequency:   16.8435247699
  - # 20
    frequency:   38.0292461776
  - # 21
    frequency:   69.0272605967

- q-position: [    0.0454545,    0.0000000,    0.0000000 ]
  distance:    0.0169563
  band:
  - # 1
    frequency:   -2.8237710072
  - # 2
    frequency:   -2.4820970167
  - # 3
    frequency:   -0.5626080142
  - # 4
    frequency:    0.1793268155
  - # 5
    frequency:    0.9551418028
  - # 6
    frequency:    1.7017863993
  - # 7
    frequency:    1.9347765184
  - # 8
    frequency:    6.5056813479
  - # 9
    frequency:    6.5595285643
  - # 10
    frequency:    7.0082926877
  - # 11
    frequency:    8.4504675409
  - # 12
    frequency:    8.5041575379
  - # 13
    frequency:   10.7059584073
  - # 14
    frequency:   15.1230292827
  - # 15
    frequency:   15.2057241418
  - # 16
    frequency:   15.4360327331
  - # 17
    frequency:   16.7901772505
  - # 18
    frequency:   16.8053567613
  - # 19
    frequency:   16.8371700170
  - # 20
    frequency:   38.0296694782
  - # 21
    frequency:   69.0074463744

- q-position: [    0.0505051,    0.0000000,    0.0000000 ]
  distance:    0.0188403
  band:
  - # 1
    frequency:   -2.7769214586
  - # 2
    frequency:   -2.3450049358
  - # 3
    frequency:   -0.6114183735
  - # 4
    frequency:    0.2233855773
  - # 5
    frequency:    1.0646775388
  - # 6
    frequency:    1.7150348241
  - # 7
    frequency:    1.9999279148
  - # 8
    frequency:    6.5031790777
  - # 9
    frequency:    6.5719059479
  - # 10
    frequency:    7.0391868023
  - # 11
    frequency:    8.4546929021
  - # 12
    frequency:    8.5181447722
  - # 13
    frequency:   10.7022698703
  - # 14
    frequency:   15.0901008202
  - # 15
    frequency:   15.1849924130
  - # 16
    frequency:   15.4467696262
  - # 17
    frequency:   16.7901433001
  - # 18
    frequency:   16.8074658164
  - # 19
    frequency:   16.8311388652
  - # 20
    frequency:   38.0301433146
  - # 21
    frequency:   68.9854233169

- q-position: [    0.0555556,    0.0000000,    0.0000000 ]
  distance:    0.0207244
  band:
  - # 1
    frequency:   -2.7257120634
  - # 2
    frequency:   -2.1883428980
  - # 3
    frequency:   -0.6562160889
  - # 4
    frequency:    0.2732494304
  - # 5
    frequency:    1.1751742773
  - # 6
    frequency:    1.7289124343
  - # 7
    frequency:    2.0702319796
  - # 8
    frequency:    6.5000670794
  - # 9
    frequency:    6.5856878290
  - # 10
    frequency:    7.0735717422
  - # 11
    frequency:    8.4595707504
  - # 12
    frequency:    8.5326492267
  - # 13
    frequency:   10.6983492733
  - # 14
    frequency:   15.0546474909
  - # 15
    frequency:   15.1622283135
  - # 16
    frequency:   15.4575771660
  - # 17
    frequency:   16.7901373099
  - # 18
    frequency:   16.8074699563
  - # 19
    frequency:   16.8270651264
  - # 20
    frequency:   38.0306678972
  - # 21
    frequency:   68.9612314261

- q-position: [    0.0606061,    0.0000000,    0.0000000 ]
  distance:    0.0226084
  band:
  - # 1
    frequency:   -2.6702886225
  - # 2
    frequency:   -2.0094429090
  - # 3
    frequency:   -0.6966606558
  - # 4
    frequency:    0.3297827415
  - # 5
    frequency:    1.2868628383
  - # 6
    frequency:    1.7433038621
  - # 7
    frequency:    2.1454013532
  - # 8
    frequency:    6.4964331109
  - # 9
    frequency:    6.6008943962
  - # 10
    frequency:    7.1113098524
  - # 11
    frequency:    8.4651591944
  - # 12
    frequency:    8.5474325521
  - # 13
    frequency:   10.6942385666
  - # 14
    frequency:   15.0166947985
  - # 15
    frequency:   15.1374743799
  - # 16
    frequency:   15.4683969626
  - # 17
    frequency:   16.7901667543
  - # 18
    frequency:   16.8034527549
  - # 19
    frequency:   16.8269473802
  - # 20
    frequency:   38.0312434403
  - # 21
    frequency:   68.9349145248

- q-position: [    0.0656566,    0.0000000,    0.0000000 ]
  distance:    0.0244924
  band:
  - # 1
    frequency:   -2.6107969914
  - # 2
    frequency:   -1.8044753436
  - # 3
    frequency:   -0.7323860296
  - # 4
    frequency:    0.3946352567
  - # 5
    frequency:    1.4001682981
  - # 6
    frequency:    1.7581085581
  - # 7
    frequency:    2.2251578760
  - # 8
    frequency:    6.4923978720
  - # 9
    frequency:    6.6175424347
  - # 10
    frequency:    7.1522190136
  - # 11
    frequency:    8.4715198517
  - # 12
    frequency:    8.5622545066
  - # 13
    frequency:   10.6899807532
  - # 14
    frequency:   14.9762836059
  - # 15
    frequency:   15.1107761129
  - # 16
    frequency:   15.4791539836
  - # 17
    frequency:   16.7902390376
  - # 18
    frequency:   16.7963570237
  - # 19
    frequency:   16.8299330819
  - # 20
    frequency:   38.0318701582
  - # 21
    frequency:   68.9065201423

- q-position: [    0.0707071,    0.0000000,    0.0000000 ]
  distance:    0.0263765
  band:
  - # 1
    frequency:   -2.5473787530
  - # 2
    frequency:   -1.5678524241
  - # 3
    frequency:   -0.7629860835
  - # 4
    frequency:    0.4711961563
  - # 5
    frequency:    1.5158273035
  - # 6
    frequency:    1.7732400068
  - # 7
    frequency:    2.3092174221
  - # 8
    frequency:    6.4881063075
  - # 9
    frequency:    6.6356437563
  - # 10
    frequency:    7.1960800766
  - # 11
    frequency:    8.4787172727
  - # 12
    frequency:    8.5768778001
  - # 13
    frequency:   10.6856187793
  - # 14
    frequency:   14.9334693622
  - # 15
    frequency:   15.0821817411
  - # 16
    frequency:   15.4897582480
  - # 17
    frequency:   16.7878951139
  - # 18
    frequency:   16.7903613654
  - # 19
    frequency:   16.8344077239
  - # 20
    frequency:   38.0325482594
  - # 21
    frequency:   68.8760993904

- q-position: [    0.0757576,    0.0000000,    0.0000000 ]
  distance:    0.0282605
  band:
  - # 1
    frequency:   -2.4801667494
  - # 2
    frequency:   -1.2916486615
  - # 3
    frequency:   -0.7879960106
  - # 4
    frequency:    0.5670481940
  - # 5
    frequency:    1.6350446015
  - # 6
    frequency:    1.7886248756
  - # 7
    frequency:    2.3972728226
  - # 8
    frequency:    6.4837202462
  - # 9
    frequency:    6.6552035466
  - # 10
    frequency:    7.2426428582
  - # 11
    frequency:    8.4868182997
  - # 12
    frequency:    8.5910732891
  - # 13
    frequency:   10.6811942606
  - # 14
    frequency:   14.8883210215
  - # 15
    frequency:   15.0517419964
  - # 16
    frequency:   15.5001070962
  - # 17
    frequency:   16.7788527226
  - # 18
    frequency:   16.7905406282
  - # 19
    frequency:   16.8396901708
  - # 20
    frequency:   38.0332779415
  - # 21
    frequency:   68.8437068306

- q-position: [    0.0808081,    0.0000000,    0.0000000 ]
  distance:    0.0301446
  band:
  - # 1
    frequency:   -2.4092809374
  - # 2
    frequency:   -0.9675956289
  - # 3
    frequency:   -0.8068668473
  - # 4
    frequency:    0.6998889698
  - # 5
    frequency:    1.7596606753
  - # 6
    frequency:    1.8042023773
  - # 7
    frequency:    2.4889780607
  - # 8
    frequency:    6.4794127392
  - # 9
    frequency:    6.6762186957
  - # 10
    frequency:    7.2916302548
  - # 11
    frequency:    8.4958913534
  - # 12
    frequency:    8.6046256014
  - # 13
    frequency:   10.6767460708
  - # 14
    frequency:   14.8409199066
  - # 15
    frequency:   15.0195099115
  - # 16
    frequency:   15.5100878228
  - # 17
    frequency:   16.7695909432
  - # 18
    frequency:   16.7907833011
  - # 19
    frequency:   16.8455293710
  - # 20
    frequency:   38.0340593858
  - # 21
    frequency:   68.8094003314

- q-position: [    0.0858586,    0.0000000,    0.0000000 ]
  distance:    0.0320286
  band:
  - # 1
    frequency:   -2.3348253485
  - # 2
    frequency:   -0.8189285356
  - # 3
    frequency:   -0.6013618733
  - # 4
    frequency:    0.8990558644
  - # 5
    frequency:    1.8199240300
  - # 6
    frequency:    1.8921971622
  - # 7
    frequency:    2.5839372366
  - # 8
    frequency:    6.4753640269
  - # 9
    frequency:    6.6986761889
  - # 10
    frequency:    7.3427404441
  - # 11
    frequency:    8.5060056416
  - # 12
    frequency:    8.6173392848
  - # 13
    frequency:   10.6723088364
  - # 14
    frequency:   14.7913586368
  - # 15
    frequency:   14.9855406486
  - # 16
    frequency:   15.5195805829
  - # 17
    frequency:   16.7603342455
  - # 18
    frequency:   16.7910953571
  - # 19
    frequency:   16.8518147072
  - # 20
    frequency:   38.0348927519
  - # 21
    frequency:   68.7732409183

- q-position: [    0.0909091,    0.0000000,    0.0000000 ]
  distance:    0.0339126
  band:
  - # 1
    frequency:   -2.2568873985
  - # 2
    frequency:   -0.8233338174
  - # 3
    frequency:   -0.1271871814
  - # 4
    frequency:    1.1516216048
  - # 5
    frequency:    1.8357539268
  - # 6
    frequency:    2.0354341568
  - # 7
    frequency:    2.6817016818
  - # 8
    frequency:    6.4717588693
  - # 9
    frequency:    6.7225516488
  - # 10
    frequency:    7.3956473181
  - # 11
    frequency:    8.5172302838
  - # 12
    frequency:    8.6290455910
  - # 13
    frequency:   10.6679114044
  - # 14
    frequency:   14.7397401701
  - # 15
    frequency:   14.9498913698
  - # 16
    frequency:   15.5284615359
  - # 17
    frequency:   16.7512583009
  - # 18
    frequency:   16.7914821965
  - # 19
    frequency:   16.8584860386
  - # 20
    frequency:   38.0357781718
  - # 21
    frequency:   68.7352926146

- q-position: [    0.0959596,    0.0000000,    0.0000000 ]
  distance:    0.0357967
  band:
  - # 1
    frequency:   -2.1755414349
  - # 2
    frequency:   -0.8189693524
  - # 3
    frequency:    0.4335195540
  - # 4
    frequency:    1.3908539072
  - # 5
    frequency:    1.8516695679
  - # 6
    frequency:    2.1911169534
  - # 7
    frequency:    2.7817782535
  - # 8
    frequency:    6.4687849284
  - # 9
    frequency:    6.7478081259
  - # 10
    frequency:    7.4499993156
  - # 11
    frequency:    8.5296333476
  - # 12
    frequency:    8.6396100188
  - # 13
    frequency:   10.6635753687
  - # 14
    frequency:   14.6861769729
  - # 15
    frequency:   14.9126211578
  - # 16
    frequency:   15.5366061990
  - # 17
    frequency:   16.7425172849
  - # 18
    frequency:   16.7919485905
  - # 19
    frequency:   16.8655037991
  - # 20
    frequency:   38.0367157444
  - # 21
    frequency:   68.6956222756

- q-position: [    0.1010101,    0.0000000,    0.0000000 ]
  distance:    0.0376807
  band:
  - # 1
    frequency:   -2.0908592159
  - # 2
    frequency:   -0.8043084356
  - # 3
    frequency:    0.5855267964
  - # 4
    frequency:    1.5904167126
  - # 5
    frequency:    1.8676632820
  - # 6
    frequency:    2.3582807352
  - # 7
    frequency:    2.8836520045
  - # 8
    frequency:    6.4666319286
  - # 9
    frequency:    6.7743952332
  - # 10
    frequency:    7.5054167585
  - # 11
    frequency:    8.5432807931
  - # 12
    frequency:    8.6489407642
  - # 13
    frequency:   10.6593137612
  - # 14
    frequency:   14.6307903155
  - # 15
    frequency:   14.8737909955
  - # 16
    frequency:   15.5438929683
  - # 17
    frequency:   16.7342522110
  - # 18
    frequency:   16.7924986382
  - # 19
    frequency:   16.8728376283
  - # 20
    frequency:   38.0377055302
  - # 21
    frequency:   68.6542994146

- q-position: [    0.1060606,    0.0000000,    0.0000000 ]
  distance:    0.0395647
  band:
  - # 1
    frequency:   -2.0029307757
  - # 2
    frequency:   -0.7771527929
  - # 3
    frequency:    0.6967956272
  - # 4
    frequency:    1.7543971640
  - # 5
    frequency:    1.8837442524
  - # 6
    frequency:    2.5330133266
  - # 7
    frequency:    2.9868285959
  - # 8
    frequency:    6.4654913867
  - # 9
    frequency:    6.8022487136
  - # 10
    frequency:    7.5614877145
  - # 11
    frequency:    8.5582353267
  - # 12
    frequency:    8.6569982271
  - # 13
    frequency:   10.6551300224
  - # 14
    frequency:   14.5737096806
  - # 15
    frequency:   14.8334638110
  - # 16
    frequency:   15.5502067240
  - # 17
    frequency:   16.7265923946
  - # 18
    frequency:   16.7931357371
  - # 19
    frequency:   16.8804615207
  - # 20
    frequency:   38.0387475455
  - # 21
    frequency:   68.6113960236

- q-position: [    0.1111111,    0.0000000,    0.0000000 ]
  distance:    0.0414488
  band:
  - # 1
    frequency:   -1.9118991115
  - # 2
    frequency:   -0.7341422074
  - # 3
    frequency:    0.7936436808
  - # 4
    frequency:    1.8922634553
  - # 5
    frequency:    1.8999411977
  - # 6
    frequency:    2.7102197981
  - # 7
    frequency:    3.0909090305
  - # 8
    frequency:    6.4655567755
  - # 9
    frequency:    6.8312905116
  - # 10
    frequency:    7.6177623579
  - # 11
    frequency:    8.5745551718
  - # 12
    frequency:    8.6638057149
  - # 13
    frequency:   10.6510173738
  - # 14
    frequency:   14.5150722726
  - # 15
    frequency:   14.7917045939
  - # 16
    frequency:   15.5554423953
  - # 17
    frequency:   16.7196541078
  - # 18
    frequency:   16.7938625646
  - # 19
    frequency:   16.8883515669
  - # 20
    frequency:   38.0398417571
  - # 21
    frequency:   68.5669863866

- q-position: [    0.1161616,    0.0000000,    0.0000000 ]
  distance:    0.0433328
  band:
  - # 1
    frequency:   -1.8180094214
  - # 2
    frequency:   -0.6697000680
  - # 3
    frequency:    0.8842687627
  - # 4
    frequency:    1.9163058362
  - # 5
    frequency:    2.0120699119
  - # 6
    frequency:    2.8853794057
  - # 7
    frequency:    3.1957283242
  - # 8
    frequency:    6.4670240398
  - # 9
    frequency:    6.8614293929
  - # 10
    frequency:    7.6737458249
  - # 11
    frequency:    8.5922927665
  - # 12
    frequency:    8.6694613920
  - # 13
    frequency:   10.6469587024
  - # 14
    frequency:   14.4550226143
  - # 15
    frequency:   14.7485805857
  - # 16
    frequency:   15.5595083089
  - # 17
    frequency:   16.7135380639
  - # 18
    frequency:   16.7946810702
  - # 19
    frequency:   16.8964848362
  - # 20
    frequency:   38.0409880775
  - # 21
    frequency:   68.5211468880

- q-position: [    0.1212121,    0.0000000,    0.0000000 ]
  distance:    0.0452168
  band:
  - # 1
    frequency:   -1.7216644694
  - # 2
    frequency:   -0.5732418302
  - # 3
    frequency:    0.9719853396
  - # 4
    frequency:    1.9329174268
  - # 5
    frequency:    2.1194456774
  - # 6
    frequency:    3.0548719295
  - # 7
    frequency:    3.3016335162
  - # 8
    frequency:    6.4700924276
  - # 9
    frequency:    6.8925621271
  - # 10
    frequency:    7.7288897767
  - # 11
    frequency:    8.6114934131
  - # 12
    frequency:    8.6741512802
  - # 13
    frequency:   10.6429270488
  - # 14
    frequency:   14.3937122200
  - # 15
    frequency:   14.7041615464
  - # 16
    frequency:   15.5623291113
  - # 17
    frequency:   16.7083265562
  - # 18
    frequency:   16.7955924777
  - # 19
    frequency:   16.9048388083
  - # 20
    frequency:   38.0421863595
  - # 21
    frequency:   68.4739558162

- q-position: [    0.1262626,    0.0000000,    0.0000000 ]
  distance:    0.0471009
  band:
  - # 1
    frequency:   -1.6234575085
  - # 2
    frequency:   -0.4181945005
  - # 3
    frequency:    1.0583185489
  - # 4
    frequency:    1.9498889708
  - # 5
    frequency:    2.2180686387
  - # 6
    frequency:    3.2151759886
  - # 7
    frequency:    3.4100329404
  - # 8
    frequency:    6.4749656190
  - # 9
    frequency:    6.9245752097
  - # 10
    frequency:    7.7825834279
  - # 11
    frequency:    8.6321939070
  - # 12
    frequency:    8.6781625457
  - # 13
    frequency:   10.6388867566
  - # 14
    frequency:   14.3312993377
  - # 15
    frequency:   14.6585200956
  - # 16
    frequency:   15.5638480417
  - # 17
    frequency:   16.7040807674
  - # 18
    frequency:   16.7965972947
  - # 19
    frequency:   16.9133910860
  - # 20
    frequency:   38.0434363917
  - # 21
    frequency:   68.4254931627

- q-position: [    0.1313131,    0.0000000,    0.0000000 ]
  distance:    0.0489849
  band:
  - # 1
    frequency:   -1.5241257542
  - # 2
    frequency:    0.1307083907
  - # 3
    frequency:    1.1440104141
  - # 4
    frequency:    1.9673761708
  - # 5
    frequency:    2.3103144275
  - # 6
    frequency:    3.3617769457
  - # 7
    frequency:    3.5240654776
  - # 8
    frequency:    6.4818531242
  - # 9
    frequency:    6.9573470623
  - # 10
    frequency:    7.8341459324
  - # 11
    frequency:    8.6544211885
  - # 12
    frequency:    8.6818951732
  - # 13
    frequency:   10.6347952970
  - # 14
    frequency:   14.2679487536
  - # 15
    frequency:   14.6117321265
  - # 16
    frequency:   15.5640283443
  - # 17
    frequency:   16.7008386158
  - # 18
    frequency:   16.7976953306
  - # 19
    frequency:   16.9221192652
  - # 20
    frequency:   38.0447378942
  - # 21
    frequency:   68.3758404174

- q-position: [    0.1363636,    0.0000000,    0.0000000 ]
  distance:    0.0508689
  band:
  - # 1
    frequency:   -1.4243574714
  - # 2
    frequency:    0.5009410200
  - # 3
    frequency:    1.2294152762
  - # 4
    frequency:    1.9855911519
  - # 5
    frequency:    2.3977408398
  - # 6
    frequency:    3.4901106001
  - # 7
    frequency:    3.6473325098
  - # 8
    frequency:    6.4909718721
  - # 9
    frequency:    6.9907506151
  - # 10
    frequency:    7.8828240122
  - # 11
    frequency:    8.6781910668
  - # 12
    frequency:    8.6858681361
  - # 13
    frequency:   10.6306057357
  - # 14
    frequency:   14.2038316572
  - # 15
    frequency:   14.5638772862
  - # 16
    frequency:   15.5628536660
  - # 17
    frequency:   16.6986133984
  - # 18
    frequency:   16.7988857207
  - # 19
    frequency:   16.9310008981
  - # 20
    frequency:   38.0460905140
  - # 21
    frequency:   68.3250803605

- q-position: [    0.1414141,    0.0000000,    0.0000000 ]
  distance:    0.0527530
  band:
  - # 1
    frequency:   -1.3244436756
  - # 2
    frequency:    0.7269785633
  - # 3
    frequency:    1.3146765525
  - # 4
    frequency:    2.0048245709
  - # 5
    frequency:    2.4813961361
  - # 6
    frequency:    3.6002812740
  - # 7
    frequency:    3.7789773246
  - # 8
    frequency:    6.5025477991
  - # 9
    frequency:    7.0246561451
  - # 10
    frequency:    7.9278016353
  - # 11
    frequency:    8.6907132566
  - # 12
    frequency:    8.7035070737
  - # 13
    frequency:   10.6262697565
  - # 14
    frequency:   14.1391255634
  - # 15
    frequency:   14.5150395160
  - # 16
    frequency:   15.5603273642
  - # 17
    frequency:   16.6973933820
  - # 18
    frequency:   16.8001669561
  - # 19
    frequency:   16.9400135166
  - # 20
    frequency:   38.0474938216
  - # 21
    frequency:   68.2732968530

- q-position: [    0.1464646,    0.0000000,    0.0000000 ]
  distance:    0.0546370
  band:
  - # 1
    frequency:   -1.2238871970
  - # 2
    frequency:    0.9213897035
  - # 3
    frequency:    1.3998134751
  - # 4
    frequency:    2.0254827292
  - # 5
    frequency:    2.5620059979
  - # 6
    frequency:    3.6970376480
  - # 7
    frequency:    3.9135916795
  - # 8
    frequency:    6.5168170605
  - # 9
    frequency:    7.0589342239
  - # 10
    frequency:    7.9682315914
  - # 11
    frequency:    8.6971469046
  - # 12
    frequency:    8.7303595115
  - # 13
    frequency:   10.6217411151
  - # 14
    frequency:   14.0740142928
  - # 15
    frequency:   14.4653076414
  - # 16
    frequency:   15.5564707532
  - # 17
    frequency:   16.6971423808
  - # 18
    frequency:   16.8015369184
  - # 19
    frequency:   16.9491346996
  - # 20
    frequency:   38.0489473075
  - # 21
    frequency:   68.2205746244

- q-position: [    0.1515152,    0.0000000,    0.0000000 ]
  distance:    0.0565210
  band:
  - # 1
    frequency:   -1.1211292562
  - # 2
    frequency:    1.0994341819
  - # 3
    frequency:    1.4847666467
  - # 4
    frequency:    2.0481517957
  - # 5
    frequency:    2.6400864611
  - # 6
    frequency:    3.7845460622
  - # 7
    frequency:    4.0463759599
  - # 8
    frequency:    6.5340262015
  - # 9
    frequency:    7.0934586178
  - # 10
    frequency:    8.0032992938
  - # 11
    frequency:    8.7059091915
  - # 12
    frequency:    8.7587247554
  - # 13
    frequency:   10.6169793576
  - # 14
    frequency:   14.0086880093
  - # 15
    frequency:   14.4147760010
  - # 16
    frequency:   15.5513204239
  - # 17
    frequency:   16.6978012529
  - # 18
    frequency:   16.8029929195
  - # 19
    frequency:   16.9583421762
  - # 20
    frequency:   38.0504503786
  - # 21
    frequency:   68.1669990599