nqpoint: 300    
npath: 3      
segment_nqpoint:
- 100
- 100
- 100
labels:
- [ 'G', 'M' ]
- [ 'M', 'K' ]
- [ 'K', 'G' ]
reciprocal_lattice:
- [   0.29981507,   0.17309831,   0.00000000 ] # a*
- [   0.00000000,   0.34619662,   0.00000000 ] # b*
- [   0.00000000,   0.00000000,   0.03778938 ] # c*
natom: 7      
lattice:
- [     3.335389376198964,     0.000000000000000,     0.000000000000000 ] # a
- [    -1.667694688099482,     2.888531931297365,     0.000000000000000 ] # b
- [     0.000000000000000,     0.000000000000000,    26.462463618718381 ] # c
points:
- symbol: N # 1
  coordinates: [  0.000000000000000,  0.000000000000000,  0.516864447582784 ]
  mass: 14.006700
- symbol: N # 2
  coordinates: [  0.333332985432215,  0.666666983183674,  0.609655302657695 ]
  mass: 14.006700
- symbol: O # 3
  coordinates: [  0.333332985432215,  0.666666983183674,  0.659895611773887 ]
  mass: 15.999400
- symbol: O # 4
  coordinates: [  0.666666984744048,  0.333332985985145,  0.340104388226113 ]
  mass: 15.999400
- symbol: P # 5
  coordinates: [  0.666666984744048,  0.333332985985145,  0.396507901784791 ]
  mass: 30.973762
- symbol: Zr # 6
  coordinates: [  0.333332985432215,  0.666666983183674,  0.470075589319594 ]
  mass: 91.224000
- symbol: Zr # 7
  coordinates: [  0.666666984744048,  0.333332985985145,  0.569434633086398 ]
  mass: 91.224000

phonon:
- q-position: [    0.0000000,    0.0000000,    0.0000000 ]
  distance:    0.0000000
  band:
  - # 1
    frequency:   -5.1745186710
  - # 2
    frequency:   -5.1745186710
  - # 3
    frequency:   -4.0720079664
  - # 4
    frequency:   -4.0720079664
  - # 5
    frequency:   -0.0000108539
  - # 6
    frequency:    0.0000002671
  - # 7
    frequency:    0.0000070468
  - # 8
    frequency:    2.2883811884
  - # 9
    frequency:    2.2883811884
  - # 10
    frequency:    4.1438767144
  - # 11
    frequency:    4.7044092246
  - # 12
    frequency:    4.7044092246
  - # 13
    frequency:    4.8773248557
  - # 14
    frequency:    8.5914915747
  - # 15
    frequency:    9.0138879948
  - # 16
    frequency:    9.0138879948
  - # 17
    frequency:   12.3255510647
  - # 18
    frequency:   12.3255510647
  - # 19
    frequency:   12.9177771412
  - # 20
    frequency:   34.2102870312
  - # 21
    frequency:   37.9030847009

- q-position: [    0.0050505,    0.0000000,    0.0000000 ]
  distance:    0.0017485
  band:
  - # 1
    frequency:   -5.1788810688
  - # 2
    frequency:   -5.1756475627
  - # 3
    frequency:   -4.0716341857
  - # 4
    frequency:   -4.0694949255
  - # 5
    frequency:   -0.0528965202
  - # 6
    frequency:   -0.0010656496
  - # 7
    frequency:    0.0446242751
  - # 8
    frequency:    2.2888571187
  - # 9
    frequency:    2.2889027981
  - # 10
    frequency:    4.1445660290
  - # 11
    frequency:    4.7041765947
  - # 12
    frequency:    4.7046416358
  - # 13
    frequency:    4.8769832104
  - # 14
    frequency:    8.5911109772
  - # 15
    frequency:    9.0105757037
  - # 16
    frequency:    9.0125402529
  - # 17
    frequency:   12.3255592035
  - # 18
    frequency:   12.3256233745
  - # 19
    frequency:   12.9182484826
  - # 20
    frequency:   34.2101152206
  - # 21
    frequency:   37.9022025606

- q-position: [    0.0101010,    0.0000000,    0.0000000 ]
  distance:    0.0034969
  band:
  - # 1
    frequency:   -5.1919473529
  - # 2
    frequency:   -5.1790319815
  - # 3
    frequency:   -4.0705162448
  - # 4
    frequency:   -4.0619661856
  - # 5
    frequency:   -0.1054811593
  - # 6
    frequency:   -0.0042296769
  - # 7
    frequency:    0.0893030260
  - # 8
    frequency:    2.2902858213
  - # 9
    frequency:    2.2904772961
  - # 10
    frequency:    4.1466243129
  - # 11
    frequency:    4.7034798022
  - # 12
    frequency:    4.7052757859
  - # 13
    frequency:    4.8760386873
  - # 14
    frequency:    8.5899684388
  - # 15
    frequency:    9.0006862243
  - # 16
    frequency:    9.0085041733
  - # 17
    frequency:   12.3255809091
  - # 18
    frequency:   12.3258172403
  - # 19
    frequency:   12.9196596904
  - # 20
    frequency:   34.2096000670
  - # 21
    frequency:   37.8995584472

- q-position: [    0.0151515,    0.0000000,    0.0000000 ]
  distance:    0.0052454
  band:
  - # 1
    frequency:   -5.2136556776
  - # 2
    frequency:   -5.1846652303
  - # 3
    frequency:   -4.0686642688
  - # 4
    frequency:   -4.0494517862
  - # 5
    frequency:   -0.1574543143
  - # 6
    frequency:   -0.0093937335
  - # 7
    frequency:    0.1340900330
  - # 8
    frequency:    2.2926700210
  - # 9
    frequency:    2.2931340216
  - # 10
    frequency:    4.1500227438
  - # 11
    frequency:    4.7023221394
  - # 12
    frequency:    4.7061175407
  - # 13
    frequency:    4.8747371767
  - # 14
    frequency:    8.5880612960
  - # 15
    frequency:    8.9843606198
  - # 16
    frequency:    9.0018011037
  - # 17
    frequency:   12.3256081291
  - # 18
    frequency:   12.3260651934
  - # 19
    frequency:   12.9220018864
  - # 20
    frequency:   34.2087424036
  - # 21
    frequency:   37.8951592746

- q-position: [    0.0202020,    0.0000000,    0.0000000 ]
  distance:    0.0069939
  band:
  - # 1
    frequency:   -5.2439055511
  - # 2
    frequency:   -5.1925363821
  - # 3
    frequency:   -4.0660948792
  - # 4
    frequency:   -4.0319984794
  - # 5
    frequency:   -0.2085408175
  - # 6
    frequency:   -0.0163859425
  - # 7
    frequency:    0.1790376770
  - # 8
    frequency:    2.2960142256
  - # 9
    frequency:    2.2969229112
  - # 10
    frequency:    4.1547137683
  - # 11
    frequency:    4.7007090930
  - # 12
    frequency:    4.7068310674
  - # 13
    frequency:    4.8735000378
  - # 14
    frequency:    8.5853835577
  - # 15
    frequency:    8.9618305320
  - # 16
    frequency:    8.9924663226
  - # 17
    frequency:   12.3256277058
  - # 18
    frequency:   12.3262603318
  - # 19
    frequency:   12.9252589132
  - # 20
    frequency:   34.2075436172
  - # 21
    frequency:   37.8890165396

- q-position: [    0.0252525,    0.0000000,    0.0000000 ]
  distance:    0.0087423
  band:
  - # 1
    frequency:   -5.2825606598
  - # 2
    frequency:   -5.2026306126
  - # 3
    frequency:   -4.0628308274
  - # 4
    frequency:   -4.0096659101
  - # 5
    frequency:   -0.2585018661
  - # 6
    frequency:   -0.0249491294
  - # 7
    frequency:    0.2241962239
  - # 8
    frequency:    2.3003246768
  - # 9
    frequency:    2.3019158191
  - # 10
    frequency:    4.1606316845
  - # 11
    frequency:    4.6986483438
  - # 12
    frequency:    4.7069364040
  - # 13
    frequency:    4.8729255565
  - # 14
    frequency:    8.5819230371
  - # 15
    frequency:    8.9334139487
  - # 16
    frequency:    8.9805486004
  - # 17
    frequency:   12.3256217597
  - # 18
    frequency:   12.3262639816
  - # 19
    frequency:   12.9294055212
  - # 20
    frequency:   34.2060056441
  - # 21
    frequency:   37.8811462807

- q-position: [    0.0303030,    0.0000000,    0.0000000 ]
  distance:    0.0104908
  band:
  - # 1
    frequency:   -5.3294512707
  - # 2
    frequency:   -5.2149296349
  - # 3
    frequency:   -4.0589005105
  - # 4
    frequency:   -3.9825230037
  - # 5
    frequency:   -0.3071465707
  - # 6
    frequency:   -0.0347222663
  - # 7
    frequency:    0.2696130923
  - # 8
    frequency:    2.3056092853
  - # 9
    frequency:    2.3082079277
  - # 10
    frequency:    4.1676931550
  - # 11
    frequency:    4.6961497658
  - # 12
    frequency:    4.7058413682
  - # 13
    frequency:    4.8737559443
  - # 14
    frequency:    8.5776559173
  - # 15
    frequency:    8.8995114784
  - # 16
    frequency:    8.9661096058
  - # 17
    frequency:   12.3255682037
  - # 18
    frequency:   12.3259152094
  - # 19
    frequency:   12.9344052665
  - # 20
    frequency:   34.2041309655
  - # 21
    frequency:   37.8715690225

- q-position: [    0.0353535,    0.0000000,    0.0000000 ]
  distance:    0.0122393
  band:
  - # 1
    frequency:   -5.3843755802
  - # 2
    frequency:   -5.2294122037
  - # 3
    frequency:   -4.0543373915
  - # 4
    frequency:   -3.9506453657
  - # 5
    frequency:   -0.3543428587
  - # 6
    frequency:   -0.0452129562
  - # 7
    frequency:    0.3153321024
  - # 8
    frequency:    2.3118775530
  - # 9
    frequency:    2.3159188781
  - # 10
    frequency:    4.1757973184
  - # 11
    frequency:    4.6932254243
  - # 12
    frequency:    4.7029354938
  - # 13
    frequency:    4.8767824993
  - # 14
    frequency:    8.5725362080
  - # 15
    frequency:    8.8606062974
  - # 16
    frequency:    8.9492231773
  - # 17
    frequency:   12.3250411856
  - # 18
    frequency:   12.3254413704
  - # 19
    frequency:   12.9402084934
  - # 20
    frequency:   34.2019226011
  - # 21
    frequency:   37.8603097034

- q-position: [    0.0404040,    0.0000000,    0.0000000 ]
  distance:    0.0139877
  band:
  - # 1
    frequency:   -5.4470998632
  - # 2
    frequency:   -5.2460546611
  - # 3
    frequency:   -4.0491793495
  - # 4
    frequency:   -3.9141140331
  - # 5
    frequency:   -0.4000272001
  - # 6
    frequency:   -0.0557560932
  - # 7
    frequency:    0.3613927092
  - # 8
    frequency:    2.3191404834
  - # 9
    frequency:    2.3251932364
  - # 10
    frequency:    4.1848250248
  - # 11
    frequency:    4.6898895739
  - # 12
    frequency:    4.6977403288
  - # 13
    frequency:    4.8826950394
  - # 14
    frequency:    8.5664739205
  - # 15
    frequency:    8.8172745769
  - # 16
    frequency:    8.9299744849
  - # 17
    frequency:   12.3234673852
  - # 18
    frequency:   12.3252127271
  - # 19
    frequency:   12.9467507975
  - # 20
    frequency:   34.1993841014
  - # 21
    frequency:   37.8473975878

- q-position: [    0.0454545,    0.0000000,    0.0000000 ]
  distance:    0.0157362
  band:
  - # 1
    frequency:   -5.5173576898
  - # 2
    frequency:   -5.2648314929
  - # 3
    frequency:   -4.0434679825
  - # 4
    frequency:   -3.8730155221
  - # 5
    frequency:   -0.4442121256
  - # 6
    frequency:   -0.0654479479
  - # 7
    frequency:    0.4078292260
  - # 8
    frequency:    2.3274104859
  - # 9
    frequency:    2.3361999300
  - # 10
    frequency:    4.1946365526
  - # 11
    frequency:    4.6861586537
  - # 12
    frequency:    4.6900488701
  - # 13
    frequency:    4.8919434483
  - # 14
    frequency:    8.5592855659
  - # 15
    frequency:    8.7702233580
  - # 16
    frequency:    8.9084591042
  - # 17
    frequency:   12.3210267313
  - # 18
    frequency:   12.3248516538
  - # 19
    frequency:   12.9539523144
  - # 20
    frequency:   34.1965195389
  - # 21
    frequency:   37.8328661638

- q-position: [    0.0505051,    0.0000000,    0.0000000 ]
  distance:    0.0174847
  band:
  - # 1
    frequency:   -5.5948486970
  - # 2
    frequency:   -5.2857158679
  - # 3
    frequency:   -4.0372478843
  - # 4
    frequency:   -3.8274428908
  - # 5
    frequency:   -0.4869897884
  - # 6
    frequency:   -0.0730285062
  - # 7
    frequency:    0.4546700493
  - # 8
    frequency:    2.3367012734
  - # 9
    frequency:    2.3491303562
  - # 10
    frequency:    4.2050669742
  - # 11
    frequency:    4.6799717259
  - # 12
    frequency:    4.6820512825
  - # 13
    frequency:    4.9046945590
  - # 14
    frequency:    8.5505684255
  - # 15
    frequency:    8.7204048955
  - # 16
    frequency:    8.8847820306
  - # 17
    frequency:   12.3175670213
  - # 18
    frequency:   12.3243262600
  - # 19
    frequency:   12.9617180677
  - # 20
    frequency:   34.1933334976
  - # 21
    frequency:   37.8167530254

- q-position: [    0.0555556,    0.0000000,    0.0000000 ]
  distance:    0.0192331
  band:
  - # 1
    frequency:   -5.6792374361
  - # 2
    frequency:   -5.3086801378
  - # 3
    frequency:   -4.0305659111
  - # 4
    frequency:   -3.7774974959
  - # 5
    frequency:   -0.5285289983
  - # 6
    frequency:   -0.0766307792
  - # 7
    frequency:    0.5019368983
  - # 8
    frequency:    2.3470277532
  - # 9
    frequency:    2.3641949595
  - # 10
    frequency:    4.2159181374
  - # 11
    frequency:    4.6678814252
  - # 12
    frequency:    4.6775882501
  - # 13
    frequency:    4.9208939760
  - # 14
    frequency:    8.5393399084
  - # 15
    frequency:    8.6693665054
  - # 16
    frequency:    8.8590566576
  - # 17
    frequency:   12.3129562726
  - # 18
    frequency:   12.3236042129
  - # 19
    frequency:   12.9699394534
  - # 20
    frequency:   34.1898310617
  - # 21
    frequency:   37.7990997402

- q-position: [    0.0606061,    0.0000000,    0.0000000 ]
  distance:    0.0209816
  band:
  - # 1
    frequency:   -5.7701527345
  - # 2
    frequency:   -5.3336962798
  - # 3
    frequency:   -4.0234704506
  - # 4
    frequency:   -3.7232911801
  - # 5
    frequency:   -0.5690626542
  - # 6
    frequency:   -0.0730836009
  - # 7
    frequency:    0.5496440909
  - # 8
    frequency:    2.3584059125
  - # 9
    frequency:    2.3816181950
  - # 10
    frequency:    4.2269461309
  - # 11
    frequency:    4.6543210409
  - # 12
    frequency:    4.6727925077
  - # 13
    frequency:    4.9403678093
  - # 14
    frequency:    8.5229555008
  - # 15
    frequency:    8.6203226532
  - # 16
    frequency:    8.8314037413
  - # 17
    frequency:   12.3070859277
  - # 18
    frequency:   12.3226535558
  - # 19
    frequency:   12.9784967668
  - # 20
    frequency:   34.1860178028
  - # 21
    frequency:   37.7799517037

- q-position: [    0.0656566,    0.0000000,    0.0000000 ]
  distance:    0.0227301
  band:
  - # 1
    frequency:   -5.8671878757
  - # 2
    frequency:   -5.3607362695
  - # 3
    frequency:   -4.0160107019
  - # 4
    frequency:   -3.6649487368
  - # 5
    frequency:   -0.6088629614
  - # 6
    frequency:   -0.0547548624
  - # 7
    frequency:    0.5977978771
  - # 8
    frequency:    2.3708526906
  - # 9
    frequency:    2.4016319363
  - # 10
    frequency:    4.2378433382
  - # 11
    frequency:    4.6399389584
  - # 12
    frequency:    4.6676891538
  - # 13
    frequency:    4.9629034038
  - # 14
    frequency:    8.4952671555
  - # 15
    frequency:    8.5799875865
  - # 16
    frequency:    8.8019503719
  - # 17
    frequency:   12.2998721182
  - # 18
    frequency:   12.3214434957
  - # 19
    frequency:   12.9872625318
  - # 20
    frequency:   34.1818997659
  - # 21
    frequency:   37.7593579795

- q-position: [    0.0707071,    0.0000000,    0.0000000 ]
  distance:    0.0244785
  band:
  - # 1
    frequency:   -5.9699017660
  - # 2
    frequency:   -5.3897723759
  - # 3
    frequency:   -4.0082359729
  - # 4
    frequency:   -3.6026106102
  - # 5
    frequency:   -0.6482039066
  - # 6
    frequency:    0.0454819998
  - # 7
    frequency:    0.6463958568
  - # 8
    frequency:    2.3843858343
  - # 9
    frequency:    2.4244675302
  - # 10
    frequency:    4.2482154009
  - # 11
    frequency:    4.6254663851
  - # 12
    frequency:    4.6623054185
  - # 13
    frequency:    4.9882921876
  - # 14
    frequency:    8.4515807897
  - # 15
    frequency:    8.5536099307
  - # 16
    frequency:    8.7708289678
  - # 17
    frequency:   12.2912553609
  - # 18
    frequency:   12.3199451424
  - # 19
    frequency:   12.9961053024
  - # 20
    frequency:   34.1774834542
  - # 21
    frequency:   37.7373711275

- q-position: [    0.0757576,    0.0000000,    0.0000000 ]
  distance:    0.0262270
  band:
  - # 1
    frequency:   -6.0778211416
  - # 2
    frequency:   -5.4207773745
  - # 3
    frequency:   -4.0001949990
  - # 4
    frequency:   -3.5364358930
  - # 5
    frequency:   -0.6873141096
  - # 6
    frequency:    0.1044247449
  - # 7
    frequency:    0.6954265107
  - # 8
    frequency:    2.3990237245
  - # 9
    frequency:    2.4503468415
  - # 10
    frequency:    4.2575568918
  - # 11
    frequency:    4.6117237031
  - # 12
    frequency:    4.6566706426
  - # 13
    frequency:    5.0163447942
  - # 14
    frequency:    8.3972016739
  - # 15
    frequency:    8.5364205173
  - # 16
    frequency:    8.7381763062
  - # 17
    frequency:   12.2811991402
  - # 18
    frequency:   12.3181321855
  - # 19
    frequency:   13.0048935814
  - # 20
    frequency:   34.1727758137
  - # 21
    frequency:   37.7140470188

- q-position: [    0.0808081,    0.0000000,    0.0000000 ]
  distance:    0.0279755
  band:
  - # 1
    frequency:   -6.1904437754
  - # 2
    frequency:   -5.4537246770
  - # 3
    frequency:   -3.9919352878
  - # 4
    frequency:   -3.4666057854
  - # 5
    frequency:   -0.7263270120
  - # 6
    frequency:    0.1569573889
  - # 7
    frequency:    0.7448688739
  - # 8
    frequency:    2.4147851633
  - # 9
    frequency:    2.4794727456
  - # 10
    frequency:    4.2652370890
  - # 11
    frequency:    4.5996304678
  - # 12
    frequency:    4.6508162541
  - # 13
    frequency:    5.0468923327
  - # 14
    frequency:    8.3382077547
  - # 15
    frequency:    8.5228534270
  - # 16
    frequency:    8.7041325982
  - # 17
    frequency:   12.2696878250
  - # 18
    frequency:   12.3159815008
  - # 19
    frequency:   13.0134995351
  - # 20
    frequency:   34.1677842151
  - # 21
    frequency:   37.6894446400

- q-position: [    0.0858586,    0.0000000,    0.0000000 ]
  distance:    0.0297240
  band:
  - # 1
    frequency:   -6.3072425735
  - # 2
    frequency:   -5.4885883789
  - # 3
    frequency:   -3.9835024952
  - # 4
    frequency:   -3.3933277939
  - # 5
    frequency:   -0.7652370558
  - # 6
    frequency:    0.2107302099
  - # 7
    frequency:    0.7946923797
  - # 8
    frequency:    2.4316891049
  - # 9
    frequency:    2.5120196002
  - # 10
    frequency:    4.2705191462
  - # 11
    frequency:    4.5901868954
  - # 12
    frequency:    4.6447757407
  - # 13
    frequency:    5.0797827514
  - # 14
    frequency:    8.2774251562
  - # 15
    frequency:    8.5105660238
  - # 16
    frequency:    8.6688406154
  - # 17
    frequency:   12.2567243017
  - # 18
    frequency:   12.3134736761
  - # 19
    frequency:   13.0218022574
  - # 20
    frequency:   34.1625164366
  - # 21
    frequency:   37.6636258866

- q-position: [    0.0909091,    0.0000000,    0.0000000 ]
  distance:    0.0314724
  band:
  - # 1
    frequency:   -6.4276704013
  - # 2
    frequency:   -5.5253432283
  - # 3
    frequency:   -3.9749398380
  - # 4
    frequency:   -3.3168411006
  - # 5
    frequency:   -0.8038684023
  - # 6
    frequency:    0.2670744720
  - # 7
    frequency:    0.8448569023
  - # 8
    frequency:    2.4497543144
  - # 9
    frequency:    2.5481242549
  - # 10
    frequency:    4.2726437112
  - # 11
    frequency:    4.5843916802
  - # 12
    frequency:    4.6385846180
  - # 13
    frequency:    5.1148764872
  - # 14
    frequency:    8.2161897098
  - # 15
    frequency:    8.4986741381
  - # 16
    frequency:    8.6324448693
  - # 17
    frequency:   12.2423276111
  - # 18
    frequency:   12.3105934569
  - # 19
    frequency:   13.0296904315
  - # 20
    frequency:   34.1569806442
  - # 21
    frequency:   37.6366553463

- q-position: [    0.0959596,    0.0000000,    0.0000000 ]
  distance:    0.0332209
  band:
  - # 1
    frequency:   -6.5511654477
  - # 2
    frequency:   -5.5639645191
  - # 3
    frequency:   -3.9662875512
  - # 4
    frequency:   -3.2374237330
  - # 5
    frequency:   -0.8418575262
  - # 6
    frequency:    0.3262427918
  - # 7
    frequency:    0.8953130212
  - # 8
    frequency:    2.4689989355
  - # 9
    frequency:    2.5878781227
  - # 10
    frequency:    4.2709880661
  - # 11
    frequency:    4.5830836805
  - # 12
    frequency:    4.6322803946
  - # 13
    frequency:    5.1520428716
  - # 14
    frequency:    8.1552898232
  - # 15
    frequency:    8.4868070894
  - # 16
    frequency:    8.5950908449
  - # 17
    frequency:   12.2265307718
  - # 18
    frequency:   12.3073301070
  - # 19
    frequency:   13.0370643235
  - # 20
    frequency:   34.1511853726
  - # 21
    frequency:   37.6086000734

- q-position: [    0.1010101,    0.0000000,    0.0000000 ]
  distance:    0.0349694
  band:
  - # 1
    frequency:   -6.6771569159
  - # 2
    frequency:   -5.6044279152
  - # 3
    frequency:   -3.9575823978
  - # 4
    frequency:   -3.1554024428
  - # 5
    frequency:   -0.8786453505
  - # 6
    frequency:    0.3881529333
  - # 7
    frequency:    0.9460025242
  - # 8
    frequency:    2.4894399501
  - # 9
    frequency:    2.6313207625
  - # 10
    frequency:    4.2652478000
  - # 11
    frequency:    4.5867602974
  - # 12
    frequency:    4.6259025341
  - # 13
    frequency:    5.1911575377
  - # 14
    frequency:    8.0952817767
  - # 15
    frequency:    8.4747914476
  - # 16
    frequency:    8.5569242840
  - # 17
    frequency:   12.2093788885
  - # 18
    frequency:   12.3036776885
  - # 19
    frequency:   13.0438371147
  - # 20
    frequency:   34.1451395039
  - # 21
    frequency:   37.5795293552

- q-position: [    0.1060606,    0.0000000,    0.0000000 ]
  distance:    0.0367178
  band:
  - # 1
    frequency:   -6.8050708291
  - # 2
    frequency:   -5.6467092109
  - # 3
    frequency:   -3.9488572414
  - # 4
    frequency:   -3.0711665322
  - # 5
    frequency:   -0.9134709496
  - # 6
    frequency:    0.4526086976
  - # 7
    frequency:    0.9968591597
  - # 8
    frequency:    2.5110925129
  - # 9
    frequency:    2.6784353077
  - # 10
    frequency:    4.2555305496
  - # 11
    frequency:    4.5954832867
  - # 12
    frequency:    4.6194924139
  - # 13
    frequency:    5.2321006209
  - # 14
    frequency:    8.0366017834
  - # 15
    frequency:    8.4625391656
  - # 16
    frequency:    8.5180905173
  - # 17
    frequency:   12.1909275720
  - # 18
    frequency:   12.2996352626
  - # 19
    frequency:   13.0499356321
  - # 20
    frequency:   34.1388522471
  - # 21
    frequency:   37.5495144713

- q-position: [    0.1111111,    0.0000000,    0.0000000 ]
  distance:    0.0384663
  band:
  - # 1
    frequency:   -6.9343357508
  - # 2
    frequency:   -5.6907840361
  - # 3
    frequency:   -3.9401406897
  - # 4
    frequency:   -2.9851872131
  - # 5
    frequency:   -0.9453578943
  - # 6
    frequency:    0.5193871363
  - # 7
    frequency:    1.0478096389
  - # 8
    frequency:    2.5339691502
  - # 9
    frequency:    2.7291459477
  - # 10
    frequency:    4.2422949689
  - # 11
    frequency:    4.6089392209
  - # 12
    frequency:    4.6130932821
  - # 13
    frequency:    5.2747554320
  - # 14
    frequency:    7.9796117889
  - # 15
    frequency:    8.4500030574
  - # 16
    frequency:    8.4787338369
  - # 17
    frequency:   12.1712416564
  - # 18
    frequency:   12.2952070166
  - # 19
    frequency:   13.0553005604
  - # 20
    frequency:   34.1323331157
  - # 21
    frequency:   37.5186284468

- q-position: [    0.1161616,    0.0000000,    0.0000000 ]
  distance:    0.0402148
  band:
  - # 1
    frequency:   -7.0643882366
  - # 2
    frequency:   -5.7366275138
  - # 3
    frequency:   -3.9314568175
  - # 4
    frequency:   -2.8980442347
  - # 5
    frequency:   -0.9730851014
  - # 6
    frequency:    0.5882768894
  - # 7
    frequency:    1.0987748771
  - # 8
    frequency:    2.5580788184
  - # 9
    frequency:    2.7833175295
  - # 10
    frequency:    4.2261877680
  - # 11
    frequency:    4.6067502126
  - # 12
    frequency:    4.6266021147
  - # 13
    frequency:    5.3190072975
  - # 14
    frequency:    7.9246214723
  - # 15
    frequency:    8.4371570875
  - # 16
    frequency:    8.4389969065
  - # 17
    frequency:   12.1503941682
  - # 18
    frequency:   12.2904023217
  - # 19
    frequency:   13.0598862366
  - # 20
    frequency:   34.1255919054
  - # 21
    frequency:   37.4869458004

- q-position: [    0.1212121,    0.0000000,    0.0000000 ]
  distance:    0.0419632
  band:
  - # 1
    frequency:   -7.1946778710
  - # 2
    frequency:   -5.7842138805
  - # 3
    frequency:   -3.9228249755
  - # 4
    frequency:   -2.8104610265
  - # 5
    frequency:   -0.9951353765
  - # 6
    frequency:    0.6590950281
  - # 7
    frequency:    1.1496714519
  - # 8
    frequency:    2.5834258231
  - # 9
    frequency:    2.8407572051
  - # 10
    frequency:    4.2078855406
  - # 11
    frequency:    4.6005100597
  - # 12
    frequency:    4.6478918037
  - # 13
    frequency:    5.3647423157
  - # 14
    frequency:    7.8719009605
  - # 15
    frequency:    8.3990202011
  - # 16
    frequency:    8.4239868703
  - # 17
    frequency:   12.1284654958
  - # 18
    frequency:   12.2852357283
  - # 19
    frequency:   13.0636601196
  - # 20
    frequency:   34.1186386714
  - # 21
    frequency:   37.4545422890

- q-position: [    0.1262626,    0.0000000,    0.0000000 ]
  distance:    0.0437117
  band:
  - # 1
    frequency:   -7.3246717736
  - # 2
    frequency:   -5.8335160793
  - # 3
    frequency:   -3.9142596897
  - # 4
    frequency:   -2.7233475004
  - # 5
    frequency:   -1.0096162083
  - # 6
    frequency:    0.7316939600
  - # 7
    frequency:    1.2004132400
  - # 8
    frequency:    2.6100086167
  - # 9
    frequency:    2.9012178992
  - # 10
    frequency:    4.1880006281
  - # 11
    frequency:    4.5944214117
  - # 12
    frequency:    4.6722690987
  - # 13
    frequency:    5.4118458313
  - # 14
    frequency:    7.8216897363
  - # 15
    frequency:    8.3589414732
  - # 16
    frequency:    8.4104847937
  - # 17
    frequency:   12.1055427028
  - # 18
    frequency:   12.2797269049
  - # 19
    frequency:   13.0666020271
  - # 20
    frequency:   34.1114837048
  - # 21
    frequency:   37.4214946490

- q-position: [    0.1313131,    0.0000000,    0.0000000 ]
  distance:    0.0454602
  band:
  - # 1
    frequency:   -7.4538584987
  - # 2
    frequency:   -5.8845053373
  - # 3
    frequency:   -3.9057706500
  - # 4
    frequency:   -2.6378442506
  - # 5
    frequency:   -1.0141489840
  - # 6
    frequency:    0.8059641482
  - # 7
    frequency:    1.2509131844
  - # 8
    frequency:    2.6378184997
  - # 9
    frequency:    2.9644031892
  - # 10
    frequency:    4.1670486577
  - # 11
    frequency:    4.5885345444
  - # 12
    frequency:    4.6992703614
  - # 13
    frequency:    5.4602004837
  - # 14
    frequency:    7.7742039796
  - # 15
    frequency:    8.3188952370
  - # 16
    frequency:    8.3966474125
  - # 17
    frequency:   12.0817189356
  - # 18
    frequency:   12.2739005274
  - # 19
    frequency:   13.0687032111
  - # 20
    frequency:   34.1041375092
  - # 21
    frequency:   37.3878803362

- q-position: [    0.1363636,    0.0000000,    0.0000000 ]
  distance:    0.0472086
  band:
  - # 1
    frequency:   -7.5817512891
  - # 2
    frequency:   -5.9371507402
  - # 3
    frequency:   -3.8973627882
  - # 4
    frequency:   -2.5553511328
  - # 5
    frequency:   -1.0057238535
  - # 6
    frequency:    0.8818357672
  - # 7
    frequency:    1.3010851261
  - # 8
    frequency:    2.6668382678
  - # 9
    frequency:    3.0299729677
  - # 10
    frequency:    4.1454524635
  - # 11
    frequency:    4.5829013740
  - # 12
    frequency:    4.7285071406
  - # 13
    frequency:    5.5096837294
  - # 14
    frequency:    7.7296432913
  - # 15
    frequency:    8.2790122703
  - # 16
    frequency:    8.3824740389
  - # 17
    frequency:   12.0570928818
  - # 18
    frequency:   12.2677861233
  - # 19
    frequency:   13.0699653380
  - # 20
    frequency:   34.0966107770
  - # 21
    frequency:   37.3537772655

- q-position: [    0.1414141,    0.0000000,    0.0000000 ]
  distance:    0.0489571
  band:
  - # 1
    frequency:   -7.7078906781
  - # 2
    frequency:   -5.9914188147
  - # 3
    frequency:   -3.8890364366
  - # 4
    frequency:   -2.4775070373
  - # 5
    frequency:   -0.9805104075
  - # 6
    frequency:    0.9592810630
  - # 7
    frequency:    1.3508456274
  - # 8
    frequency:    2.6970408586
  - # 9
    frequency:    3.0975489506
  - # 10
    frequency:    4.1235615012
  - # 11
    frequency:    4.5775754089
  - # 12
    frequency:    4.7596522861
  - # 13
    frequency:    5.5601647851
  - # 14
    frequency:    7.6881971946
  - # 15
    frequency:    8.2394191278
  - # 16
    frequency:    8.3679660060
  - # 17
    frequency:   12.0317682477
  - # 18
    frequency:   12.2614178800
  - # 19
    frequency:   13.0703994205
  - # 20
    frequency:   34.0889143651
  - # 21
    frequency:   37.3192635507

- q-position: [    0.1464646,    0.0000000,    0.0000000 ]
  distance:    0.0507056
  band:
  - # 1
    frequency:   -7.8318464612
  - # 2
    frequency:   -6.0472731335
  - # 3
    frequency:   -3.8807875593
  - # 4
    frequency:   -2.4060743269
  - # 5
    frequency:   -0.9335677583
  - # 6
    frequency:    1.0383184189
  - # 7
    frequency:    1.4001157058
  - # 8
    frequency:    2.7283880628
  - # 9
    frequency:    3.1667186325
  - # 10
    frequency:    4.1016761423
  - # 11
    frequency:    4.5726116966
  - # 12
    frequency:    4.7924240255
  - # 13
    frequency:    5.6115009894
  - # 14
    frequency:    7.6500515406
  - # 15
    frequency:    8.2002376648
  - # 16
    frequency:    8.3531263336
  - # 17
    frequency:   12.0058532281
  - # 18
    frequency:   12.2548344181
  - # 19
    frequency:   13.0700247415
  - # 20
    frequency:   34.0810592707
  - # 21
    frequency:   37.2844172465

- q-position: [    0.1515152,    0.0000000,    0.0000000 ]
  distance:    0.0524540
  band:
  - # 1
    frequency:   -7.9532190802
  - # 2
    frequency:   -6.1046739524
  - # 3
    frequency:   -3.8726080440
  - # 4
    frequency:   -2.3426941030
  - # 5
    frequency:   -0.8582060889
  - # 6
    frequency:    1.1190185526
  - # 7
    frequency:    1.4488223927
  - # 8
    frequency:    2.7608293743
  - # 9
    frequency:    3.2370355338
  - # 10
    frequency:    4.0800738642
  - # 11
    frequency:    4.5680667654
  - # 12
    frequency:    4.8265725599
  - # 13
    frequency:    5.6635336513
  - # 14
    frequency:    7.6153947920
  - # 15
    frequency:    8.1615845718
  - # 16
    frequency:    8.3379596526
  - # 17
    frequency:   11.9794599554
  - # 18
    frequency:   12.2480785398
  - # 19
    frequency:   13.0688677972
  - # 20
    frequency:   34.0730566077
  - # 21
    frequency:   37.2493160935