nqpoint: 300    
npath: 3      
segment_nqpoint:
- 100
- 100
- 100
labels:
- [ 'G', 'M' ]
- [ 'M', 'K' ]
- [ 'K', 'G' ]
reciprocal_lattice:
- [   0.30092449,   0.17373884,   0.00000000 ] # a*
- [   0.00000000,   0.34747767,   0.00000000 ] # b*
- [   0.00000000,   0.00000000,   0.03457240 ] # c*
natom: 8      
lattice:
- [     3.323092740108099,     0.000000000000000,     0.000000000000000 ] # a
- [    -1.661546370054049,     2.877882732053223,     0.000000000000000 ] # b
- [     0.000000000000000,     0.000000000000000,    28.924811248736049 ] # c
points:
- symbol: C # 1
  coordinates: [  0.000000000000000,  0.000000000000000,  0.489272564255484 ]
  mass: 12.010700
- symbol: C # 2
  coordinates: [  0.666666984744047,  0.333332985985145,  0.352221818475474 ]
  mass: 12.010700
- symbol: Cl # 3
  coordinates: [  0.333332985432215,  0.666666983183674,  0.688848444935201 ]
  mass: 35.453000
- symbol: N # 4
  coordinates: [  0.666666984744047,  0.333332985985145,  0.311151555064799 ]
  mass: 14.006700
- symbol: O # 5
  coordinates: [  0.333332985432215,  0.666666983183674,  0.570849710070283 ]
  mass: 15.999400
- symbol: O # 6
  coordinates: [  0.666666984744047,  0.333332985985145,  0.398447951009831 ]
  mass: 15.999400
- symbol: Zr # 7
  coordinates: [  0.333332985432215,  0.666666983183674,  0.446695799317243 ]
  mass: 91.224000
- symbol: Zr # 8
  coordinates: [  0.666666984744047,  0.333332985985145,  0.539728618431865 ]
  mass: 91.224000

phonon:
- q-position: [    0.0000000,    0.0000000,    0.0000000 ]
  distance:    0.0000000
  band:
  - # 1
    frequency:   -0.9359690100
  - # 2
    frequency:   -0.9359690100
  - # 3
    frequency:   -0.5686079466
  - # 4
    frequency:   -0.5686079466
  - # 5
    frequency:   -0.0000026386
  - # 6
    frequency:   -0.0000008296
  - # 7
    frequency:    0.0000030741
  - # 8
    frequency:    1.1878030763
  - # 9
    frequency:    3.2255172988
  - # 10
    frequency:    3.2255172988
  - # 11
    frequency:    5.7688152897
  - # 12
    frequency:    6.3289942041
  - # 13
    frequency:    6.3289942041
  - # 14
    frequency:    7.0409257842
  - # 15
    frequency:    7.0409257842
  - # 16
    frequency:    9.1388384842
  - # 17
    frequency:   13.5792633722
  - # 18
    frequency:   13.5792633722
  - # 19
    frequency:   14.0489086127
  - # 20
    frequency:   14.7735565685
  - # 21
    frequency:   14.7735565685
  - # 22
    frequency:   18.2517825905
  - # 23
    frequency:   32.0160619953
  - # 24
    frequency:   67.9072261861

- q-position: [    0.0050505,    0.0000000,    0.0000000 ]
  distance:    0.0017549
  band:
  - # 1
    frequency:   -0.9348919793
  - # 2
    frequency:   -0.9332958469
  - # 3
    frequency:   -0.5895255310
  - # 4
    frequency:   -0.5747005599
  - # 5
    frequency:   -0.3360356167
  - # 6
    frequency:    0.0596669126
  - # 7
    frequency:    0.3565527852
  - # 8
    frequency:    1.1892806960
  - # 9
    frequency:    3.2261963187
  - # 10
    frequency:    3.2263881695
  - # 11
    frequency:    5.7683643873
  - # 12
    frequency:    6.3286377695
  - # 13
    frequency:    6.3286992636
  - # 14
    frequency:    7.0415061256
  - # 15
    frequency:    7.0440705952
  - # 16
    frequency:    9.1381995509
  - # 17
    frequency:   13.5791869496
  - # 18
    frequency:   13.5792657002
  - # 19
    frequency:   14.0487950338
  - # 20
    frequency:   14.7728221154
  - # 21
    frequency:   14.7728878631
  - # 22
    frequency:   18.2513363635
  - # 23
    frequency:   32.0153942059
  - # 24
    frequency:   67.9069163677

- q-position: [    0.0101010,    0.0000000,    0.0000000 ]
  distance:    0.0035099
  band:
  - # 1
    frequency:   -0.9316742867
  - # 2
    frequency:   -0.9255634858
  - # 3
    frequency:   -0.6438138179
  - # 4
    frequency:   -0.5931082187
  - # 5
    frequency:   -0.4639362201
  - # 6
    frequency:    0.1220300502
  - # 7
    frequency:    0.5162954027
  - # 8
    frequency:    1.1938702277
  - # 9
    frequency:    3.2282277616
  - # 10
    frequency:    3.2289950256
  - # 11
    frequency:    5.7670089668
  - # 12
    frequency:    6.3275498200
  - # 13
    frequency:    6.3278304651
  - # 14
    frequency:    7.0432623193
  - # 15
    frequency:    7.0534720090
  - # 16
    frequency:    9.1362840489
  - # 17
    frequency:   13.5789580767
  - # 18
    frequency:   13.5792725881
  - # 19
    frequency:   14.0484547187
  - # 20
    frequency:   14.7706219835
  - # 21
    frequency:   14.7708857684
  - # 22
    frequency:   18.2500000181
  - # 23
    frequency:   32.0133932791
  - # 24
    frequency:   67.9059878413

- q-position: [    0.0151515,    0.0000000,    0.0000000 ]
  distance:    0.0052648
  band:
  - # 1
    frequency:   -0.9263565598
  - # 2
    frequency:   -0.9140601750
  - # 3
    frequency:   -0.7157855010
  - # 4
    frequency:   -0.6237687963
  - # 5
    frequency:   -0.5604077348
  - # 6
    frequency:    0.1882287318
  - # 7
    frequency:    0.6440283790
  - # 8
    frequency:    1.2020914291
  - # 9
    frequency:    3.2315950758
  - # 10
    frequency:    3.2333215618
  - # 11
    frequency:    5.7647409274
  - # 12
    frequency:    6.3256762385
  - # 13
    frequency:    6.3264334534
  - # 14
    frequency:    7.0462386784
  - # 15
    frequency:    7.0690335638
  - # 16
    frequency:    9.1330958666
  - # 17
    frequency:   13.5785779345
  - # 18
    frequency:   13.5792837487
  - # 19
    frequency:   14.0478888597
  - # 20
    frequency:   14.7669658475
  - # 21
    frequency:   14.7675623377
  - # 22
    frequency:   18.2477805252
  - # 23
    frequency:   32.0100665254
  - # 24
    frequency:   67.9044433886

- q-position: [    0.0202020,    0.0000000,    0.0000000 ]
  distance:    0.0070198
  band:
  - # 1
    frequency:   -0.9190110450
  - # 2
    frequency:   -0.9041052951
  - # 3
    frequency:   -0.7958840665
  - # 4
    frequency:   -0.6657495721
  - # 5
    frequency:   -0.6368251507
  - # 6
    frequency:    0.2577769230
  - # 7
    frequency:    0.7532106041
  - # 8
    frequency:    1.2149749232
  - # 9
    frequency:    3.2362716502
  - # 10
    frequency:    3.2393437121
  - # 11
    frequency:    5.7615469212
  - # 12
    frequency:    6.3229327822
  - # 13
    frequency:    6.3245769152
  - # 14
    frequency:    7.0505051524
  - # 15
    frequency:    7.0906024519
  - # 16
    frequency:    9.1286414676
  - # 17
    frequency:   13.5780484796
  - # 18
    frequency:   13.5792987041
  - # 19
    frequency:   14.0470992012
  - # 20
    frequency:   14.7618698064
  - # 21
    frequency:   14.7629376196
  - # 22
    frequency:   18.2446893862
  - # 23
    frequency:   32.0054260843
  - # 24
    frequency:   67.9022876289

- q-position: [    0.0252525,    0.0000000,    0.0000000 ]
  distance:    0.0087747
  band:
  - # 1
    frequency:   -0.9311638303
  - # 2
    frequency:   -0.9097671531
  - # 3
    frequency:   -0.8544974610
  - # 4
    frequency:   -0.7172212817
  - # 5
    frequency:   -0.6864774114
  - # 6
    frequency:    0.3295177872
  - # 7
    frequency:    0.8473569392
  - # 8
    frequency:    1.2342661564
  - # 9
    frequency:    3.2422221953
  - # 10
    frequency:    3.2470339724
  - # 11
    frequency:    5.7574086572
  - # 12
    frequency:    6.3192135936
  - # 13
    frequency:    6.3223436013
  - # 14
    frequency:    7.0561517511
  - # 15
    frequency:    7.1179793598
  - # 16
    frequency:    9.1229298668
  - # 17
    frequency:   13.5773724231
  - # 18
    frequency:   13.5793167883
  - # 19
    frequency:   14.0460876860
  - # 20
    frequency:   14.7553563472
  - # 21
    frequency:   14.7570395982
  - # 22
    frequency:   18.2407424584
  - # 23
    frequency:   31.9994888578
  - # 24
    frequency:   67.8995269946

- q-position: [    0.0303030,    0.0000000,    0.0000000 ]
  distance:    0.0105296
  band:
  - # 1
    frequency:   -1.0276835726
  - # 2
    frequency:   -0.8989620751
  - # 3
    frequency:   -0.8668556978
  - # 4
    frequency:   -0.7758290289
  - # 5
    frequency:   -0.6995592318
  - # 6
    frequency:    0.4023925976
  - # 7
    frequency:    0.9264146714
  - # 8
    frequency:    1.2624363918
  - # 9
    frequency:    3.2494045269
  - # 10
    frequency:    3.2563667981
  - # 11
    frequency:    5.7523034744
  - # 12
    frequency:    6.3144022516
  - # 13
    frequency:    6.3198210342
  - # 14
    frequency:    7.0632813369
  - # 15
    frequency:    7.1509289704
  - # 16
    frequency:    9.1159726004
  - # 17
    frequency:   13.5765531949
  - # 18
    frequency:   13.5793371509
  - # 19
    frequency:   14.0448559801
  - # 20
    frequency:   14.7474542963
  - # 21
    frequency:   14.7499041062
  - # 22
    frequency:   18.2359597146
  - # 23
    frequency:   31.9922764172
  - # 24
    frequency:   67.8961696972

- q-position: [    0.0353535,    0.0000000,    0.0000000 ]
  distance:    0.0122846
  band:
  - # 1
    frequency:   -1.1430707799
  - # 2
    frequency:   -0.8888218518
  - # 3
    frequency:   -0.8825525627
  - # 4
    frequency:   -0.8374674185
  - # 5
    frequency:   -0.6745244829
  - # 6
    frequency:    0.4756692401
  - # 7
    frequency:    0.9892033676
  - # 8
    frequency:    1.3018331734
  - # 9
    frequency:    3.2577716200
  - # 10
    frequency:    3.2673244736
  - # 11
    frequency:    5.7462053253
  - # 12
    frequency:    6.3083844519
  - # 13
    frequency:    6.3170935844
  - # 14
    frequency:    7.0720014372
  - # 15
    frequency:    7.1891894401
  - # 16
    frequency:    9.1077836922
  - # 17
    frequency:   13.5755948892
  - # 18
    frequency:   13.5793587632
  - # 19
    frequency:   14.0434048937
  - # 20
    frequency:   14.7381987620
  - # 21
    frequency:   14.7415747103
  - # 22
    frequency:   18.2303649387
  - # 23
    frequency:   31.9838148854
  - # 24
    frequency:   67.8922256832

- q-position: [    0.0404040,    0.0000000,    0.0000000 ]
  distance:    0.0140395
  band:
  - # 1
    frequency:   -1.2646021074
  - # 2
    frequency:   -0.9171144569
  - # 3
    frequency:   -0.9020770601
  - # 4
    frequency:   -0.8628115089
  - # 5
    frequency:   -0.6202497108
  - # 6
    frequency:    0.5488883180
  - # 7
    frequency:    1.0359507636
  - # 8
    frequency:    1.3527220909
  - # 9
    frequency:    3.2672737882
  - # 10
    frequency:    3.2799027364
  - # 11
    frequency:    5.7390863497
  - # 12
    frequency:    6.3010611640
  - # 13
    frequency:    6.3142368217
  - # 14
    frequency:    7.0824159076
  - # 15
    frequency:    7.2324799367
  - # 16
    frequency:    9.0983796218
  - # 17
    frequency:   13.5745021810
  - # 18
    frequency:   13.5793804282
  - # 19
    frequency:   14.0417337260
  - # 20
    frequency:   14.7276310698
  - # 21
    frequency:   14.7321025669
  - # 22
    frequency:   18.2239853634
  - # 23
    frequency:   31.9741347936
  - # 24
    frequency:   67.8877065814

- q-position: [    0.0454545,    0.0000000,    0.0000000 ]
  distance:    0.0157944
  band:
  - # 1
    frequency:   -1.3889825602
  - # 2
    frequency:   -0.9858258337
  - # 3
    frequency:   -0.9194375935
  - # 4
    frequency:   -0.8486430945
  - # 5
    frequency:   -0.5406394672
  - # 6
    frequency:    0.6217590477
  - # 7
    frequency:    1.0695432423
  - # 8
    frequency:    1.4122953953
  - # 9
    frequency:    3.2778608467
  - # 10
    frequency:    3.2941153343
  - # 11
    frequency:    5.7309192441
  - # 12
    frequency:    6.2923609652
  - # 13
    frequency:    6.3113142893
  - # 14
    frequency:    7.0946173622
  - # 15
    frequency:    7.2805060706
  - # 16
    frequency:    9.0877792990
  - # 17
    frequency:   13.5732802099
  - # 18
    frequency:   13.5794007945
  - # 19
    frequency:   14.0398395611
  - # 20
    frequency:   14.7157986951
  - # 21
    frequency:   14.7215462434
  - # 22
    frequency:   18.2168512520
  - # 23
    frequency:   31.9632709144
  - # 24
    frequency:   67.8826256422

- q-position: [    0.0505051,    0.0000000,    0.0000000 ]
  distance:    0.0175494
  band:
  - # 1
    frequency:   -1.5146071596
  - # 2
    frequency:   -1.0589230865
  - # 3
    frequency:   -0.9319997111
  - # 4
    frequency:   -0.8300228250
  - # 5
    frequency:   -0.4288634823
  - # 6
    frequency:    0.6940829248
  - # 7
    frequency:    1.0940422131
  - # 8
    frequency:    1.4762908162
  - # 9
    frequency:    3.2894841251
  - # 10
    frequency:    3.3099966033
  - # 11
    frequency:    5.7216806544
  - # 12
    frequency:    6.2822502744
  - # 13
    frequency:    6.3083763400
  - # 14
    frequency:    7.1086812197
  - # 15
    frequency:    7.3329635527
  - # 16
    frequency:    9.0760040505
  - # 17
    frequency:   13.5719344197
  - # 18
    frequency:   13.5794183775
  - # 19
    frequency:   14.0377165514
  - # 20
    frequency:   14.7027551944
  - # 21
    frequency:   14.7099715036
  - # 22
    frequency:   18.2089954329
  - # 23
    frequency:   31.9512620723
  - # 24
    frequency:   67.8769976674

- q-position: [    0.0555556,    0.0000000,    0.0000000 ]
  distance:    0.0193043
  band:
  - # 1
    frequency:   -1.6404954159
  - # 2
    frequency:   -1.1336174371
  - # 3
    frequency:   -0.9387195731
  - # 4
    frequency:   -0.8089544810
  - # 5
    frequency:   -0.2498741772
  - # 6
    frequency:    0.7657100871
  - # 7
    frequency:    1.1128349901
  - # 8
    frequency:    1.5409221634
  - # 9
    frequency:    3.3020982245
  - # 10
    frequency:    3.3276010929
  - # 11
    frequency:    5.7113558107
  - # 12
    frequency:    6.2707404148
  - # 13
    frequency:    6.3054604583
  - # 14
    frequency:    7.1246619704
  - # 15
    frequency:    7.3895406169
  - # 16
    frequency:    9.0630776273
  - # 17
    frequency:   13.5704703476
  - # 18
    frequency:   13.5794315871
  - # 19
    frequency:   14.0353552264
  - # 20
    frequency:   14.6885601365
  - # 21
    frequency:   14.6974510527
  - # 22
    frequency:   18.2004527921
  - # 23
    frequency:   31.9381509322
  - # 24
    frequency:   67.8708389339

- q-position: [    0.0606061,    0.0000000,    0.0000000 ]
  distance:    0.0210593
  band:
  - # 1
    frequency:   -1.7659735936
  - # 2
    frequency:   -1.2090628731
  - # 3
    frequency:   -0.9390766886
  - # 4
    frequency:   -0.7856246587
  - # 5
    frequency:    0.2656745642
  - # 6
    frequency:    0.8365171542
  - # 7
    frequency:    1.1281532077
  - # 8
    frequency:    1.6034197132
  - # 9
    frequency:    3.3156624342
  - # 10
    frequency:    3.3469992833
  - # 11
    frequency:    5.6999445807
  - # 12
    frequency:    6.2578908053
  - # 13
    frequency:    6.3025924846
  - # 14
    frequency:    7.1425919048
  - # 15
    frequency:    7.4499197407
  - # 16
    frequency:    9.0490262387
  - # 17
    frequency:   13.5688933547
  - # 18
    frequency:   13.5794387658
  - # 19
    frequency:   14.0327418701
  - # 20
    frequency:   14.6732790349
  - # 21
    frequency:   14.6840642372
  - # 22
    frequency:   18.1912597313
  - # 23
    frequency:   31.9239837681
  - # 24
    frequency:   67.8641671089

- q-position: [    0.0656566,    0.0000000,    0.0000000 ]
  distance:    0.0228142
  band:
  - # 1
    frequency:   -1.8905412339
  - # 2
    frequency:   -1.2847318947
  - # 3
    frequency:   -0.9326929742
  - # 4
    frequency:   -0.7599784649
  - # 5
    frequency:    0.4625756624
  - # 6
    frequency:    0.9063968257
  - # 7
    frequency:    1.1413486375
  - # 8
    frequency:    1.6618085723
  - # 9
    frequency:    3.3301417600
  - # 10
    frequency:    3.3682686356
  - # 11
    frequency:    5.6874690080
  - # 12
    frequency:    6.2438080302
  - # 13
    frequency:    6.2997882737
  - # 14
    frequency:    7.1624821398
  - # 15
    frequency:    7.5137790799
  - # 16
    frequency:    9.0338786241
  - # 17
    frequency:   13.5672082929
  - # 18
    frequency:   13.5794382382
  - # 19
    frequency:   14.0298580125
  - # 20
    frequency:   14.6569832769
  - # 21
    frequency:   14.6698966960
  - # 22
    frequency:   18.1814535996
  - # 23
    frequency:   31.9088102124
  - # 24
    frequency:   67.8570011599

- q-position: [    0.0707071,    0.0000000,    0.0000000 ]
  distance:    0.0245691
  band:
  - # 1
    frequency:   -2.0138048988
  - # 2
    frequency:   -1.3602314293
  - # 3
    frequency:   -0.9191891855
  - # 4
    frequency:   -0.7318645879
  - # 5
    frequency:    0.6054921142
  - # 6
    frequency:    0.9752533606
  - # 7
    frequency:    1.1532517345
  - # 8
    frequency:    1.7146166412
  - # 9
    frequency:    3.3455075417
  - # 10
    frequency:    3.3914797022
  - # 11
    frequency:    5.6739822024
  - # 12
    frequency:    6.2286409985
  - # 13
    frequency:    6.2970554561
  - # 14
    frequency:    7.1843254403
  - # 15
    frequency:    7.5807938861
  - # 16
    frequency:    9.0176661717
  - # 17
    frequency:   13.5654191016
  - # 18
    frequency:   13.5794283736
  - # 19
    frequency:   14.0266800841
  - # 20
    frequency:   14.6397500422
  - # 21
    frequency:   14.6550399573
  - # 22
    frequency:   18.1710721090
  - # 23
    frequency:   31.8926829888
  - # 24
    frequency:   67.8493612583

- q-position: [    0.0757576,    0.0000000,    0.0000000 ]
  distance:    0.0263241
  band:
  - # 1
    frequency:   -2.1354417907
  - # 2
    frequency:   -1.4352487176
  - # 3
    frequency:   -0.8981145677
  - # 4
    frequency:   -0.7010550017
  - # 5
    frequency:    0.7260211855
  - # 6
    frequency:    1.0430008331
  - # 7
    frequency:    1.1644595393
  - # 8
    frequency:    1.7606940340
  - # 9
    frequency:    3.3617376662
  - # 10
    frequency:    3.4166779001
  - # 11
    frequency:    5.6595781543
  - # 12
    frequency:    6.2125728017
  - # 13
    frequency:    6.2943951042
  - # 14
    frequency:    7.2081001393
  - # 15
    frequency:    7.6506380479
  - # 16
    frequency:    9.0004230947
  - # 17
    frequency:   13.5635283354
  - # 18
    frequency:   13.5794076641
  - # 19
    frequency:   14.0231792841
  - # 20
    frequency:   14.6216621995
  - # 21
    frequency:   14.6395909775
  - # 22
    frequency:   18.1601527408
  - # 23
    frequency:   31.8756576286
  - # 24
    frequency:   67.8412686777

- q-position: [    0.0808081,    0.0000000,    0.0000000 ]
  distance:    0.0280790
  band:
  - # 1
    frequency:   -2.2551783414
  - # 2
    frequency:   -1.5095260049
  - # 3
    frequency:   -0.8688917600
  - # 4
    frequency:   -0.6672349225
  - # 5
    frequency:    0.8325865210
  - # 6
    frequency:    1.1095626349
  - # 7
    frequency:    1.1756336759
  - # 8
    frequency:    1.7991338171
  - # 9
    frequency:    3.3788164043
  - # 10
    frequency:    3.4438627585
  - # 11
    frequency:    5.6444016519
  - # 12
    frequency:    6.1958102061
  - # 13
    frequency:    6.2918032026
  - # 14
    frequency:    7.2337744162
  - # 15
    frequency:    7.7229857986
  - # 16
    frequency:    8.9821866805
  - # 17
    frequency:   13.5615366197
  - # 18
    frequency:   13.5793748201
  - # 19
    frequency:   14.0193217151
  - # 20
    frequency:   14.6028081611
  - # 21
    frequency:   14.6236516175
  - # 22
    frequency:   18.1487321558
  - # 23
    frequency:   31.8577921743
  - # 24
    frequency:   67.8327456886

- q-position: [    0.0858586,    0.0000000,    0.0000000 ]
  distance:    0.0298339
  band:
  - # 1
    frequency:   -2.3727769471
  - # 2
    frequency:   -1.5828457577
  - # 3
    frequency:   -0.8307491891
  - # 4
    frequency:   -0.6299742084
  - # 5
    frequency:    0.9276542436
  - # 6
    frequency:    1.1748715130
  - # 7
    frequency:    1.1880489185
  - # 8
    frequency:    1.8292610803
  - # 9
    frequency:    3.3967339162
  - # 10
    frequency:    3.4729677586
  - # 11
    frequency:    5.6286570481
  - # 12
    frequency:    6.1785719404
  - # 13
    frequency:    6.2892718873
  - # 14
    frequency:    7.2613102844
  - # 15
    frequency:    7.7975135756
  - # 16
    frequency:    8.9629976262
  - # 17
    frequency:   13.5594420412
  - # 18
    frequency:   13.5793288827
  - # 19
    frequency:   14.0150688385
  - # 20
    frequency:   14.5832816673
  - # 21
    frequency:   14.6073280518
  - # 22
    frequency:   18.1368456156
  - # 23
    frequency:   31.8391468707
  - # 24
    frequency:   67.8238154490

- q-position: [    0.0909091,    0.0000000,    0.0000000 ]
  distance:    0.0315889
  band:
  - # 1
    frequency:   -2.4880274221
  - # 2
    frequency:   -1.6550210652
  - # 3
    frequency:   -0.7826154502
  - # 4
    frequency:   -0.5886742239
  - # 5
    frequency:    1.0095059012
  - # 6
    frequency:    1.2049871607
  - # 7
    frequency:    1.2388698212
  - # 8
    frequency:    1.8506702969
  - # 9
    frequency:    3.4154854822
  - # 10
    frequency:    3.5038447890
  - # 11
    frequency:    5.6126142465
  - # 12
    frequency:    6.1610770701
  - # 13
    frequency:    6.2867904589
  - # 14
    frequency:    7.2906668022
  - # 15
    frequency:    7.8739019819
  - # 16
    frequency:    8.9429004840
  - # 17
    frequency:   13.5572394770
  - # 18
    frequency:   13.5792693565
  - # 19
    frequency:   14.0103783066
  - # 20
    frequency:   14.5631814640
  - # 21
    frequency:   14.5907301096
  - # 22
    frequency:   18.1245264286
  - # 23
    frequency:   31.8197838467
  - # 24
    frequency:   67.8145018920

- q-position: [    0.0959596,    0.0000000,    0.0000000 ]
  distance:    0.0333438
  band:
  - # 1
    frequency:   -2.6007413175
  - # 2
    frequency:   -1.7258890553
  - # 3
    frequency:   -0.7229324788
  - # 4
    frequency:   -0.5424702533
  - # 5
    frequency:    1.0706903214
  - # 6
    frequency:    1.2342087273
  - # 7
    frequency:    1.3015098457
  - # 8
    frequency:    1.8633056306
  - # 9
    frequency:    3.4350705223
  - # 10
    frequency:    3.5362572226
  - # 11
    frequency:    5.5966100734
  - # 12
    frequency:    6.1435347326
  - # 13
    frequency:    6.2843461979
  - # 14
    frequency:    7.3218022004
  - # 15
    frequency:    7.9518377891
  - # 16
    frequency:    8.9219442401
  - # 17
    frequency:   13.5549198749
  - # 18
    frequency:   13.5791963590
  - # 19
    frequency:   14.0052052256
  - # 20
    frequency:   14.5426108275
  - # 21
    frequency:   14.5739705439
  - # 22
    frequency:   18.1118054293
  - # 23
    frequency:   31.7997667883
  - # 24
    frequency:   67.8048296121

- q-position: [    0.1010101,    0.0000000,    0.0000000 ]
  distance:    0.0350988
  band:
  - # 1
    frequency:   -2.7107480509
  - # 2
    frequency:   -1.7953062306
  - # 3
    frequency:   -0.6492871601
  - # 4
    frequency:   -0.4900397488
  - # 5
    frequency:    1.1025514388
  - # 6
    frequency:    1.2836974911
  - # 7
    frequency:    1.3627541372
  - # 8
    frequency:    1.8675913331
  - # 9
    frequency:    3.4554914704
  - # 10
    frequency:    3.5698844018
  - # 11
    frequency:    5.5810433065
  - # 12
    frequency:    6.1261363303
  - # 13
    frequency:    6.2819250150
  - # 14
    frequency:    7.3546747816
  - # 15
    frequency:    8.0310159249
  - # 16
    frequency:    8.9001830676
  - # 17
    frequency:   13.5524694984
  - # 18
    frequency:   13.5791107878
  - # 19
    frequency:   13.9995038973
  - # 20
    frequency:   14.5216768838
  - # 21
    frequency:   14.5571642314
  - # 22
    frequency:   18.0987105018
  - # 23
    frequency:   31.7791606073
  - # 24
    frequency:   67.7948237493

- q-position: [    0.1060606,    0.0000000,    0.0000000 ]
  distance:    0.0368537
  band:
  - # 1
    frequency:   -2.8178922163
  - # 2
    frequency:   -1.8631450902
  - # 3
    frequency:   -0.5575701408
  - # 4
    frequency:   -0.4291785457
  - # 5
    frequency:    1.1086499169
  - # 6
    frequency:    1.3482463858
  - # 7
    frequency:    1.4225758123
  - # 8
    frequency:    1.8646288864
  - # 9
    frequency:    3.4767525676
  - # 10
    frequency:    3.6043381394
  - # 11
    frequency:    5.5663621162
  - # 12
    frequency:    6.1090509266
  - # 13
    frequency:    6.2795119732
  - # 14
    frequency:    7.3892425569
  - # 15
    frequency:    8.1111413904
  - # 16
    frequency:    8.8776773041
  - # 17
    frequency:   13.5498691569
  - # 18
    frequency:   13.5790145008
  - # 19
    frequency:   13.9932300797
  - # 20
    frequency:   14.5004896668
  - # 21
    frequency:   14.5404273048
  - # 22
    frequency:   18.0852661585
  - # 23
    frequency:   31.7580311050
  - # 24
    frequency:   67.7845098732

- q-position: [    0.1111111,    0.0000000,    0.0000000 ]
  distance:    0.0386086
  band:
  - # 1
    frequency:   -2.9220316832
  - # 2
    frequency:   -1.9292916446
  - # 3
    frequency:   -0.4395260302
  - # 4
    frequency:   -0.3556719331
  - # 5
    frequency:    1.0964473815
  - # 6
    frequency:    1.4176848047
  - # 7
    frequency:    1.4809587957
  - # 8
    frequency:    1.8564801484
  - # 9
    frequency:    3.4988586360
  - # 10
    frequency:    3.6391893918
  - # 11
    frequency:    5.5530435327
  - # 12
    frequency:    6.0924241438
  - # 13
    frequency:    6.2770917134
  - # 14
    frequency:    7.4254616528
  - # 15
    frequency:    8.1919310702
  - # 16
    frequency:    8.8544947283
  - # 17
    frequency:   13.5470934507
  - # 18
    frequency:   13.5789105038
  - # 19
    frequency:   13.9863437785
  - # 20
    frequency:   14.4791608685
  - # 21
    frequency:   14.5238762244
  - # 22
    frequency:   18.0714931828
  - # 23
    frequency:   31.7364446356
  - # 24
    frequency:   67.7739138672

- q-position: [    0.1161616,    0.0000000,    0.0000000 ]
  distance:    0.0403636
  band:
  - # 1
    frequency:   -3.0230362365
  - # 2
    frequency:   -1.9936435625
  - # 3
    frequency:   -0.2708269160
  - # 4
    frequency:   -0.2590897600
  - # 5
    frequency:    1.0683062174
  - # 6
    frequency:    1.4859670613
  - # 7
    frequency:    1.5378979768
  - # 8
    frequency:    1.8465448283
  - # 9
    frequency:    3.5218138887
  - # 10
    frequency:    3.6740013418
  - # 11
    frequency:    5.5415656909
  - # 12
    frequency:    6.0763804058
  - # 13
    frequency:    6.2746488138
  - # 14
    frequency:    7.4632835332
  - # 15
    frequency:    8.2731154031
  - # 16
    frequency:    8.8307122460
  - # 17
    frequency:   13.5441100713
  - # 18
    frequency:   13.5788031392
  - # 19
    frequency:   13.9788125441
  - # 20
    frequency:   14.4578022541
  - # 21
    frequency:   14.5076267974
  - # 22
    frequency:   18.0574083447
  - # 23
    frequency:   31.7144677694
  - # 24
    frequency:   67.7630618138

- q-position: [    0.1212121,    0.0000000,    0.0000000 ]
  distance:    0.0421185
  band:
  - # 1
    frequency:   -3.1207865916
  - # 2
    frequency:   -2.0561087745
  - # 3
    frequency:   -0.0783174768
  - # 4
    frequency:    0.1951120169
  - # 5
    frequency:    1.0248943499
  - # 6
    frequency:    1.5489503965
  - # 7
    frequency:    1.5933992573
  - # 8
    frequency:    1.8399932651
  - # 9
    frequency:    3.5456208229
  - # 10
    frequency:    3.7083642167
  - # 11
    frequency:    5.5323748231
  - # 12
    frequency:    6.0610280332
  - # 13
    frequency:    6.2721681019
  - # 14
    frequency:    7.5026510536
  - # 15
    frequency:    8.3544398956
  - # 16
    frequency:    8.8064181424
  - # 17
    frequency:   13.5408792130
  - # 18
    frequency:   13.5786982649
  - # 19
    frequency:   13.9706151856
  - # 20
    frequency:   14.4365237518
  - # 21
    frequency:   14.4917931596
  - # 22
    frequency:   18.0430241960
  - # 23
    frequency:   31.6921669600
  - # 24
    frequency:   67.7519798810

- q-position: [    0.1262626,    0.0000000,    0.0000000 ]
  distance:    0.0438734
  band:
  - # 1
    frequency:   -3.2151736751
  - # 2
    frequency:   -2.1166044099
  - # 3
    frequency:    0.2375164120
  - # 4
    frequency:    0.3388701811
  - # 5
    frequency:    0.9731381436
  - # 6
    frequency:    1.6020336373
  - # 7
    frequency:    1.6474794713
  - # 8
    frequency:    1.8438849481
  - # 9
    frequency:    3.5702792363
  - # 10
    frequency:    3.7419272664
  - # 11
    frequency:    5.5258500432
  - # 12
    frequency:    6.0464665355
  - # 13
    frequency:    6.2696349398
  - # 14
    frequency:    7.5434932934
  - # 15
    frequency:    8.4356664661
  - # 16
    frequency:    8.7817151335
  - # 17
    frequency:   13.5373531808
  - # 18
    frequency:   13.5786034117
  - # 19
    frequency:   13.9617457291
  - # 20
    frequency:   14.4154312852
  - # 21
    frequency:   14.4764867364
  - # 22
    frequency:   18.0283489532
  - # 23
    frequency:   31.6696082154
  - # 24
    frequency:   67.7406942119

- q-position: [    0.1313131,    0.0000000,    0.0000000 ]
  distance:    0.0456284
  band:
  - # 1
    frequency:   -3.3060980943
  - # 2
    frequency:   -2.1750559803
  - # 3
    frequency:    0.3120274009
  - # 4
    frequency:    0.3470593001
  - # 5
    frequency:    0.9399800922
  - # 6
    frequency:    1.6407854796
  - # 7
    frequency:    1.7001661601
  - # 8
    frequency:    1.8651477232
  - # 9
    frequency:    3.5957853966
  - # 10
    frequency:    3.7744241488
  - # 11
    frequency:    5.5222696088
  - # 12
    frequency:    6.0327954680
  - # 13
    frequency:    6.2670354925
  - # 14
    frequency:    7.5857189884
  - # 15
    frequency:    8.5165746137
  - # 16
    frequency:    8.7567245607
  - # 17
    frequency:   13.5334763033
  - # 18
    frequency:   13.5785279046
  - # 19
    frequency:   13.9522173354
  - # 20
    frequency:   14.3946244837
  - # 21
    frequency:   14.4618152043
  - # 22
    frequency:   18.0133864700
  - # 23
    frequency:   31.6468567774
  - # 24
    frequency:   67.7292308165

- q-position: [    0.1363636,    0.0000000,    0.0000000 ]
  distance:    0.0473833
  band:
  - # 1
    frequency:   -3.3934697434
  - # 2
    frequency:   -2.2313967467
  - # 3
    frequency:   -0.2719207881
  - # 4
    frequency:    0.4311721155
  - # 5
    frequency:    0.9575519316
  - # 6
    frequency:    1.6656260695
  - # 7