nqpoint: 300    
npath: 3      
segment_nqpoint:
- 100
- 100
- 100
labels:
- [ 'G', 'M' ]
- [ 'M', 'K' ]
- [ 'K', 'G' ]
reciprocal_lattice:
- [   0.30522045,   0.17621911,   0.00000000 ] # a*
- [   0.00000000,   0.35243822,   0.00000000 ] # b*
- [   0.00000000,   0.00000000,   0.04382153 ] # c*
natom: 5      
lattice:
- [     3.276320437790166,     0.000000000000000,     0.000000000000000 ] # a
- [    -1.638160218895083,     2.837376730059036,     0.000000000000000 ] # b
- [     0.000000000000000,     0.000000000000000,    22.819833511702967 ] # c
points:
- symbol: F # 1
  coordinates: [  0.666666984744047,  0.333332985985145,  0.394393762574316 ]
  mass: 18.998403
- symbol: Hf # 2
  coordinates: [  0.333332985432215,  0.666666983183674,  0.453651309298223 ]
  mass: 178.490000
- symbol: Hf # 3
  coordinates: [  0.666666984744047,  0.333332985985145,  0.563247058747136 ]
  mass: 178.490000
- symbol: N # 4
  coordinates: [  0.000000000000000,  0.000000000000000,  0.506581727619743 ]
  mass: 14.006700
- symbol: O # 5
  coordinates: [  0.333332985432215,  0.666666983183674,  0.605606237425684 ]
  mass: 15.999400

phonon:
- q-position: [    0.0000000,    0.0000000,    0.0000000 ]
  distance:    0.0000000
  band:
  - # 1
    frequency:   -0.0000109813
  - # 2
    frequency:    0.0000000774
  - # 3
    frequency:    0.0000097230
  - # 4
    frequency:    2.7412453274
  - # 5
    frequency:    2.7412453274
  - # 6
    frequency:    4.9033122276
  - # 7
    frequency:    6.1342574133
  - # 8
    frequency:    6.1342574133
  - # 9
    frequency:   10.5588255707
  - # 10
    frequency:   10.5588255707
  - # 11
    frequency:   10.9970179052
  - # 12
    frequency:   14.3913958685
  - # 13
    frequency:   15.4818713964
  - # 14
    frequency:   15.4818713964
  - # 15
    frequency:   15.7947025593

- q-position: [    0.0050505,    0.0000000,    0.0000000 ]
  distance:    0.0017800
  band:
  - # 1
    frequency:    0.0013865234
  - # 2
    frequency:    0.0365416953
  - # 3
    frequency:    0.0824935637
  - # 4
    frequency:    2.7413432836
  - # 5
    frequency:    2.7420653140
  - # 6
    frequency:    4.9030167713
  - # 7
    frequency:    6.1347277667
  - # 8
    frequency:    6.1347834044
  - # 9
    frequency:   10.5590516997
  - # 10
    frequency:   10.5591463224
  - # 11
    frequency:   10.9967122748
  - # 12
    frequency:   14.3910684884
  - # 13
    frequency:   15.4818637264
  - # 14
    frequency:   15.4820229774
  - # 15
    frequency:   15.7946144012

- q-position: [    0.0101010,    0.0000000,    0.0000000 ]
  distance:    0.0035600
  band:
  - # 1
    frequency:    0.0055413014
  - # 2
    frequency:    0.0731716393
  - # 3
    frequency:    0.1650291806
  - # 4
    frequency:    2.7416346812
  - # 5
    frequency:    2.7445190405
  - # 6
    frequency:    4.9021344644
  - # 7
    frequency:    6.1361353276
  - # 8
    frequency:    6.1363605302
  - # 9
    frequency:   10.5597261022
  - # 10
    frequency:   10.5601091456
  - # 11
    frequency:   10.9957960501
  - # 12
    frequency:   14.3900866329
  - # 13
    frequency:   15.4818396293
  - # 14
    frequency:   15.4824607376
  - # 15
    frequency:   15.7943612131

- q-position: [    0.0151515,    0.0000000,    0.0000000 ]
  distance:    0.0053400
  band:
  - # 1
    frequency:    0.0124498530
  - # 2
    frequency:    0.1099769010
  - # 3
    frequency:    0.2476474137
  - # 4
    frequency:    2.7421121777
  - # 5
    frequency:    2.7485879527
  - # 6
    frequency:    4.9006773555
  - # 7
    frequency:    6.1384696629
  - # 8
    frequency:    6.1389862230
  - # 9
    frequency:   10.5608366809
  - # 10
    frequency:   10.5617157276
  - # 11
    frequency:   10.9942713589
  - # 12
    frequency:   14.3884512685
  - # 13
    frequency:   15.4817958634
  - # 14
    frequency:   15.4831336026
  - # 15
    frequency:   15.7939769676

- q-position: [    0.0202020,    0.0000000,    0.0000000 ]
  distance:    0.0071200
  band:
  - # 1
    frequency:    0.0220882085
  - # 2
    frequency:    0.1470422100
  - # 3
    frequency:    0.3303858747
  - # 4
    frequency:    2.7427637676
  - # 5
    frequency:    2.7542416040
  - # 6
    frequency:    4.8986650716
  - # 7
    frequency:    6.1417135940
  - # 8
    frequency:    6.1426561187
  - # 9
    frequency:   10.5623628006
  - # 10
    frequency:   10.5639688248
  - # 11
    frequency:   10.9921421717
  - # 12
    frequency:   14.3861643659
  - # 13
    frequency:   15.4817270869
  - # 14
    frequency:   15.4839561331
  - # 15
    frequency:   15.7935185705

- q-position: [    0.0252525,    0.0000000,    0.0000000 ]
  distance:    0.0089000
  band:
  - # 1
    frequency:    0.0344231014
  - # 2
    frequency:    0.1844488522
  - # 3
    frequency:    0.4132778115
  - # 4
    frequency:    2.7435731265
  - # 5
    frequency:    2.7614383511
  - # 6
    frequency:    4.8961241604
  - # 7
    frequency:    6.1458434970
  - # 8
    frequency:    6.1473639343
  - # 9
    frequency:   10.5642745894
  - # 10
    frequency:   10.5668721806
  - # 11
    frequency:   10.9894149299
  - # 12
    frequency:   14.3832294009
  - # 13
    frequency:   15.4816259500
  - # 14
    frequency:   15.4848084218
  - # 15
    frequency:   15.7930659502

- q-position: [    0.0303030,    0.0000000,    0.0000000 ]
  distance:    0.0106799
  band:
  - # 1
    frequency:    0.0494122526
  - # 2
    frequency:    0.2222736354
  - # 3
    frequency:    0.4963507699
  - # 4
    frequency:    2.7445200809
  - # 5
    frequency:    2.7701262865
  - # 6
    frequency:    4.8930872147
  - # 7
    frequency:    6.1508296951
  - # 8
    frequency:    6.1531013010
  - # 9
    frequency:   10.5665319870
  - # 10
    frequency:   10.5704304099
  - # 11
    frequency:   10.9860994079
  - # 12
    frequency:   14.3796519784
  - # 13
    frequency:   15.4814832205
  - # 14
    frequency:   15.4855366992
  - # 15
    frequency:   15.7927214924

- q-position: [    0.0353535,    0.0000000,    0.0000000 ]
  distance:    0.0124599
  band:
  - # 1
    frequency:    0.0670047228
  - # 2
    frequency:    0.2605879465
  - # 3
    frequency:    0.5796253484
  - # 4
    frequency:    2.7455811953
  - # 5
    frequency:    2.7802443716
  - # 6
    frequency:    4.8895918179
  - # 7
    frequency:    6.1566369189
  - # 8
    frequency:    6.1598575614
  - # 9
    frequency:   10.5690835654
  - # 10
    frequency:   10.5746488552
  - # 11
    frequency:   10.9822097895
  - # 12
    frequency:   14.3754405160
  - # 13
    frequency:   15.4812879426
  - # 14
    frequency:   15.4859553932
  - # 15
    frequency:   15.7926081246

- q-position: [    0.0404040,    0.0000000,    0.0000000 ]
  distance:    0.0142399
  band:
  - # 1
    frequency:    0.0871413276
  - # 2
    frequency:    0.2994569133
  - # 3
    frequency:    0.6631140607
  - # 4
    frequency:    2.7467304630
  - # 5
    frequency:    2.7917237288
  - # 6
    frequency:    4.8856793575
  - # 7
    frequency:    6.1632248067
  - # 8
    frequency:    6.1676195370
  - # 9
    frequency:   10.5718651574
  - # 10
    frequency:   10.5795334119
  - # 11
    frequency:   10.9777659336
  - # 12
    frequency:   14.3706069180
  - # 13
    frequency:   15.4810276266
  - # 14
    frequency:   15.4858515039
  - # 15
    frequency:   15.7928652384

- q-position: [    0.0454545,    0.0000000,    0.0000000 ]
  distance:    0.0160199
  band:
  - # 1
    frequency:    0.1097551062
  - # 2
    frequency:    0.3389386834
  - # 3
    frequency:    0.7468203169
  - # 4
    frequency:    2.7479400849
  - # 5
    frequency:    2.8044890455
  - # 6
    frequency:    4.8813937550
  - # 7
    frequency:    6.1705484209
  - # 8
    frequency:    6.1763712752
  - # 9
    frequency:   10.5747983460
  - # 10
    frequency:   10.5850903284
  - # 11
    frequency:   10.9727947848
  - # 12
    frequency:   14.3651671717
  - # 13
    frequency:   15.4806884656
  - # 14
    frequency:   15.4849920713
  - # 15
    frequency:   15.7936417173

- q-position: [    0.0505051,    0.0000000,    0.0000000 ]
  distance:    0.0177999
  band:
  - # 1
    frequency:    0.1347718336
  - # 2
    frequency:    0.3790838234
  - # 3
    frequency:    0.8307375304
  - # 4
    frequency:    2.7491813195
  - # 5
    frequency:    2.8184600459
  - # 6
    frequency:    4.8767801623
  - # 7
    frequency:    6.1785587520
  - # 8
    frequency:    6.1860937863
  - # 9
    frequency:   10.5777888888
  - # 10
    frequency:   10.5913259809
  - # 11
    frequency:   10.9673318702
  - # 12
    frequency:   14.3591418107
  - # 13
    frequency:   15.4802555772
  - # 14
    frequency:   15.4831350768
  - # 15
    frequency:   15.7950857597

- q-position: [    0.0555556,    0.0000000,    0.0000000 ]
  distance:    0.0195799
  band:
  - # 1
    frequency:    0.1621105679
  - # 2
    frequency:    0.4199348422
  - # 3
    frequency:    0.9148483500
  - # 4
    frequency:    2.7504253856
  - # 5
    frequency:    2.8335529881
  - # 6
    frequency:    4.8718836696
  - # 7
    frequency:    6.1872031925
  - # 8
    frequency:    6.1967647814
  - # 9
    frequency:   10.5807251890
  - # 10
    frequency:   10.5982466275
  - # 11
    frequency:   10.9614227788
  - # 12
    frequency:   14.3525561993
  - # 13
    frequency:   15.4797132660
  - # 14
    frequency:   15.4800432747
  - # 15
    frequency:   15.7973320197

- q-position: [    0.0606061,    0.0000000,    0.0000000 ]
  distance:    0.0213599
  band:
  - # 1
    frequency:    0.1916842227
  - # 2
    frequency:    0.4615258354
  - # 3
    frequency:    0.9991240170
  - # 4
    frequency:    2.7516443950
  - # 5
    frequency:    2.8496821466
  - # 6
    frequency:    4.8667480662
  - # 7
    frequency:    6.1964259632
  - # 8
    frequency:    6.2083584221
  - # 9
    frequency:   10.5834769812
  - # 10
    frequency:   10.6058581432
  - # 11
    frequency:   10.9551244724
  - # 12
    frequency:   14.3454406144
  - # 13
    frequency:   15.4754993450
  - # 14
    frequency:   15.4790453030
  - # 15
    frequency:   15.8004876691

- q-position: [    0.0656566,    0.0000000,    0.0000000 ]
  distance:    0.0231399
  band:
  - # 1
    frequency:    0.2234001539
  - # 2
    frequency:    0.5038822447
  - # 3
    frequency:    1.0835238381
  - # 4
    frequency:    2.7528122972
  - # 5
    frequency:    2.8667612488
  - # 6
    frequency:    4.8614146928
  - # 7
    frequency:    6.2061684811
  - # 8
    frequency:    6.2208450951
  - # 9
    frequency:   10.5858944823
  - # 10
    frequency:   10.6141657409
  - # 11
    frequency:   10.9485061876
  - # 12
    frequency:   14.3378301126
  - # 13
    frequency:   15.4693198476
  - # 14
    frequency:   15.4782352190
  - # 15
    frequency:   15.8046198853

- q-position: [    0.0707071,    0.0000000,    0.0000000 ]
  distance:    0.0249199
  band:
  - # 1
    frequency:    0.2571607536
  - # 2
    frequency:    0.5470207256
  - # 3
    frequency:    1.1679947664
  - # 4
    frequency:    2.7539058121
  - # 5
    frequency:    2.8847048412
  - # 6
    frequency:    4.8559214119
  - # 7
    frequency:    6.2163696640
  - # 8
    frequency:    6.2341912211
  - # 9
    frequency:   10.5878083628
  - # 10
    frequency:   10.6231736813
  - # 11
    frequency:   10.9416495908
  - # 12
    frequency:   14.3297641906
  - # 13
    frequency:   15.4613652865
  - # 14
    frequency:   15.4772666062
  - # 15
    frequency:   15.8097474199

- q-position: [    0.0757576,    0.0000000,    0.0000000 ]
  distance:    0.0266999
  band:
  - # 1
    frequency:    0.2928640404
  - # 2
    frequency:    0.5909491129
  - # 3
    frequency:    1.2524710744
  - # 4
    frequency:    2.7549053311
  - # 5
    frequency:    2.9034295644
  - # 6
    frequency:    4.8503017216
  - # 7
    frequency:    6.2269661703
  - # 8
    frequency:    6.2483591103
  - # 9
    frequency:   10.5890310106
  - # 10
    frequency:   10.6328849771
  - # 11
    frequency:   10.9346477226
  - # 12
    frequency:   14.3212862554
  - # 13
    frequency:   15.4515444605
  - # 14
    frequency:   15.4761234242
  - # 15
    frequency:   15.8158380241

- q-position: [    0.0808081,    0.0000000,    0.0000000 ]
  distance:    0.0284799
  band:
  - # 1
    frequency:    0.3304042381
  - # 2
    frequency:    0.6356664725
  - # 3
    frequency:    1.3368741063
  - # 4
    frequency:    2.7557957653
  - # 5
    frequency:    2.9228553289
  - # 6
    frequency:    4.8445840277
  - # 7
    frequency:    6.2378925770
  - # 8
    frequency:    6.2633068723
  - # 9
    frequency:   10.5893596501
  - # 10
    frequency:   10.6433010946
  - # 11
    frequency:   10.9276021863
  - # 12
    frequency:   14.3124429324
  - # 13
    frequency:   15.4398128596
  - # 14
    frequency:   15.4747903066
  - # 15
    frequency:   15.8228119207

- q-position: [    0.0858586,    0.0000000,    0.0000000 ]
  distance:    0.0302598
  band:
  - # 1
    frequency:    0.3696723354
  - # 2
    frequency:    0.6811632295
  - # 3
    frequency:    1.4211120897
  - # 4
    frequency:    2.7565673230
  - # 5
    frequency:    2.9429063847
  - # 6
    frequency:    4.8387910867
  - # 7
    frequency:    6.2490815025
  - # 8
    frequency:    6.2789883901
  - # 9
    frequency:   10.5885818667
  - # 10
    frequency:   10.6544216602
  - # 11
    frequency:   10.9206180402
  - # 12
    frequency:   14.3032832417
  - # 13
    frequency:   15.4261664064
  - # 14
    frequency:   15.4732528624
  - # 15
    frequency:   15.8305499633

- q-position: [    0.0909091,    0.0000000,    0.0000000 ]
  distance:    0.0320398
  band:
  - # 1
    frequency:    0.4105566185
  - # 2
    frequency:    0.7274213596
  - # 3
    frequency:    1.5050799887
  - # 4
    frequency:    2.7572161981
  - # 5
    frequency:    2.9635122871
  - # 6
    frequency:    4.8329396231
  - # 7
    frequency:    6.2604636821
  - # 8
    frequency:    6.2953533620
  - # 9
    frequency:   10.5864838730
  - # 10
    frequency:   10.6662441743
  - # 11
    frequency:   10.9137960700
  - # 12
    frequency:   14.2938576770
  - # 13
    frequency:   15.4106326790
  - # 14
    frequency:   15.4714979696
  - # 15
    frequency:   15.8389042925

- q-position: [    0.0959596,    0.0000000,    0.0000000 ]
  distance:    0.0338198
  band:
  - # 1
    frequency:    0.4529431701
  - # 2
    frequency:    0.7744146344
  - # 3
    frequency:    1.5886593782
  - # 4
    frequency:    2.7577451560
  - # 5
    frequency:    2.9846087639
  - # 6
    frequency:    4.8270401232
  - # 7
    frequency:    6.2719680061
  - # 8
    frequency:    6.3123474157
  - # 9
    frequency:   10.5828613472
  - # 10
    frequency:   10.6787637417
  - # 11
    frequency:   10.9072226233
  - # 12
    frequency:   14.2842172163
  - # 13
    frequency:   15.3932616963
  - # 14
    frequency:   15.4695140537
  - # 15
    frequency:   15.8477093530

- q-position: [    0.1010101,    0.0000000,    0.0000000 ]
  distance:    0.0355998
  band:
  - # 1
    frequency:    0.4967163299
  - # 2
    frequency:    0.8221089087
  - # 3
    frequency:    1.6717183205
  - # 4
    frequency:    2.7581640031
  - # 5
    frequency:    3.0061384904
  - # 6
    frequency:    4.8210968008
  - # 7
    frequency:    6.2835215308
  - # 8
    frequency:    6.3299122968
  - # 9
    frequency:   10.5775318873
  - # 10
    frequency:   10.6919728204
  - # 11
    frequency:   10.9009579712
  - # 12
    frequency:   14.2744122937
  - # 13
    frequency:   15.3741177187
  - # 14
    frequency:   15.4672913501
  - # 15
    frequency:   15.8567917741

- q-position: [    0.1060606,    0.0000000,    0.0000000 ]
  distance:    0.0373798
  band:
  - # 1
    frequency:    0.5417591091
  - # 2
    frequency:    0.8704624422
  - # 3
    frequency:    1.7541112266
  - # 4
    frequency:    2.7584899319
  - # 5
    frequency:    3.0280517830
  - # 6
    frequency:    4.8151077301
  - # 7
    frequency:    6.2950494739
  - # 8
    frequency:    6.3479861279
  - # 9
    frequency:   10.5703472779
  - # 10
    frequency:   10.7058609986
  - # 11
    frequency:   10.8950250124
  - # 12
    frequency:   14.2644917540
  - # 13
    frequency:   15.3532727511
  - # 14
    frequency:   15.4648221438
  - # 15
    frequency:   15.8659783864

- q-position: [    0.1111111,    0.0000000,    0.0000000 ]
  distance:    0.0391598
  band:
  - # 1
    frequency:    0.5879535569
  - # 2
    frequency:    0.9194262471
  - # 3
    frequency:    1.8356786882
  - # 4
    frequency:    2.7587477327
  - # 5
    frequency:    3.0503072150
  - # 6
    frequency:    4.8090651356
  - # 7
    frequency:    6.3064752029
  - # 8
    frequency:    6.3665037372
  - # 9
    frequency:   10.5612032566
  - # 10
    frequency:   10.7204148032
  - # 11
    frequency:   10.8894006375
  - # 12
    frequency:   14.2545018095
  - # 13
    frequency:   15.3308018319
  - # 14
    frequency:   15.4621009831
  - # 15
    frequency:   15.8751022602

- q-position: [    0.1161616,    0.0000000,    0.0000000 ]
  distance:    0.0409398
  band:
  - # 1
    frequency:    0.6351810727
  - # 2
    frequency:    0.9689444547
  - # 3
    frequency:    1.9162472759
  - # 4
    frequency:    2.7589698700
  - # 5
    frequency:    3.0728721552
  - # 6
    frequency:    4.8029558292
  - # 7
    frequency:    6.3177202305
  - # 8
    frequency:    6.3853970487
  - # 9
    frequency:   10.5500447205
  - # 10
    frequency:   10.7356175461
  - # 11
    frequency:   10.8840118208
  - # 12
    frequency:   14.2444850109
  - # 13
    frequency:   15.3067798540
  - # 14
    frequency:   15.4591248643
  - # 15
    frequency:   15.8840069963

- q-position: [    0.1212121,    0.0000000,    0.0000000 ]
  distance:    0.0427198
  band:
  - # 1
    frequency:    0.6833226615
  - # 2
    frequency:    1.0189546969
  - # 3
    frequency:    1.9956293089
  - # 4
    frequency:    2.7591964199
  - # 5
    frequency:    3.0957232170
  - # 6
    frequency:    4.7967617831
  - # 7
    frequency:    6.3287042231
  - # 8
    frequency:    6.4045955273
  - # 9
    frequency:   10.5368653833
  - # 10
    frequency:   10.7514492147
  - # 11
    frequency:   10.8787374317
  - # 12
    frequency:   14.2344792449
  - # 13
    frequency:   15.2812795435
  - # 14
    frequency:   15.4558933828
  - # 15
    frequency:   15.8925496286

- q-position: [    0.1262626,    0.0000000,    0.0000000 ]
  distance:    0.0444998
  band:
  - # 1
    frequency:    0.7322591283
  - # 2
    frequency:    1.0693884981
  - # 3
    frequency:    2.0736226230
  - # 4
    frequency:    2.7594748698
  - # 5
    frequency:    3.1188465864
  - # 6
    frequency:    4.7904608259
  - # 7
    frequency:    6.3393450351
  - # 8
    frequency:    6.4240266690
  - # 9
    frequency:   10.5217023709
  - # 10
    frequency:   10.7678864103
  - # 11
    frequency:   10.8734152738
  - # 12
    frequency:   14.2245167633
  - # 13
    frequency:   15.2543702348
  - # 14
    frequency:   15.4524088482
  - # 15
    frequency:   15.9006024922

- q-position: [    0.1313131,    0.0000000,    0.0000000 ]
  distance:    0.0462798
  band:
  - # 1
    frequency:    0.7818712081
  - # 2
    frequency:    1.1201716769
  - # 3
    frequency:    2.1500103910
  - # 4
    frequency:    2.7598597827
  - # 5
    frequency:    3.1422381690
  - # 6
    frequency:    4.7840274509
  - # 7
    frequency:    6.3495587777
  - # 8
    frequency:    6.4436165254
  - # 9
    frequency:   10.5046274516
  - # 10
    frequency:   10.7849023391
  - # 11
    frequency:   10.8678526531
  - # 12
    frequency:   14.2146232510
  - # 13
    frequency:   15.2261171536
  - # 14
    frequency:   15.4486763611
  - # 15
    frequency:   15.9080543444

- q-position: [    0.1363636,    0.0000000,    0.0000000 ]
  distance:    0.0480598
  band:
  - # 1
    frequency:    0.8320396276
  - # 2
    frequency:    1.1712247563
  - # 3
    frequency:    2.2245610931
  - # 4
    frequency:    2.7604123301
  - # 5
    frequency:    3.1659034538
  - # 6
    frequency:    4.7774337240
  - # 7
    frequency:    6.3592599321
  - # 8
    frequency:    6.4632902531
  - # 9
    frequency:   10.4857370415
  - # 10
    frequency:   10.8024668599
  - # 11
    frequency:   10.8618383191
  - # 12
    frequency:   14.2048169383
  - # 13
    frequency:   15.1965810063
  - # 14
    frequency:   15.4447038482
  - # 15
    frequency:   15.9148109460

- q-position: [    0.1414141,    0.0000000,    0.0000000 ]
  distance:    0.0498397
  band:
  - # 1
    frequency:    0.8826450926
  - # 2
    frequency:    1.2224633859
  - # 3
    frequency:    2.2970287868
  - # 4
    frequency:    2.7611996974
  - # 5
    frequency:    3.1898569378
  - # 6
    frequency:    4.7706502815
  - # 7
    frequency:    6.3683615184
  - # 8
    frequency:    6.4829726743
  - # 9
    frequency:   10.4651428226
  - # 10
    frequency:   10.8205465888
  - # 11
    frequency:   10.8551539233
  - # 12
    frequency:   14.1951077624
  - # 13
    frequency:   15.1658177486
  - # 14
    frequency:   15.4405020546
  - # 15
    frequency:   15.9207952415

- q-position: [    0.1464646,    0.0000000,    0.0000000 ]
  distance:    0.0516197
  band:
  - # 1
    frequency:    0.9335681967
  - # 2
    frequency:    1.2737987790
  - # 3
    frequency:    2.3671538973
  - # 4
    frequency:    2.7622943674
  - # 5
    frequency:    3.2141208877
  - # 6
    frequency:    4.7636474074
  - # 7
    frequency:    6.3767753303
  - # 8
    frequency:    6.5025888415
  - # 9
    frequency:   10.4429640847
  - # 10
    frequency:   10.8391050652
  - # 11
    frequency:   10.8475838566
  - # 12
    frequency:   14.1854965864
  - # 13
    frequency:   15.1338784704
  - # 14
    frequency:   15.4360844929
  - # 15
    frequency:   15.9259472195

- q-position: [    0.1515152,    0.0000000,    0.0000000 ]
  distance:    0.0533997
  band:
  - # 1
    frequency:    0.9846892411
  - # 2
    frequency:    1.3251381731
  - # 3
    frequency:    2.4346648193
  - # 4
    frequency:    2.7637732878
  - # 5
    frequency:    3.2387231432
  - # 6
    frequency:    4.7563961803
  - # 7
    frequency:    6.3844122499
  - # 8
    frequency:    6.5220645925
  - # 9
    frequency:   10.4193221694
  - # 10
    frequency:   10.8389230501
  - # 11
    frequency:   10.8581029757
  - # 12
    frequency:   14.1759744823
  - # 13
    frequency:   15.1008093756
  - # 14
    frequency:   15.4314673471
  - # 15
    frequency:   15.9302234989

- q-position: [    0.1565657,    0.0000000,    0.0000000 ]
  distance:    0.0551797
  band:
  - # 1
    frequency:    1.0358879564
  - # 2
    frequency:    1.3763853210
  - # 3
    frequency:    2.4992806787
  - # 4
    frequency:    2.7657169249
  - # 5
    frequency:    3.2636936139
  - # 6
    frequency:    4.7488696814
  - # 7
    frequency:    6.3911826550
  - # 8
    frequency:    6.5413270898
  - # 9
    frequency:   10.3943368797
  - # 10
    frequency:   10.8289828318
  - # 11
    frequency:   10.8774984362
  - # 12
    frequency:   14.1665220882
  - # 13
    frequency:   15.0666518666
  - # 14
    frequency:   15.4266693324
  - # 15
    frequency:   15.9335966582

- q-position: [    0.1616162,    0.0000000,    0.0000000 ]
  distance:    0.0569597
  band:
  - # 1
    frequency:    1.0870431110
  - # 2
    frequency:    1.4274410268
  - # 3
    frequency:    2.5607156054
  - # 4
    frequency:    2.7682082093
  - # 5
    frequency:    3.2890591229
  - # 6
    frequency:    4.7410442506
  - # 7
    frequency:    6.3969969354
  - # 8
    frequency:    6.5603053356
  - # 9
    frequency:   10.3681244576
  - # 10
    frequency:   10.8175951841
  - # 11
    frequency:   10.8972473291
  - # 12
    frequency:   14.1571090470
  - # 13
    frequency:   15.0314427650
  - # 14
    frequency:   15.4217115118
  - # 15
    frequency:   15.9360543150

- q-position: [    0.1666667,    0.0000000,    0.0000000 ]
  distance:    0.0587397
  band:
  - # 1
    frequency:    1.1380319854
  - # 2
    frequency:    1.4782037410
  - # 3
    frequency:    2.6186847620
  - # 4
    frequency:    2.7713313735
  - # 5
    frequency:    3.3148363654
  - # 6
    frequency:    4.7329007775
  - # 7
    frequency:    6.4017661363
  - # 8
    frequency:    6.5789306566
  - # 9
    frequency:   10.3407966787
  - # 10
    frequency:   10.8046157904
  - # 11
    frequency:   10.9173036896
  - # 12
    frequency:   14.1476935331
  - # 13
    frequency:   14.9952147124
  - # 14
    frequency:   15.4166170711
  - # 15
    frequency:   15.9375979509

- q-position: [    0.1717172,    0.0000000,    0.0000000 ]
  distance:    0.0605197
  band:
  - # 1
    frequency:    1.1887296881
  - # 2
    frequency:    1.5285702325
  - # 3
    frequency:    2.6729120922
  - # 4
    frequency:    2.7751706838
  - # 5
    frequency:    3.3410230454
  - # 6
    frequency:    4.7244260047
  - # 7
    frequency:    6.4054027460
  - # 8
    frequency:    6.5971371537
  - # 9
    frequency:   10.3124606601
  - # 10
    frequency:   10.7899262103
  - # 11
    frequency:   10.9376201361
  - # 12
    frequency:   14.1382218704
  - # 13
    frequency:   14.9579967999
  - # 14
    frequency:   15.4114110545
  - # 15
    frequency:   15.9382414827

- q-position: [    0.1767677,    0.0000000,    0.0000000 ]
  distance:    0.0622997
  band:
  - # 1
    frequency:    1.2390082731
  - # 2
    frequency:    1.5784363575
  - # 3
    frequency:    2.7231392583
  - # 4
    frequency:    2.7798090635
  - # 5
    frequency:    3.3675877646
  - # 6
    frequency:    4.7156138126
  - # 7
    frequency:    6.4078216496
  - # 8
    frequency:    6.6148621139
  - # 9
    frequency:   10.2832190673
  - # 10
    frequency:   10.7734354264
  - # 11
    frequency:   10.9581483371
  - # 12
    frequency:   14.1286282358
  - # 13
    frequency:   14.9198154815
  - # 14
    frequency:   15.4061200648
  - # 15
    frequency:   15.9380095784

- q-position: [    0.1818182,    0.0000000,    0.0000000 ]
  distance:    0.0640797
  band:
  - # 1
    frequency:    1.2887356113
  - # 2
    frequency:    1.6276979460
  - # 3
    frequency:    2.7691345895
  - # 4
    frequency:    2.7853266098
  - # 5
    frequency:    3.3944599161
  - # 6
    frequency:    4.7064664373
  - # 7
    frequency:    6.4089412663
  - # 8
    frequency:    6.6320463829
  - # 9
    frequency:   10.2531704970
  - # 10
    frequency:   10.7550809149
  - # 11
    frequency:   10.9788395051
  - # 12
    frequency:   14.1188344350
  - # 13
    frequency:   14.8806958204
  - # 14
    frequency:   15.4007719323
  - # 15
    frequency:   15.9369357313

- q-position: [    0.1868687,    0.0000000,    0.0000000 ]
  distance:    0.0658597
  band:
  - # 1
    frequency:    1.3377739453
  - # 2
    frequency:    1.6762518241
  - # 3
    frequency:    2.7917990018
  - # 4
    frequency:    2.8107002377
  - # 5
    frequency:    3.4215214992
  - # 6
    frequency:    4.6969955530
  - # 7
    frequency:    6.4086848901
  - # 8
    frequency:    6.6486346972
  - # 9
    frequency:   10.2224098851
  - # 10
    frequency:   10.7348293215
  - # 11
    frequency:   10.9996449074
  - # 12
    frequency:   14.1087497216
  - # 13
    frequency:   14.8406631181
  - # 14
    frequency:   15.3953953571
  - # 15
    frequency:   15.9350601110

- q-position: [    0.1919192,    0.0000000,    0.0000000 ]
  distance:    0.0676397
  band:
  - # 1
    frequency:    1.3859780305
  - # 2
    frequency:    1.7239969877
  - # 3
    frequency:    2.7992958066
  - # 4
    frequency:    2.8476754549
  - # 5
    frequency:    3.4486031020
  - # 6
    frequency:    4.6872231234
  - # 7
    frequency:    6.4069822451
  - # 8
    frequency:    6.6645759762
  - # 9
    frequency:   10.1910288432
  - # 10
    frequency:   10.7126767773
  - # 11
    frequency:   11.0205163843
  - # 12
    frequency:   14.0982706196
  - # 13
    frequency:   14.7997449660
  - # 14
    frequency:   15.3900195312
  - # 15
    frequency:   15.9324272266

- q-position: [    0.1969697,    0.0000000,    0.0000000 ]
  distance:    0.0694196
  band:
  - # 1
    frequency:    1.4331927257
  - # 2
    frequency:    1.7708359333
  - # 3
    frequency:    2.8078786955
  - # 4
    frequency:    2.8799342714
  - # 5
    frequency:    3.4754860070
  - # 6
    frequency:    4.6771818933
  - # 7
    frequency:    6.4037712636
  - # 8
    frequency:    6.6798235761
  - # 9
    frequency:   10.1591158629
  - # 10
    frequency:   10.6886488584
  - # 11
    frequency:   11.0414068614
  - # 12
    frequency:   14.0872806888
  - # 13
    frequency:   14.7579737537
  - # 14
    frequency:   15.3846737471
  - # 15
    frequency:   15.9290834507

- q-position: [    0.2020202,    0.0000000,    0.0000000 ]
  distance:    0.0711996
  band:
  - # 1
    frequency:    1.4792498415
  - # 2
    frequency:    1.8166761370
  - # 3
    frequency:    2.8175995949
  - # 4
    frequency:    2.9073769363
  - # 5
    frequency:    3.5019113696
  - # 6
    frequency:    4.6669153614
  - # 7
    frequency:    6.3990000786
  - # 8
    frequency:    6.6943355061
  - # 9
    frequency:   10.1267563522
  - # 10
    frequency:   10.6628001832
  - # 11
    frequency:   11.0622708464
  - # 12
    frequency:   14.0756501613
  - # 13
    frequency:   14.7153896554
  - # 14
    frequency:   15.3793869995
  - # 15
    frequency:   15.9250744659

- q-position: [    0.2070707,    0.0000000,    0.0000000 ]
  distance:    0.0729796
  band:
  - # 1
    frequency:    1.5239639657
  - # 2
    frequency:    1.8614316563
  - # 3
    frequency:    2.8284988140
  - # 4
    frequency:    2.9299160051
  - # 5
    frequency:    3.5275959952
  - # 6
    frequency:    4.6564770530
  - # 7
    frequency:    6.3926292112
  - # 8
    frequency:    6.7080746101
  - # 9
    frequency:   10.0940324828
  - # 10
    frequency:   10.6352136396
  - # 11
    frequency:   11.0830648968
  - # 12
    frequency:   14.0632353688
  - # 13
    frequency:   14.6720441006
  - # 14
    frequency:   15.3741875879
  - # 15
    frequency:   15.9204427078

- q-position: [    0.2121212,    0.0000000,    0.0000000 ]
  distance:    0.0747596
  band:
  - # 1
    frequency:    1.5671268635