nqpoint: 300    
npath: 3      
segment_nqpoint:
- 100
- 100
- 100
labels:
- [ 'G', 'M' ]
- [ 'M', 'K' ]
- [ 'K', 'G' ]
reciprocal_lattice:
- [   0.29966575,   0.17301210,   0.00000000 ] # a*
- [   0.00000000,   0.34602420,   0.00000000 ] # b*
- [   0.00000000,   0.00000000,   0.03576504 ] # c*
natom: 8      
lattice:
- [     3.337051396847421,     0.000000000000000,     0.000000000000000 ] # a
- [    -1.668525698423711,     2.889971283396417,     0.000000000000000 ] # b
- [     0.000000000000000,     0.000000000000000,    27.960267963972370 ] # c
points:
- symbol: C # 1
  coordinates: [  0.000000000000000,  0.000000000000000,  0.506289238740873 ]
  mass: 12.010700
- symbol: C # 2
  coordinates: [  0.666666984744047,  0.333332985985145,  0.364376177643629 ]
  mass: 12.010700
- symbol: N # 3
  coordinates: [  0.666666984744047,  0.333332985985145,  0.321885327121928 ]
  mass: 14.006700
- symbol: O # 4
  coordinates: [  0.333332985432215,  0.666666983183674,  0.678114672878072 ]
  mass: 15.999400
- symbol: O # 5
  coordinates: [  0.666666984744047,  0.333332985985145,  0.412191469660483 ]
  mass: 15.999400
- symbol: P # 6
  coordinates: [  0.333332985432215,  0.666666983183674,  0.624764276385205 ]
  mass: 30.973762
- symbol: Zr # 7
  coordinates: [  0.333332985432215,  0.666666983183674,  0.462065643466164 ]
  mass: 91.224000
- symbol: Zr # 8
  coordinates: [  0.666666984744047,  0.333332985985145,  0.552972249118624 ]
  mass: 91.224000

phonon:
- q-position: [    0.0000000,    0.0000000,    0.0000000 ]
  distance:    0.0000000
  band:
  - # 1
    frequency:   -3.3985677776
  - # 2
    frequency:   -3.3985677776
  - # 3
    frequency:   -0.0000162750
  - # 4
    frequency:    0.0000003730
  - # 5
    frequency:    0.0000119485
  - # 6
    frequency:    0.5371707701
  - # 7
    frequency:    0.5371707702
  - # 8
    frequency:    3.5013131567
  - # 9
    frequency:    3.5013131568
  - # 10
    frequency:    4.6725532629
  - # 11
    frequency:    4.6725532629
  - # 12
    frequency:    4.9835985663
  - # 13
    frequency:    6.4228202939
  - # 14
    frequency:    6.4228202939
  - # 15
    frequency:    8.0572139856
  - # 16
    frequency:    9.7350536273
  - # 17
    frequency:   13.6847406914
  - # 18
    frequency:   13.6847406915
  - # 19
    frequency:   15.4664590568
  - # 20
    frequency:   17.5118933903
  - # 21
    frequency:   17.5118933903
  - # 22
    frequency:   31.8924983974
  - # 23
    frequency:   34.3266070992
  - # 24
    frequency:   67.8237312623

- q-position: [    0.0050505,    0.0000000,    0.0000000 ]
  distance:    0.0017476
  band:
  - # 1
    frequency:   -3.3989605858
  - # 2
    frequency:   -3.3968250914
  - # 3
    frequency:    0.0020546839
  - # 4
    frequency:    0.0472986009
  - # 5
    frequency:    0.0899573096
  - # 6
    frequency:    0.5394077362
  - # 7
    frequency:    0.5433193312
  - # 8
    frequency:    3.5014972717
  - # 9
    frequency:    3.5024540024
  - # 10
    frequency:    4.6711286226
  - # 11
    frequency:    4.6724169508
  - # 12
    frequency:    4.9853223472
  - # 13
    frequency:    6.4228008625
  - # 14
    frequency:    6.4232189215
  - # 15
    frequency:    8.0568101803
  - # 16
    frequency:    9.7343327565
  - # 17
    frequency:   13.6848014858
  - # 18
    frequency:   13.6849480931
  - # 19
    frequency:   15.4664986322
  - # 20
    frequency:   17.5110638593
  - # 21
    frequency:   17.5115163109
  - # 22
    frequency:   31.8920048363
  - # 23
    frequency:   34.3263833398
  - # 24
    frequency:   67.8234954017

- q-position: [    0.0101010,    0.0000000,    0.0000000 ]
  distance:    0.0034952
  band:
  - # 1
    frequency:   -3.4001352928
  - # 2
    frequency:   -3.3916058991
  - # 3
    frequency:    0.0079602604
  - # 4
    frequency:    0.0939565530
  - # 5
    frequency:    0.1791579807
  - # 6
    frequency:    0.5461632495
  - # 7
    frequency:    0.5616076037
  - # 8
    frequency:    3.5020499480
  - # 9
    frequency:    3.5058640868
  - # 10
    frequency:    4.6669662541
  - # 11
    frequency:    4.6720100629
  - # 12
    frequency:    4.9903892101
  - # 13
    frequency:    6.4227425715
  - # 14
    frequency:    6.4244122893
  - # 15
    frequency:    8.0556002209
  - # 16
    frequency:    9.7321710323
  - # 17
    frequency:   13.6849837428
  - # 18
    frequency:   13.6855698606
  - # 19
    frequency:   15.4666166953
  - # 20
    frequency:   17.5085778845
  - # 21
    frequency:   17.5103855217
  - # 22
    frequency:   31.8905253974
  - # 23
    frequency:   34.3257124509
  - # 24
    frequency:   67.8227883259

- q-position: [    0.0151515,    0.0000000,    0.0000000 ]
  distance:    0.0052428
  band:
  - # 1
    frequency:   -3.4020808550
  - # 2
    frequency:   -3.3829368180
  - # 3
    frequency:    0.0176663659
  - # 4
    frequency:    0.1393410543
  - # 5
    frequency:    0.2667562388
  - # 6
    frequency:    0.5575606227
  - # 7
    frequency:    0.5916498522
  - # 8
    frequency:    3.5029721732
  - # 9
    frequency:    3.5115061984
  - # 10
    frequency:    4.6603717565
  - # 11
    frequency:    4.6713387222
  - # 12
    frequency:    4.9985148168
  - # 13
    frequency:    6.4226454338
  - # 14
    frequency:    6.4263928881
  - # 15
    frequency:    8.0535884745
  - # 16
    frequency:    9.7285711170
  - # 17
    frequency:   13.6852870843
  - # 18
    frequency:   13.6866046845
  - # 19
    frequency:   15.4668112601
  - # 20
    frequency:   17.5044433140
  - # 21
    frequency:   17.5085023722
  - # 22
    frequency:   31.8880638097
  - # 23
    frequency:   34.3245955996
  - # 24
    frequency:   67.8216115506

- q-position: [    0.0202020,    0.0000000,    0.0000000 ]
  distance:    0.0069904
  band:
  - # 1
    frequency:   -3.4047792253
  - # 2
    frequency:   -3.3708622663
  - # 3
    frequency:    0.0310209173
  - # 4
    frequency:    0.1828501885
  - # 5
    frequency:    0.3517737667
  - # 6
    frequency:    0.5737677792
  - # 7
    frequency:    0.6330126514
  - # 8
    frequency:    3.5042655718
  - # 9
    frequency:    3.5193187901
  - # 10
    frequency:    4.6517746787
  - # 11
    frequency:    4.6704130614
  - # 12
    frequency:    5.0093052004
  - # 13
    frequency:    6.4225094824
  - # 14
    frequency:    6.4291483220
  - # 15
    frequency:    8.0507822119
  - # 16
    frequency:    9.7235374398
  - # 17
    frequency:   13.6857108819
  - # 18
    frequency:   13.6880503893
  - # 19
    frequency:   15.4670790286
  - # 20
    frequency:   17.4986732044
  - # 21
    frequency:   17.5058691191
  - # 22
    frequency:   31.8846262750
  - # 23
    frequency:   34.3230347274
  - # 24
    frequency:   67.8199675966

- q-position: [    0.0252525,    0.0000000,    0.0000000 ]
  distance:    0.0087380
  band:
  - # 1
    frequency:   -3.4082058700
  - # 2
    frequency:   -3.3554445291
  - # 3
    frequency:    0.0478686297
  - # 4
    frequency:    0.2239617061
  - # 5
    frequency:    0.4331891672
  - # 6
    frequency:    0.5949360076
  - # 7
    frequency:    0.6852983676
  - # 8
    frequency:    3.5059323726
  - # 9
    frequency:    3.5292166362
  - # 10
    frequency:    4.6416526352
  - # 11
    frequency:    4.6692471159
  - # 12
    frequency:    5.0223328712
  - # 13
    frequency:    6.4223347871
  - # 14
    frequency:    6.4326614838
  - # 15
    frequency:    8.0471915960
  - # 16
    frequency:    9.7170761847
  - # 17
    frequency:   13.6862542595
  - # 18
    frequency:   13.6899039447
  - # 19
    frequency:   15.4674154088
  - # 20
    frequency:   17.4912857864
  - # 21
    frequency:   17.5024889374
  - # 22
    frequency:   31.8802214468
  - # 23
    frequency:   34.3210325453
  - # 24
    frequency:   67.8178599815

- q-position: [    0.0303030,    0.0000000,    0.0000000 ]
  distance:    0.0104856
  band:
  - # 1
    frequency:   -3.4123304528
  - # 2
    frequency:   -3.3367638174
  - # 3
    frequency:    0.0680655397
  - # 4
    frequency:    0.2623046088
  - # 5
    frequency:    0.5102462631
  - # 6
    frequency:    0.6211174463
  - # 7
    frequency:    0.7479655487
  - # 8
    frequency:    3.5079753626
  - # 9
    frequency:    3.5410916578
  - # 10
    frequency:    4.6304756549
  - # 11
    frequency:    4.6678586780
  - # 12
    frequency:    5.0371927796
  - # 13
    frequency:    6.4221214770
  - # 14
    frequency:    6.4369107933
  - # 15
    frequency:    8.0428296646
  - # 16
    frequency:    9.7091952744
  - # 17
    frequency:   13.6869160969
  - # 18
    frequency:   13.6921614804
  - # 19
    frequency:   15.4678145399
  - # 20
    frequency:   17.4823044154
  - # 21
    frequency:   17.4983659358
  - # 22
    frequency:   31.8748604024
  - # 23
    frequency:   34.3185925267
  - # 24
    frequency:   67.8152932083

- q-position: [    0.0353535,    0.0000000,    0.0000000 ]
  distance:    0.0122332
  band:
  - # 1
    frequency:   -3.4171176497
  - # 2
    frequency:   -3.3149182850
  - # 3
    frequency:    0.0914783619
  - # 4
    frequency:    0.2977288137
  - # 5
    frequency:    0.5828575705
  - # 6
    frequency:    0.6521868130
  - # 7
    frequency:    0.8199877802
  - # 8
    frequency:    3.5103978269
  - # 9
    frequency:    3.5548138413
  - # 10
    frequency:    4.6186772149
  - # 11
    frequency:    4.6662691147
  - # 12
    frequency:    5.0535316753
  - # 13
    frequency:    6.4218697671
  - # 14
    frequency:    6.4418704938
  - # 15
    frequency:    8.0377123093
  - # 16
    frequency:    9.6999043502
  - # 17
    frequency:   13.6876950340
  - # 18
    frequency:   13.6948183054
  - # 19
    frequency:   15.4682693255
  - # 20
    frequency:   17.4717575085
  - # 21
    frequency:   17.4935051764
  - # 22
    frequency:   31.8685566062
  - # 23
    frequency:   34.3157188980
  - # 24
    frequency:   67.8122727505

- q-position: [    0.0404040,    0.0000000,    0.0000000 ]
  distance:    0.0139808
  band:
  - # 1
    frequency:   -3.4225280541
  - # 2
    frequency:   -3.2900239614
  - # 3
    frequency:    0.1179784979
  - # 4
    frequency:    0.3303340180
  - # 5
    frequency:    0.6516992738
  - # 6
    frequency:    0.6878060707
  - # 7
    frequency:    0.8997691539
  - # 8
    frequency:    3.5132034738
  - # 9
    frequency:    3.5702321775
  - # 10
    frequency:    4.6066458602
  - # 11
    frequency:    4.6645031545
  - # 12
    frequency:    5.0710569499
  - # 13
    frequency:    6.4215799891
  - # 14
    frequency:    6.4475109961
  - # 15
    frequency:    8.0318582484
  - # 16
    frequency:    9.6892147485
  - # 17
    frequency:   13.6885894772
  - # 18
    frequency:   13.6978689309
  - # 19
    frequency:   15.4687714736
  - # 20
    frequency:   17.4596784664
  - # 21
    frequency:   17.4879126978
  - # 22
    frequency:   31.8613258657
  - # 23
    frequency:   34.3124166277
  - # 24
    frequency:   67.8088050344

- q-position: [    0.0454545,    0.0000000,    0.0000000 ]
  distance:    0.0157284
  band:
  - # 1
    frequency:   -3.4285191291
  - # 2
    frequency:   -3.2622145510
  - # 3
    frequency:    0.1474365382
  - # 4
    frequency:    0.3604339980
  - # 5
    frequency:    0.7178417725
  - # 6
    frequency:    0.7274552937
  - # 7
    frequency:    0.9854952656
  - # 8
    frequency:    3.5163963457
  - # 9
    frequency:    3.5871755687
  - # 10
    frequency:    4.5947285025
  - # 11
    frequency:    4.6625886462
  - # 12
    frequency:    5.0895338340
  - # 13
    frequency:    6.4212526242
  - # 14
    frequency:    6.4537992640
  - # 15
    frequency:    8.0252889951
  - # 16
    frequency:    9.6771394741
  - # 17
    frequency:   13.6895976051
  - # 18
    frequency:   13.7013070967
  - # 19
    frequency:   15.4693115447
  - # 20
    frequency:   17.4461055803
  - # 21
    frequency:   17.4815955419
  - # 22
    frequency:   31.8531862792
  - # 23
    frequency:   34.3086914132
  - # 24
    frequency:   67.8048974185

- q-position: [    0.0505051,    0.0000000,    0.0000000 ]
  distance:    0.0174760
  band:
  - # 1
    frequency:   -3.4350461659
  - # 2
    frequency:   -3.2316410433
  - # 3
    frequency:    0.1797191491
  - # 4
    frequency:    0.3884712322
  - # 5
    frequency:    0.7705143140
  - # 6
    frequency:    0.7822949713
  - # 7
    frequency:    1.0755581991
  - # 8
    frequency:    3.5199807144
  - # 9
    frequency:    3.6054536912
  - # 10
    frequency:    4.5832385895
  - # 11
    frequency:    4.6605562976
  - # 12
    frequency:    5.1087776938
  - # 13
    frequency:    6.4208883358
  - # 14
    frequency:    6.4606992295
  - # 15
    frequency:    8.0180288184
  - # 16
    frequency:    9.6636931717
  - # 17
    frequency:   13.6907173768
  - # 18
    frequency:   13.7051258010
  - # 19
    frequency:   15.4698790078
  - # 20
    frequency:   17.4310819244
  - # 21
    frequency:   17.4745617836
  - # 22
    frequency:   31.8441581766
  - # 23
    frequency:   34.3045496659
  - # 24
    frequency:   67.8005581692

- q-position: [    0.0555556,    0.0000000,    0.0000000 ]
  distance:    0.0192236
  band:
  - # 1
    frequency:   -3.4420632086
  - # 2
    frequency:   -3.1984710806
  - # 3
    frequency:    0.2146881844
  - # 4
    frequency:    0.4149227339
  - # 5
    frequency:    0.8163538396
  - # 6
    frequency:    0.8457957103
  - # 7
    frequency:    1.1687381117
  - # 8
    frequency:    3.5239609615
  - # 9
    frequency:    3.6248578561
  - # 10
    frequency:    4.5724651897
  - # 11
    frequency:    4.6584393960
  - # 12
    frequency:    5.1286452759
  - # 13
    frequency:    6.4204880029
  - # 14
    frequency:    6.4681722293
  - # 15
    frequency:    8.0101046996
  - # 16
    frequency:    9.6488920958
  - # 17
    frequency:   13.6919465404
  - # 18
    frequency:   13.7093173340
  - # 19
    frequency:   15.4704623037
  - # 20
    frequency:   17.4146552326
  - # 21
    frequency:   17.4668205637
  - # 22
    frequency:   31.8342640524
  - # 23
    frequency:   34.2999984944
  - # 24
    frequency:   67.7957964346

- q-position: [    0.0606061,    0.0000000,    0.0000000 ]
  distance:    0.0209712
  band:
  - # 1
    frequency:   -3.4495239143
  - # 2
    frequency:   -3.1628880316
  - # 3
    frequency:    0.2522012850
  - # 4
    frequency:    0.4402306351
  - # 5
    frequency:    0.8644022005
  - # 6
    frequency:    0.9088072874
  - # 7
    frequency:    1.2641759502
  - # 8
    frequency:    3.5283414434
  - # 9
    frequency:    3.6451619935
  - # 10
    frequency:    4.5626810706
  - # 11
    frequency:    4.6562735202
  - # 12
    frequency:    5.1490266542
  - # 13
    frequency:    6.4200527501
  - # 14
    frequency:    6.4761774516
  - # 15
    frequency:    8.0015462801
  - # 16
    frequency:    9.6327540801
  - # 17
    frequency:   13.6932826420
  - # 18
    frequency:   13.7138733131
  - # 19
    frequency:   15.4710489166
  - # 20
    frequency:   17.3968777594
  - # 21
    frequency:   17.4583821232
  - # 22
    frequency:   31.8235284920
  - # 23
    frequency:   34.2950456856
  - # 24
    frequency:   67.7906222147

- q-position: [    0.0656566,    0.0000000,    0.0000000 ]
  distance:    0.0227188
  band:
  - # 1
    frequency:   -3.4573823191
  - # 2
    frequency:   -3.1250897326
  - # 3
    frequency:    0.2921132858
  - # 4
    frequency:    0.4647670657
  - # 5
    frequency:    0.9141779875
  - # 6
    frequency:    0.9715931886
  - # 7
    frequency:    1.3612765764
  - # 8
    frequency:    3.5331263430
  - # 9
    frequency:    3.6661239839
  - # 10
    frequency:    4.5541489351
  - # 11
    frequency:    4.6540962459
  - # 12
    frequency:    5.1698384654
  - # 13
    frequency:    6.4195839746
  - # 14
    frequency:    6.4846723852
  - # 15
    frequency:    7.9923858024
  - # 16
    frequency:    9.6152985062
  - # 17
    frequency:   13.6947230367
  - # 18
    frequency:   13.7187847216
  - # 19
    frequency:   15.4716254530
  - # 20
    frequency:   17.3778061251
  - # 21
    frequency:   17.4492578401
  - # 22
    frequency:   31.8119780908
  - # 23
    frequency:   34.2896996845
  - # 24
    frequency:   67.7850463295

- q-position: [    0.0707071,    0.0000000,    0.0000000 ]
  distance:    0.0244664
  band:
  - # 1
    frequency:   -3.4655934941
  - # 2
    frequency:   -3.0852868766
  - # 3
    frequency:    0.3342779600
  - # 4
    frequency:    0.4888257459
  - # 5
    frequency:    0.9652960646
  - # 6
    frequency:    1.0342891198
  - # 7
    frequency:    1.4596181742
  - # 8
    frequency:    3.5383195065
  - # 9
    frequency:    3.6874876683
  - # 10
    frequency:    4.5471254384
  - # 11
    frequency:    4.6519468527
  - # 12
    frequency:    5.1910184703
  - # 13
    frequency:    6.4190833688
  - # 14
    frequency:    6.4936132606
  - # 15
    frequency:    7.9826580414
  - # 16
    frequency:    9.5965462743
  - # 17
    frequency:   13.6962648997
  - # 18
    frequency:   13.7240419491
  - # 19
    frequency:   15.4721777273
  - # 20
    frequency:   17.3575011461
  - # 21
    frequency:   17.4394602664
  - # 22
    frequency:   31.7996413672
  - # 23
    frequency:   34.2839695725
  - # 24
    frequency:   67.7790803843

- q-position: [    0.0757576,    0.0000000,    0.0000000 ]
  distance:    0.0262140
  band:
  - # 1
    frequency:   -3.4741140761
  - # 2
    frequency:   -3.0437010565
  - # 3
    frequency:    0.3785498213
  - # 4
    frequency:    0.5126284123
  - # 5
    frequency:    1.0174587858
  - # 6
    frequency:    1.0969540910
  - # 7
    frequency:    1.5588866283
  - # 8
    frequency:    3.5439242697
  - # 9
    frequency:    3.7089859775
  - # 10
    frequency:    4.5418627289
  - # 11
    frequency:    4.6498660352
  - # 12
    frequency:    5.2125212724
  - # 13
    frequency:    6.4185529364
  - # 14
    frequency:    6.5029554778
  - # 15
    frequency:    7.9724002270
  - # 16
    frequency:    9.5765197741
  - # 17
    frequency:   13.6979052383
  - # 18
    frequency:   13.7296348339
  - # 19
    frequency:   15.4726908550
  - # 20
    frequency:   17.3360276475
  - # 21
    frequency:   17.4290031667
  - # 22
    frequency:   31.7865486685
  - # 23
    frequency:   34.2778650429
  - # 24
    frequency:   67.7727367332

- q-position: [    0.0808081,    0.0000000,    0.0000000 ]
  distance:    0.0279616
  band:
  - # 1
    frequency:   -3.4829026694
  - # 2
    frequency:   -3.0005625013
  - # 3
    frequency:    0.4247858288
  - # 4
    frequency:    0.5363369713
  - # 5
    frequency:    1.0704415187
  - # 6
    frequency:    1.1596026416
  - # 7
    frequency:    1.6588321282
  - # 8
    frequency:    3.5499432732
  - # 9
    frequency:    3.7303456822
  - # 10
    frequency:    4.5386072555
  - # 11
    frequency:    4.6478956251
  - # 12
    frequency:    5.2343149699
  - # 13
    frequency:    6.4179950023
  - # 14
    frequency:    6.5126540125
  - # 15
    frequency:    7.9616519534
  - # 16
    frequency:    9.5552428592
  - # 17
    frequency:   13.6996409049
  - # 18
    frequency:   13.7355527071
  - # 19
    frequency:   15.4731493509
  - # 20
    frequency:   17.3134542624
  - # 21
    frequency:   17.4179015557
  - # 22
    frequency:   31.7727320719
  - # 23
    frequency:   34.2713963764
  - # 24
    frequency:   67.7660284394

- q-position: [    0.0858586,    0.0000000,    0.0000000 ]
  distance:    0.0297091
  band:
  - # 1
    frequency:   -3.4919201191
  - # 2
    frequency:   -2.9561075788
  - # 3
    frequency:    0.4728469182
  - # 4
    frequency:    0.5600662854
  - # 5
    frequency:    1.1240775797
  - # 6
    frequency:    1.2222241961
  - # 7
    frequency:    1.7592414122
  - # 8
    frequency:    3.5563782695
  - # 9
    frequency:    3.7512942368
  - # 10
    frequency:    4.5375956136
  - # 11
    frequency:    4.6460783251
  - # 12
    frequency:    5.2563785365
  - # 13
    frequency:    6.4174122152
  - # 14
    frequency:    6.5226637979
  - # 15
    frequency:    7.9504550766
  - # 16
    frequency:    9.5327408234
  - # 17
    frequency:   13.7014686105
  - # 18
    frequency:   13.7417844377
  - # 19
    frequency:   15.4735372326
  - # 20
    frequency:   17.2898532143
  - # 21
    frequency:   17.4061717352
  - # 22
    frequency:   31.7582252793
  - # 23
    frequency:   34.2645744142
  - # 24
    frequency:   67.7589692347

- q-position: [    0.0909091,    0.0000000,    0.0000000 ]
  distance:    0.0314567
  band:
  - # 1
    frequency:   -3.5011296623
  - # 2
    frequency:   -2.9105761726
  - # 3
    frequency:    0.5225993211
  - # 4
    frequency:    0.5838954065
  - # 5
    frequency:    1.1782447949
  - # 6
    frequency:    1.2847944467
  - # 7
    frequency:    1.8599202586
  - # 8
    frequency:    3.5632299259
  - # 9
    frequency:    3.7715689963
  - # 10
    frequency:    4.5390473671
  - # 11
    frequency:    4.6444574593
  - # 12
    frequency:    5.2786997567
  - # 13
    frequency:    6.4168075425
  - # 14
    frequency:    6.5329400794
  - # 15
    frequency:    7.9388535953
  - # 16
    frequency:    9.5090403815
  - # 17
    frequency:   13.7033849386
  - # 18
    frequency:   13.7483184792
  - # 19
    frequency:   15.4738381271
  - # 20
    frequency:   17.2653000858
  - # 21
    frequency:   17.3938313297
  - # 22
    frequency:   31.7430635068
  - # 23
    frequency:   34.2574105300
  - # 24
    frequency:   67.7515734761

- q-position: [    0.0959596,    0.0000000,    0.0000000 ]
  distance:    0.0332043
  band:
  - # 1
    frequency:   -3.5104969670
  - # 2
    frequency:   -2.8642090647
  - # 3
    frequency:    0.5739156560
  - # 4
    frequency:    0.6078766540
  - # 5
    frequency:    1.2328543145
  - # 6
    frequency:    1.3472819848
  - # 7
    frequency:    1.9606825953
  - # 8
    frequency:    3.5704976250
  - # 9
    frequency:    3.7909286797
  - # 10
    frequency:    4.5431551617
  - # 11
    frequency:    4.6430767414
  - # 12
    frequency:    5.3012735792
  - # 13
    frequency:    6.4161842570
  - # 14
    frequency:    6.5434387388
  - # 15
    frequency:    7.9268935148
  - # 16
    frequency:    9.4841696530
  - # 17
    frequency:   13.7053863603
  - # 18
    frequency:   13.7551429158
  - # 19
    frequency:   15.4740353795
  - # 20
    frequency:   17.2398735744
  - # 21
    frequency:   17.3808993197
  - # 22
    frequency:   31.7272833697
  - # 23
    frequency:   34.2499166005
  - # 24
    frequency:   67.7438561010

- q-position: [    0.1010101,    0.0000000,    0.0000000 ]
  distance:    0.0349519
  band:
  - # 1
    frequency:   -3.5199900729
  - # 2
    frequency:   -2.8172454701
  - # 3
    frequency:    0.6266757819
  - # 4
    frequency:    0.6320426421
  - # 5
    frequency:    1.2878416051
  - # 6
    frequency:    1.4096521398
  - # 7
    frequency:    2.0613439245
  - # 8
    frequency:    3.5781792671
  - # 9
    frequency:    3.8091663396
  - # 10
    frequency:    4.5500730332
  - # 11
    frequency:    4.6419800601
  - # 12
    frequency:    5.3241007838
  - # 13
    frequency:    6.4155459161
  - # 14
    frequency:    6.5541165922
  - # 15
    frequency:    7.9146226901
  - # 16
    frequency:    9.4581581511
  - # 17
    frequency:   13.7074692486
  - # 18
    frequency:   13.7622455105
  - # 19
    frequency:   15.4741121607
  - # 20
    frequency:   17.2136552357
  - # 21
    frequency:   17.3673960714
  - # 22
    frequency:   31.7109227628
  - # 23
    frequency:   34.2421049751
  - # 24
    frequency:   67.7358325815

- q-position: [    0.1060606,    0.0000000,    0.0000000 ]
  distance:    0.0366995
  band:
  - # 1
    frequency:   -3.5295792506
  - # 2
    frequency:   -2.7699208640
  - # 3
    frequency:    0.6564115989
  - # 4
    frequency:    0.6807674067
  - # 5
    frequency:    1.3431593024
  - # 6
    frequency:    1.4718691817
  - # 7
    frequency:    2.1617175903
  - # 8
    frequency:    3.5862710804
  - # 9
    frequency:    3.8261224033
  - # 10
    frequency:    4.5599044850
  - # 11
    frequency:    4.6412112831
  - # 12
    frequency:    5.3471868799
  - # 13
    frequency:    6.4148963333
  - # 14
    frequency:    6.5649316605
  - # 15
    frequency:    7.9020906446
  - # 16
    frequency:    9.4310367758
  - # 17
    frequency:   13.7096298944
  - # 18
    frequency:   13.7696137520
  - # 19
    frequency:   15.4740515721
  - # 20
    frequency:   17.1867292162
  - # 21
    frequency:   17.3533433633
  - # 22
    frequency:   31.6940207370
  - # 23
    frequency:   34.2339884444
  - # 24
    frequency:   67.7275188767

- q-position: [    0.1111111,    0.0000000,    0.0000000 ]
  distance:    0.0384471
  band:
  - # 1
    frequency:   -3.5392367955
  - # 2
    frequency:   -2.7224652218
  - # 3
    frequency:    0.6809913464
  - # 4
    frequency:    0.7360864424
  - # 5
    frequency:    1.3987715728
  - # 6
    frequency:    1.5338975662
  - # 7
    frequency:    2.2616129107
  - # 8
    frequency:    3.5947674428
  - # 9
    frequency:    3.8416958358
  - # 10
    frequency:    4.5726924130
  - # 11
    frequency:    4.6408140765
  - # 12
    frequency:    5.3705411741
  - # 13
    frequency:    6.4142395418
  - # 14
    frequency:    6.5758434185
  - # 15
    frequency:    7.8893483635
  - # 16
    frequency:    9.4028378123
  - # 17
    frequency:   13.7118645213
  - # 18
    frequency:   13.7772349022
  - # 19
    frequency:   15.4738367445
  - # 20
    frequency:   17.1591819794
  - # 21
    frequency:   17.3387644078
  - # 22
    frequency:   31.6766173721
  - # 23
    frequency:   34.2255802073
  - # 24
    frequency:   67.7189313837

- q-position: [    0.1161616,    0.0000000,    0.0000000 ]
  distance:    0.0401947
  band:
  - # 1
    frequency:   -3.5489367757
  - # 2
    frequency:   -2.6751017517
  - # 3
    frequency:    0.7057822643
  - # 4
    frequency:    0.7925370990
  - # 5
    frequency:    1.4546496785
  - # 6
    frequency:    1.5957026171
  - # 7
    frequency:    2.3608344782
  - # 8
    frequency:    3.6036607231
  - # 9
    frequency:    3.8558514355
  - # 10
    frequency:    4.5884129861
  - # 11
    frequency:    4.6408317372
  - # 12
    frequency:    5.3941759608
  - # 13
    frequency:    6.4135797526
  - # 14
    frequency:    6.5868130262
  - # 15
    frequency:    7.8764480554
  - # 16
    frequency:    9.3735949331
  - # 17
    frequency:   13.7141693013
  - # 18
    frequency:   13.7850960432
  - # 19
    frequency:   15.4734509272
  - # 20
    frequency:   17.1311020252
  - # 21
    frequency:   17.3236838671
  - # 22
    frequency:   31.6587536461
  - # 23
    frequency:   34.2168938380
  - # 24
    frequency:   67.7100868885

- q-position: [    0.1212121,    0.0000000,    0.0000000 ]
  distance:    0.0419423
  band:
  - # 1
    frequency:   -3.5586547512
  - # 2
    frequency:   -2.6280461502
  - # 3
    frequency:    0.7307794905
  - # 4
    frequency:    0.8500317100
  - # 5
    frequency:    1.5107684985
  - # 6
    frequency:    1.6572508793
  - # 7
    frequency:    2.4591820949
  - # 8
    frequency:    3.6129411477
  - # 9
    frequency:    3.8686218851
  - # 10
    frequency:    4.6069749771
  - # 11
    frequency:    4.6413070337
  - # 12
    frequency:    5.4181057961
  - # 13
    frequency:    6.4129213059
  - # 14
    frequency:    6.5978035483
  - # 15
    frequency:    7.8634428804
  - # 16
    frequency:    9.3433432066
  - # 17
    frequency:   13.7165403698
  - # 18
    frequency:   13.7931841234
  - # 19
    frequency:   15.4728775636
  - # 20
    frequency:   17.1025796081
  - # 21
    frequency:   17.3081278635
  - # 22
    frequency:   31.6404713030
  - # 23
    frequency:   34.2079432516
  - # 24
    frequency:   67.7010025154

- q-position: [    0.1262626,    0.0000000,    0.0000000 ]
  distance:    0.0436899
  band:
  - # 1
    frequency:   -3.5683674806
  - # 2
    frequency:   -2.5815063537
  - # 3
    frequency:    0.7559745519
  - # 4
    frequency:    0.9084902884
  - # 5
    frequency:    1.5671038191
  - # 6
    frequency:    1.7185102792
  - # 7
    frequency:    2.5564509036
  - # 8
    frequency:    3.6225967029
  - # 9
    frequency:    3.8801043316
  - # 10
    frequency:    4.6282248939
  - # 11
    frequency:    4.6422820511
  - # 12
    frequency:    5.4423468278
  - # 13
    frequency:    6.4122686171
  - # 14
    frequency:    6.6087801692
  - # 15
    frequency:    7.8503866408
  - # 16
    frequency:    9.3121191081
  - # 17
    frequency:   13.7189738410
  - # 18
    frequency:   13.8014860028
  - # 19
    frequency:   15.4721003490
  - # 20
    frequency:   17.0737064572
  - # 21
    frequency:   17.2921239821
  - # 22
    frequency:   31.6218127170
  - # 23
    frequency:   34.1987426692
  - # 24
    frequency:   67.6916956761

- q-position: [    0.1313131,    0.0000000,    0.0000000 ]
  distance:    0.0454375
  band:
  - # 1
    frequency:   -3.5780526326
  - # 2
    frequency:   -2.5356827103
  - # 3
    frequency:    0.7813565671
  - # 4
    frequency:    0.9678398221
  - # 5
    frequency:    1.6236302453
  - # 6
    frequency:    1.7794501733
  - # 7
    frequency:    2.6524313299
  - # 8
    frequency:    3.6326130804
  - # 9
    frequency:    3.8904525582
  - # 10
    frequency:    4.6437980328
  - # 11
    frequency:    4.6519569896
  - # 12
    frequency:    5.4669161587
  - # 13
    frequency:    6.4116261195
  - # 14
    frequency:    6.6197104080
  - # 15
    frequency:    7.8373334317
  - # 16
    frequency:    9.2799605363
  - # 17
    frequency:   13.7214658223
  - # 18
    frequency:   13.8099884977
  - # 19
    frequency:   15.4711032666
  - # 20
    frequency:   17.0445755012
  - # 21
    frequency:   17.2757012657
  - # 22
    frequency:   31.6028207564
  - # 23
    frequency:   34.1893065826
  - # 24
    frequency:   67.6821840183

- q-position: [    0.1363636,    0.0000000,    0.0000000 ]
  distance:    0.0471851
  band:
  - # 1
    frequency:   -3.5876885142
  - # 2
    frequency:   -2.4907684496
  - # 3
    frequency:    0.8069131260
  - # 4
    frequency:    1.0280133278
  - # 5
    frequency:    1.6803196254
  - # 6
    frequency:    1.8400413319
  - # 7