nqpoint: 300    
npath: 3      
segment_nqpoint:
- 100
- 100
- 100
labels:
- [ 'G', 'M' ]
- [ 'M', 'K' ]
- [ 'K', 'G' ]
reciprocal_lattice:
- [   0.30492500,   0.17604853,   0.00000000 ] # a*
- [   0.00000000,   0.35209706,   0.00000000 ] # b*
- [   0.00000000,   0.00000000,   0.03450892 ] # c*
natom: 8      
lattice:
- [     3.279494999987588,     0.000000000000000,     0.000000000000000 ] # a
- [    -1.639747499993794,     2.840125981573329,     0.000000000000000 ] # b
- [     0.000000000000000,     0.000000000000000,    28.978011610758781 ] # c
points:
- symbol: C # 1
  coordinates: [  0.666666984744047,  0.333332985985145,  0.352135927066862 ]
  mass: 12.010700
- symbol: Cl # 2
  coordinates: [  0.333332985432215,  0.666666983183674,  0.689419684107707 ]
  mass: 35.453000
- symbol: N # 3
  coordinates: [  0.000000000000000,  0.000000000000000,  0.491136779048822 ]
  mass: 14.006700
- symbol: N # 4
  coordinates: [  0.666666984744047,  0.333332985985145,  0.395229520434916 ]
  mass: 14.006700
- symbol: O # 5
  coordinates: [  0.333332985432215,  0.666666983183674,  0.569139788500915 ]
  mass: 15.999400
- symbol: O # 6
  coordinates: [  0.666666984744047,  0.333332985985145,  0.310580315892293 ]
  mass: 15.999400
- symbol: Zr # 7
  coordinates: [  0.333332985432215,  0.666666983183674,  0.445511656303025 ]
  mass: 91.224000
- symbol: Zr # 8
  coordinates: [  0.666666984744047,  0.333332985985145,  0.536920037097568 ]
  mass: 91.224000

phonon:
- q-position: [    0.0000000,    0.0000000,    0.0000000 ]
  distance:    0.0000000
  band:
  - # 1
    frequency:   -0.0000007786
  - # 2
    frequency:   -0.0000001082
  - # 3
    frequency:    0.0000010420
  - # 4
    frequency:    0.8879919156
  - # 5
    frequency:    0.9076689495
  - # 6
    frequency:    0.9076689495
  - # 7
    frequency:    1.5193057244
  - # 8
    frequency:    1.5193057244
  - # 9
    frequency:    3.3824460207
  - # 10
    frequency:    3.3824460207
  - # 11
    frequency:    5.4376815896
  - # 12
    frequency:    6.8075118366
  - # 13
    frequency:    6.8075118366
  - # 14
    frequency:    8.7982293871
  - # 15
    frequency:   10.7226858666
  - # 16
    frequency:   10.7226858666
  - # 17
    frequency:   14.2506741399
  - # 18
    frequency:   14.7775740250
  - # 19
    frequency:   14.7775740250
  - # 20
    frequency:   15.7952984629
  - # 21
    frequency:   16.3872268784
  - # 22
    frequency:   16.3872268784
  - # 23
    frequency:   37.9128893177
  - # 24
    frequency:   68.8602983488

- q-position: [    0.0050505,    0.0000000,    0.0000000 ]
  distance:    0.0017783
  band:
  - # 1
    frequency:   -0.0026091562
  - # 2
    frequency:    0.0259948333
  - # 3
    frequency:    0.0923677506
  - # 4
    frequency:    0.8890128938
  - # 5
    frequency:    0.9090665960
  - # 6
    frequency:    0.9112948057
  - # 7
    frequency:    1.5158935486
  - # 8
    frequency:    1.5176016829
  - # 9
    frequency:    3.3829179931
  - # 10
    frequency:    3.3842134257
  - # 11
    frequency:    5.4371893417
  - # 12
    frequency:    6.8078752948
  - # 13
    frequency:    6.8086575257
  - # 14
    frequency:    8.7976132461
  - # 15
    frequency:   10.7228084174
  - # 16
    frequency:   10.7230542700
  - # 17
    frequency:   14.2506947810
  - # 18
    frequency:   14.7767746618
  - # 19
    frequency:   14.7772615794
  - # 20
    frequency:   15.7956360068
  - # 21
    frequency:   16.3872241313
  - # 22
    frequency:   16.3873691129
  - # 23
    frequency:   37.9129251592
  - # 24
    frequency:   68.8591675050

- q-position: [    0.0101010,    0.0000000,    0.0000000 ]
  distance:    0.0035565
  band:
  - # 1
    frequency:   -0.0106458898
  - # 2
    frequency:    0.0519907974
  - # 3
    frequency:    0.1830497476
  - # 4
    frequency:    0.8919277970
  - # 5
    frequency:    0.9132128915
  - # 6
    frequency:    0.9222265822
  - # 7
    frequency:    1.5058666504
  - # 8
    frequency:    1.5125088839
  - # 9
    frequency:    3.3843321148
  - # 10
    frequency:    3.3895016793
  - # 11
    frequency:    5.4357236905
  - # 12
    frequency:    6.8089651917
  - # 13
    frequency:    6.8120830727
  - # 14
    frequency:    8.7957669962
  - # 15
    frequency:   10.7231728641
  - # 16
    frequency:   10.7241587885
  - # 17
    frequency:   14.2507563925
  - # 18
    frequency:   14.7743775259
  - # 19
    frequency:   14.7763247675
  - # 20
    frequency:   15.7966477855
  - # 21
    frequency:   16.3872158849
  - # 22
    frequency:   16.3877954992
  - # 23
    frequency:   37.9130326474
  - # 24
    frequency:   68.8557771807

- q-position: [    0.0151515,    0.0000000,    0.0000000 ]
  distance:    0.0053348
  band:
  - # 1
    frequency:   -0.0247634474
  - # 2
    frequency:    0.0779771955
  - # 3
    frequency:    0.2702452484
  - # 4
    frequency:    0.8965844249
  - # 5
    frequency:    0.9199656312
  - # 6
    frequency:    0.9402670617
  - # 7
    frequency:    1.4899405566
  - # 8
    frequency:    1.5040891743
  - # 9
    frequency:    3.3866830221
  - # 10
    frequency:    3.3982693541
  - # 11
    frequency:    5.4333175291
  - # 12
    frequency:    6.8107800913
  - # 13
    frequency:    6.8177543154
  - # 14
    frequency:    8.7926971275
  - # 15
    frequency:   10.7237696864
  - # 16
    frequency:   10.7259973542
  - # 17
    frequency:   14.2508580175
  - # 18
    frequency:   14.7703854810
  - # 19
    frequency:   14.7747651590
  - # 20
    frequency:   15.7983312385
  - # 21
    frequency:   16.3872021260
  - # 22
    frequency:   16.3885050878
  - # 23
    frequency:   37.9132116732
  - # 24
    frequency:   68.8501339915

- q-position: [    0.0202020,    0.0000000,    0.0000000 ]
  distance:    0.0071131
  band:
  - # 1
    frequency:   -0.0461367367
  - # 2
    frequency:    0.1039198618
  - # 3
    frequency:    0.3519401630
  - # 4
    frequency:    0.9030103578
  - # 5
    frequency:    0.9290790114
  - # 6
    frequency:    0.9645417757
  - # 7
    frequency:    1.4696357468
  - # 8
    frequency:    1.4924595120
  - # 9
    frequency:    3.3899618480
  - # 10
    frequency:    3.4104488918
  - # 11
    frequency:    5.4300244387
  - # 12
    frequency:    6.8133175886
  - # 13
    frequency:    6.8256156079
  - # 14
    frequency:    8.7884143622
  - # 15
    frequency:   10.7245833351
  - # 16
    frequency:   10.7285665442
  - # 17
    frequency:   14.2509979926
  - # 18
    frequency:   14.7648033070
  - # 19
    frequency:   14.7725853541
  - # 20
    frequency:   15.8006820941
  - # 21
    frequency:   16.3871828370
  - # 22
    frequency:   16.3894963048
  - # 23
    frequency:   37.9134620553
  - # 24
    frequency:   68.8422489432

- q-position: [    0.0252525,    0.0000000,    0.0000000 ]
  distance:    0.0088913
  band:
  - # 1
    frequency:   -0.0766128630
  - # 2
    frequency:    0.1297495259
  - # 3
    frequency:    0.4258416723
  - # 4
    frequency:    0.9113492165
  - # 5
    frequency:    0.9401860018
  - # 6
    frequency:    0.9930497572
  - # 7
    frequency:    1.4479022224
  - # 8
    frequency:    1.4778164773
  - # 9
    frequency:    3.3941563306
  - # 10
    frequency:    3.4259487271
  - # 11
    frequency:    5.4259169505
  - # 12
    frequency:    6.8165742934
  - # 13
    frequency:    6.8355916318
  - # 14
    frequency:    8.7829335177
  - # 15
    frequency:   10.7255926968
  - # 16
    frequency:   10.7318616152
  - # 17
    frequency:   14.2511738491
  - # 18
    frequency:   14.7576377113
  - # 19
    frequency:   14.7697889603
  - # 20
    frequency:   15.8036943615
  - # 21
    frequency:   16.3871580025
  - # 22
    frequency:   16.3907669636
  - # 23
    frequency:   37.9137835400
  - # 24
    frequency:   68.8321374020

- q-position: [    0.0303030,    0.0000000,    0.0000000 ]
  distance:    0.0106696
  band:
  - # 1
    frequency:   -0.1189488594
  - # 2
    frequency:    0.1553492761
  - # 3
    frequency:    0.4893614446
  - # 4
    frequency:    0.9218729759
  - # 5
    frequency:    0.9527641853
  - # 6
    frequency:    1.0218641188
  - # 7
    frequency:    1.4301372757
  - # 8
    frequency:    1.4604789111
  - # 9
    frequency:    3.3992509609
  - # 10
    frequency:    3.4446560606
  - # 11
    frequency:    5.4210843386
  - # 12
    frequency:    6.8205458065
  - # 13
    frequency:    6.8475897008
  - # 14
    frequency:    8.7762733287
  - # 15
    frequency:   10.7267717228
  - # 16
    frequency:   10.7358765517
  - # 17
    frequency:   14.2513821830
  - # 18
    frequency:   14.7488973457
  - # 19
    frequency:   14.7663805601
  - # 20
    frequency:   15.8073603181
  - # 21
    frequency:   16.3871276187
  - # 22
    frequency:   16.3923142813
  - # 23
    frequency:   37.9141758018
  - # 24
    frequency:   68.8198190524

- q-position: [    0.0353535,    0.0000000,    0.0000000 ]
  distance:    0.0124479
  band:
  - # 1
    frequency:   -0.1770842206
  - # 2
    frequency:    0.1805391137
  - # 3
    frequency:    0.5397241390
  - # 4
    frequency:    0.9350694825
  - # 5
    frequency:    0.9660743920
  - # 6
    frequency:    1.0447980696
  - # 7
    frequency:    1.4248898525
  - # 8
    frequency:    1.4409588950
  - # 9
    frequency:    3.4052271682
  - # 10
    frequency:    3.4664401133
  - # 11
    frequency:    5.4156301247
  - # 12
    frequency:    6.8252266900
  - # 13
    frequency:    6.8615023739
  - # 14
    frequency:    8.7684562371
  - # 15
    frequency:   10.7280901988
  - # 16
    frequency:   10.7406041258
  - # 17
    frequency:   14.2516185028
  - # 18
    frequency:   14.7385928302
  - # 19
    frequency:   14.7623656719
  - # 20
    frequency:   15.8116704889
  - # 21
    frequency:   16.3870917039
  - # 22
    frequency:   16.3941348987
  - # 23
    frequency:   37.9146384438
  - # 24
    frequency:   68.8053178436

- q-position: [    0.0404040,    0.0000000,    0.0000000 ]
  distance:    0.0142261
  band:
  - # 1
    frequency:   -0.2560924090
  - # 2
    frequency:    0.2050538799
  - # 3
    frequency:    0.5746131144
  - # 4
    frequency:    0.9516932647
  - # 5
    frequency:    0.9790587341
  - # 6
    frequency:    1.0563488402
  - # 7
    frequency:    1.4200747721
  - # 8
    frequency:    1.4414346176
  - # 9
    frequency:    3.4120635401
  - # 10
    frequency:    3.4911556889
  - # 11
    frequency:    5.4096694788
  - # 12
    frequency:    6.8306104311
  - # 13
    frequency:    6.8772101863
  - # 14
    frequency:    8.7595081648
  - # 15
    frequency:   10.7295146323
  - # 16
    frequency:   10.7460359687
  - # 17
    frequency:   14.2518770623
  - # 18
    frequency:   14.7267367860
  - # 19
    frequency:   14.7577507037
  - # 20
    frequency:   15.8166136184
  - # 21
    frequency:   16.3870503116
  - # 22
    frequency:   16.3962249039
  - # 23
    frequency:   37.9151709984
  - # 24
    frequency:   68.7886619243

- q-position: [    0.0454545,    0.0000000,    0.0000000 ]
  distance:    0.0160044
  band:
  - # 1
    frequency:   -0.3607121631
  - # 2
    frequency:    0.2285079421
  - # 3
    frequency:    0.5942407732
  - # 4
    frequency:    0.9724910861
  - # 5
    frequency:    0.9901915799
  - # 6
    frequency:    1.0581327469
  - # 7
    frequency:    1.3991144343
  - # 8
    frequency:    1.4832951260
  - # 9
    frequency:    3.4197360721
  - # 10
    frequency:    3.5186468763
  - # 11
    frequency:    5.4033266764
  - # 12
    frequency:    6.8366894005
  - # 13
    frequency:    6.8945843302
  - # 14
    frequency:    8.7494582807
  - # 15
    frequency:   10.7310092277
  - # 16
    frequency:   10.7521626515
  - # 17
    frequency:   14.2521506897
  - # 18
    frequency:   14.7133438782
  - # 19
    frequency:   14.7525429022
  - # 20
    frequency:   15.8221766305
  - # 21
    frequency:   16.3870035436
  - # 22
    frequency:   16.3985798581
  - # 23
    frequency:   37.9157729277
  - # 24
    frequency:   68.7698835657

- q-position: [    0.0505051,    0.0000000,    0.0000000 ]
  distance:    0.0177827
  band:
  - # 1
    frequency:   -0.4913831529
  - # 2
    frequency:    0.2503345182
  - # 3
    frequency:    0.6040520509
  - # 4
    frequency:    0.9971248215
  - # 5
    frequency:    0.9973219254
  - # 6
    frequency:    1.0591986171
  - # 7
    frequency:    1.3800148307
  - # 8
    frequency:    1.5463797818
  - # 9
    frequency:    3.4282184442
  - # 10
    frequency:    3.5487507510
  - # 11
    frequency:    5.3967327403
  - # 12
    frequency:    6.8434548046
  - # 13
    frequency:    6.9134891486
  - # 14
    frequency:    8.7383387787
  - # 15
    frequency:   10.7325369215
  - # 16
    frequency:   10.7589737750
  - # 17
    frequency:   14.2524306209
  - # 18
    frequency:   14.6984308735
  - # 19
    frequency:   14.7467502974
  - # 20
    frequency:   15.8283445775
  - # 21
    frequency:   16.3869515648
  - # 22
    frequency:   16.4011948229
  - # 23
    frequency:   37.9164436246
  - # 24
    frequency:   68.7490190737

- q-position: [    0.0555556,    0.0000000,    0.0000000 ]
  distance:    0.0195609
  band:
  - # 1
    frequency:   -0.6411415932
  - # 2
    frequency:    0.2696761750
  - # 3
    frequency:    0.6130421780
  - # 4
    frequency:    0.9976800143
  - # 5
    frequency:    1.0221273404
  - # 6
    frequency:    1.0695363801
  - # 7
    frequency:    1.3653942703
  - # 8
    frequency:    1.6242527533
  - # 9
    frequency:    3.4374823196
  - # 10
    frequency:    3.5813009638
  - # 11
    frequency:    5.3900233522
  - # 12
    frequency:    6.8508966333
  - # 13
    frequency:    6.9337843467
  - # 14
    frequency:    8.7261846771
  - # 15
    frequency:   10.7340604462
  - # 16
    frequency:   10.7664580659
  - # 17
    frequency:   14.2527063454
  - # 18
    frequency:   14.6820167149
  - # 19
    frequency:   14.7403816454
  - # 20
    frequency:   15.8351005763
  - # 21
    frequency:   16.3868946171
  - # 22
    frequency:   16.4040643896
  - # 23
    frequency:   37.9171824136
  - # 24
    frequency:   68.7261086898

- q-position: [    0.0606061,    0.0000000,    0.0000000 ]
  distance:    0.0213392
  band:
  - # 1
    frequency:   -0.7993370223
  - # 2
    frequency:    0.2851781656
  - # 3
    frequency:    0.6276840408
  - # 4
    frequency:    0.9884028110
  - # 5
    frequency:    1.0423465179
  - # 6
    frequency:    1.0952835904
  - # 7
    frequency:    1.3581021032
  - # 8
    frequency:    1.7118056694
  - # 9
    frequency:    3.4474976615
  - # 10
    frequency:    3.6161311383
  - # 11
    frequency:    5.3833370761
  - # 12
    frequency:    6.8590036035
  - # 13
    frequency:    6.9553268668
  - # 14
    frequency:    8.7130336533
  - # 15
    frequency:   10.7355433961
  - # 16
    frequency:   10.7746034781
  - # 17
    frequency:   14.2529654686
  - # 18
    frequency:   14.6641226207
  - # 19
    frequency:   14.7334463704
  - # 20
    frequency:   15.8424257329
  - # 21
    frequency:   16.3868330342
  - # 22
    frequency:   16.4071827076
  - # 23
    frequency:   37.9179885515
  - # 24
    frequency:   68.7011964810

- q-position: [    0.0656566,    0.0000000,    0.0000000 ]
  distance:    0.0231175
  band:
  - # 1
    frequency:   -0.9577858173
  - # 2
    frequency:    0.2945780105
  - # 3
    frequency:    0.6497958165
  - # 4
    frequency:    0.9677339797
  - # 5
    frequency:    1.0597578821
  - # 6
    frequency:    1.1325943691
  - # 7
    frequency:    1.3601676818
  - # 8
    frequency:    1.8056311264
  - # 9
    frequency:    3.4582330641
  - # 10
    frequency:    3.6530780304
  - # 11
    frequency:    5.3768139010
  - # 12
    frequency:    6.8677630993
  - # 13
    frequency:    6.9779724063
  - # 14
    frequency:    8.6989259232
  - # 15
    frequency:   10.7369512667
  - # 16
    frequency:   10.7833972973
  - # 17
    frequency:   14.2531935909
  - # 18
    frequency:   14.6447722167
  - # 19
    frequency:   14.7259545070
  - # 20
    frequency:   15.8502990568
  - # 21
    frequency:   16.3867672539
  - # 22
    frequency:   16.4105435134
  - # 23
    frequency:   37.9188612289
  - # 24
    frequency:   68.6743302203

- q-position: [    0.0707071,    0.0000000,    0.0000000 ]
  distance:    0.0248958
  band:
  - # 1
    frequency:   -1.1123344442
  - # 2
    frequency:    0.2938336216
  - # 3
    frequency:    0.6786988742
  - # 4
    frequency:    0.9361874533
  - # 5
    frequency:    1.0780279737
  - # 6
    frequency:    1.1756289247
  - # 7
    frequency:    1.3719253193
  - # 8
    frequency:    1.9034898795
  - # 9
    frequency:    3.4696560934
  - # 10
    frequency:    3.6919844253
  - # 11
    frequency:    5.3705940808
  - # 12
    frequency:    6.8771611099
  - # 13
    frequency:    7.0015765877
  - # 14
    frequency:    8.6839041731
  - # 15
    frequency:   10.7382524464
  - # 16
    frequency:   10.7928262466
  - # 17
    frequency:   14.2533741954
  - # 18
    frequency:   14.6239917148
  - # 19
    frequency:   14.7179166454
  - # 20
    frequency:   15.8586973679
  - # 21
    frequency:   16.3866978306
  - # 22
    frequency:   16.4141401580
  - # 23
    frequency:   37.9197995710
  - # 24
    frequency:   68.6455612557

- q-position: [    0.0757576,    0.0000000,    0.0000000 ]
  distance:    0.0266740
  band:
  - # 1
    frequency:   -1.2614582266
  - # 2
    frequency:    0.2750407838
  - # 3
    frequency:    0.7131286390
  - # 4
    frequency:    0.8968182297
  - # 5
    frequency:    1.0981379988
  - # 6
    frequency:    1.2217562356
  - # 7
    frequency:    1.3922469506
  - # 8
    frequency:    2.0038543460
  - # 9
    frequency:    3.4817336349
  - # 10
    frequency:    3.7327017608
  - # 11
    frequency:    5.3648172286
  - # 12
    frequency:    6.8871821667
  - # 13
    frequency:    7.0259958073
  - # 14
    frequency:    8.6680135502
  - # 15
    frequency:   10.7394191376
  - # 16
    frequency:   10.8028765913
  - # 17
    frequency:   14.2534885245
  - # 18
    frequency:   14.6018101636
  - # 19
    frequency:   14.7093438803
  - # 20
    frequency:   15.8675952004
  - # 21
    frequency:   16.3866254446
  - # 22
    frequency:   16.4179656326
  - # 23
    frequency:   37.9208026390
  - # 24
    frequency:   68.6149443706

- q-position: [    0.0808081,    0.0000000,    0.0000000 ]
  distance:    0.0284523
  band:
  - # 1
    frequency:   -1.4048636192
  - # 2
    frequency:    0.2196354206
  - # 3
    frequency:    0.7519317994
  - # 4
    frequency:    0.8549237547
  - # 5
    frequency:    1.1201212598
  - # 6
    frequency:    1.2698281459
  - # 7
    frequency:    1.4194698264
  - # 8
    frequency:    2.1056265828
  - # 9
    frequency:    3.4944322430
  - # 10
    frequency:    3.7750924678
  - # 11
    frequency:    5.3596216141
  - # 12
    frequency:    6.8978092799
  - # 13
    frequency:    7.0510878027
  - # 14
    frequency:    8.6513017145
  - # 15
    frequency:   10.7404281937
  - # 16
    frequency:   10.8135342418
  - # 17
    frequency:   14.2535154044
  - # 18
    frequency:   14.5782598108
  - # 19
    frequency:   14.7002477649
  - # 20
    frequency:   15.8769647075
  - # 21
    frequency:   16.3865509110
  - # 22
    frequency:   16.4220125923
  - # 23
    frequency:   37.9218694316
  - # 24
    frequency:   68.5825376342

- q-position: [    0.0858586,    0.0000000,    0.0000000 ]
  distance:    0.0302306
  band:
  - # 1
    frequency:   -1.5427320864
  - # 2
    frequency:   -0.0603349780
  - # 3
    frequency:    0.7941892598
  - # 4
    frequency:    0.8173646300
  - # 5
    frequency:    1.1438482594
  - # 6
    frequency:    1.3192387369
  - # 7
    frequency:    1.4520741716
  - # 8
    frequency:    2.2079724523
  - # 9
    frequency:    3.5077184912
  - # 10
    frequency:    3.8190320028
  - # 11
    frequency:    5.3551436060
  - # 12
    frequency:    6.9090238787
  - # 13
    frequency:    7.0767119827
  - # 14
    frequency:    8.6338189535
  - # 15
    frequency:   10.7412618572
  - # 16
    frequency:   10.8247848503
  - # 17
    frequency:   14.2534309424
  - # 18
    frequency:   14.5533766508
  - # 19
    frequency:   14.6906402718
  - # 20
    frequency:   15.8867755756
  - # 21
    frequency:   16.3864751845
  - # 22
    frequency:   16.4262733770
  - # 23
    frequency:   37.9229988862
  - # 24
    frequency:   68.5484022435

- q-position: [    0.0909091,    0.0000000,    0.0000000 ]
  distance:    0.0320088
  band:
  - # 1
    frequency:   -1.6753860497
  - # 2
    frequency:   -0.2926031938
  - # 3
    frequency:    0.7903641525
  - # 4
    frequency:    0.8391791244
  - # 5
    frequency:    1.1692020510
  - # 6
    frequency:    1.3696174587
  - # 7
    frequency:    1.4888944943
  - # 8
    frequency:    2.3102226213
  - # 9
    frequency:    3.5215593169
  - # 10
    frequency:    3.8644105166
  - # 11
    frequency:    5.3515172074
  - # 12
    frequency:    6.9208057528
  - # 13
    frequency:    7.1027295668
  - # 14
    frequency:    8.6156183584
  - # 15
    frequency:   10.7419083916
  - # 16
    frequency:   10.8366139024
  - # 17
    frequency:   14.2532079509
  - # 18
    frequency:   14.5272012991
  - # 19
    frequency:   14.6805337608
  - # 20
    frequency:   15.8969949515
  - # 21
    frequency:   16.3863993627
  - # 22
    frequency:   16.4307400293
  - # 23
    frequency:   37.9241898804
  - # 24
    frequency:   68.5126023563

- q-position: [    0.0959596,    0.0000000,    0.0000000 ]
  distance:    0.0337871
  band:
  - # 1
    frequency:   -1.8031560619
  - # 2
    frequency:   -0.4443947399
  - # 3
    frequency:    0.7764626322
  - # 4
    frequency:    0.8863168785
  - # 5
    frequency:    1.1961102866
  - # 6
    frequency:    1.4207130268
  - # 7
    frequency:    1.5290910430
  - # 8
    frequency:    2.4118117577
  - # 9
    frequency:    3.5359223610
  - # 10
    frequency:    3.9111340563
  - # 11
    frequency:    5.3488736374
  - # 12
    frequency:    6.9331330012
  - # 13
    frequency:    7.1290035791
  - # 14
    frequency:    8.5967560558
  - # 15
    frequency:   10.7423626018
  - # 16
    frequency:   10.8490067994
  - # 17
    frequency:   14.2528148102
  - # 18
    frequency:   14.4997804722
  - # 19
    frequency:   14.6699409565
  - # 20
    frequency:   15.9075873923
  - # 21
    frequency:   16.3863246867
  - # 22
    frequency:   16.4354043092
  - # 23
    frequency:   37.9254412337
  - # 24
    frequency:   68.4752049169

- q-position: [    0.1010101,    0.0000000,    0.0000000 ]
  distance:    0.0355654
  band:
  - # 1
    frequency:   -1.9263341118
  - # 2
    frequency:   -0.5779825641
  - # 3
    frequency:    0.7742288062
  - # 4
    frequency:    0.9351046797
  - # 5
    frequency:    1.2245486429
  - # 6
    frequency:    1.4723414891
  - # 7
    frequency:    1.5720635963
  - # 8
    frequency:    2.5122403078
  - # 9
    frequency:    3.5507762971
  - # 10
    frequency:    3.9591251287
  - # 11
    frequency:    5.3473409295
  - # 12
    frequency:    6.9459819865
  - # 13
    frequency:    7.1553987386
  - # 14
    frequency:    8.5772914899
  - # 15
    frequency:   10.7426262409
  - # 16
    frequency:   10.8619489311
  - # 17
    frequency:   14.2522131640
  - # 18
    frequency:   14.4711696689
  - # 19
    frequency:   14.6588749337
  - # 20
    frequency:   15.9185148438
  - # 21
    frequency:   16.3862525385
  - # 22
    frequency:   16.4402577059
  - # 23
    frequency:   37.9267517091
  - # 24
    frequency:   68.4362794735

- q-position: [    0.1060606,    0.0000000,    0.0000000 ]
  distance:    0.0373436
  band:
  - # 1
    frequency:   -2.0451618909
  - # 2
    frequency:   -0.6992696113
  - # 3
    frequency:    0.7806530045
  - # 4
    frequency:    0.9850927205
  - # 5
    frequency:    1.2545410117
  - # 6
    frequency:    1.5243600845
  - # 7
    frequency:    1.6173748347
  - # 8
    frequency:    2.6110503254
  - # 9
    frequency:    3.5660911495
  - # 10
    frequency:    4.0083223729
  - # 11
    frequency:    5.3470435351
  - # 12
    frequency:    6.9593272989
  - # 13
    frequency:    7.1817812872
  - # 14
    frequency:    8.5572877429
  - # 15
    frequency:   10.7427083060
  - # 16
    frequency:   10.8754257370
  - # 17
    frequency:   14.2513530564
  - # 18
    frequency:   14.4414384318
  - # 19
    frequency:   14.6473491136
  - # 20
    frequency:   15.9297366536
  - # 21
    frequency:   16.3861844358
  - # 22
    frequency:   16.4452914459
  - # 23
    frequency:   37.9281200146
  - # 24
    frequency:   68.3958979897

- q-position: [    0.1111111,    0.0000000,    0.0000000 ]
  distance:    0.0391219
  band:
  - # 1
    frequency:   -2.1598324148
  - # 2
    frequency:   -0.8105239855
  - # 3
    frequency:    0.7929983210
  - # 4
    frequency:    1.0358500556
  - # 5
    frequency:    1.2861612863
  - # 6
    frequency:    1.5766529427
  - # 7
    frequency:    1.6646955756
  - # 8
    frequency:    2.7078106532
  - # 9
    frequency:    3.5818385975
  - # 10
    frequency:    4.0586790043
  - # 11
    frequency:    5.3481019448
  - # 12
    frequency:    6.9731417306
  - # 13
    frequency:    7.2080187942
  - # 14
    frequency:    8.5368118802
  - # 15
    frequency:   10.7426252238
  - # 16
    frequency:   10.8894227544
  - # 17
    frequency:   14.2501619931
  - # 18
    frequency:   14.4106816939
  - # 19
    frequency:   14.6353772695
  - # 20
    frequency:   15.9412096258
  - # 21
    frequency:   16.3861220248
  - # 22
    frequency:   16.4504964988
  - # 23
    frequency:   37.9295448052
  - # 24
    frequency:   68.3541346491

- q-position: [    0.1161616,    0.0000000,    0.0000000 ]
  distance:    0.0409002
  band:
  - # 1
    frequency:   -2.2704960859
  - # 2
    frequency:   -0.9132965726
  - # 3
    frequency:    0.8092932854
  - # 4
    frequency:    1.0869431064
  - # 5
    frequency:    1.3195359821
  - # 6
    frequency:    1.6291227452
  - # 7
    frequency:    1.7137683223
  - # 8
    frequency:    2.8021088574
  - # 9
    frequency:    3.5979922633
  - # 10
    frequency:    4.1101596176
  - # 11
    frequency:    5.3506323729
  - # 12
    frequency:    6.9873962620
  - # 13
    frequency:    7.2339799749
  - # 14
    frequency:    8.5159352994
  - # 15
    frequency:   10.7424009328
  - # 16
    frequency:   10.9039256531
  - # 17
    frequency:   14.2485178382
  - # 18
    frequency:   14.3790472827
  - # 19
    frequency:   14.6229735427
  - # 20
    frequency:   15.9528881201
  - # 21
    frequency:   16.3860670699
  - # 22
    frequency:   16.4558635797
  - # 23
    frequency:   37.9310246845
  - # 24
    frequency:   68.3110656538

- q-position: [    0.1212121,    0.0000000,    0.0000000 ]
  distance:    0.0426784
  band:
  - # 1
    frequency:   -2.3772676288
  - # 2
    frequency:   -1.0087907417
  - # 3
    frequency:    0.8282225348
  - # 4
    frequency:    1.1379229533
  - # 5
    frequency:    1.3548439423
  - # 6
    frequency:    1.6816855935
  - # 7
    frequency:    1.7643834961
  - # 8
    frequency:    2.8935484774
  - # 9
    frequency:    3.6145279833
  - # 10
    frequency:    4.1627349056
  - # 11
    frequency:    5.3547465843
  - # 12
    frequency:    7.0020600619
  - # 13
    frequency:    7.2595345674
  - # 14
    frequency:    8.4947340571
  - # 15
    frequency:   10.7420668683
  - # 16
    frequency:   10.9189202556
  - # 17
    frequency:   14.2461717834
  - # 18
    frequency:   14.3468133336
  - # 19
    frequency:   14.6101524685
  - # 20
    frequency:   15.9647241987
  - # 21
    frequency:   16.3860214411
  - # 22
    frequency:   16.4613831509
  - # 23
    frequency:   37.9325582063
  - # 24
    frequency:   68.2667690190

- q-position: [    0.1262626,    0.0000000,    0.0000000 ]
  distance:    0.0444567
  band:
  - # 1
    frequency:   -2.4802325615
  - # 2
    frequency:   -1.0979445562
  - # 3
    frequency:    0.8489218235
  - # 4
    frequency:    1.1883263586
  - # 5
    frequency:    1.3923062418
  - # 6
    frequency:    1.7342676976
  - # 7
    frequency:    1.8163639289
  - # 8
    frequency:    2.9817507445
  - # 9
    frequency:    3.6314240594
  - # 10
    frequency:    4.2163739009
  - # 11
    frequency:    5.3605519790
  - # 12
    frequency:    7.0171005030
  - # 13
    frequency:    7.2845533098
  - # 14
    frequency:    8.4732891388
  - # 15
    frequency:   10.7416618542
  - # 16
    frequency:   10.9343925411
  - # 17
    frequency:   14.2424858528
  - # 18
    frequency:   14.3146511335
  - # 19
    frequency:   14.5969290111
  - # 20
    frequency:   15.9766678230
  - # 21
    frequency:   16.3859871006
  - # 22
    frequency:   16.4670454217
  - # 23
    frequency:   37.9341438768
  - # 24
    frequency:   68.2213243620

- q-position: [    0.1313131,    0.0000000,    0.0000000 ]
  distance:    0.0462350
  band:
  - # 1
    frequency:   -2.5794527922
  - # 2
    frequency:   -1.1814848210
  - # 3
    frequency:    0.8708183585
  - # 4
    frequency:    1.2376983079
  - # 5
    frequency:    1.4321571873
  - # 6
    frequency:    1.7868031450
  - # 7
    frequency:    1.8695546447
  - # 8
    frequency:    3.0663601217
  - # 9
    frequency:    3.6486614914
  - # 10
    frequency:    4.2710335249
  - # 11
    frequency:    5.3681520864
  - # 12
    frequency:    7.0324831931
  - # 13
    frequency:    7.3089080712
  - # 14
    frequency:    8.4516866282
  - # 15
    frequency:   10.7412319101
  - # 16
    frequency:   10.9503286354
  - # 17
    frequency:   14.2353860467
  - # 18
    frequency:   14.2846722822
  - # 19
    frequency:   14.5833186073
  - # 20
    frequency:   15.9886670958
  - # 21
    frequency:   16.3859660857
  - # 22
    frequency:   16.4728403482
  - # 23
    frequency:   37.9357801561
  - # 24
    frequency:   68.1748126876

- q-position: [    0.1363636,    0.0000000,    0.0000000 ]
  distance:    0.0480132
  band:
  - # 1
    frequency:   -2.6749712972
  - # 2
    frequency:   -1.2599740507
  - # 3
    frequency:    0.8935260970
  - # 4
    frequency:    1.2856407534
  - # 5
    frequency:    1.4745908730
  - # 6
    frequency:    1.8392323381
  - # 7