nqpoint: 300    
npath: 3      
segment_nqpoint:
- 100
- 100
- 100
labels:
- [ 'G', 'M' ]
- [ 'M', 'K' ]
- [ 'K', 'G' ]
reciprocal_lattice:
- [   0.29696930,   0.17145531,   0.00000000 ] # a*
- [   0.00000000,   0.34291062,   0.00000000 ] # b*
- [   0.00000000,   0.00000000,   0.03944932 ] # c*
natom: 7      
lattice:
- [     3.367351385078699,     0.000000000000000,     0.000000000000000 ] # a
- [    -1.683675692539350,     2.916211842935310,     0.000000000000000 ] # b
- [     0.000000000000000,     0.000000000000000,    25.348980760527233 ] # c
points:
- symbol: C # 1
  coordinates: [  0.000000000000000,  0.000000000000000,  0.552031357895860 ]
  mass: 12.010700
- symbol: C # 2
  coordinates: [  0.666666984744047,  0.333332985985144,  0.401913572182111 ]
  mass: 12.010700
- symbol: F # 3
  coordinates: [  0.333332985432215,  0.666666983183674,  0.644956139064393 ]
  mass: 18.998403
- symbol: N # 4
  coordinates: [  0.666666984744047,  0.333332985985144,  0.355043860935607 ]
  mass: 14.006700
- symbol: O # 5
  coordinates: [  0.666666984744047,  0.333332985985144,  0.454616095518033 ]
  mass: 15.999400
- symbol: Sc # 6
  coordinates: [  0.333332985432215,  0.666666983183674,  0.503006258645071 ]
  mass: 44.955912
- symbol: Sc # 7
  coordinates: [  0.666666984744047,  0.333332985985144,  0.601753599344615 ]
  mass: 44.955912

phonon:
- q-position: [    0.0000000,    0.0000000,    0.0000000 ]
  distance:    0.0000000
  band:
  - # 1
    frequency:   -0.7483803773
  - # 2
    frequency:   -0.7483803771
  - # 3
    frequency:   -0.0000255843
  - # 4
    frequency:   -0.0000005340
  - # 5
    frequency:    0.0000172918
  - # 6
    frequency:    4.7016629706
  - # 7
    frequency:    4.7016629707
  - # 8
    frequency:    6.2881946109
  - # 9
    frequency:    6.4786020181
  - # 10
    frequency:    6.4786020182
  - # 11
    frequency:    7.0361487030
  - # 12
    frequency:    7.0361487031
  - # 13
    frequency:   10.1506449535
  - # 14
    frequency:   12.4150585669
  - # 15
    frequency:   12.4150585670
  - # 16
    frequency:   12.8906264685
  - # 17
    frequency:   13.7971025738
  - # 18
    frequency:   13.7971025739
  - # 19
    frequency:   19.3185224749
  - # 20
    frequency:   32.1130305279
  - # 21
    frequency:   67.9707277168

- q-position: [    0.0050505,    0.0000000,    0.0000000 ]
  distance:    0.0017319
  band:
  - # 1
    frequency:   -0.7474942574
  - # 2
    frequency:   -0.7438692812
  - # 3
    frequency:    0.0020744176
  - # 4
    frequency:    0.0792758337
  - # 5
    frequency:    0.1335513585
  - # 6
    frequency:    4.7016643035
  - # 7
    frequency:    4.7026801562
  - # 8
    frequency:    6.2869965495
  - # 9
    frequency:    6.4782348672
  - # 10
    frequency:    6.4827155678
  - # 11
    frequency:    7.0361395888
  - # 12
    frequency:    7.0372401251
  - # 13
    frequency:   10.1503510546
  - # 14
    frequency:   12.4147395441
  - # 15
    frequency:   12.4193036967
  - # 16
    frequency:   12.8904367194
  - # 17
    frequency:   13.7971523761
  - # 18
    frequency:   13.7973483826
  - # 19
    frequency:   19.3172683718
  - # 20
    frequency:   32.1125930340
  - # 21
    frequency:   67.9704788599

- q-position: [    0.0101010,    0.0000000,    0.0000000 ]
  distance:    0.0034637
  band:
  - # 1
    frequency:   -0.7448715233
  - # 2
    frequency:   -0.7305777327
  - # 3
    frequency:    0.0082373921
  - # 4
    frequency:    0.1587130288
  - # 5
    frequency:    0.2681299475
  - # 6
    frequency:    4.7016689928
  - # 7
    frequency:    4.7057252963
  - # 8
    frequency:    6.2836671790
  - # 9
    frequency:    6.4771360910
  - # 10
    frequency:    6.4946608802
  - # 11
    frequency:    7.0361107540
  - # 12
    frequency:    7.0405594028
  - # 13
    frequency:   10.1494707748
  - # 14
    frequency:   12.4137833899
  - # 15
    frequency:   12.4318910168
  - # 16
    frequency:   12.8900173409
  - # 17
    frequency:   13.7973017642
  - # 18
    frequency:   13.7980849849
  - # 19
    frequency:   19.3135082329
  - # 20
    frequency:   32.1112816088
  - # 21
    frequency:   67.9697327967

- q-position: [    0.0151515,    0.0000000,    0.0000000 ]
  distance:    0.0051956
  band:
  - # 1
    frequency:   -0.7406095845
  - # 2
    frequency:   -0.7090619801
  - # 3
    frequency:    0.0185754878
  - # 4
    frequency:    0.2384391869
  - # 5
    frequency:    0.4043710237
  - # 6
    frequency:    4.7016791080
  - # 7
    frequency:    4.7107793418
  - # 8
    frequency:    6.2788196727
  - # 9
    frequency:    6.4753136657
  - # 10
    frequency:    6.5134352153
  - # 11
    frequency:    7.0360577685
  - # 12
    frequency:    7.0462434797
  - # 13
    frequency:   10.1480083069
  - # 14
    frequency:   12.4121928468
  - # 15
    frequency:   12.4523324213
  - # 16
    frequency:   12.8898606406
  - # 17
    frequency:   13.7975506812
  - # 18
    frequency:   13.7993099827
  - # 19
    frequency:   19.3072485670
  - # 20
    frequency:   32.1090994168
  - # 21
    frequency:   67.9684910480

- q-position: [    0.0202020,    0.0000000,    0.0000000 ]
  distance:    0.0069275
  band:
  - # 1
    frequency:   -0.7348429290
  - # 2
    frequency:   -0.6797976954
  - # 3
    frequency:    0.0332132262
  - # 4
    frequency:    0.3185249755
  - # 5
    frequency:    0.5423606882
  - # 6
    frequency:    4.7016980880
  - # 7
    frequency:    4.7178111926
  - # 8
    frequency:    6.2730869324
  - # 9
    frequency:    6.4727807081
  - # 10
    frequency:    6.5377638209
  - # 11
    frequency:    7.0359734006
  - # 12
    frequency:    7.0545259345
  - # 13
    frequency:   10.1459704520
  - # 14
    frequency:   12.4099724805
  - # 15
    frequency:   12.4796537767
  - # 16
    frequency:   12.8909438211
  - # 17
    frequency:   13.7978990320
  - # 18
    frequency:   13.8010196290
  - # 19
    frequency:   19.2985002155
  - # 20
    frequency:   32.1060517186
  - # 21
    frequency:   67.9667561426

- q-position: [    0.0252525,    0.0000000,    0.0000000 ]
  distance:    0.0086594
  band:
  - # 1
    frequency:   -0.7277123179
  - # 2
    frequency:   -0.6428001499
  - # 3
    frequency:    0.0523842808
  - # 4
    frequency:    0.3989773122
  - # 5
    frequency:    0.6817622709
  - # 6
    frequency:    4.7017307263
  - # 7
    frequency:    4.7267785939
  - # 8
    frequency:    6.2669339502
  - # 9
    frequency:    6.4695552216
  - # 10
    frequency:    6.5663018495
  - # 11
    frequency:    7.0358478341
  - # 12
    frequency:    7.0657409408
  - # 13
    frequency:   10.1433663614
  - # 14
    frequency:   12.4071286727
  - # 15
    frequency:   12.5121104823
  - # 16
    frequency:   12.8950077168
  - # 17
    frequency:   13.7983466812
  - # 18
    frequency:   13.8032092146
  - # 19
    frequency:   19.2872783421
  - # 20
    frequency:   32.1021458493
  - # 21
    frequency:   67.9645316098

- q-position: [    0.0303030,    0.0000000,    0.0000000 ]
  distance:    0.0103912
  band:
  - # 1
    frequency:   -0.7193378161
  - # 2
    frequency:   -0.5974110502
  - # 3
    frequency:    0.0765289781
  - # 4
    frequency:    0.4797477803
  - # 5
    frequency:    0.8220675366
  - # 6
    frequency:    4.7017831497
  - # 7
    frequency:    4.7376292593
  - # 8
    frequency:    6.2606382586
  - # 9
    frequency:    6.4656597577
  - # 10
    frequency:    6.5976817314
  - # 11
    frequency:    7.0356689561
  - # 12
    frequency:    7.0803192437
  - # 13
    frequency:   10.1402072165
  - # 14
    frequency:   12.4036696100
  - # 15
    frequency:   12.5467618309
  - # 16
    frequency:   12.9049748353
  - # 17
    frequency:   13.7988934519
  - # 18
    frequency:   13.8058736470
  - # 19
    frequency:   19.2736024203
  - # 20
    frequency:   32.0973911896
  - # 21
    frequency:   67.9618219679

- q-position: [    0.0353535,    0.0000000,    0.0000000 ]
  distance:    0.0121231
  band:
  - # 1
    frequency:   -0.7098019034
  - # 2
    frequency:   -0.5422053049
  - # 3
    frequency:    0.1065096351
  - # 4
    frequency:    0.5607500139
  - # 5
    frequency:    0.9627908042
  - # 6
    frequency:    4.7018627911
  - # 7
    frequency:    4.7503021219
  - # 8
    frequency:    6.2543414106
  - # 9
    frequency:    6.4611210114
  - # 10
    frequency:    6.6305133323
  - # 11
    frequency:    7.0354226977
  - # 12
    frequency:    7.0987643377
  - # 13
    frequency:   10.1365058785
  - # 14
    frequency:   12.3996052687
  - # 15
    frequency:   12.5791671545
  - # 16
    frequency:   12.9252440751
  - # 17
    frequency:   13.7995391234
  - # 18
    frequency:   13.8090082957
  - # 19
    frequency:   19.2574962186
  - # 20
    frequency:   32.0917991287
  - # 21
    frequency:   67.9586327095

- q-position: [    0.0404040,    0.0000000,    0.0000000 ]
  distance:    0.0138550
  band:
  - # 1
    frequency:   -0.6991435321
  - # 2
    frequency:   -0.4749231518
  - # 3
    frequency:    0.1441159858
  - # 4
    frequency:    0.6418786455
  - # 5
    frequency:    1.1035490223
  - # 6
    frequency:    4.7019783567
  - # 7
    frequency:    4.7647286268
  - # 8
    frequency:    6.2481052423
  - # 9
    frequency:    6.4559693673
  - # 10
    frequency:    6.6634155723
  - # 11
    frequency:    7.0350934120
  - # 12
    frequency:    7.1215946772
  - # 13
    frequency:   10.1322765417
  - # 14
    frequency:   12.3949473954
  - # 15
    frequency:   12.6040905130
  - # 16
    frequency:   12.9609757359
  - # 17
    frequency:   13.8002834284
  - # 18
    frequency:   13.8126102695
  - # 19
    frequency:   19.2389877850
  - # 20
    frequency:   32.0853830190
  - # 21
    frequency:   67.9549702843

- q-position: [    0.0454545,    0.0000000,    0.0000000 ]
  distance:    0.0155868
  band:
  - # 1
    frequency:   -0.6873600930
  - # 2
    frequency:   -0.3926899472
  - # 3
    frequency:    0.1932386604
  - # 4
    frequency:    0.7230246432
  - # 5
    frequency:    1.2440649573
  - # 6
    frequency:    4.7021397871
  - # 7
    frequency:    4.7808339947
  - # 8
    frequency:    6.2419523016
  - # 9
    frequency:    6.4502384160
  - # 10
    frequency:    6.6951055360
  - # 11
    frequency:    7.0346642716
  - # 12
    frequency:    7.1492447213
  - # 13
    frequency:   10.1275344181
  - # 14
    frequency:   12.3897094820
  - # 15
    frequency:   12.6178298291
  - # 16
    frequency:   13.0157511751
  - # 17
    frequency:   13.8011260500
  - # 18
    frequency:   13.8166805059
  - # 19
    frequency:   19.2181094336
  - # 20
    frequency:   32.0781581246
  - # 21
    frequency:   67.9508420785

- q-position: [    0.0505051,    0.0000000,    0.0000000 ]
  distance:    0.0173187
  band:
  - # 1
    frequency:   -0.6744130609
  - # 2
    frequency:   -0.2942524248
  - # 3
    frequency:    0.2614306387
  - # 4
    frequency:    0.8040851286
  - # 5
    frequency:    1.3841418235
  - # 6
    frequency:    4.7023582124
  - # 7
    frequency:    4.7985384110
  - # 8
    frequency:    6.2358903075
  - # 9
    frequency:    6.4439644576
  - # 10
    frequency:    6.7245279095
  - # 11
    frequency:    7.0341176698
  - # 12
    frequency:    7.1819404106
  - # 13
    frequency:   10.1222954750
  - # 14
    frequency:   12.3839067346
  - # 15
    frequency:   12.6200220516
  - # 16
    frequency:   13.0897553179
  - # 17
    frequency:   13.8020666186
  - # 18
    frequency:   13.8212275650
  - # 19
    frequency:   19.1948977344
  - # 20
    frequency:   32.0701415615
  - # 21
    frequency:   67.9462563914

- q-position: [    0.0555556,    0.0000000,    0.0000000 ]
  distance:    0.0190506
  band:
  - # 1
    frequency:   -0.6602338937
  - # 2
    frequency:   -0.1831767605
  - # 3
    frequency:    0.3539840598
  - # 4
    frequency:    0.8849681768
  - # 5
    frequency:    1.5236358023
  - # 6
    frequency:    4.7026459018
  - # 7
    frequency:    4.8177581131
  - # 8
    frequency:    6.2299254148
  - # 9
    frequency:    6.4371860075
  - # 10
    frequency:    6.7509724927
  - # 11
    frequency:    7.0334356114
  - # 12
    frequency:    7.2195950690
  - # 13
    frequency:   10.1165762401
  - # 14
    frequency:   12.3775560355
  - # 15
    frequency:   12.6126132447
  - # 16
    frequency:   13.1807915309
  - # 17
    frequency:   13.8031047080
  - # 18
    frequency:   13.8262753996
  - # 19
    frequency:   19.1693935116
  - # 20
    frequency:   32.0613522320
  - # 21
    frequency:   67.9412224089

- q-position: [    0.0606061,    0.0000000,    0.0000000 ]
  distance:    0.0207825
  band:
  - # 1
    frequency:   -0.6447281753
  - # 2
    frequency:    0.0586417853
  - # 3
    frequency:    0.4585992674
  - # 4
    frequency:    0.9655941071
  - # 5
    frequency:    1.6624349598
  - # 6
    frequency:    4.7030162080
  - # 7
    frequency:    4.8384063660
  - # 8
    frequency:    6.2240686726
  - # 9
    frequency:    6.4299433184
  - # 10
    frequency:    6.7741199552
  - # 11
    frequency:    7.0326000823
  - # 12
    frequency:    7.2617799949
  - # 13
    frequency:   10.1103936790
  - # 14
    frequency:   12.3706758975
  - # 15
    frequency:   12.5978992093
  - # 16
    frequency:   13.2862173318
  - # 17
    frequency:   13.8042398312
  - # 18
    frequency:   13.8318816205
  - # 19
    frequency:   19.1416418527
  - # 20
    frequency:   32.0518107531
  - # 21
    frequency:   67.9357501753

- q-position: [    0.0656566,    0.0000000,    0.0000000 ]
  distance:    0.0225143
  band:
  - # 1
    frequency:   -0.6277771248
  - # 2
    frequency:    0.1840189284
  - # 3
    frequency:    0.5608344591
  - # 4
    frequency:    1.0458947916
  - # 5
    frequency:    1.8004450821
  - # 6
    frequency:    4.7034835052
  - # 7
    frequency:    4.8603943231
  - # 8
    frequency:    6.2183386758
  - # 9
    frequency:    6.4222779263
  - # 10
    frequency:    6.7939928967
  - # 11
    frequency:    7.0315933900
  - # 12
    frequency:    7.3077888790
  - # 13
    frequency:   10.1037651436
  - # 14
    frequency:   12.3632864094
  - # 15
    frequency:   12.5776478382
  - # 16
    frequency:   13.4037679841
  - # 17
    frequency:   13.8054714370
  - # 18
    frequency:   13.8381884672
  - # 19
    frequency:   19.1116921364
  - # 20
    frequency:   32.0415393783
  - # 21
    frequency:   67.9298505613

- q-position: [    0.0707071,    0.0000000,    0.0000000 ]
  distance:    0.0242462
  band:
  - # 1
    frequency:   -0.6092361461
  - # 2
    frequency:    0.2540515378
  - # 3
    frequency:    0.6570870793
  - # 4
    frequency:    1.1258120978
  - # 5
    frequency:    1.9375807242
  - # 6
    frequency:    4.7040631227
  - # 7
    frequency:    4.8836317768
  - # 8
    frequency:    6.2127622295
  - # 9
    frequency:    6.4142322296
  - # 10
    frequency:    6.8108435702
  - # 11
    frequency:    7.0303984697
  - # 12
    frequency:    7.3567624622
  - # 13
    frequency:   10.0967083876
  - # 14
    frequency:   12.3554091723
  - # 15
    frequency:   12.5530513868
  - # 16
    frequency:   13.5314225022
  - # 17
    frequency:   13.8067989050
  - # 18
    frequency:   13.8456040357
  - # 19
    frequency:   19.0795980853
  - # 20
    frequency:   32.0305619160
  - # 21
    frequency:   67.9235352302

- q-position: [    0.0757576,    0.0000000,    0.0000000 ]
  distance:    0.0259781
  band:
  - # 1
    frequency:   -0.5889301317
  - # 2
    frequency:    0.3141801505
  - # 3
    frequency:    0.7479055025
  - # 4
    frequency:    1.2052961373
  - # 5
    frequency:    2.0737597129
  - # 6
    frequency:    4.7047712732
  - # 7
    frequency:    4.9080278065
  - # 8
    frequency:    6.2073740640
  - # 9
    frequency:    6.4058491031
  - # 10
    frequency:    6.8250333257
  - # 11
    frequency:    7.0289991537
  - # 12
    frequency:    7.4078173242
  - # 13
    frequency:   10.0892416375
  - # 14
    frequency:   12.3470672256
  - # 15
    frequency:   12.5248938583
  - # 16
    frequency:   13.6662795231
  - # 17
    frequency:   13.8082215416
  - # 18
    frequency:   13.8557611466
  - # 19
    frequency:   19.0454178552
  - # 20
    frequency:   32.0189036413
  - # 21
    frequency:   67.9168166023

- q-position: [    0.0808081,    0.0000000,    0.0000000 ]
  distance:    0.0277099
  band:
  - # 1
    frequency:   -0.5666448683
  - # 2
    frequency:    0.3716141135
  - # 3
    frequency:    0.8343720576
  - # 4
    frequency:    1.2843036560
  - # 5
    frequency:    2.2088998075
  - # 6
    frequency:    4.7056249763
  - # 7
    frequency:    4.9334913294
  - # 8
    frequency:    6.2022161619
  - # 9
    frequency:    6.3971715505
  - # 10
    frequency:    6.8369419953
  - # 11
    frequency:    7.0273804042
  - # 12
    frequency:    7.4601403399
  - # 13
    frequency:   10.0813837110
  - # 14
    frequency:   12.3382849623
  - # 15
    frequency:   12.4937014474
  - # 16
    frequency:   13.7940529145
  - # 17
    frequency:   13.8097385754
  - # 18
    frequency:   13.8818758454
  - # 19
    frequency:   19.0092141738
  - # 20
    frequency:   32.0065912056
  - # 21
    frequency:   67.9097078159

- q-position: [    0.0858586,    0.0000000,    0.0000000 ]
  distance:    0.0294418
  band:
  - # 1
    frequency:   -0.5421130964
  - # 2
    frequency:    0.4287870274
  - # 3
    frequency:    0.9173914999
  - # 4
    frequency:    1.3627966942
  - # 5
    frequency:    2.3429166764
  - # 6
    frequency:    4.7066419771
  - # 7
    frequency:    4.9599315673
  - # 8
    frequency:    6.1973369853
  - # 9
    frequency:    6.3882423937
  - # 10
    frequency:    6.8469163905
  - # 11
    frequency:    7.0255285112
  - # 12
    frequency:    7.5130399365
  - # 13
    frequency:   10.0731541712
  - # 14
    frequency:   12.3290880328
  - # 15
    frequency:   12.4598418947
  - # 16
    frequency:   13.8113491529
  - # 17
    frequency:   13.8466973833
  - # 18
    frequency:   13.9910290355
  - # 19
    frequency:   18.9710545481
  - # 20
    frequency:   31.9936525418
  - # 21
    frequency:   67.9022226880

- q-position: [    0.0909091,    0.0000000,    0.0000000 ]
  distance:    0.0311737
  band:
  - # 1
    frequency:   -0.5149923034
  - # 2
    frequency:    0.4867171413
  - # 3
    frequency:    0.9976380283
  - # 4
    frequency:    1.4407415362
  - # 5
    frequency:    2.4757226647
  - # 6
    frequency:    4.7078406611
  - # 7
    frequency:    4.9872584378
  - # 8
    frequency:    6.1927907383
  - # 9
    frequency:    6.3791039991
  - # 10
    frequency:    6.8552493996
  - # 11
    frequency:    7.0234312571
  - # 12
    frequency:    7.5659632873
  - # 13
    frequency:   10.0645735091
  - # 14
    frequency:   12.3195032375
  - # 15
    frequency:   12.4235851035
  - # 16
    frequency:   13.8130523338
  - # 17
    frequency:   13.8607776432
  - # 18
    frequency:   14.1457448028
  - # 19
    frequency:   18.9310115661
  - # 20
    frequency:   31.9801167666
  - # 21
    frequency:   67.8943756718

- q-position: [    0.0959596,    0.0000000,    0.0000000 ]
  distance:    0.0329056
  band:
  - # 1
    frequency:   -0.4848284205
  - # 2
    frequency:    0.5458717874
  - # 3
    frequency:    1.0756053358
  - # 4
    frequency:    1.5181079189
  - # 5
    frequency:    2.6072260404
  - # 6
    frequency:    4.7092399651
  - # 7
    frequency:    5.0153828880
  - # 8
    frequency:    6.1886367203
  - # 9
    frequency:    6.3697980376
  - # 10
    frequency:    6.8621772730
  - # 11
    frequency:    7.0210780534
  - # 12
    frequency:    7.6184926450
  - # 13
    frequency:   10.0556633456
  - # 14
    frequency:   12.3095584073
  - # 15
    frequency:   12.3851396617
  - # 16
    frequency:   13.8148470871
  - # 17
    frequency:   13.8705054572
  - # 18
    frequency:   14.3109258649
  - # 19
    frequency:   18.8891633291
  - # 20
    frequency:   31.9660140810
  - # 21
    frequency:   67.8861818133

- q-position: [    0.1010101,    0.0000000,    0.0000000 ]
  distance:    0.0346374
  band:
  - # 1
    frequency:   -0.4509932876
  - # 2
    frequency:    0.6064671075
  - # 3
    frequency:    1.1516573619
  - # 4
    frequency:    1.5948684533
  - # 5
    frequency:    2.7373305297
  - # 6
    frequency:    4.7108592842
  - # 7
    frequency:    5.0442171871
  - # 8
    frequency:    6.1849387764
  - # 9
    frequency:    6.3603652755
  - # 10
    frequency:    6.8678854913
  - # 11
    frequency:    7.0184600512
  - # 12
    frequency:    7.6703312397
  - # 13
    frequency:   10.0464466493
  - # 14
    frequency:   12.2992822728
  - # 15
    frequency:   12.3446751158
  - # 16
    frequency:   13.8167322866
  - # 17
    frequency:   13.8793917277
  - # 18
    frequency:   14.4821885010
  - # 19
    frequency:   18.8455940634
  - # 20
    frequency:   31.9513756690
  - # 21
    frequency:   67.8776567064

- q-position: [    0.1060606,    0.0000000,    0.0000000 ]
  distance:    0.0363693
  band:
  - # 1
    frequency:   -0.4125684183
  - # 2
    frequency:    0.6685918142
  - # 3
    frequency:    1.2260658638
  - # 4
    frequency:    1.6709982121
  - # 5
    frequency:    2.8659350265
  - # 6
    frequency:    4.7127183761
  - # 7
    frequency:    5.0736752054
  - # 8
    frequency:    6.1817648315
  - # 9
    frequency:    6.3508453942
  - # 10
    frequency:    6.8725175243
  - # 11
    frequency:    7.0155702300
  - # 12
    frequency:    7.7212852005
  - # 13
    frequency:   10.0369479655
  - # 14
    frequency:   12.2887043221
  - # 15
    frequency:   12.3023358544
  - # 16
    frequency:   13.8187067072
  - # 17
    frequency:   13.8881293836
  - # 18
    frequency:   14.6579747616
  - # 19
    frequency:   18.8003949844
  - # 20
    frequency:   31.9362335944
  - # 21
    frequency:   67.8688164470

- q-position: [    0.1111111,    0.0000000,    0.0000000 ]
  distance:    0.0381012
  band:
  - # 1
    frequency:   -0.3681047577
  - # 2
    frequency:    0.7322648450
  - # 3
    frequency:    1.2990365196
  - # 4
    frequency:    1.7464744431
  - # 5
    frequency:    2.9929334094
  - # 6
    frequency:    4.7148372625
  - # 7
    frequency:    5.1036727079
  - # 8
    frequency:    6.1791864795
  - # 9
    frequency:    6.3412768350
  - # 10
    frequency:    6.8761836830
  - # 11
    frequency:    7.0124034688
  - # 12
    frequency:    7.7712449578
  - # 13
    frequency:   10.0271936573
  - # 14
    frequency:   12.2582499823
  - # 15
    frequency:   12.2778546477
  - # 16
    frequency:   13.8207690207
  - # 17
    frequency:   13.8969365127
  - # 18
    frequency:   14.8372085952
  - # 19
    frequency:   18.7536655153
  - # 20
    frequency:   31.9206206978
  - # 21
    frequency:   67.8596775849

- q-position: [    0.1161616,    0.0000000,    0.0000000 ]
  distance:    0.0398331
  band:
  - # 1
    frequency:   -0.3150428023
  - # 2
    frequency:    0.7974647490
  - # 3
    frequency:    1.3707269186
  - # 4
    frequency:    1.8212763742
  - # 5
    frequency:    3.1182144189
  - # 6
    frequency:    4.7172361283
  - # 7
    frequency:    5.1341277029
  - # 8
    frequency:    6.1772785904
  - # 9
    frequency:    6.3316966660
  - # 10
    frequency:    6.8789689365
  - # 11
    frequency:    7.0089566006
  - # 12
    frequency:    7.8201677634
  - # 13
    frequency:   10.0172121580
  - # 14
    frequency:   12.2125351417
  - # 15
    frequency:   12.2667637844
  - # 16
    frequency:   13.8229177928
  - # 17
    frequency:   13.9058990696
  - # 18
    frequency:   15.0189541321
  - # 19
    frequency:   18.7055150145
  - # 20
    frequency:   31.9045704928
  - # 21
    frequency:   67.8502570768

- q-position: [    0.1212121,    0.0000000,    0.0000000 ]
  distance:    0.0415649
  band:
  - # 1
    frequency:   -0.2479101984
  - # 2
    frequency:    0.8641457525
  - # 3
    frequency:    1.4412590831
  - # 4
    frequency:    1.8953850860
  - # 5
    frequency:    3.2416615655
  - # 6
    frequency:    4.7199352187
  - # 7
    frequency:    5.1649608921
  - # 8
    frequency:    6.1761188927
  - # 9
    frequency:    6.3221404696
  - # 10
    frequency:    6.8809394070
  - # 11
    frequency:    7.0052284539
  - # 12
    frequency:    7.8680619912
  - # 13
    frequency:   10.0070342376
  - # 14
    frequency:   12.1653024335
  - # 15
    frequency:   12.2554625372
  - # 16
    frequency:   13.8251514794
  - # 17
    frequency:   13.9150545358
  - # 18
    frequency:   15.2023331652
  - # 19
    frequency:   18.6560652392
  - # 20
    frequency:   31.8881170631
  - # 21
    frequency:   67.8405722365

- q-position: [    0.1262626,    0.0000000,    0.0000000 ]
  distance:    0.0432968
  band:
  - # 1
    frequency:   -0.1487284499
  - # 2
    frequency:    0.9322470448
  - # 3
    frequency:    1.5107283222
  - # 4
    frequency:    1.9687834306
  - # 5
    frequency:    3.3631530450
  - # 6
    frequency:    4.7229547350
  - # 7
    frequency:    5.1960962763
  - # 8
    frequency:    6.1757874815
  - # 9
    frequency:    6.3126422475
  - # 10
    frequency:    6.8821476068
  - # 11
    frequency:    7.0012198830
  - # 12
    frequency:    7.9149733864
  - # 13
    frequency:    9.9966932878
  - # 14
    frequency:   12.1166591298
  - # 15
    frequency:   12.2439818038
  - # 16
    frequency:   13.8274684238
  - # 17
    frequency:   13.9244191635
  - # 18
    frequency:   15.3864980524
  - # 19
    frequency:   18.6054538972
  - # 20
    frequency:   31.8712949592
  - # 21
    frequency:   67.8306406861

- q-position: [    0.1313131,    0.0000000,    0.0000000 ]
  distance:    0.0450287
  band:
  - # 1
    frequency:    0.1369932330
  - # 2
    frequency:    1.0016983911
  - # 3
    frequency:    1.5792096044
  - # 4
    frequency:    2.0414559824
  - # 5
    frequency:    3.4825616388
  - # 6
    frequency:    4.7263147300
  - # 7
    frequency:    5.2274619827
  - # 8
    frequency:    6.1763661988
  - # 9
    frequency:    6.3032343410
  - # 10
    frequency:    6.8826366095
  - # 11
    frequency:    6.9969337870
  - # 12
    frequency:    7.9609731955
  - # 13
    frequency:    9.9862256290
  - # 14
    frequency:   12.0667106045
  - # 15
    frequency:   12.2323523898
  - # 16
    frequency:   13.8298668542
  - # 17
    frequency:   13.9339986524
  - # 18
    frequency:   15.5706192019
  - # 19
    frequency:   18.5538398355
  - # 20
    frequency:   31.8541390976
  - # 21
    frequency:   67.8204803062

- q-position: [    0.1363636,    0.0000000,    0.0000000 ]
  distance:    0.0467605
  band:
  - # 1
    frequency:    0.2473890212
  - # 2
    frequency:    1.0724236466
  - # 3
    frequency:    1.6467622298
  - # 4
    frequency:    2.1133890094
  - # 5
    frequency:    3.5997545791
  - # 6
    frequency:    4.7300350014
  - # 7
    frequency:    5.2589913826
  - # 8
    frequency:    6.1779378263
  - # 9
    frequency:    6.2939473665
  - # 10
    frequency:    6.8824433609
  - # 11
    frequency:    6.9923751181
  - # 12
    frequency:    8.0061480069
  - # 13
    frequency:    9.9756708442
  - # 14
    frequency:   12.0155617519
  - # 15
    frequency:   12.2206048218
  - # 16
    frequency:   13.8323448811
  - # 17
    frequency:   13.9437929155
  - # 18
    frequency:   15.7538753887
  - # 19
    frequency:   18.5014107449
  - # 20
    frequency:   31.8366846602
  - # 21
    frequency:   67.8101091860

- q-position: [    0.1414141,    0.0000000,    0.0000000 ]
  distance:    0.0484924
  band:
  - # 1
    frequency:    0.3243131558
  - # 2
    frequency:    1.1443430148
  - # 3
    frequency:    1.7134333193
  - # 4
    frequency:    2.1845704573
  - # 5
    frequency:    3.7145933574
  - # 6
    frequency:    4.7341349865
  - # 7
    frequency:    5.2906245745
  - # 8
    frequency:    6.1805850312
  - # 9
    frequency:    6.2848101632
  - # 10
    frequency:    6.8816013150
  - # 11
    frequency:    6.9875508807
  - # 12
    frequency:    8.0505910898
  - # 13
    frequency:    9.9650721454
  - # 14
    frequency:   11.9633180680
  - # 15
    frequency:   12.2087691582
  - # 16
    frequency:   13.8349004957
  - # 17
    frequency:   13.9537984231
  - # 18
    frequency:   15.9354418934
  - # 19
    frequency:   18.4483948211
  - # 20
    frequency:   31.8189669964
  - # 21
    frequency:   67.7995455738

- q-position: [    0.1464646,    0.0000000,    0.0000000 ]
  distance:    0.0502243
  band:
  - # 1
    frequency:    0.3881939760
  - # 2
    frequency:    1.2173745243
  - # 3
    frequency:    1.7792604703
  - # 4
    frequency:    2.2549899393
  - # 5
    frequency:    3.8269334566
  - # 6
    frequency:    4.7386336562
  - # 7
    frequency:    5.3223103007
  - # 8
    frequency:    6.1843890051
  - # 9
    frequency:    6.2758497529
  - # 10
    frequency:    6.8801425470
  - # 11
    frequency:    6.9824701181
  - # 12
    frequency:    8.0943950139
  - # 13
    frequency:    9.9544767745
  - # 14
    frequency:   11.9100865150
  - # 15
    frequency:   12.1968748015
  - # 16
    frequency:   13.8375315682
  - # 17
    frequency:   13.9640094451
  - # 18
    frequency:   16.1144727232
  - # 19
    frequency:   18.3950788092
  - # 20
    frequency:   31.8010215266
  - # 21
    frequency:   67.7888078268

- q-position: [    0.1515152,    0.0000000,    0.0000000 ]
  distance:    0.0519562
  band:
  - # 1
    frequency:    0.4446795907
  - # 2
    frequency:    1.2914349957
  - # 3
    frequency:    1.8442738191
  - # 4
    frequency:    2.3246387271
  - # 5
    frequency:    3.9366239880
  - # 6
    frequency:    4.7435494095
  - # 7
    frequency:    5.3540083530
  - # 8
    frequency:    6.1894277474
  - # 9
    frequency:    6.2670913109
  - # 10
    frequency:    6.8780994631
  - # 11
    frequency:    6.9771438884
  - # 12
    frequency:    8.1376453455
  - # 13
    frequency:    9.9439364415
  - # 14
    frequency:   11.8559762492
  - # 15
    frequency:   12.1849503134
  - # 16
    frequency:   13.8402358467
  - # 17
    frequency:   13.9744187534
  - # 18
    frequency:   16.2900722282
  - # 19
    frequency:   18.3418366087
  - # 20
    frequency:   31.7828836479
  - # 21
    frequency:   67.7779143629