nqpoint: 300    
npath: 3      
segment_nqpoint:
- 100
- 100
- 100
labels:
- [ 'G', 'M' ]
- [ 'M', 'K' ]
- [ 'K', 'G' ]
reciprocal_lattice:
- [   0.30389429,   0.17545345,   0.00000000 ] # a*
- [   0.00000000,   0.35090690,   0.00000000 ] # b*
- [   0.00000000,   0.00000000,   0.03731508 ] # c*
natom: 8      
lattice:
- [     3.290617896212121,     0.000000000000000,     0.000000000000000 ] # a
- [    -1.645308948106060,     2.849758692265532,     0.000000000000000 ] # b
- [     0.000000000000000,     0.000000000000000,    26.798816296356982 ] # c
points:
- symbol: C # 1
  coordinates: [  0.666666984744048,  0.333332985985145,  0.380779130876480 ]
  mass: 12.010700
- symbol: Hf # 2
  coordinates: [  0.333332985432215,  0.666666983183674,  0.480922748931258 ]
  mass: 178.490000
- symbol: Hf # 3
  coordinates: [  0.666666984744048,  0.333332985985145,  0.573647177777695 ]
  mass: 178.490000
- symbol: N # 4
  coordinates: [  0.000000000000000,  0.000000000000000,  0.523734811673030 ]
  mass: 14.006700
- symbol: N # 5
  coordinates: [  0.333332985432215,  0.666666983183674,  0.614249300585008 ]
  mass: 14.006700
- symbol: N # 6
  coordinates: [  0.666666984744048,  0.333332985985145,  0.427509602952242 ]
  mass: 14.006700
- symbol: O # 7
  coordinates: [  0.333332985432215,  0.666666983183674,  0.664164271269569 ]
  mass: 15.999400
- symbol: O # 8
  coordinates: [  0.666666984744048,  0.333332985985145,  0.335835728730431 ]
  mass: 15.999400

phonon:
- q-position: [    0.0000000,    0.0000000,    0.0000000 ]
  distance:    0.0000000
  band:
  - # 1
    frequency:   -6.6359235871
  - # 2
    frequency:   -6.6359235871
  - # 3
    frequency:   -0.8579332233
  - # 4
    frequency:   -0.8579332233
  - # 5
    frequency:   -0.0000063775
  - # 6
    frequency:   -0.0000005341
  - # 7
    frequency:    0.0000047275
  - # 8
    frequency:    2.3897565442
  - # 9
    frequency:    2.3897565442
  - # 10
    frequency:    4.1473277211
  - # 11
    frequency:    5.8568760877
  - # 12
    frequency:    5.8568760877
  - # 13
    frequency:    7.1989754652
  - # 14
    frequency:    7.1989754652
  - # 15
    frequency:    7.7047566152
  - # 16
    frequency:    8.2728507021
  - # 17
    frequency:   13.9194313452
  - # 18
    frequency:   14.6316284605
  - # 19
    frequency:   14.6316284605
  - # 20
    frequency:   16.0929652260
  - # 21
    frequency:   16.0929652260
  - # 22
    frequency:   37.0345820715
  - # 23
    frequency:   37.3826372675
  - # 24
    frequency:   68.4076413337

- q-position: [    0.0050505,    0.0000000,    0.0000000 ]
  distance:    0.0017723
  band:
  - # 1
    frequency:   -6.6351120441
  - # 2
    frequency:   -6.6341131576
  - # 3
    frequency:   -0.8592683320
  - # 4
    frequency:   -0.8579581894
  - # 5
    frequency:    0.0017480645
  - # 6
    frequency:    0.0708391991
  - # 7
    frequency:    0.1016858990
  - # 8
    frequency:    2.3905374618
  - # 9
    frequency:    2.3911494538
  - # 10
    frequency:    4.1470283061
  - # 11
    frequency:    5.8570178527
  - # 12
    frequency:    5.8573249352
  - # 13
    frequency:    7.1995605078
  - # 14
    frequency:    7.1997904345
  - # 15
    frequency:    7.7045895469
  - # 16
    frequency:    8.2727120858
  - # 17
    frequency:   13.9190536942
  - # 18
    frequency:   14.6313208367
  - # 19
    frequency:   14.6313262161
  - # 20
    frequency:   16.0929427464
  - # 21
    frequency:   16.0929906074
  - # 22
    frequency:   37.0340157370
  - # 23
    frequency:   37.3826796848
  - # 24
    frequency:   68.4065471870

- q-position: [    0.0101010,    0.0000000,    0.0000000 ]
  distance:    0.0035445
  band:
  - # 1
    frequency:   -6.6326816627
  - # 2
    frequency:   -6.6286869435
  - # 3
    frequency:   -0.8631177521
  - # 4
    frequency:   -0.8577990649
  - # 5
    frequency:    0.0069882515
  - # 6
    frequency:    0.1408023753
  - # 7
    frequency:    0.2023500083
  - # 8
    frequency:    2.3928755466
  - # 9
    frequency:    2.3953130656
  - # 10
    frequency:    4.1461313163
  - # 11
    frequency:    5.8574434953
  - # 12
    frequency:    5.8586701811
  - # 13
    frequency:    7.2013140952
  - # 14
    frequency:    7.2022379435
  - # 15
    frequency:    7.7040883720
  - # 16
    frequency:    8.2722994574
  - # 17
    frequency:   13.9179203618
  - # 18
    frequency:   14.6304001185
  - # 19
    frequency:   14.6304184899
  - # 20
    frequency:   16.0928755338
  - # 21
    frequency:   16.0930671155
  - # 22
    frequency:   37.0323172860
  - # 23
    frequency:   37.3828071243
  - # 24
    frequency:   68.4032669420

- q-position: [    0.0151515,    0.0000000,    0.0000000 ]
  distance:    0.0053168
  band:
  - # 1
    frequency:   -6.6286451650
  - # 2
    frequency:   -6.6196601946
  - # 3
    frequency:   -0.8690587224
  - # 4
    frequency:   -0.8568410173
  - # 5
    frequency:    0.0157068862
  - # 6
    frequency:    0.2091537412
  - # 7
    frequency:    0.3012015464
  - # 8
    frequency:    2.3967568520
  - # 9
    frequency:    2.4022025911
  - # 10
    frequency:    4.1446404799
  - # 11
    frequency:    5.8581540508
  - # 12
    frequency:    5.8609079761
  - # 13
    frequency:    7.2042316132
  - # 14
    frequency:    7.2063256938
  - # 15
    frequency:    7.7032531663
  - # 16
    frequency:    8.2716225053
  - # 17
    frequency:   13.9160301788
  - # 18
    frequency:   14.6288727556
  - # 19
    frequency:   14.6289023729
  - # 20
    frequency:   16.0927642642
  - # 21
    frequency:   16.0931958407
  - # 22
    frequency:   37.0294883893
  - # 23
    frequency:   37.3830201336
  - # 24
    frequency:   68.3978071783

- q-position: [    0.0202020,    0.0000000,    0.0000000 ]
  distance:    0.0070890
  band:
  - # 1
    frequency:   -6.6230236812
  - # 2
    frequency:   -6.6070584130
  - # 3
    frequency:   -0.8765097116
  - # 4
    frequency:   -0.8542832923
  - # 5
    frequency:    0.0278850886
  - # 6
    frequency:    0.2753799483
  - # 7
    frequency:    0.3977876191
  - # 8
    frequency:    2.4021583244
  - # 9
    frequency:    2.4117452106
  - # 10
    frequency:    4.1425618884
  - # 11
    frequency:    5.8591512184
  - # 12
    frequency:    5.8640320394
  - # 13
    frequency:    7.2083053959
  - # 14
    frequency:    7.2120661817
  - # 15
    frequency:    7.7020840106
  - # 16
    frequency:    8.2706974736
  - # 17
    frequency:   13.9133810942
  - # 18
    frequency:   14.6267494646
  - # 19
    frequency:   14.6267732518
  - # 20
    frequency:   16.0926100554
  - # 21
    frequency:   16.0933785948
  - # 22
    frequency:   37.0255318751
  - # 23
    frequency:   37.3833195785
  - # 24
    frequency:   68.3901788417

- q-position: [    0.0252525,    0.0000000,    0.0000000 ]
  distance:    0.0088613
  band:
  - # 1
    frequency:   -6.6158466393
  - # 2
    frequency:   -6.5909174761
  - # 3
    frequency:   -0.8848464210
  - # 4
    frequency:   -0.8493189988
  - # 5
    frequency:    0.0435037251
  - # 6
    frequency:    0.3391980619
  - # 7
    frequency:    0.4919629978
  - # 8
    frequency:    2.4090480844
  - # 9
    frequency:    2.4238426522
  - # 10
    frequency:    4.1399038174
  - # 11
    frequency:    5.8604373229
  - # 12
    frequency:    5.8680338537
  - # 13
    frequency:    7.2135247619
  - # 14
    frequency:    7.2194761808
  - # 15
    frequency:    7.7005809260
  - # 16
    frequency:    8.2695473101
  - # 17
    frequency:   13.9099700201
  - # 18
    frequency:   14.6240251602
  - # 19
    frequency:   14.6240451789
  - # 20
    frequency:   16.0924144536
  - # 21
    frequency:   16.0936179041
  - # 22
    frequency:   37.0204517892
  - # 23
    frequency:   37.3837065764
  - # 24
    frequency:   68.3803972135

- q-position: [    0.0303030,    0.0000000,    0.0000000 ]
  distance:    0.0106335
  band:
  - # 1
    frequency:   -6.6071516096
  - # 2
    frequency:   -6.5712837971
  - # 3
    frequency:   -0.8934852695
  - # 4
    frequency:   -0.8412345785
  - # 5
    frequency:    0.0625508062
  - # 6
    frequency:    0.4005131831
  - # 7
    frequency:    0.5837928068
  - # 8
    frequency:    2.4173858135
  - # 9
    frequency:    2.4383745047
  - # 10
    frequency:    4.1366764851
  - # 11
    frequency:    5.8620152622
  - # 12
    frequency:    5.8729029241
  - # 13
    frequency:    7.2198760642
  - # 14
    frequency:    7.2285760039
  - # 15
    frequency:    7.6987437928
  - # 16
    frequency:    8.2682018863
  - # 17
    frequency:   13.9057926118
  - # 18
    frequency:   14.6206512692
  - # 19
    frequency:   14.6207789782
  - # 20
    frequency:   16.0921794156
  - # 21
    frequency:   16.0939169966
  - # 22
    frequency:   37.0142534699
  - # 23
    frequency:   37.3841824134
  - # 24
    frequency:   68.3684818682

- q-position: [    0.0353535,    0.0000000,    0.0000000 ]
  distance:    0.0124058
  band:
  - # 1
    frequency:   -6.5969841011
  - # 2
    frequency:   -6.5482145121
  - # 3
    frequency:   -0.9019249052
  - # 4
    frequency:   -0.8294361152
  - # 5
    frequency:    0.0850312243
  - # 6
    frequency:    0.4593596430
  - # 7
    frequency:    0.6734548125
  - # 8
    frequency:    2.4271232369
  - # 9
    frequency:    2.4552020178
  - # 10
    frequency:    4.1328917546
  - # 11
    frequency:    5.8638884404
  - # 12
    frequency:    5.8786270897
  - # 13
    frequency:    7.2273427542
  - # 14
    frequency:    7.2393885295
  - # 15
    frequency:    7.6965722617
  - # 16
    frequency:    8.2666982983
  - # 17
    frequency:   13.9008429827
  - # 18
    frequency:   14.6166445133
  - # 19
    frequency:   14.6169739969
  - # 20
    frequency:   16.0919072864
  - # 21
    frequency:   16.0942797865
  - # 22
    frequency:   37.0069436304
  - # 23
    frequency:   37.3847484511
  - # 24
    frequency:   68.3544566189

- q-position: [    0.0404040,    0.0000000,    0.0000000 ]
  distance:    0.0141781
  band:
  - # 1
    frequency:   -6.5853973098
  - # 2
    frequency:   -6.5217776787
  - # 3
    frequency:   -0.9097559891
  - # 4
    frequency:   -0.8134362354
  - # 5
    frequency:    0.1109790965
  - # 6
    frequency:    0.5158482473
  - # 7
    frequency:    0.7611694127
  - # 8
    frequency:    2.4382046946
  - # 9
    frequency:    2.4741721371
  - # 10
    frequency:    4.1285627931
  - # 11
    frequency:    5.8660606905
  - # 12
    frequency:    5.8851928704
  - # 13
    frequency:    7.2359054591
  - # 14
    frequency:    7.2519379685
  - # 15
    frequency:    7.6940656693
  - # 16
    frequency:    8.2650812654
  - # 17
    frequency:   13.8951133495
  - # 18
    frequency:   14.6119983499
  - # 19
    frequency:   14.6126573096
  - # 20
    frequency:   16.0916007729
  - # 21
    frequency:   16.0947108520
  - # 22
    frequency:   36.9985304414
  - # 23
    frequency:   37.3854060314
  - # 24
    frequency:   68.3383494514

- q-position: [    0.0454545,    0.0000000,    0.0000000 ]
  distance:    0.0159503
  band:
  - # 1
    frequency:   -6.5724518152
  - # 2
    frequency:   -6.4920524683
  - # 3
    frequency:   -0.9166536195
  - # 4
    frequency:   -0.7928295226
  - # 5
    frequency:    0.1404729938
  - # 6
    frequency:    0.5701277222
  - # 7
    frequency:    0.8471581941
  - # 8
    frequency:    2.4505677869
  - # 9
    frequency:    2.4951215408
  - # 10
    frequency:    4.1237036960
  - # 11
    frequency:    5.8685361845
  - # 12
    frequency:    5.8925858327
  - # 13
    frequency:    7.2455420717
  - # 14
    frequency:    7.2662483434
  - # 15
    frequency:    7.6912229747
  - # 16
    frequency:    8.2634036481
  - # 17
    frequency:   13.8885936102
  - # 18
    frequency:   14.6067076460
  - # 19
    frequency:   14.6078597947
  - # 20
    frequency:   16.0912629144
  - # 21
    frequency:   16.0952154076
  - # 22
    frequency:   36.9890236062
  - # 23
    frequency:   37.3861563863
  - # 24
    frequency:   68.3201924461

- q-position: [    0.0505051,    0.0000000,    0.0000000 ]
  distance:    0.0177226
  band:
  - # 1
    frequency:   -6.5582152257
  - # 2
    frequency:   -6.4591293329
  - # 3
    frequency:   -0.9223631046
  - # 4
    frequency:   -0.7672722721
  - # 5
    frequency:    0.1736540254
  - # 6
    frequency:    0.6223599528
  - # 7
    frequency:    0.9316227261
  - # 8
    frequency:    2.4641440848
  - # 9
    frequency:    2.5178804841
  - # 10
    frequency:    4.1183290922
  - # 11
    frequency:    5.8713193363
  - # 12
    frequency:    5.9007909543
  - # 13
    frequency:    7.2562278526
  - # 14
    frequency:    7.2823416357
  - # 15
    frequency:    7.6880427396
  - # 16
    frequency:    8.2617271137
  - # 17
    frequency:   13.8812708528
  - # 18
    frequency:   14.6007696848
  - # 19
    frequency:   14.6026159734
  - # 20
    frequency:   16.0908970505
  - # 21
    frequency:   16.0957992688
  - # 22
    frequency:   36.9784344229
  - # 23
    frequency:   37.3870005575
  - # 24
    frequency:   68.3000216887

- q-position: [    0.0555556,    0.0000000,    0.0000000 ]
  distance:    0.0194948
  band:
  - # 1
    frequency:   -6.5427617686
  - # 2
    frequency:   -6.4231101227
  - # 3
    frequency:   -0.9266850112
  - # 4
    frequency:   -0.7364749059
  - # 5
    frequency:    0.2107454796
  - # 6
    frequency:    0.6727055926
  - # 7
    frequency:    1.0147353562
  - # 8
    frequency:    2.4788598889
  - # 9
    frequency:    2.5422763065
  - # 10
    frequency:    4.1124537410
  - # 11
    frequency:    5.8744146954
  - # 12
    frequency:    5.9097929685
  - # 13
    frequency:    7.2679355440
  - # 14
    frequency:    7.3002355438
  - # 15
    frequency:    7.6845231823
  - # 16
    frequency:    8.2601229863
  - # 17
    frequency:   13.8731288000
  - # 18
    frequency:   14.5941852816
  - # 19
    frequency:   14.5969638244
  - # 20
    frequency:   16.0905067875
  - # 21
    frequency:   16.0964688098
  - # 22
    frequency:   36.9667758305
  - # 23
    frequency:   37.3879393307
  - # 24
    frequency:   68.2778771700

- q-position: [    0.0606061,    0.0000000,    0.0000000 ]
  distance:    0.0212671
  band:
  - # 1
    frequency:   -6.5261718259
  - # 2
    frequency:   -6.3841081312
  - # 3
    frequency:   -0.9294620390
  - # 4
    frequency:   -0.7002125914
  - # 5
    frequency:    0.2520692088
  - # 6
    frequency:    0.7213165063
  - # 7
    frequency:    1.0966363522
  - # 8
    frequency:    2.4946370244
  - # 9
    frequency:    2.5681365102
  - # 10
    frequency:    4.1060921366
  - # 11
    frequency:    5.8778268358
  - # 12
    frequency:    5.9195766699
  - # 13
    frequency:    7.2806354953
  - # 14
    frequency:    7.3199407644
  - # 15
    frequency:    7.6806623533
  - # 16
    frequency:    8.2586733295
  - # 17
    frequency:   13.8641471960
  - # 18
    frequency:   14.5869599931
  - # 19
    frequency:   14.5909445730
  - # 20
    frequency:   16.0900959627
  - # 21
    frequency:   16.0972309119
  - # 22
    frequency:   36.9540624363
  - # 23
    frequency:   37.3889731857
  - # 24
    frequency:   68.2538026745

- q-position: [    0.0656566,    0.0000000,    0.0000000 ]
  distance:    0.0230393
  band:
  - # 1
    frequency:   -6.5085314139
  - # 2
    frequency:   -6.3422480408
  - # 3
    frequency:   -0.9305684153
  - # 4
    frequency:   -0.6583573756
  - # 5
    frequency:    0.2980459916
  - # 6
    frequency:    0.7683323468
  - # 7
    frequency:    1.1774340801
  - # 8
    frequency:    2.5113936569
  - # 9
    frequency:    2.5952913620
  - # 10
    frequency:    4.0992581355
  - # 11
    frequency:    5.8815602405
  - # 12
    frequency:    5.9301271619
  - # 13
    frequency:    7.2942957989
  - # 14
    frequency:    7.3414576717
  - # 15
    frequency:    7.6764585083
  - # 16
    frequency:    8.2574723228
  - # 17
    frequency:   13.8543011492
  - # 18
    frequency:   14.5791054006
  - # 19
    frequency:   14.5846024545
  - # 20
    frequency:   16.0896686090
  - # 21
    frequency:   16.0980929038
  - # 22
    frequency:   36.9403105244
  - # 23
    frequency:   37.3901022628
  - # 24
    frequency:   68.2278456586

- q-position: [    0.0707071,    0.0000000,    0.0000000 ]
  distance:    0.0248116
  band:
  - # 1
    frequency:   -6.4899316086
  - # 2
    frequency:   -6.2976657463
  - # 3
    frequency:   -0.9299016812
  - # 4
    frequency:   -0.6109248944
  - # 5
    frequency:    0.3491531264
  - # 6
    frequency:    0.8138794706
  - # 7
    frequency:    1.2572064656
  - # 8
    frequency:    2.5290451154
  - # 9
    frequency:    2.6235760079
  - # 10
    frequency:    4.0919646185
  - # 11
    frequency:    5.8856191830
  - # 12
    frequency:    5.9414300328
  - # 13
    frequency:    7.3088824368
  - # 14
    frequency:    7.3647721896
  - # 15
    frequency:    7.6719108173
  - # 16
    frequency:    8.2566280063
  - # 17
    frequency:   13.8435604496
  - # 18
    frequency:   14.5706404366
  - # 19
    frequency:   14.5779844507
  - # 20
    frequency:   16.0892289190
  - # 21
    frequency:   16.0990624929
  - # 22
    frequency:   36.9255380470
  - # 23
    frequency:   37.3913263447
  - # 24
    frequency:   68.2000571188

- q-position: [    0.0757576,    0.0000000,    0.0000000 ]
  distance:    0.0265839
  band:
  - # 1
    frequency:   -6.4704679163
  - # 2
    frequency:   -6.2505080289
  - # 3
    frequency:   -0.9273764478
  - # 4
    frequency:   -0.5580947341
  - # 5
    frequency:    0.4057992912
  - # 6
    frequency:    0.8580710813
  - # 7
    frequency:    1.3360029003
  - # 8
    frequency:    2.5475047088
  - # 9
    frequency:    2.6528321193
  - # 10
    frequency:    4.0842232060
  - # 11
    frequency:    5.8900076082
  - # 12
    frequency:    5.9534714465
  - # 13
    frequency:    7.3243594372
  - # 14
    frequency:    7.3898505033
  - # 15
    frequency:    7.6670206838
  - # 16
    frequency:    8.2562644863
  - # 17
    frequency:   13.8318888901
  - # 18
    frequency:   14.5615927207
  - # 19
    frequency:   14.5711400012
  - # 20
    frequency:   16.0887812098
  - # 21
    frequency:   16.1001476879
  - # 22
    frequency:   36.9097645990
  - # 23
    frequency:   37.3926448522
  - # 24
    frequency:   68.1704914493

- q-position: [    0.0808081,    0.0000000,    0.0000000 ]
  distance:    0.0283561
  band:
  - # 1
    frequency:   -6.4502395951
  - # 2
    frequency:   -6.2009320626
  - # 3
    frequency:   -0.9229196552
  - # 4
    frequency:   -0.5000926960
  - # 5
    frequency:    0.4680955247
  - # 6
    frequency:    0.9010079597
  - # 7
    frequency:    1.4138462440
  - # 8
    frequency:    2.5666845240
  - # 9
    frequency:    2.6829091023
  - # 10
    frequency:    4.0760440379
  - # 11
    frequency:    5.8947290137
  - # 12
    frequency:    5.9662381412
  - # 13
    frequency:    7.3406890402
  - # 14
    frequency:    7.4166319182
  - # 15
    frequency:    7.6617942768
  - # 16
    frequency:    8.2565247017
  - # 17
    frequency:   13.8192436329
  - # 18
    frequency:   14.5519998536
  - # 19
    frequency:   14.5641206874
  - # 20
    frequency:   16.0883298892
  - # 21
    frequency:   16.1013567137
  - # 22
    frequency:   36.8930113795
  - # 23
    frequency:   37.3940568497
  - # 24
    frequency:   68.1392062910

- q-position: [    0.0858586,    0.0000000,    0.0000000 ]
  distance:    0.0301284
  band:
  - # 1
    frequency:   -6.4293489297
  - # 2
    frequency:   -6.1491047334
  - # 3
    frequency:   -0.9164669139
  - # 4
    frequency:   -0.4367439076
  - # 5
    frequency:    0.5355989205
  - # 6
    frequency:    0.9427794188
  - # 7
    frequency:    1.4907348268
  - # 8
    frequency:    2.5864961935
  - # 9
    frequency:    2.7136649115
  - # 10
    frequency:    4.0674356340
  - # 11
    frequency:    5.8997863326
  - # 12
    frequency:    5.9797173326
  - # 13
    frequency:    7.3578318738
  - # 14
    frequency:    7.4450183035
  - # 15
    frequency:    7.6562477485
  - # 16
    frequency:    8.2575738554
  - # 17
    frequency:   13.8055746712
  - # 18
    frequency:   14.5419106103
  - # 19
    frequency:   14.5569798918
  - # 20
    frequency:   16.0878794233
  - # 21
    frequency:   16.1026979198
  - # 22
    frequency:   36.8753011423
  - # 23
    frequency:   37.3955610612
  - # 24
    frequency:   68.1062623714

- q-position: [    0.0909091,    0.0000000,    0.0000000 ]
  distance:    0.0319006
  band:
  - # 1
    frequency:   -6.4079004657
  - # 2
    frequency:   -6.0952017619
  - # 3
    frequency:   -0.9079595756
  - # 4
    frequency:   -0.3664579863
  - # 5
    frequency:    0.6072337075
  - # 6
    frequency:    0.9834643008
  - # 7
    frequency:    1.5666444715
  - # 8
    frequency:    2.6068516243
  - # 9
    frequency:    2.7449665128
  - # 10
    frequency:    4.0584048478
  - # 11
    frequency:    5.9051818198
  - # 12
    frequency:    5.9938965232
  - # 13
    frequency:    7.3757471382
  - # 14
    frequency:    7.4748559670
  - # 15
    frequency:    7.6504192339
  - # 16
    frequency:    8.2596035830
  - # 17
    frequency:   13.7908244551
  - # 18
    frequency:   14.5313859585
  - # 19
    frequency:   14.5497724333
  - # 20
    frequency:   16.0874343055
  - # 21
    frequency:   16.1041796827
  - # 22
    frequency:   36.8566581378
  - # 23
    frequency:   37.3971558905
  - # 24
    frequency:   68.0717233351

- q-position: [    0.0959596,    0.0000000,    0.0000000 ]
  distance:    0.0336729
  band:
  - # 1
    frequency:   -6.3860002129
  - # 2
    frequency:   -6.0394066252
  - # 3
    frequency:   -0.8973422402
  - # 4
    frequency:   -0.2839250725
  - # 5
    frequency:    0.6815318041
  - # 6
    frequency:    1.0231319285
  - # 7
    frequency:    1.6415306016
  - # 8
    frequency:    2.6276636793
  - # 9
    frequency:    2.7766900339
  - # 10
    frequency:    4.0489569273
  - # 11
    frequency:    5.9109169422
  - # 12
    frequency:    6.0087632265
  - # 13
    frequency:    7.3943927981
  - # 14
    frequency:    7.5058966113
  - # 15
    frequency:    7.6444010094
  - # 16
    frequency:    8.2628368532
  - # 17
    frequency:   13.7749277600
  - # 18
    frequency:   14.5204998145
  - # 19
    frequency:   14.5425541799
  - # 20
    frequency:   16.0869990283
  - # 21
    frequency:   16.1058103049
  - # 22
    frequency:   36.8371080484
  - # 23
    frequency:   37.3988394465
  - # 24
    frequency:   68.0356555678

- q-position: [    0.1010101,    0.0000000,    0.0000000 ]
  distance:    0.0354451
  band:
  - # 1
    frequency:   -6.3637548248
  - # 2
    frequency:   -5.9819092839
  - # 3
    frequency:   -0.8845604484
  - # 4
    frequency:   -0.1698531323
  - # 5
    frequency:    0.7570417966
  - # 6
    frequency:    1.0618429805
  - # 7
    frequency:    1.7153305084
  - # 8
    frequency:    2.6488468062
  - # 9
    frequency:    2.8087206391
  - # 10
    frequency:    4.0390956941
  - # 11
    frequency:    5.9169922745
  - # 12
    frequency:    6.0243046163
  - # 13
    frequency:    7.4137257845
  - # 14
    frequency:    7.5376830949
  - # 15
    frequency:    7.6384463007
  - # 16
    frequency:    8.2675334085
  - # 17
    frequency:   13.7578118862
  - # 18
    frequency:   14.5093394423
  - # 19
    frequency:   14.5353816412
  - # 20
    frequency:   16.0865780567
  - # 21
    frequency:   16.1075979121
  - # 22
    frequency:   36.8166779192
  - # 23
    frequency:   37.4006095702
  - # 24
    frequency:   67.9981280111

- q-position: [    0.1060606,    0.0000000,    0.0000000 ]
  distance:    0.0372174
  band:
  - # 1
    frequency:   -6.3412707668
  - # 2
    frequency:   -5.9229047313
  - # 3
    frequency:   -0.8695583325
  - # 4
    frequency:    0.1488836296
  - # 5
    frequency:    0.8326203181
  - # 6
    frequency:    1.0996502883
  - # 7
    frequency:    1.7879658363
  - # 8
    frequency:    2.6703176083
  - # 9
    frequency:    2.8409521572
  - # 10
    frequency:    4.0288238529
  - # 11
    frequency:    5.9234074013
  - # 12
    frequency:    6.0405071211
  - # 13
    frequency:    7.4337022023
  - # 14
    frequency:    7.5690581644
  - # 15
    frequency:    7.6334531407
  - # 16
    frequency:    8.2739952080
  - # 17
    frequency:   13.7393972865
  - # 18
    frequency:   14.4980053945
  - # 19
    frequency:   14.5283115434
  - # 20
    frequency:   16.0861758048
  - # 21
    frequency:   16.1095503511
  - # 22
    frequency:   36.7953960859
  - # 23
    frequency:   37.4024638625
  - # 24
    frequency:   67.9592119718

- q-position: [    0.1111111,    0.0000000,    0.0000000 ]
  distance:    0.0389897
  band:
  - # 1
    frequency:   -6.3186534852
  - # 2
    frequency:   -5.8625913906
  - # 3
    frequency:   -0.8522759962
  - # 4
    frequency:    0.2712390410
  - # 5
    frequency:    0.9075028265
  - # 6
    frequency:    1.1365995728
  - # 7
    frequency:    1.8593453198
  - # 8
    frequency:    2.6919953564
  - # 9
    frequency:    2.8732864874
  - # 10
    frequency:    4.0181434415
  - # 11
    frequency:    5.9301608267
  - # 12
    frequency:    6.0573559811
  - # 13
    frequency:    7.4542775456
  - # 14
    frequency:    7.5951234889
  - # 15
    frequency:    7.6339991157
  - # 16
    frequency:    8.2825707408
  - # 17
    frequency:   13.7195987078
  - # 18
    frequency:   14.4866109022
  - # 19
    frequency:   14.5214003908
  - # 20
    frequency:   16.0857966139
  - # 21
    frequency:   16.1116750898
  - # 22
    frequency:   36.7732921000
  - # 23
    frequency:   37.4043997113
  - # 24
    frequency:   67.9189809239

- q-position: [    0.1161616,    0.0000000,    0.0000000 ]
  distance:    0.0407619
  band:
  - # 1
    frequency:   -6.2960065902
  - # 2
    frequency:   -5.8011693977
  - # 3
    frequency:   -0.8326463700
  - # 4
    frequency:    0.3553984161
  - # 5
    frequency:    0.9812377275
  - # 6
    frequency:    1.1727301384
  - # 7
    frequency:    1.9293677782
  - # 8
    frequency:    2.7138024397
  - # 9
    frequency:    2.9056328033
  - # 10
    frequency:    4.0070564297
  - # 11
    frequency:    5.9372498921
  - # 12
    frequency:    6.0748347928
  - # 13
    frequency:    7.4754069178
  - # 14
    frequency:    7.6028281985
  - # 15
    frequency:    7.6527498492
  - # 16
    frequency:    8.2936561976
  - # 17
    frequency:   13.6983269202
  - # 18
    frequency:   14.4752806388
  - # 19
    frequency:   14.5147040167
  - # 20
    frequency:   16.0854447334
  - # 21
    frequency:   16.1139791219
  - # 22
    frequency:   36.7503966529
  - # 23
    frequency:   37.4064143183
  - # 24
    frequency:   67.8775103054

- q-position: [    0.1212121,    0.0000000,    0.0000000 ]
  distance:    0.0425342
  band:
  - # 1
    frequency:   -6.2734310674
  - # 2
    frequency:   -5.7388388181
  - # 3
    frequency:   -0.8105912241
  - # 4
    frequency:    0.4255618078
  - # 5
    frequency:    1.0535873583
  - # 6
    frequency:    1.2080755508
  - # 7
    frequency:    1.9979253409
  - # 8
    frequency:    2.7356647566
  - # 9
    frequency:    2.9379065732
  - # 10
    frequency:    3.9955654779
  - # 11
    frequency:    5.9446707035
  - # 12
    frequency:    6.0929250627
  - # 13
    frequency:    7.4970452573
  - # 14
    frequency:    7.5982986211
  - # 15
    frequency:    7.6831326606
  - # 16
    frequency:    8.3076904170
  - # 17
    frequency:   13.6754910659
  - # 18
    frequency:   14.4641488207
  - # 19
    frequency:   14.5082771287
  - # 20
    frequency:   16.0851243040
  - # 21
    frequency:   16.1164688791
  - # 22
    frequency:   36.7267414994
  - # 23
    frequency:   37.4085047232
  - # 24
    frequency:   67.8348773098

- q-position: [    0.1262626,    0.0000000,    0.0000000 ]
  distance:    0.0443064
  band:
  - # 1
    frequency:   -6.2510245320
  - # 2
    frequency:   -5.6757978501
  - # 3
    frequency:   -0.7860159045
  - # 4
    frequency:    0.4883443257
  - # 5
    frequency:    1.1244456214
  - # 6
    frequency:    1.2426643175
  - # 7
    frequency:    2.0649068482
  - # 8
    frequency:    2.7575120472
  - # 9
    frequency:    2.9700284152
  - # 10
    frequency:    3.9836748624
  - # 11
    frequency:    5.9524180694
  - # 12
    frequency:    6.1116057926
  - # 13
    frequency:    7.5191475651
  - # 14
    frequency:    7.5907131781
  - # 15
    frequency:    7.7154753958
  - # 16
    frequency:    8.3251396986
  - # 17
    frequency:   13.6510016166
  - # 18
    frequency:   14.4533566570
  - # 19
    frequency:   14.5021728536
  - # 20
    frequency:   16.0848393426
  - # 21
    frequency:   16.1191501503
  - # 22
    frequency:   36.7023593800
  - # 23
    frequency:   37.4106678272
  - # 24
    frequency:   67.7911606731

- q-position: [    0.1313131,    0.0000000,    0.0000000 ]
  distance:    0.0460787
  band:
  - # 1
    frequency:   -6.2288805393
  - # 2
    frequency:   -5.6122410762
  - # 3
    frequency:   -0.7588021531
  - # 4
    frequency:    0.5466260018
  - # 5
    frequency:    1.1937820562
  - # 6
    frequency:    1.2765205918
  - # 7
    frequency:    2.1302013442
  - # 8
    frequency:    2.7792781697
  - # 9
    frequency:    3.0019228070
  - # 10
    frequency:    3.9713915765
  - # 11
    frequency:    5.9604854492
  - # 12
    frequency:    6.1308531166
  - # 13
    frequency:    7.5416691344
  - # 14
    frequency:    7.5819677936
  - # 15
    frequency:    7.7473686640
  - # 16
    frequency:    8.3464689481
  - # 17
    frequency:   13.6247738564
  - # 18
    frequency:   14.4430492288
  - # 19
    frequency:   14.4964422865
  - # 20
    frequency:   16.0845937295
  - # 21
    frequency:   16.1220280119
  - # 22
    frequency:   36.6772839431
  - # 23
    frequency:   37.4129004137
  - # 24
    frequency:   67.7464404570

- q-position: [    0.1363636,    0.0000000,    0.0000000 ]
  distance:    0.0478509
  band:
  - # 1
    frequency:   -6.2070879661
  - # 2
    frequency:   -5.5483578225
  - # 3
    frequency:   -0.7287980049
  - # 4
    frequency:    0.6019028707
  - # 5
    frequency:    1.2616072995
  - # 6
    frequency:    1.3096649121
  - # 7