nqpoint: 300    
npath: 3      
segment_nqpoint:
- 100
- 100
- 100
labels:
- [ 'G', 'M' ]
- [ 'M', 'K' ]
- [ 'K', 'G' ]
reciprocal_lattice:
- [   0.29387161,   0.16966686,   0.00000000 ] # a*
- [   0.00000000,   0.33933371,   0.00000000 ] # b*
- [   0.00000000,   0.00000000,   0.03665573 ] # c*
natom: 7      
lattice:
- [     3.402846525664774,     0.000000000000000,     0.000000000000000 ] # a
- [    -1.701423262832387,     2.946951536409530,     0.000000000000000 ] # b
- [     0.000000000000000,     0.000000000000000,    27.280863314874829 ] # c
points:
- symbol: Cl # 1
  coordinates: [  0.333332985432215,  0.666666983183674,  0.670098416750148 ]
  mass: 35.453000
- symbol: N # 2
  coordinates: [  0.000000000000000,  0.000000000000000,  0.472003594544352 ]
  mass: 14.006700
- symbol: O # 3
  coordinates: [  0.333332985432215,  0.666666983183674,  0.570441411538541 ]
  mass: 15.999400
- symbol: O # 4
  coordinates: [  0.666666984744047,  0.333332985985145,  0.329901583249852 ]
  mass: 15.999400
- symbol: P # 5
  coordinates: [  0.666666984744047,  0.333332985985145,  0.384246932776753 ]
  mass: 30.973762
- symbol: Sc # 6
  coordinates: [  0.333332985432215,  0.666666983183674,  0.489497389115718 ]
  mass: 44.955912
- symbol: Sc # 7
  coordinates: [  0.666666984744047,  0.333332985985145,  0.604135715973620 ]
  mass: 44.955912

phonon:
- q-position: [    0.0000000,    0.0000000,    0.0000000 ]
  distance:    0.0000000
  band:
  - # 1
    frequency:   -0.7337350333
  - # 2
    frequency:   -0.7337350333
  - # 3
    frequency:   -0.0000028324
  - # 4
    frequency:   -0.0000009849
  - # 5
    frequency:    0.0000029628
  - # 6
    frequency:    1.0669659282
  - # 7
    frequency:    1.0669659282
  - # 8
    frequency:    2.1286919648
  - # 9
    frequency:    3.8220199106
  - # 10
    frequency:    3.8220199106
  - # 11
    frequency:    4.0563581335
  - # 12
    frequency:    4.0563581335
  - # 13
    frequency:    5.2704000016
  - # 14
    frequency:    5.9229539176
  - # 15
    frequency:    5.9229539176
  - # 16
    frequency:    8.6379470908
  - # 17
    frequency:   10.6497276231
  - # 18
    frequency:   14.6290240753
  - # 19
    frequency:   18.1809617549
  - # 20
    frequency:   18.1809617549
  - # 21
    frequency:   35.4316785556

- q-position: [    0.0050505,    0.0000000,    0.0000000 ]
  distance:    0.0017138
  band:
  - # 1
    frequency:   -0.7330015712
  - # 2
    frequency:   -0.7319344746
  - # 3
    frequency:   -0.0689923688
  - # 4
    frequency:    0.0525322132
  - # 5
    frequency:    0.1242645611
  - # 6
    frequency:    1.0695141403
  - # 7
    frequency:    1.0713543626
  - # 8
    frequency:    2.1275884824
  - # 9
    frequency:    3.8223732549
  - # 10
    frequency:    3.8224031387
  - # 11
    frequency:    4.0559849027
  - # 12
    frequency:    4.0565319583
  - # 13
    frequency:    5.2705453188
  - # 14
    frequency:    5.9236340419
  - # 15
    frequency:    5.9250136692
  - # 16
    frequency:    8.6372824535
  - # 17
    frequency:   10.6486682878
  - # 18
    frequency:   14.6281730182
  - # 19
    frequency:   18.1806459307
  - # 20
    frequency:   18.1827942858
  - # 21
    frequency:   35.4313042265

- q-position: [    0.0101010,    0.0000000,    0.0000000 ]
  distance:    0.0034276
  band:
  - # 1
    frequency:   -0.7308204263
  - # 2
    frequency:   -0.7267844906
  - # 3
    frequency:   -0.0869443798
  - # 4
    frequency:    0.1051744125
  - # 5
    frequency:    0.2245394710
  - # 6
    frequency:    1.0771108865
  - # 7
    frequency:    1.0844872252
  - # 8
    frequency:    2.1242685603
  - # 9
    frequency:    3.8233622899
  - # 10
    frequency:    3.8235469901
  - # 11
    frequency:    4.0549414810
  - # 12
    frequency:    4.0570538946
  - # 13
    frequency:    5.2709975669
  - # 14
    frequency:    5.9256683618
  - # 15
    frequency:    5.9311813762
  - # 16
    frequency:    8.6352939411
  - # 17
    frequency:   10.6454943678
  - # 18
    frequency:   14.6256277759
  - # 19
    frequency:   18.1796988229
  - # 20
    frequency:   18.1882798834
  - # 21
    frequency:   35.4301819558

- q-position: [    0.0151515,    0.0000000,    0.0000000 ]
  distance:    0.0051414
  band:
  - # 1
    frequency:   -0.7272498771
  - # 2
    frequency:   -0.7190046347
  - # 3
    frequency:   -0.1036375604
  - # 4
    frequency:    0.1580401548
  - # 5
    frequency:    0.3280235214
  - # 6
    frequency:    1.0896156123
  - # 7
    frequency:    1.1062658106
  - # 8
    frequency:    2.1187045261
  - # 9
    frequency:    3.8247686524
  - # 10
    frequency:    3.8254340668
  - # 11
    frequency:    4.0534626872
  - # 12
    frequency:    4.0579254025
  - # 13
    frequency:    5.2718043218
  - # 14
    frequency:    5.9290393746
  - # 15
    frequency:    5.9414224373
  - # 16
    frequency:    8.6319976701
  - # 17
    frequency:   10.6402180832
  - # 18
    frequency:   14.6214119301
  - # 19
    frequency:   18.1781215250
  - # 20
    frequency:   18.1973828188
  - # 21
    frequency:   35.4283138907

- q-position: [    0.0202020,    0.0000000,    0.0000000 ]
  distance:    0.0068552
  band:
  - # 1
    frequency:   -0.7223882110
  - # 2
    frequency:   -0.7096905342
  - # 3
    frequency:   -0.1198684316
  - # 4
    frequency:    0.2112467206
  - # 5
    frequency:    0.4329076512
  - # 6
    frequency:    1.1068040912
  - # 7
    frequency:    1.1365206463
  - # 8
    frequency:    2.1108528701
  - # 9
    frequency:    3.8262135568
  - # 10
    frequency:    3.8280357077
  - # 11
    frequency:    4.0519567786
  - # 12
    frequency:    4.0591491569
  - # 13
    frequency:    5.2730406555
  - # 14
    frequency:    5.9337200126
  - # 15
    frequency:    5.9556793316
  - # 16
    frequency:    8.6274202297
  - # 17
    frequency:   10.6328596766
  - # 18
    frequency:   14.6155641103
  - # 19
    frequency:   18.1759158556
  - # 20
    frequency:   18.2100443870
  - # 21
    frequency:   35.4257036006

- q-position: [    0.0252525,    0.0000000,    0.0000000 ]
  distance:    0.0085690
  band:
  - # 1
    frequency:   -0.7163733274
  - # 2
    frequency:   -0.7001962686
  - # 3
    frequency:   -0.1343197989
  - # 4
    frequency:    0.2649097972
  - # 5
    frequency:    0.5381912140
  - # 6
    frequency:    1.1283822735
  - # 7
    frequency:    1.1750036082
  - # 8
    frequency:    2.1006585404
  - # 9
    frequency:    3.8271480570
  - # 10
    frequency:    3.8313124780
  - # 11
    frequency:    4.0510179722
  - # 12
    frequency:    4.0607293791
  - # 13
    frequency:    5.2748033153
  - # 14
    frequency:    5.9396765160
  - # 15
    frequency:    5.9738718661
  - # 16
    frequency:    8.6215982818
  - # 17
    frequency:   10.6234472329
  - # 18
    frequency:   14.6081370278
  - # 19
    frequency:   18.1730843535
  - # 20
    frequency:   18.2261841224
  - # 21
    frequency:   35.4223560631

- q-position: [    0.0303030,    0.0000000,    0.0000000 ]
  distance:    0.0102828
  band:
  - # 1
    frequency:   -0.7093788394
  - # 2
    frequency:   -0.6920085001
  - # 3
    frequency:   -0.1457833745
  - # 4
    frequency:    0.3191328783
  - # 5
    frequency:    0.6432051690
  - # 6
    frequency:    1.1540034309
  - # 7
    frequency:    1.2213778710
  - # 8
    frequency:    2.0880618007
  - # 9
    frequency:    3.8268690827
  - # 10
    frequency:    3.8352148313
  - # 11
    frequency:    4.0514137569
  - # 12
    frequency:    4.0626722426
  - # 13
    frequency:    5.2772035128
  - # 14
    frequency:    5.9468719564
  - # 15
    frequency:    5.9958975704
  - # 16
    frequency:    8.6145780156
  - # 17
    frequency:   10.6120164387
  - # 18
    frequency:   14.5991962047
  - # 19
    frequency:   18.1696302703
  - # 20
    frequency:   18.2457014106
  - # 21
    frequency:   35.4182776455

- q-position: [    0.0353535,    0.0000000,    0.0000000 ]
  distance:    0.0119966
  band:
  - # 1
    frequency:   -0.7016051829
  - # 2
    frequency:   -0.6866058538
  - # 3
    frequency:   -0.1534491178
  - # 4
    frequency:    0.3739938368
  - # 5
    frequency:    0.7474170801
  - # 6
    frequency:    1.1832867200
  - # 7
    frequency:    1.2752085429
  - # 8
    frequency:    2.0730087488
  - # 9
    frequency:    3.8245915929
  - # 10
    frequency:    3.8396839309
  - # 11
    frequency:    4.0540161516
  - # 12
    frequency:    4.0649862968
  - # 13
    frequency:    5.2803590815
  - # 14
    frequency:    5.9552700310
  - # 15
    frequency:    6.0216322762
  - # 16
    frequency:    8.6064144723
  - # 17
    frequency:   10.5986102930
  - # 18
    frequency:   14.5888184695
  - # 19
    frequency:   18.1655575609
  - # 20
    frequency:   18.2684774129
  - # 21
    frequency:   35.4134760796

- q-position: [    0.0404040,    0.0000000,    0.0000000 ]
  distance:    0.0137105
  band:
  - # 1
    frequency:   -0.6932657517
  - # 2
    frequency:   -0.6852975128
  - # 3
    frequency:   -0.1570797163
  - # 4
    frequency:    0.4295325256
  - # 5
    frequency:    0.8503863924
  - # 6
    frequency:    1.2158352892
  - # 7
    frequency:    1.3359566914
  - # 8
    frequency:    2.0554674517
  - # 9
    frequency:    3.8195906267
  - # 10
    frequency:    3.8446526212
  - # 11
    frequency:    4.0596625558
  - # 12
    frequency:    4.0676828385
  - # 13
    frequency:    5.2843867699
  - # 14
    frequency:    5.9648387766
  - # 15
    frequency:    6.0509309166
  - # 16
    frequency:    8.5971707567
  - # 17
    frequency:   10.5832787812
  - # 18
    frequency:   14.5770902984
  - # 19
    frequency:   18.1608708727
  - # 20
    frequency:   18.2943772171
  - # 21
    frequency:   35.4079604328

- q-position: [    0.0454545,    0.0000000,    0.0000000 ]
  distance:    0.0154243
  band:
  - # 1
    frequency:   -0.6890722949
  - # 2
    frequency:   -0.6845698859
  - # 3
    frequency:   -0.1572427997
  - # 4
    frequency:    0.4857431756
  - # 5
    frequency:    0.9517560949
  - # 6
    frequency:    1.2512523527
  - # 7
    frequency:    1.4029765626
  - # 8
    frequency:    2.0354534909
  - # 9
    frequency:    3.8113724540
  - # 10
    frequency:    3.8500465537
  - # 11
    frequency:    4.0689863980
  - # 12
    frequency:    4.0707761550
  - # 13
    frequency:    5.2893953501
  - # 14
    frequency:    5.9755539150
  - # 15
    frequency:    6.0836285756
  - # 16
    frequency:    8.5869171573
  - # 17
    frequency:   10.5660785276
  - # 18
    frequency:   14.5641060807
  - # 19
    frequency:   18.1555755322
  - # 20
    frequency:   18.3232521194
  - # 21
    frequency:   35.4017410735

- q-position: [    0.0505051,    0.0000000,    0.0000000 ]
  distance:    0.0171381
  band:
  - # 1
    frequency:   -0.6985259761
  - # 2
    frequency:   -0.6757058439
  - # 3
    frequency:   -0.1555294037
  - # 4
    frequency:    0.5425738087
  - # 5
    frequency:    1.0512472278
  - # 6
    frequency:    1.2891541835
  - # 7
    frequency:    1.4755096479
  - # 8
    frequency:    2.0130734110
  - # 9
    frequency:    3.7997847280
  - # 10
    frequency:    3.8557854815
  - # 11
    frequency:    4.0742835522
  - # 12
    frequency:    4.0823071263
  - # 13
    frequency:    5.2954800698
  - # 14
    frequency:    5.9874016292
  - # 15
    frequency:    6.1195418012
  - # 16
    frequency:    8.5757301996
  - # 17
    frequency:   10.5470724420
  - # 18
    frequency:   14.5499663839
  - # 19
    frequency:   18.1496775308
  - # 20
    frequency:   18.3549419529
  - # 21
    frequency:   35.3948296316

- q-position: [    0.0555556,    0.0000000,    0.0000000 ]
  distance:    0.0188519
  band:
  - # 1
    frequency:   -0.7139158897
  - # 2
    frequency:   -0.6668270401
  - # 3
    frequency:   -0.1545933330
  - # 4
    frequency:    0.5999325806
  - # 5
    frequency:    1.1486448807
  - # 6
    frequency:    1.3291795726
  - # 7
    frequency:    1.5526546638
  - # 8
    frequency:    1.9886091290
  - # 9
    frequency:    3.7850064034
  - # 10
    frequency:    3.8617847509
  - # 11
    frequency:    4.0782250883
  - # 12
    frequency:    4.0996383324
  - # 13
    frequency:    5.3027187860
  - # 14
    frequency:    6.0003806524
  - # 15
    frequency:    6.1584701835
  - # 16
    frequency:    8.5636916564
  - # 17
    frequency:   10.5263293744
  - # 18
    frequency:   14.5347762795
  - # 19
    frequency:   18.1431835088
  - # 20
    frequency:   18.3892773829
  - # 21
    frequency:   35.3872389555

- q-position: [    0.0606061,    0.0000000,    0.0000000 ]
  distance:    0.0205657
  band:
  - # 1
    frequency:   -0.7353213118
  - # 2
    frequency:   -0.6580437642
  - # 3
    frequency:   -0.1577345836
  - # 4
    frequency:    0.6576989795
  - # 5
    frequency:    1.2437663625
  - # 6
    frequency:    1.3709958308
  - # 7
    frequency:    1.6332384361
  - # 8
    frequency:    1.9627230549
  - # 9
    frequency:    3.7674480347
  - # 10
    frequency:    3.8679570180
  - # 11
    frequency:    4.0826229434
  - # 12
    frequency:    4.1207831098
  - # 13
    frequency:    5.3111699248
  - # 14
    frequency:    6.0145036177
  - # 15
    frequency:    6.2001981807
  - # 16
    frequency:    8.5508875431
  - # 17
    frequency:   10.5039237934
  - # 18
    frequency:   14.5186437812
  - # 19
    frequency:   18.1361007375
  - # 20
    frequency:   18.4260821071
  - # 21
    frequency:   35.3789830639

- q-position: [    0.0656566,    0.0000000,    0.0000000 ]
  distance:    0.0222795
  band:
  - # 1
    frequency:   -0.7628339615
  - # 2
    frequency:   -0.6494209014
  - # 3
    frequency:   -0.1678088593
  - # 4
    frequency:    0.7157369006
  - # 5
    frequency:    1.3363950560
  - # 6
    frequency:    1.4143017805
  - # 7
    frequency:    1.7152235095
  - # 8
    frequency:    1.9371608466
  - # 9
    frequency:    3.7476370635
  - # 10
    frequency:    3.8742142077
  - # 11
    frequency:    4.0875003855
  - # 12
    frequency:    4.1454419664
  - # 13
    frequency:    5.3208722375
  - # 14
    frequency:    6.0297976658
  - # 15
    frequency:    6.2444971603
  - # 16
    frequency:    8.5374071234
  - # 17
    frequency:   10.4799355008
  - # 18
    frequency:   14.5016784315
  - # 19
    frequency:   18.1284371013
  - # 20
    frequency:   18.4651749100
  - # 21
    frequency:   35.3700770938

- q-position: [    0.0707071,    0.0000000,    0.0000000 ]
  distance:    0.0239933
  band:
  - # 1
    frequency:   -0.7967061137
  - # 2
    frequency:   -0.6409806602
  - # 3
    frequency:   -0.1859496004
  - # 4
    frequency:    0.7739069010
  - # 5
    frequency:    1.4261360848
  - # 6
    frequency:    1.4588283786
  - # 7
    frequency:    1.7920165281
  - # 8
    frequency:    1.9186275857
  - # 9
    frequency:    3.7261347777
  - # 10
    frequency:    3.8804697032
  - # 11
    frequency:    4.0928803368
  - # 12
    frequency:    4.1732867946
  - # 13
    frequency:    5.3318461956
  - # 14
    frequency:    6.0463043313
  - # 15
    frequency:    6.2911276112
  - # 16
    frequency:    8.5233419526
  - # 17
    frequency:   10.4544493949
  - # 18
    frequency:   14.4839900566
  - # 19
    frequency:   18.1202010775
  - # 20
    frequency:   18.5063715386
  - # 21
    frequency:   35.3605372460

- q-position: [    0.0757576,    0.0000000,    0.0000000 ]
  distance:    0.0257071
  band:
  - # 1
    frequency:   -0.8374159422
  - # 2
    frequency:   -0.6327085103
  - # 3
    frequency:   -0.2112197561
  - # 4
    frequency:    0.8320759369
  - # 5
    frequency:    1.5043376521
  - # 6
    frequency:    1.5120416466
  - # 7
    frequency:    1.8326581073
  - # 8
    frequency:    1.9390029082
  - # 9
    frequency:    3.7034903142
  - # 10
    frequency:    3.8866406993
  - # 11
    frequency:    4.0987836134
  - # 12
    frequency:    4.2039959828
  - # 13
    frequency:    5.3440967772
  - # 14
    frequency:    6.0640787419
  - # 15
    frequency:    6.3398414737
  - # 16
    frequency:    8.5087849801
  - # 17
    frequency:   10.4275552908
  - # 18
    frequency:   14.4656876990
  - # 19
    frequency:   18.1114017166
  - # 20
    frequency:   18.5494863784
  - # 21
    frequency:   35.3503807259

- q-position: [    0.0808081,    0.0000000,    0.0000000 ]
  distance:    0.0274209
  band:
  - # 1
    frequency:   -0.8856321460
  - # 2
    frequency:   -0.6245604841
  - # 3
    frequency:   -0.2413576411
  - # 4
    frequency:    0.8901239843
  - # 5
    frequency:    1.5506205653
  - # 6
    frequency:    1.5913861471
  - # 7
    frequency:    1.8260479242
  - # 8
    frequency:    2.0123519129
  - # 9
    frequency:    3.6802191270
  - # 10
    frequency:    3.8926505943
  - # 11
    frequency:    4.1052269786
  - # 12
    frequency:    4.2372639733
  - # 13
    frequency:    5.3576173564
  - # 14
    frequency:    6.0831881668
  - # 15
    frequency:    6.3903845308
  - # 16
    frequency:    8.4938297350
  - # 17
    frequency:   10.3993478072
  - # 18
    frequency:   14.4468787271
  - # 19
    frequency:   18.1020486205
  - # 20
    frequency:   18.5943339233
  - # 21
    frequency:   35.3396256822

- q-position: [    0.0858586,    0.0000000,    0.0000000 ]
  distance:    0.0291347
  band:
  - # 1
    frequency:   -0.9420716929
  - # 2
    frequency:   -0.6164704244
  - # 3
    frequency:   -0.2736951870
  - # 4
    frequency:    0.9479477415
  - # 5
    frequency:    1.5974943246
  - # 6
    frequency:    1.6552377307
  - # 7
    frequency:    1.8200839454
  - # 8
    frequency:    2.1001937941
  - # 9
    frequency:    3.6567936450
  - # 10
    frequency:    3.8984312277
  - # 11
    frequency:    4.1122212232
  - # 12
    frequency:    4.2727984985
  - # 13
    frequency:    5.3723943942
  - # 14
    frequency:    6.1037099546
  - # 15
    frequency:    6.4424988039
  - # 16
    frequency:    8.4785696114
  - # 17
    frequency:   10.3699263237
  - # 18
    frequency:   14.4276681097
  - # 19
    frequency:   18.0921519221
  - # 20
    frequency:   18.6407300405
  - # 21
    frequency:   35.3282911429

- q-position: [    0.0909091,    0.0000000,    0.0000000 ]
  distance:    0.0308485
  band:
  - # 1
    frequency:   -1.0072693999
  - # 2
    frequency:   -0.6083563244
  - # 3
    frequency:   -0.3057145246
  - # 4
    frequency:    1.0054620177
  - # 5
    frequency:    1.6447994949
  - # 6
    frequency:    1.6839592454
  - # 7
    frequency:    1.8460336192
  - # 8
    frequency:    2.1915656630
  - # 9
    frequency:    3.6336391754
  - # 10
    frequency:    3.9039247414
  - # 11
    frequency:    4.1197695225
  - # 12
    frequency:    4.3103135618
  - # 13
    frequency:    5.3884126323
  - # 14
    frequency:    6.1257289024
  - # 15
    frequency:    6.4959249002
  - # 16
    frequency:    8.4630972670
  - # 17
    frequency:   10.3393950136
  - # 18
    frequency:   14.4081578404
  - # 19
    frequency:   18.0817222623
  - # 20
    frequency:   18.6884930397
  - # 21
    frequency:   35.3163969492

- q-position: [    0.0959596,    0.0000000,    0.0000000 ]
  distance:    0.0325623
  band:
  - # 1
    frequency:   -1.0813257415
  - # 2
    frequency:   -0.6001253950
  - # 3
    frequency:   -0.3353130520
  - # 4
    frequency:    1.0625994947
  - # 5
    frequency:    1.6790599115
  - # 6
    frequency:    1.6923971834
  - # 7
    frequency:    1.9055043762
  - # 8
    frequency:    2.2840906124
  - # 9
    frequency:    3.6111323688
  - # 10
    frequency:    3.9090848459
  - # 11
    frequency:    4.1278663110
  - # 12
    frequency:    4.3495220326
  - # 13
    frequency:    5.4056604960
  - # 14
    frequency:    6.1493341116
  - # 15
    frequency:    6.5504042661
  - # 16
    frequency:    8.4475041476
  - # 17
    frequency:   10.3078629537
  - # 18
    frequency:   14.3884464948
  - # 19
    frequency:   18.0707707696
  - # 20
    frequency:   18.7374445621
  - # 21
    frequency:   35.3039636873

- q-position: [    0.1010101,    0.0000000,    0.0000000 ]
  distance:    0.0342761
  band:
  - # 1
    frequency:   -1.1637373570
  - # 2
    frequency:   -0.5916778149
  - # 3
    frequency:   -0.3609118441
  - # 4
    frequency:    1.1193094690
  - # 5
    frequency:    1.6629151655
  - # 6
    frequency:    1.7401664427
  - # 7
    frequency:    1.9777068563
  - # 8
    frequency:    2.3768549068
  - # 9
    frequency:    3.5896018609
  - # 10
    frequency:    3.9138773378
  - # 11
    frequency:    4.1364968535
  - # 12
    frequency:    4.3901294179
  - # 13
    frequency:    5.4241353997
  - # 14
    frequency:    6.1746154002
  - # 15
    frequency:    6.6056813105
  - # 16
    frequency:    8.4318801403
  - # 17
    frequency:   10.2754443110
  - # 18
    frequency:   14.3686288965
  - # 19
    frequency:   18.0593090372
  - # 20
    frequency:   18.7874103059
  - # 21
    frequency:   35.2910126193

- q-position: [    0.1060606,    0.0000000,    0.0000000 ]
  distance:    0.0359899
  band:
  - # 1
    frequency:   -1.2533919549
  - # 2
    frequency:   -0.5829092885
  - # 3
    frequency:   -0.3814455810
  - # 4
    frequency:    1.1755560346
  - # 5
    frequency:    1.6460246666
  - # 6
    frequency:    1.7880019706
  - # 7
    frequency:    2.0531252242
  - # 8
    frequency:    2.4693440543
  - # 9
    frequency:    3.5693316874
  - # 10
    frequency:    3.9182798191
  - # 11
    frequency:    4.1456375818
  - # 12
    frequency:    4.4318293495
  - # 13
    frequency:    5.4438486254
  - # 14
    frequency:    6.2016593645
  - # 15
    frequency:    6.6615053666
  - # 16
    frequency:    8.4163133606
  - # 17
    frequency:   10.2422586076
  - # 18
    frequency:   14.3487958754
  - # 19
    frequency:   18.0473491025
  - # 20
    frequency:   18.8382206080
  - # 21
    frequency:   35.2775656127

- q-position: [    0.1111111,    0.0000000,    0.0000000 ]
  distance:    0.0377037
  band:
  - # 1
    frequency:   -1.3487253606
  - # 2
    frequency:   -0.5737125961
  - # 3
    frequency:   -0.3962544872
  - # 4
    frequency:    1.2313160267
  - # 5
    frequency:    1.6318873837
  - # 6
    frequency:    1.8358121272
  - # 7
    frequency:    2.1287966214
  - # 8
    frequency:    2.5611950228
  - # 9
    frequency:    3.5505684756
  - # 10
    frequency:    3.9222806887
  - # 11
    frequency:    4.1552571414
  - # 12
    frequency:    4.4743009710
  - # 13
    frequency:    5.4648293977
  - # 14
    frequency:    6.2305452034
  - # 15
    frequency:    6.7176324763
  - # 16
    frequency:    8.4008900676
  - # 17
    frequency:   10.2084310612
  - # 18
    frequency:   14.3290340969
  - # 19
    frequency:   18.0349034254
  - # 20
    frequency:   18.8897109005
  - # 21
    frequency:   35.2636450694

- q-position: [    0.1161616,    0.0000000,    0.0000000 ]
  distance:    0.0394176
  band:
  - # 1
    frequency:   -1.4479605189
  - # 2
    frequency:   -0.5639783112
  - # 3
    frequency:   -0.4049242625
  - # 4
    frequency:    1.2865769324
  - # 5
    frequency:    1.6217553246
  - # 6
    frequency:    1.8835172569
  - # 7
    frequency:    2.2036153362
  - # 8
    frequency:    2.6521084135
  - # 9
    frequency:    3.5335338282
  - # 10
    frequency:    3.9258775758
  - # 11
    frequency:    4.1653179931
  - # 12
    frequency:    4.5172083437
  - # 13
    frequency:    5.4871277284
  - # 14
    frequency:    6.2613404365
  - # 15
    frequency:    6.7738269834
  - # 16
    frequency:    8.3856947055
  - # 17
    frequency:   10.1740929989
  - # 18
    frequency:   14.3094259465
  - # 19
    frequency:   18.0219848681
  - # 20
    frequency:   18.9417220616
  - # 21
    frequency:   35.2492738542

- q-position: [    0.1212121,    0.0000000,    0.0000000 ]
  distance:    0.0411314
  band:
  - # 1
    frequency:   -1.5493333564
  - # 2
    frequency:   -0.5535948223
  - # 3
    frequency:   -0.4071216375
  - # 4
    frequency:    1.3413348941
  - # 5
    frequency:    1.6159756844
  - # 6
    frequency:    1.9310482789
  - # 7
    frequency:    2.2770644356
  - # 8
    frequency:    2.7418000111
  - # 9
    frequency:    3.5184442642
  - # 10
    frequency:    3.9290754402
  - # 11
    frequency:    4.1757783487
  - # 12
    frequency:    4.5602020268
  - # 13
    frequency:    5.5108155653
  - # 14
    frequency:    6.2940966561
  - # 15
    frequency:    6.8298629337
  - # 16
    frequency:    8.3708100596
  - # 17
    frequency:   10.1393823436
  - # 18
    frequency:   14.2900494544
  - # 19
    frequency:   18.0086066755
  - # 20
    frequency:   18.9941006775
  - # 21
    frequency:   35.2344752243

- q-position: [    0.1262626,    0.0000000,    0.0000000 ]
  distance:    0.0428452
  band:
  - # 1
    frequency:   -1.6512488017
  - # 2
    frequency:   -0.5424477381
  - # 3
    frequency:   -0.4024457362
  - # 4
    frequency:    1.3955928771
  - # 5
    frequency:    1.6144485882
  - # 6
    frequency:    1.9783455046
  - # 7
    frequency:    2.3488510967
  - # 8
    frequency:    2.8299574034
  - # 9
    frequency:    3.5055433382
  - # 10
    frequency:    3.9318845697
  - # 11
    frequency:    4.1865942174
  - # 12
    frequency:    4.6029230238
  - # 13
    frequency:    5.5359857761
  - # 14
    frequency:    6.3288454500
  - # 15
    frequency:    6.8855252820
  - # 16
    frequency:    8.3563175172
  - # 17
    frequency:   10.1044441685
  - # 18
    frequency:   14.2709782488
  - # 19
    frequency:   17.9947824554
  - # 20
    frequency:   19.0466992307
  - # 21
    frequency:   35.2192727581

- q-position: [    0.1313131,    0.0000000,    0.0000000 ]
  distance:    0.0445590
  band:
  - # 1
    frequency:   -1.7523576219
  - # 2
    frequency:   -0.5304186941
  - # 3
    frequency:   -0.3902813819
  - # 4
    frequency:    1.4493590364
  - # 5
    frequency:    1.6168443627
  - # 6
    frequency:    2.0253576343
  - # 7
    frequency:    2.4187816539
  - # 8
    frequency:    2.9161824436
  - # 9
    frequency:    3.4951556056
  - # 10
    frequency:    3.9343186660
  - # 11
    frequency:    4.1977213710
  - # 12
    frequency:    4.6450092531
  - # 13
    frequency:    5.5627485780
  - # 14
    frequency:    6.3655946185
  - # 15
    frequency:    6.9406109145
  - # 16
    frequency:    8.3422974172
  - # 17
    frequency:   10.0694313173
  - # 18
    frequency:   14.2522815285
  - # 19
    frequency:   17.9805261610
  - # 20
    frequency:   19.0993762291
  - # 21
    frequency:   35.2036902859

- q-position: [    0.1363636,    0.0000000,    0.0000000 ]
  distance:    0.0462728
  band:
  - # 1
    frequency:   -1.8515726761
  - # 2
    frequency:   -0.5173835006
  - # 3
    frequency:   -0.3696048388
  - # 4
    frequency:    1.5026452968
  - # 5
    frequency:    1.6227287102
  - # 6
    frequency:    2.0720408917
  - # 7
    frequency:    2.4867115953
  - # 8
    frequency:    2.9998952368
  - # 9
    frequency:    3.4877829741
  - # 10
    frequency:    3.9363931525
  - # 11
    frequency:    4.2091170943
  - # 12
    frequency:    4.6861045640
  - # 13
    frequency:    5.5912252138
  - # 14
    frequency:    6.4043247870
  - # 15
    frequency:    6.9949294946
  - # 16
    frequency:    8.3288294725
  - # 17
    frequency:   10.0345050863
  - # 18
    frequency:   14.2340240472
  - # 19
    frequency:   17.9658520730
  - # 20
    frequency:   19.1519962867
  - # 21
    frequency:   35.1877518212

- q-position: [    0.1414141,    0.0000000,    0.0000000 ]
  distance:    0.0479866
  band:
  - # 1
    frequency:   -1.9480497800
  - # 2
    frequency:   -0.5032094842
  - # 3
    frequency:   -0.3386226904
  - # 4
    frequency:    1.5554661435
  - # 5
    frequency:    1.6316376739
  - # 6
    frequency:    2.1183582598
  - # 7
    frequency:    2.5525224220
  - # 8
    frequency:    3.0801555367
  - # 9
    frequency:    3.4842858341
  - # 10
    frequency:    3.9381237759
  - # 11
    frequency:    4.2207416450
  - # 12
    frequency:    4.7258700236
  - # 13
    frequency:    5.6215390063
  - # 14
    frequency:    6.4449864905
  - # 15
    frequency:    7.0483041441
  - # 16
    frequency:    8.3159932426
  - # 17
    frequency:    9.9998359604
  - # 18
    frequency:   14.2162661055
  - # 19
    frequency:   17.9507747834
  - # 20
    frequency:   19.2044301671
  - # 21
    frequency:   35.1714814939

- q-position: [    0.1464646,    0.0000000,    0.0000000 ]
  distance:    0.0497004
  band:
  - # 1
    frequency:   -2.0411533888
  - # 2
    frequency:   -0.4877517429
  - # 3
    frequency:   -0.2938795201
  - # 4
    frequency:    1.6078376147
  - # 5
    frequency:    1.6431203347
  - # 6
    frequency:    2.1642787888
  - # 7
    frequency:    2.6161089641
  - # 8
    frequency:    3.1553272493
  - # 9
    frequency:    3.4862224427
  - # 10
    frequency:    3.9395255214
  - # 11
    frequency:    4.2325594008
  - # 12
    frequency:    4.7639967879
  - # 13
    frequency:    5.6538043853
  - # 14
    frequency:    6.4874977862
  - # 15
    frequency:    7.1005719735
  - # 16
    frequency:    8.3038686314
  - # 17
    frequency:    9.9656043960
  - # 18
    frequency:   14.1990635461
  - # 19
    frequency:   17.9353091796
  - # 20
    frequency:   19.2565547968
  - # 21
    frequency:   35.1549034853

- q-position: [    0.1515152,    0.0000000,    0.0000000 ]
  distance:    0.0514142
  band:
  - # 1
    frequency:   -2.1304195453
  - # 2
    frequency:   -0.4708478374
  - # 3
    frequency:   -0.2271729671
  - # 4
    frequency:    1.6567605392
  - # 5
    frequency:    1.6597764792
  - # 6
    frequency:    2.2097769535
  - # 7
    frequency:    2.6773707450
  - # 8
    frequency:    3.2225574882
  - # 9
    frequency:    3.4963747643
  - # 10
    frequency:    3.9406118260
  - # 11
    frequency:    4.2445397030
  - # 12
    frequency:    4.8002193876
  - # 13
    frequency:    5.6881149918
  - # 14
    frequency:    6.5317424369
  - # 15
    frequency:    7.1515844735
  - # 16
    frequency:    8.2925363786
  - # 17
    frequency:    9.9320016359
  - # 18
    frequency:   14.1824677521
  - # 19
    frequency:   17.9194704303
  - # 20
    frequency:   19.3082532560
  - # 21