nqpoint: 300    
npath: 3      
segment_nqpoint:
- 100
- 100
- 100
labels:
- [ 'G', 'M' ]
- [ 'M', 'K' ]
- [ 'K', 'G' ]
reciprocal_lattice:
- [   0.30178424,   0.17423521,   0.00000000 ] # a*
- [   0.00000000,   0.34847043,   0.00000000 ] # b*
- [   0.00000000,   0.00000000,   0.04370139 ] # c*
natom: 5      
lattice:
- [     3.313625612119678,     0.000000000000000,     0.000000000000000 ] # a
- [    -1.656812806059838,     2.869683958720897,     0.000000000000000 ] # b
- [     0.000000000000000,     0.000000000000000,    22.882569305061530 ] # c
points:
- symbol: F # 1
  coordinates: [  0.666666984744048,  0.333332985985145,  0.393312476410122 ]
  mass: 18.998403
- symbol: N # 2
  coordinates: [  0.000000000000000,  0.000000000000000,  0.506233565462667 ]
  mass: 14.006700
- symbol: O # 3
  coordinates: [  0.333332985432215,  0.666666983183674,  0.606687523589878 ]
  mass: 15.999400
- symbol: Zr # 4
  coordinates: [  0.333332985432215,  0.666666983183674,  0.451956104394347 ]
  mass: 91.224000
- symbol: Zr # 5
  coordinates: [  0.666666984744048,  0.333332985985145,  0.564024770193709 ]
  mass: 91.224000

phonon:
- q-position: [    0.0000000,    0.0000000,    0.0000000 ]
  distance:    0.0000000
  band:
  - # 1
    frequency:   -0.0000140788
  - # 2
    frequency:   -0.0000001309
  - # 3
    frequency:    0.0000115819
  - # 4
    frequency:    3.3561499963
  - # 5
    frequency:    3.3561499963
  - # 6
    frequency:    6.1735939468
  - # 7
    frequency:    6.2185862241
  - # 8
    frequency:    6.2185862241
  - # 9
    frequency:    9.5614720410
  - # 10
    frequency:    9.5614720410
  - # 11
    frequency:   11.2049110812
  - # 12
    frequency:   13.8891199432
  - # 13
    frequency:   14.6033902308
  - # 14
    frequency:   14.6033902308
  - # 15
    frequency:   15.9143872760

- q-position: [    0.0050505,    0.0000000,    0.0000000 ]
  distance:    0.0017600
  band:
  - # 1
    frequency:    0.0018328724
  - # 2
    frequency:    0.0416602533
  - # 3
    frequency:    0.1106094249
  - # 4
    frequency:    3.3562881176
  - # 5
    frequency:    3.3574702372
  - # 6
    frequency:    6.1642752438
  - # 7
    frequency:    6.2193919939
  - # 8
    frequency:    6.2289931960
  - # 9
    frequency:    9.5617341070
  - # 10
    frequency:    9.5618205607
  - # 11
    frequency:   11.2049192638
  - # 12
    frequency:   13.8885556933
  - # 13
    frequency:   14.6034172495
  - # 14
    frequency:   14.6034928669
  - # 15
    frequency:   15.9139964798

- q-position: [    0.0101010,    0.0000000,    0.0000000 ]
  distance:    0.0035199
  band:
  - # 1
    frequency:    0.0073127107
  - # 2
    frequency:    0.0834761560
  - # 3
    frequency:    0.2213123618
  - # 4
    frequency:    3.3566977565
  - # 5
    frequency:    3.3614196809
  - # 6
    frequency:    6.1466304988
  - # 7
    frequency:    6.2218079507
  - # 8
    frequency:    6.2498951286
  - # 9
    frequency:    9.5625218620
  - # 10
    frequency:    9.5628622880
  - # 11
    frequency:   11.2049411552
  - # 12
    frequency:   13.8868712080
  - # 13
    frequency:   14.6034962881
  - # 14
    frequency:   14.6037866665
  - # 15
    frequency:   15.9128282898

- q-position: [    0.0151515,    0.0000000,    0.0000000 ]
  distance:    0.0052799
  band:
  - # 1
    frequency:    0.0164193430
  - # 2
    frequency:    0.1256009315
  - # 3
    frequency:    0.3321988792
  - # 4
    frequency:    3.3573649063
  - # 5
    frequency:    3.3679648383
  - # 6
    frequency:    6.1278232874
  - # 7
    frequency:    6.2258299861
  - # 8
    frequency:    6.2741056399
  - # 9
    frequency:    9.5638399462
  - # 10
    frequency:    9.5645857562
  - # 11
    frequency:   11.2049687949
  - # 12
    frequency:   13.8840909229
  - # 13
    frequency:   14.6036213184
  - # 14
    frequency:   14.6042297951
  - # 15
    frequency:   15.9108952283

- q-position: [    0.0202020,    0.0000000,    0.0000000 ]
  distance:    0.0070398
  band:
  - # 1
    frequency:    0.0291135356
  - # 2
    frequency:    0.1681830268
  - # 3
    frequency:    0.4433522740
  - # 4
    frequency:    3.3582667766
  - # 5
    frequency:    3.3770510324
  - # 6
    frequency:    6.1094465129
  - # 7
    frequency:    6.2314510840
  - # 8
    frequency:    6.2999939842
  - # 9
    frequency:    9.5656959922
  - # 10
    frequency:    9.5669719505
  - # 11
    frequency:   11.2049889441
  - # 12
    frequency:   13.8802544073
  - # 13
    frequency:   14.6037823711
  - # 14
    frequency:   14.6047541319
  - # 15
    frequency:   15.9082179198

- q-position: [    0.0252525,    0.0000000,    0.0000000 ]
  distance:    0.0087998
  band:
  - # 1
    frequency:    0.0453411577
  - # 2
    frequency:    0.2113639232
  - # 3
    frequency:    0.5548459492
  - # 4
    frequency:    3.3593726074
  - # 5
    frequency:    3.3886040362
  - # 6
    frequency:    6.0919502790
  - # 7
    frequency:    6.2386610749
  - # 8
    frequency:    6.3270574274
  - # 9
    frequency:    9.5681004747
  - # 10
    frequency:    9.5699944526
  - # 11
    frequency:   11.2049831285
  - # 12
    frequency:   13.8754147556
  - # 13
    frequency:   14.6039656520
  - # 14
    frequency:   14.6052675497
  - # 15
    frequency:   15.9048247132

- q-position: [    0.0303030,    0.0000000,    0.0000000 ]
  distance:    0.0105597
  band:
  - # 1
    frequency:    0.0650339483
  - # 2
    frequency:    0.2552761645
  - # 3
    frequency:    0.6667405902
  - # 4
    frequency:    3.3606447728
  - # 5
    frequency:    3.4025322308
  - # 6
    frequency:    6.0755047363
  - # 7
    frequency:    6.2474463046
  - # 8
    frequency:    6.3550587378
  - # 9
    frequency:    9.5710665039
  - # 10
    frequency:    9.5736196463
  - # 11
    frequency:   11.2049277016
  - # 12
    frequency:   13.8696365617
  - # 13
    frequency:   14.6041537020
  - # 14
    frequency:   14.6056568850
  - # 15
    frequency:   15.9007511363

- q-position: [    0.0353535,    0.0000000,    0.0000000 ]
  distance:    0.0123197
  band:
  - # 1
    frequency:    0.0881104579
  - # 2
    frequency:    0.3000416532
  - # 3
    frequency:    0.7790817006
  - # 4
    frequency:    3.3620401428
  - # 5
    frequency:    3.4187291702
  - # 6
    frequency:    6.0601844463
  - # 7
    frequency:    6.2577892328
  - # 8
    frequency:    6.3838422409
  - # 9
    frequency:    9.5746095664
  - # 10
    frequency:    9.5778069832
  - # 11
    frequency:   11.2047939266
  - # 12
    frequency:   13.8629936540
  - # 13
    frequency:   14.6043256003
  - # 14
    frequency:   14.6057914193
  - # 15
    frequency:   15.8960391701

- q-position: [    0.0404040,    0.0000000,    0.0000000 ]
  distance:    0.0140796
  band:
  - # 1
    frequency:    0.1144771354
  - # 2
    frequency:    0.3457702431
  - # 3
    frequency:    0.8918975359
  - # 4
    frequency:    3.3635116596
  - # 5
    frequency:    3.4370764205
  - # 6
    frequency:    6.0460213858
  - # 7
    frequency:    6.2696679762
  - # 8
    frequency:    6.4132813056
  - # 9
    frequency:    9.5787472177
  - # 10
    frequency:    9.5825093130
  - # 11
    frequency:   11.2045480826
  - # 12
    frequency:   13.8555667598
  - # 13
    frequency:   14.6044572072
  - # 14
    frequency:   14.6055267022
  - # 15
    frequency:   15.8907363283

- q-position: [    0.0454545,    0.0000000,    0.0000000 ]
  distance:    0.0158396
  band:
  - # 1
    frequency:    0.1440295270
  - # 2
    frequency:    0.3925586409
  - # 3
    frequency:    1.0051974504
  - # 4
    frequency:    3.3650100838
  - # 5
    frequency:    3.4574465449
  - # 6
    frequency:    6.0330239105
  - # 7
    frequency:    6.2830558187
  - # 8
    frequency:    6.4432599333
  - # 9
    frequency:    9.5834987306
  - # 10
    frequency:    9.5876732788
  - # 11
    frequency:   11.2041515951
  - # 12
    frequency:   13.8474412435
  - # 13
    frequency:   14.6045214438
  - # 14
    frequency:   14.6047085610
  - # 15
    frequency:   15.8848945354

- q-position: [    0.0505051,    0.0000000,    0.0000000 ]
  distance:    0.0175995
  band:
  - # 1
    frequency:    0.1766535534
  - # 2
    frequency:    0.4404896129
  - # 3
    frequency:    1.1189706441
  - # 4
    frequency:    3.3664858578
  - # 5
    frequency:    3.4797061122
  - # 6
    frequency:    6.0211847326
  - # 7
    frequency:    6.2979207093
  - # 8
    frequency:    6.4736653843
  - # 9
    frequency:    9.5888847068
  - # 10
    frequency:    9.5932397804
  - # 11
    frequency:   11.2035611943
  - # 12
    frequency:   13.8387050192
  - # 13
    frequency:   14.6031771786
  - # 14
    frequency:   14.6044886068
  - # 15
    frequency:   15.8785688002

- q-position: [    0.0555556,    0.0000000,    0.0000000 ]
  distance:    0.0193595
  band:
  - # 1
    frequency:    0.2122268308
  - # 2
    frequency:    0.4896314765
  - # 3
    frequency:    1.2331852806
  - # 4
    frequency:    3.3678910322
  - # 5
    frequency:    3.5037186234
  - # 6
    frequency:    6.0104847525
  - # 7
    frequency:    6.3142247734
  - # 8
    frequency:    6.5043849933
  - # 9
    frequency:    9.5949266560
  - # 10
    frequency:    9.5991445092
  - # 11
    frequency:   11.2027291066
  - # 12
    frequency:   13.8294466998
  - # 13
    frequency:   14.6007711452
  - # 14
    frequency:   14.6043267130
  - # 15
    frequency:   15.8718156964

- q-position: [    0.0606061,    0.0000000,    0.0000000 ]
  distance:    0.0211194
  band:
  - # 1
    frequency:    0.2506200000
  - # 2
    frequency:    0.5400378477
  - # 3
    frequency:    1.3477879287
  - # 4
    frequency:    3.3691812016
  - # 5
    frequency:    3.5293472745
  - # 6
    frequency:    6.0008951433
  - # 7
    frequency:    6.3319238629
  - # 8
    frequency:    6.5353047685
  - # 9
    frequency:    9.6016465498
  - # 10
    frequency:    9.6053185544
  - # 11
    frequency:   11.2016032798
  - # 12
    frequency:   13.8197540016
  - # 13
    frequency:   14.5973314156
  - # 14
    frequency:   14.6040018705
  - # 15
    frequency:   15.8646916774

- q-position: [    0.0656566,    0.0000000,    0.0000000 ]
  distance:    0.0228794
  band:
  - # 1
    frequency:    0.2916980346
  - # 2
    frequency:    0.5917476100
  - # 3
    frequency:    1.4627032709
  - # 4
    frequency:    3.3703173964
  - # 5
    frequency:    3.5564574963
  - # 6
    frequency:    5.9923786407
  - # 7
    frequency:    6.3509671700
  - # 8
    frequency:    6.5663088146
  - # 9
    frequency:    9.6090663564
  - # 10
    frequency:    9.6116890855
  - # 11
    frequency:   11.2001276485
  - # 12
    frequency:   13.8097123951
  - # 13
    frequency:   14.5927051131
  - # 14
    frequency:   14.6034786733
  - # 15
    frequency:   15.8572512690

- q-position: [    0.0707071,    0.0000000,    0.0000000 ]
  distance:    0.0246393
  band:
  - # 1
    frequency:    0.3353214993
  - # 2
    frequency:    0.6447850630
  - # 3
    frequency:    1.5778340147
  - # 4
    frequency:    3.3712678786
  - # 5
    frequency:    3.5849192366
  - # 6
    frequency:    5.9848904617
  - # 7
    frequency:    6.3712969284
  - # 8
    frequency:    6.5972791539
  - # 9
    frequency:    9.6172075629
  - # 10
    frequency:    9.6181801109
  - # 11
    frequency:   11.1982424433
  - # 12
    frequency:   13.7994039729
  - # 13
    frequency:   14.5867491219
  - # 14
    frequency:   14.6027206138
  - # 15
    frequency:   15.8495452092

- q-position: [    0.0757576,    0.0000000,    0.0000000 ]
  distance:    0.0263993
  band:
  - # 1
    frequency:    0.3813477336
  - # 2
    frequency:    0.6991602134
  - # 3
    frequency:    1.6930609434
  - # 4
    frequency:    3.3720097988
  - # 5
    frequency:    3.6146089730
  - # 6
    frequency:    5.9783790544
  - # 7
    frequency:    6.3928482232
  - # 8
    frequency:    6.6280957417
  - # 9
    frequency:    9.6247133146
  - # 10
    frequency:    9.6260906918
  - # 11
    frequency:   11.1958845460
  - # 12
    frequency:   13.7889064922
  - # 13
    frequency:   14.5793334040
  - # 14
    frequency:   14.6016905104
  - # 15
    frequency:   15.8416186164

- q-position: [    0.0808081,    0.0000000,    0.0000000 ]
  distance:    0.0281592
  band:
  - # 1
    frequency:    0.4296319424
  - # 2
    frequency:    0.7548691702
  - # 3
    frequency:    1.8082430426
  - # 4
    frequency:    3.3725306721
  - # 5
    frequency:    3.6454114609
  - # 6
    frequency:    5.9727867836
  - # 7
    frequency:    6.4155489267
  - # 8
    frequency:    6.6586365726
  - # 9
    frequency:    9.6312089723
  - # 10
    frequency:    9.6357348168
  - # 11
    frequency:   11.1929878959
  - # 12
    frequency:   13.7782925489
  - # 13
    frequency:   14.5703439651
  - # 14
    frequency:   14.6003509446
  - # 15
    frequency:   15.8335092896

- q-position: [    0.0858586,    0.0000000,    0.0000000 ]
  distance:    0.0299192
  band:
  - # 1
    frequency:    0.4800281777
  - # 2
    frequency:    0.8118946099
  - # 3
    frequency:    1.9232176484
  - # 4
    frequency:    3.3728296420
  - # 5
    frequency:    3.6772212344
  - # 6
    frequency:    5.9680506127
  - # 7
    frequency:    6.4393197732
  - # 8
    frequency:    6.6887778207
  - # 9
    frequency:    9.6375869441
  - # 10
    frequency:    9.6461570868
  - # 11
    frequency:   11.1894839488
  - # 12
    frequency:   13.7676288404
  - # 13
    frequency:   14.5596853876
  - # 14
    frequency:   14.5986647042
  - # 15
    frequency:   15.8252462431

- q-position: [    0.0909091,    0.0000000,    0.0000000 ]
  distance:    0.0316791
  band:
  - # 1
    frequency:    0.5323901998
  - # 2
    frequency:    0.8702062856
  - # 3
    frequency:    2.0378005680
  - # 4
    frequency:    3.3729185073
  - # 5
    frequency:    3.7099438829
  - # 6
    frequency:    5.9641028140
  - # 7
    frequency:    6.4640745777
  - # 8
    frequency:    6.7183939879
  - # 9
    frequency:    9.6437677450
  - # 10
    frequency:    9.6573722610
  - # 11
    frequency:   11.1853021914
  - # 12
    frequency:   13.7569754827
  - # 13
    frequency:   14.5472828507
  - # 14
    frequency:   14.5965952278
  - # 15
    frequency:   15.8168485821

- q-position: [    0.0959596,    0.0000000,    0.0000000 ]
  distance:    0.0334391
  band:
  - # 1
    frequency:    0.5865722136
  - # 2
    frequency:    0.9297615534
  - # 3
    frequency:    2.1517861398
  - # 4
    frequency:    3.3728224931
  - # 5
    frequency:    3.7434971287
  - # 6
    frequency:    5.9608717310
  - # 7
    frequency:    6.4897206028
  - # 8
    frequency:    6.7473580455
  - # 9
    frequency:    9.6496736876
  - # 10
    frequency:    9.6693922645
  - # 11
    frequency:   11.1803707107
  - # 12
    frequency:   13.7463853517
  - # 13
    frequency:   14.5330835650
  - # 14
    frequency:   14.5941070468
  - # 15
    frequency:   15.8083248052

- q-position: [    0.1010101,    0.0000000,    0.0000000 ]
  distance:    0.0351990
  band:
  - # 1
    frequency:    0.6424294748
  - # 2
    frequency:    0.9905059024
  - # 3
    frequency:    2.2649472151
  - # 4
    frequency:    3.3725807587
  - # 5
    frequency:    3.7778117164
  - # 6
    frequency:    5.9582826060
  - # 7
    frequency:    6.5161590653
  - # 8
    frequency:    6.7755415677
  - # 9
    frequency:    9.6552300925
  - # 10
    frequency:    9.6822257681
  - # 11
    frequency:   11.1746168200
  - # 12
    frequency:   13.7359034313
  - # 13
    frequency:   14.5170575738
  - # 14
    frequency:   14.5911662200
  - # 15
    frequency:   15.7996725961

- q-position: [    0.1060606,    0.0000000,    0.0000000 ]
  distance:    0.0369590
  band:
  - # 1
    frequency:    0.6998187687
  - # 2
    frequency:    1.0523734716
  - # 3
    frequency:    2.3770350705
  - # 4
    frequency:    3.3722466372
  - # 5
    frequency:    3.8128321091
  - # 6
    frequency:    5.9562584835
  - # 7
    frequency:    6.5432857756
  - # 8
    frequency:    6.8028148615
  - # 9
    frequency:    9.6603665578
  - # 10
    frequency:    9.6958777990
  - # 11
    frequency:   11.1679677387
  - # 12
    frequency:   13.7255661542
  - # 13
    frequency:   14.4991979015
  - # 14
    frequency:   14.5877407577
  - # 15
    frequency:   15.7908791298

- q-position: [    0.1111111,    0.0000000,    0.0000000 ]
  distance:    0.0387189
  band:
  - # 1
    frequency:    0.7585987638
  - # 2
    frequency:    1.1152875499
  - # 3
    frequency:    2.4877792915
  - # 4
    frequency:    3.3718876118
  - # 5
    frequency:    3.8485169525
  - # 6
    frequency:    5.9547211978
  - # 7
    frequency:    6.5709918913
  - # 8
    frequency:    6.8290471039
  - # 9
    frequency:    9.6650182769
  - # 10
    frequency:    9.7103493886
  - # 11
    frequency:   11.1603513242
  - # 12
    frequency:   13.7154007319
  - # 13
    frequency:   14.4795200677
  - # 14
    frequency:   14.5838010297
  - # 15
    frequency:   15.7819218829

- q-position: [    0.1161616,    0.0000000,    0.0000000 ]
  distance:    0.0404789
  band:
  - # 1
    frequency:    0.8186302457
  - # 2
    frequency:    1.1791610526
  - # 3
    frequency:    2.5968877230
  - # 4
    frequency:    3.3715850359
  - # 5
    frequency:    3.8848392149
  - # 6
    frequency:    5.9535924530
  - # 7
    frequency:    6.5991647682
  - # 8
    frequency:    6.8541065003
  - # 9
    frequency:    9.6691273879
  - # 10
    frequency:    9.7256372638
  - # 11
    frequency:   11.1516968527
  - # 12
    frequency:   13.7054244721
  - # 13
    frequency:   14.4580610222
  - # 14
    frequency:   14.5793201552
  - # 15
    frequency:   15.7727698958

- q-position: [    0.1212121,    0.0000000,    0.0000000 ]
  distance:    0.0422388
  band:
  - # 1
    frequency:    0.8797762397
  - # 2
    frequency:    1.2438969779
  - # 3
    frequency:    2.7040466444
  - # 4
    frequency:    3.3714336064
  - # 5
    frequency:    3.9217858435
  - # 6
    frequency:    5.9527950033
  - # 7
    frequency:    6.6276888852
  - # 8
    frequency:    6.8778604870
  - # 9
    frequency:    9.6726443354
  - # 10
    frequency:    9.7417335848
  - # 11
    frequency:   11.1419358436
  - # 12
    frequency:   13.6956440886
  - # 13
    frequency:   14.4348775873
  - # 14
    frequency:   14.5742743689
  - # 15
    frequency:   15.7633854042

- q-position: [    0.1262626,    0.0000000,    0.0000000 ]
  distance:    0.0439988
  band:
  - # 1
    frequency:    0.9419020280
  - # 2
    frequency:    1.3093888474
  - # 3
    frequency:    2.8089214308
  - # 4
    frequency:    3.3715406068
  - # 5
    frequency:    3.9593566739
  - # 6
    frequency:    5.9522539430
  - # 7
    frequency:    6.6564468192
  - # 8
    frequency:    6.9001759993
  - # 9
    frequency:    9.6755292202
  - # 10
    frequency:    9.7586257392
  - # 11
    frequency:   11.1310029222
  - # 12
    frequency:   13.6860550081
  - # 13
    frequency:   14.4100445224
  - # 14
    frequency:   14.5686433611
  - # 15
    frequency:   15.7537257331

- q-position: [    0.1313131,    0.0000000,    0.0000000 ]
  distance:    0.0457587
  band:
  - # 1
    frequency:    1.0048750726
  - # 2
    frequency:    1.3755211397
  - # 3
    frequency:    2.9111580742
  - # 4
    frequency:    3.3720249279
  - # 5
    frequency:    3.9975622092
  - # 6
    frequency:    5.9518981167
  - # 7
    frequency:    6.6853202459
  - # 8
    frequency:    6.9209198364
  - # 9
    frequency:    9.6777531031
  - # 10
    frequency:    9.7762961935
  - # 11
    frequency:   11.1188367132
  - # 12
    frequency:   13.6766406787
  - # 13
    frequency:   14.3836523384
  - # 14
    frequency:   14.5624105867
  - # 15
    frequency:   15.7437453373

- q-position: [    0.1363636,    0.0000000,    0.0000000 ]
  distance:    0.0475187
  band:
  - # 1
    frequency:    1.0685648495
  - # 2
    frequency:    1.4421697317
  - # 3
    frequency:    3.0103860799
  - # 4
    frequency:    3.3730158831
  - # 5
    frequency:    4.0364197430
  - # 6
    frequency:    5.9516616611
  - # 7
    frequency:    6.7141909422
  - # 8
    frequency:    6.9399591576
  - # 9
    frequency:    9.6792992285
  - # 10
    frequency:    9.7947224087
  - # 11
    frequency:   11.1053807576
  - # 12
    frequency:   13.6673718822
  - # 13
    frequency:   14.3558049996
  - # 14
    frequency:   14.5555635413
  - # 15
    frequency:   15.7333978679

- q-position: [    0.1414141,    0.0000000,    0.0000000 ]
  distance:    0.0492786
  band:
  - # 1
    frequency:    1.1328426040
  - # 2
    frequency:    1.5092023664
  - # 3
    frequency:    3.1062233763
  - # 4
    frequency:    3.3746518221
  - # 5
    frequency:    4.0759471761
  - # 6
    frequency:    5.9514856868
  - # 7
    frequency:    6.7429417686
  - # 8
    frequency:    6.9571621476
  - # 9
    frequency:    9.6801641217
  - # 10
    frequency:    9.8138768243
  - # 11
    frequency:   11.0905844394
  - # 12
    frequency:   13.6582060503
  - # 13
    frequency:   14.3266176451
  - # 14
    frequency:   14.5480939997
  - # 15
    frequency:   15.7226381565

- q-position: [    0.1464646,    0.0000000,    0.0000000 ]
  distance:    0.0510386
  band:
  - # 1
    frequency:    1.1975810310
  - # 2
    frequency:    1.5764791717
  - # 3
    frequency:    3.1982839233
  - # 4
    frequency:    3.3770785517
  - # 5
    frequency:    4.1161538293
  - # 6
    frequency:    5.9513201084
  - # 7
    frequency:    6.7714576097
  - # 8
    frequency:    6.9723988964
  - # 9
    frequency:    9.6803585115
  - # 10
    frequency:    9.8337269121
  - # 11
    frequency:   11.0744039129
  - # 12
    frequency:   13.6490865772
  - # 13
    frequency:   14.2962144603
  - # 14
    frequency:   14.5399982146
  - # 15
    frequency:   15.7114240212

- q-position: [    0.1515152,    0.0000000,    0.0000000 ]
  distance:    0.0527985
  band:
  - # 1
    frequency:    1.2626538878
  - # 2
    frequency:    1.6438532626
  - # 3
    frequency:    3.2861885758
  - # 4
    frequency:    3.3804475602
  - # 5
    frequency:    4.1570276939
  - # 6
    frequency:    5.9511256167
  - # 7
    frequency:    6.7996262585
  - # 8
    frequency:    6.9855425429
  - # 9
    frequency:    9.6799080235
  - # 10
    frequency:    9.8542353030
  - # 11
    frequency:   11.0568030108
  - # 12
    frequency:   13.6399421175
  - # 13
    frequency:   14.2647268141
  - # 14
    frequency:   14.5312770720
  - # 15
    frequency:   15.6997178212

- q-position: [    0.1565657,    0.0000000,    0.0000000 ]
  distance:    0.0545585
  band:
  - # 1
    frequency:    1.3279355385
  - # 2
    frequency:    1.7111714657
  - # 3
    frequency:    3.3695793172
  - # 4
    frequency:    3.3849140397
  - # 5
    frequency:    4.1985190193
  - # 6
    frequency:    5.9508757738
  - # 7
    frequency:    6.8273392275
  - # 8
    frequency:    6.9964707326
  - # 9
    frequency:    9.6788535853
  - # 10
    frequency:    9.8753599875
  - # 11
    frequency:   11.0377541155
  - # 12
    frequency:   13.6306858527
  - # 13
    frequency:   14.2322917684
  - # 14
    frequency:   14.5219362017
  - # 15
    frequency:   15.6874877006

- q-position: [    0.1616162,    0.0000000,    0.0000000 ]
  distance:    0.0563185
  band:
  - # 1
    frequency:    1.3933004316
  - # 2
    frequency:    1.7782752117
  - # 3
    frequency:    3.3906346926
  - # 4
    frequency:    3.4481361278
  - # 5
    frequency:    4.2405210135
  - # 6
    frequency:    5.9505591807
  - # 7
    frequency:    6.8544924791
  - # 8
    frequency:    7.0050674444
  - # 9
    frequency:    9.6772514860
  - # 10
    frequency:    9.8970545882
  - # 11
    frequency:   11.0172389706
  - # 12
    frequency:   13.6212147097
  - # 13
    frequency:   14.1990510476
  - # 14
    frequency:   14.5119860389
  - # 15
    frequency:   15.6747084881

- q-position: [    0.1666667,    0.0000000,    0.0000000 ]
  distance:    0.0580784
  band:
  - # 1
    frequency:    1.4586225055
  - # 2
    frequency:    1.8450016509
  - # 3
    frequency:    3.3977653013
  - # 4
    frequency:    3.5215945330
  - # 5
    frequency:    4.2828497068
  - # 6
    frequency:    5.9501816185
  - # 7
    frequency:    6.8809870668
  - # 8
    frequency:    7.0112252336
  - # 9
    frequency:    9.6751730320
  - # 10
    frequency:    9.9192687022
  - # 11
    frequency:   10.9952494052
  - # 12
    frequency:   13.6114085204
  - # 13
    frequency:   14.1651505379
  - # 14
    frequency:   14.5014418369
  - # 15
    frequency:   15.6613622293

- q-position: [    0.1717172,    0.0000000,    0.0000000 ]
  distance:    0.0598384
  band:
  - # 1
    frequency:    1.5237745137
  - # 2
    frequency:    1.9111850482
  - # 3
    frequency:    3.4064580403
  - # 4
    frequency:    3.5897606030
  - # 5
    frequency:    4.3252263695
  - # 6
    frequency:    5.9497679992
  - # 7
    frequency:    6.9067296850
  - # 8
    frequency:    7.0148479355
  - # 9
    frequency:    9.6727037500
  - # 10
    frequency:    9.9419483097
  - # 11
    frequency:   10.9717879431
  - # 12
    frequency:   13.6011291339
  - # 13
    frequency:   14.1307403443
  - # 14
    frequency:   14.4903236283
  - # 15
    frequency:   15.6474383479

- q-position: [    0.1767677,    0.0000000,    0.0000000 ]
  distance:    0.0615983
  band:
  - # 1
    frequency:    1.5886272538
  - # 2
    frequency:    1.9766585151
  - # 3
    frequency:    3.4168585062
  - # 4
    frequency:    3.6525194249
  - # 5
    frequency:    4.3672667253
  - # 6
    frequency:    5.9493638667
  - # 7
    frequency:    6.9316331271
  - # 8
    frequency:    7.0158538541
  - # 9
    frequency:    9.6699420985
  - # 10
    frequency:    9.9650362425
  - # 11
    frequency:   10.9468682655
  - # 12
    frequency:   13.5902195383
  - # 13
    frequency:   14.0959753801
  - # 14
    frequency:   14.4786561335
  - # 15
    frequency:   15.6329334410

- q-position: [    0.1818182,    0.0000000,    0.0000000 ]
  distance:    0.0633583
  band:
  - # 1
    frequency:    1.6530486787
  - # 2
    frequency:    2.0412561277
  - # 3
    frequency:    3.4291024527
  - # 4
    frequency:    3.7098334663
  - # 5
    frequency:    4.4084809364
  - # 6
    frequency:    5.9490360705
  - # 7
    frequency:    6.9556166541
  - # 8
    frequency:    7.0141794394
  - # 9
    frequency:    9.6669976666
  - # 10
    frequency:    9.9884727039
  - # 11
    frequency:   10.9205154986
  - # 12
    frequency:   13.5785031341
  - # 13
    frequency:   14.0610163598
  - # 14
    frequency:   14.4664686168
  - # 15
    frequency:   15.6178507255

- q-position: [    0.1868687,    0.0000000,    0.0000000 ]
  distance:    0.0651182
  band:
  - # 1
    frequency:    1.7169028573
  - # 2
    frequency:    2.1048154565
  - # 3
    frequency:    3.4433122365
  - # 4
    frequency:    3.7617289594
  - # 5
    frequency:    4.4482867658
  - # 6
    frequency:    5.9488721076
  - # 7
    frequency:    6.9786062807
  - # 8
    frequency:    7.0097834215
  - # 9
    frequency:    9.6639888637
  - # 10
    frequency:   10.0121958336
  - # 11
    frequency:   10.8927662970
  - # 12
    frequency:   13.5657834440
  - # 13
    frequency:   14.0260309138
  - # 14
    frequency:   14.4537946898
  - # 15
    frequency:   15.6021991621

- q-position: [    0.1919192,    0.0000000,    0.0000000 ]
  distance:    0.0668782
  band:
  - # 1
    frequency:    1.7800487340
  - # 2
    frequency:    2.1671805017
  - # 3
    frequency:    3.4595930149
  - # 4
    frequency:    3.8082708949
  - # 5
    frequency:    4.4860360034
  - # 6
    frequency:    5.9489775123
  - # 7
    frequency:    7.0005349835
  - # 8
    frequency:    7.0026513257
  - # 9
    frequency:    9.6610401276
  - # 10
    frequency:   10.0361423042
  - # 11
    frequency:   10.8636687029
  - # 12
    frequency:   13.5518447480
  - # 13
    frequency:   13.9911943185
  - # 14
    frequency:   14.4406720623
  - # 15
    frequency:   15.5859922921

- q-position: [    0.1969697,    0.0000000,    0.0000000 ]
  distance:    0.0686381
  band:
  - # 1
    frequency:    1.8423386210
  - # 2
    frequency:    2.2282049697
  - # 3
    frequency:    3.4780287853
  - # 4
    frequency:    3.8495293209
  - # 5
    frequency:    4.5210522065
  - # 6
    frequency:    5.9494706364
  - # 7
    frequency:    6.9928002357
  - # 8
    frequency:    7.0213428417
  - # 9
    frequency:    9.6582787172
  - # 10
    frequency:   10.0602479403
  - # 11
    frequency:   10.8332817652
  - # 12
    frequency:   13.5364543973
  - # 13
    frequency:   13.9566890568
  - # 14
    frequency:   14.4271422439
  - # 15
    frequency:   15.5692468313

- q-position: [    0.2020202,    0.0000000,    0.0000000 ]
  distance:    0.0703981
  band:
  - # 1
    frequency:    1.9036163203
  - # 2
    frequency:    2.2877557611
  - # 3
    frequency:    3.4986784233
  - # 4
    frequency:    3.8855404875
  - # 5
    frequency:    4.5526769007
  - # 6
    frequency:    5.9504742647
  - # 7
    frequency:    6.9802836114
  - # 8
    frequency:    7.0409771186
  - # 9
    frequency:    9.6558311813
  - # 10
    frequency:   10.0844483469
  - # 11
    frequency:   10.8016749141
  - # 12
    frequency:   13.5193678087
  - # 13
    frequency:   13.9227021560
  - # 14
    frequency:   14.4132501966
  - # 15
    frequency:   15.5519810745

- q-position: [    0.2070707,    0.0000000,    0.0000000 ]
  distance:    0.0721580
  band:
  - # 1
    frequency:    1.9637147287
  - # 2
    frequency:    2.3457164622
  - # 3
    frequency:    3.5215719463
  - # 4
    frequency:    3.9162658333
  - # 5
    frequency:    4.5803216527
  - # 6
    frequency:    5.9521038589
  - # 7
    frequency:    6.9651958958
  - # 8
    frequency:    7.0593922933
  - # 9
    frequency:    9.6538196339
  - # 10
    frequency:   10.1086795358
  - # 11
    frequency:   10.7689270978
  - # 12
    frequency:   13.5003372158
  - # 13
    frequency:   13.8894191555
  - # 14
    frequency:   14.3990439433
  - # 15
    frequency:   15.5342131709

- q-position: [    0.2121212,    0.0000000,    0.0000000 ]
  distance:    0.0739180
  band:
  - # 1
    frequency:    2.0224527080
  - # 2