nqpoint: 300    
npath: 3      
segment_nqpoint:
- 100
- 100
- 100
labels:
- [ 'G', 'M' ]
- [ 'M', 'K' ]
- [ 'K', 'G' ]
reciprocal_lattice:
- [   0.30597682,   0.17665580,   0.00000000 ] # a*
- [   0.00000000,   0.35331160,   0.00000000 ] # b*
- [   0.00000000,   0.00000000,   0.04187070 ] # c*
natom: 6      
lattice:
- [     3.268221394928617,     0.000000000000000,     0.000000000000000 ] # a
- [    -1.634110697464308,     2.830362753197619,     0.000000000000000 ] # b
- [     0.000000000000000,     0.000000000000000,    23.883049755865994 ] # c
points:
- symbol: C # 1
  coordinates: [  0.000000000000000,  0.000000000000000,  0.524405757465052 ]
  mass: 12.010700
- symbol: H # 2
  coordinates: [  0.666666984744047,  0.333332985985145,  0.376836295699191 ]
  mass: 1.007940
- symbol: Hf # 3
  coordinates: [  0.333332985432215,  0.666666983183674,  0.473337939336108 ]
  mass: 178.490000
- symbol: Hf # 4
  coordinates: [  0.666666984744047,  0.333332985985145,  0.583024688346316 ]
  mass: 178.490000
- symbol: O # 5
  coordinates: [  0.333332985432215,  0.666666983183674,  0.623163704300809 ]
  mass: 15.999400
- symbol: O # 6
  coordinates: [  0.666666984744047,  0.333332985985145,  0.418314897805598 ]
  mass: 15.999400

phonon:
- q-position: [    0.0000000,    0.0000000,    0.0000000 ]
  distance:    0.0000000
  band:
  - # 1
    frequency:   -0.0000085195
  - # 2
    frequency:    0.0000002431
  - # 3
    frequency:    0.0000068767
  - # 4
    frequency:    2.7841030842
  - # 5
    frequency:    2.7841030842
  - # 6
    frequency:    5.3625029502
  - # 7
    frequency:    7.9875896511
  - # 8
    frequency:    7.9875896511
  - # 9
    frequency:    9.8819825635
  - # 10
    frequency:    9.8819825636
  - # 11
    frequency:   12.7929758454
  - # 12
    frequency:   15.2440541214
  - # 13
    frequency:   16.1615003602
  - # 14
    frequency:   16.1615003602
  - # 15
    frequency:   17.2890789530
  - # 16
    frequency:   17.2890789530
  - # 17
    frequency:   19.6968023528
  - # 18
    frequency:  108.2826949731

- q-position: [    0.0050505,    0.0000000,    0.0000000 ]
  distance:    0.0017844
  band:
  - # 1
    frequency:    0.0008619303
  - # 2
    frequency:    0.0547275472
  - # 3
    frequency:    0.0700656004
  - # 4
    frequency:    2.7845011107
  - # 5
    frequency:    2.7852161989
  - # 6
    frequency:    5.3622561586
  - # 7
    frequency:    7.9870406105
  - # 8
    frequency:    7.9874457666
  - # 9
    frequency:    9.8810192651
  - # 10
    frequency:    9.8825485187
  - # 11
    frequency:   12.7923839774
  - # 12
    frequency:   15.2431320860
  - # 13
    frequency:   16.1607744831
  - # 14
    frequency:   16.1613969962
  - # 15
    frequency:   17.2861510551
  - # 16
    frequency:   17.2875625268
  - # 17
    frequency:   19.6966547127
  - # 18
    frequency:  108.2818008887

- q-position: [    0.0101010,    0.0000000,    0.0000000 ]
  distance:    0.0035688
  band:
  - # 1
    frequency:    0.0034411506
  - # 2
    frequency:    0.1094498540
  - # 3
    frequency:    0.1400337964
  - # 4
    frequency:    2.7856947649
  - # 5
    frequency:    2.7885486058
  - # 6
    frequency:    5.3615152951
  - # 7
    frequency:    7.9853970137
  - # 8
    frequency:    7.9870140550
  - # 9
    frequency:    9.8781389010
  - # 10
    frequency:    9.8842439604
  - # 11
    frequency:   12.7906087346
  - # 12
    frequency:   15.2403705820
  - # 13
    frequency:   16.1585951142
  - # 14
    frequency:   16.1610875646
  - # 15
    frequency:   17.2773813346
  - # 16
    frequency:   17.2830198763
  - # 17
    frequency:   19.6962088238
  - # 18
    frequency:  108.2791220075

- q-position: [    0.0151515,    0.0000000,    0.0000000 ]
  distance:    0.0053532
  band:
  - # 1
    frequency:    0.0077220761
  - # 2
    frequency:    0.1641617568
  - # 3
    frequency:    0.2098068052
  - # 4
    frequency:    2.7876827778
  - # 5
    frequency:    2.7940796694
  - # 6
    frequency:    5.3602788706
  - # 7
    frequency:    7.9826694346
  - # 8
    frequency:    7.9862943412
  - # 9
    frequency:    9.8733700335
  - # 10
    frequency:    9.8870616541
  - # 11
    frequency:   12.7876512266
  - # 12
    frequency:   15.2357833213
  - # 13
    frequency:   16.1549569231
  - # 14
    frequency:   16.1605739899
  - # 15
    frequency:   17.2628117828
  - # 16
    frequency:   17.2754709085
  - # 17
    frequency:   19.6954558900
  - # 18
    frequency:  108.2746684325

- q-position: [    0.0202020,    0.0000000,    0.0000000 ]
  distance:    0.0071376
  band:
  - # 1
    frequency:    0.0136787091
  - # 2
    frequency:    0.2188582375
  - # 3
    frequency:    0.2792861205
  - # 4
    frequency:    2.7904630585
  - # 5
    frequency:    2.8017755745
  - # 6
    frequency:    5.3585443267
  - # 7
    frequency:    7.9788754903
  - # 8
    frequency:    7.9852863287
  - # 9
    frequency:    9.8667601591
  - # 10
    frequency:    9.8909896608
  - # 11
    frequency:   12.7835133891
  - # 12
    frequency:   15.2293928425
  - # 13
    frequency:   16.1498506211
  - # 14
    frequency:   16.1598592882
  - # 15
    frequency:   17.2425126460
  - # 16
    frequency:   17.2649488790
  - # 17
    frequency:   19.6943816076
  - # 18
    frequency:  108.2684569597

- q-position: [    0.0252525,    0.0000000,    0.0000000 ]
  distance:    0.0089220
  band:
  - # 1
    frequency:    0.0212759476
  - # 2
    frequency:    0.2735344841
  - # 3
    frequency:    0.3483722279
  - # 4
    frequency:    2.7940327292
  - # 5
    frequency:    2.8115901569
  - # 6
    frequency:    5.3563079236
  - # 7
    frequency:    7.9740398328
  - # 8
    frequency:    7.9839895941
  - # 9
    frequency:    9.8583755438
  - # 10
    frequency:    9.8960115141
  - # 11
    frequency:   12.7781981100
  - # 12
    frequency:   15.2212300483
  - # 13
    frequency:   16.1432622986
  - # 14
    frequency:   16.1589472750
  - # 15
    frequency:   17.2165828909
  - # 16
    frequency:   17.2515005151
  - # 17
    frequency:   19.6929666736
  - # 18
    frequency:  108.2605110136

- q-position: [    0.0303030,    0.0000000,    0.0000000 ]
  distance:    0.0107064
  band:
  - # 1
    frequency:    0.0304708039
  - # 2
    frequency:    0.3281859330
  - # 3
    frequency:    0.4169644120
  - # 4
    frequency:    2.7983881715
  - # 5
    frequency:    2.8234659989
  - # 6
    frequency:    5.3535645853
  - # 7
    frequency:    7.9681941385
  - # 8
    frequency:    7.9824035820
  - # 9
    frequency:    9.8483009852
  - # 10
    frequency:    9.9021064629
  - # 11
    frequency:   12.7717094004
  - # 12
    frequency:   15.2113335740
  - # 13
    frequency:   16.1351723824
  - # 14
    frequency:   16.1578421440
  - # 15
    frequency:   17.1851510064
  - # 16
    frequency:   17.2351861986
  - # 17
    frequency:   19.6911874472
  - # 18
    frequency:  108.2508605582

- q-position: [    0.0353535,    0.0000000,    0.0000000 ]
  distance:    0.0124908
  band:
  - # 1
    frequency:    0.0412138711
  - # 2
    frequency:    0.3828082926
  - # 3
    frequency:    0.4849606834
  - # 4
    frequency:    2.8035250830
  - # 5
    frequency:    2.8373357310
  - # 6
    frequency:    5.3503077090
  - # 7
    frequency:    7.9613770948
  - # 8
    frequency:    7.9805276007
  - # 9
    frequency:    9.8366394934
  - # 10
    frequency:    9.9092497776
  - # 11
    frequency:   12.7640526043
  - # 12
    frequency:   15.1997490026
  - # 13
    frequency:   16.1255540876
  - # 14
    frequency:   16.1565479061
  - # 15
    frequency:   17.1483762983
  - # 16
    frequency:   17.2160802252
  - # 17
    frequency:   19.6890167217
  - # 18
    frequency:  108.2395419830

- q-position: [    0.0404040,    0.0000000,    0.0000000 ]
  distance:    0.0142752
  band:
  - # 1
    frequency:    0.0534509760
  - # 2
    frequency:    0.4373975431
  - # 3
    frequency:    0.5522578498
  - # 4
    frequency:    2.8094385410
  - # 5
    frequency:    2.8531234736
  - # 6
    frequency:    5.3465289414
  - # 7
    frequency:    7.9536343862
  - # 8
    frequency:    7.9783608237
  - # 9
    frequency:    9.8235118807
  - # 10
    frequency:    9.9174131140
  - # 11
    frequency:   12.7552346390
  - # 12
    frequency:   15.1865279434
  - # 13
    frequency:   16.1143711796
  - # 14
    frequency:   16.1550676679
  - # 15
    frequency:   17.1064508900
  - # 16
    frequency:   17.1942711562
  - # 17
    frequency:   19.6864245611
  - # 18
    frequency:  108.2265979636

- q-position: [    0.0454545,    0.0000000,    0.0000000 ]
  distance:    0.0160596
  band:
  - # 1
    frequency:    0.0671249569
  - # 2
    frequency:    0.4919499110
  - # 3
    frequency:    0.6187517555
  - # 4
    frequency:    2.8161230704
  - # 5
    frequency:    2.8707463507
  - # 6
    frequency:    5.3422179324
  - # 7
    frequency:    7.9450186761
  - # 8
    frequency:    7.9759022977
  - # 9
    frequency:    9.8090562489
  - # 10
    frequency:    9.9265649298
  - # 11
    frequency:   12.7452642600
  - # 12
    frequency:   15.1717269937
  - # 13
    frequency:   16.1015747965
  - # 14
    frequency:   16.1534027296
  - # 15
    frequency:   17.0596027116
  - # 16
    frequency:   17.1698622904
  - # 17
    frequency:   19.6833791569
  - # 18
    frequency:  108.2120772990

- q-position: [    0.0505051,    0.0000000,    0.0000000 ]
  distance:    0.0178440
  band:
  - # 1
    frequency:    0.0821775081
  - # 2
    frequency:    0.5464618182
  - # 3
    frequency:    0.6843377061
  - # 4
    frequency:    2.8235727130
  - # 5
    frequency:    2.8901160128
  - # 6
    frequency:    5.3373620737
  - # 7
    frequency:    7.9355895840
  - # 8
    frequency:    7.9731509598
  - # 9
    frequency:    9.7934273597
  - # 10
    frequency:    9.9366709462
  - # 11
    frequency:   12.7341523387
  - # 12
    frequency:   15.1554065990
  - # 13
    frequency:   16.0870989820
  - # 14
    frequency:   16.1515514660
  - # 15
    frequency:   17.0080998505
  - # 16
    frequency:   17.1429722894
  - # 17
    frequency:   19.6798476651
  - # 18
    frequency:  108.1960347240

- q-position: [    0.0555556,    0.0000000,    0.0000000 ]
  distance:    0.0196284
  band:
  - # 1
    frequency:    0.0985510411
  - # 2
    frequency:    0.6009298045
  - # 3
    frequency:    0.7489110938
  - # 4
    frequency:    2.8317810938
  - # 5
    frequency:    2.9111401124
  - # 6
    frequency:    5.3319462364
  - # 7
    frequency:    7.9254136530
  - # 8
    frequency:    7.9701056681
  - # 9
    frequency:    9.7767958722
  - # 10
    frequency:    9.9476946499
  - # 11
    frequency:   12.7219121448
  - # 12
    frequency:   15.1376298300
  - # 13
    frequency:   16.0708544673
  - # 14
    frequency:   16.1495079518
  - # 15
    frequency:   16.9522567465
  - # 16
    frequency:   17.1137360004
  - # 17
    frequency:   19.6757969925
  - # 18
    frequency:  108.1785307000

- q-position: [    0.0606061,    0.0000000,    0.0000000 ]
  distance:    0.0214128
  band:
  - # 1
    frequency:    0.1161905243
  - # 2
    frequency:    0.6553504264
  - # 3
    frequency:    0.8123682314
  - # 4
    frequency:    2.8407414828
  - # 5
    frequency:    2.9337236867
  - # 6
    frequency:    5.3259525228
  - # 7
    frequency:    7.9145642999
  - # 8
    frequency:    7.9667652459
  - # 9
    frequency:    9.7593474320
  - # 10
    frequency:    9.9595978246
  - # 11
    frequency:   12.7085596213
  - # 12
    frequency:   15.1184610879
  - # 13
    frequency:   16.0527200967
  - # 14
    frequency:   16.1472602727
  - # 15
    frequency:   16.8924428530
  - # 16
    frequency:   17.0823055358
  - # 17
    frequency:   19.6711945072
  - # 18
    frequency:  108.1596311817

- q-position: [    0.0656566,    0.0000000,    0.0000000 ]
  distance:    0.0231972
  band:
  - # 1
    frequency:    0.1350452717
  - # 2
    frequency:    0.7097201342
  - # 3
    frequency:    0.8746073976
  - # 4
    frequency:    2.8504468471
  - # 5
    frequency:    2.9577704158
  - # 6
    frequency:    5.3193600521
  - # 7
    frequency:    7.9031217369
  - # 8
    frequency:    7.9631285434
  - # 9
    frequency:    9.7412815948
  - # 10
    frequency:    9.9723411077
  - # 11
    frequency:   12.6941136440
  - # 12
    frequency:   15.0979647457
  - # 13
    frequency:   16.0325311692
  - # 14
    frequency:   16.1447884543
  - # 15
    frequency:   16.8290945026
  - # 16
    frequency:   17.0488516815
  - # 17
    frequency:   19.6660086606
  - # 18
    frequency:  108.1394073633

- q-position: [    0.0707071,    0.0000000,    0.0000000 ]
  distance:    0.0249816
  band:
  - # 1
    frequency:    0.1550706651
  - # 2
    frequency:    0.7640351300
  - # 3
    frequency:    0.9355300885
  - # 4
    frequency:    2.8608898917
  - # 5
    frequency:    2.9831837358
  - # 6
    frequency:    5.3121448010
  - # 7
    frequency:    7.8911728508
  - # 8
    frequency:    7.9591945169
  - # 9
    frequency:    9.7228105673
  - # 10
    frequency:    9.9858845600
  - # 11
    frequency:   12.6785962518
  - # 12
    frequency:   15.0762037281
  - # 13
    frequency:   16.0100639415
  - # 14
    frequency:   16.1420619194
  - # 15
    frequency:   16.7627307425
  - # 16
    frequency:   17.0135657260
  - # 17
    frequency:   19.6602095130
  - # 18
    frequency:  108.1179354031

- q-position: [    0.0757576,    0.0000000,    0.0000000 ]
  distance:    0.0267660
  band:
  - # 1
    frequency:    0.1762298032
  - # 2
    frequency:    0.8182912126
  - # 3
    frequency:    0.9950424615
  - # 4
    frequency:    2.8720630849
  - # 5
    frequency:    3.0098677984
  - # 6
    frequency:    5.3042795271
  - # 7
    frequency:    7.8788110181
  - # 8
    frequency:    7.9549623283
  - # 9
    frequency:    9.7041577535
  - # 10
    frequency:   10.0001882428
  - # 11
    frequency:   12.6620328414
  - # 12
    frequency:   15.0532380214
  - # 13
    frequency:   15.9850158541
  - # 14
    frequency:   16.1390363700
  - # 15
    frequency:   16.6939735931
  - # 16
    frequency:   16.9766618175
  - # 17
    frequency:   19.6537691635
  - # 18
    frequency:  108.0952961284

- q-position: [    0.0808081,    0.0000000,    0.0000000 ]
  distance:    0.0285504
  band:
  - # 1
    frequency:    0.1984950765
  - # 2
    frequency:    0.8724836118
  - # 3
    frequency:    1.0530569495
  - # 4
    frequency:    2.8839586684
  - # 5
    frequency:    3.0377282801
  - # 6
    frequency:    5.2957338021
  - # 7
    frequency:    7.8661358343
  - # 8
    frequency:    7.9504314644
  - # 9
    frequency:    9.6855560945
  - # 10
    frequency:   10.0152127920
  - # 11
    frequency:   12.6444523140
  - # 12
    frequency:   15.0291230953
  - # 13
    frequency:   15.9569821943
  - # 14
    frequency:   16.1356499758
  - # 15
    frequency:   16.6235720317
  - # 16
    frequency:   16.9383799710
  - # 17
    frequency:   19.6466620887
  - # 18
    frequency:  108.0715747216

- q-position: [    0.0858586,    0.0000000,    0.0000000 ]
  distance:    0.0303348
  band:
  - # 1
    frequency:    0.2218496744
  - # 2
    frequency:    0.9266068181
  - # 3
    frequency:    1.1094940131
  - # 4
    frequency:    2.8965686483
  - # 5
    frequency:    3.0666730518
  - # 6
    frequency:    5.2864741852
  - # 7
    frequency:    7.8532527262
  - # 8
    frequency:    7.9456018757
  - # 9
    frequency:    9.6672461958
  - # 10
    frequency:   10.0309199801
  - # 11
    frequency:   12.6258871679
  - # 12
    frequency:   15.0039082036
  - # 13
    frequency:   15.9254328497
  - # 14
    frequency:   16.1318187608
  - # 15
    frequency:   16.5524260798
  - # 16
    frequency:   16.8989898395
  - # 17
    frequency:   19.6388653981
  - # 18
    frequency:  108.0468603879

- q-position: [    0.0909091,    0.0000000,    0.0000000 ]
  distance:    0.0321192
  band:
  - # 1
    frequency:    0.2462890261
  - # 2
    frequency:    0.9806544125
  - # 3
    frequency:    1.1642839869
  - # 4
    frequency:    2.9098847674
  - # 5
    frequency:    3.0966127245
  - # 6
    frequency:    5.2764645685
  - # 7
    frequency:    7.8402724189
  - # 8
    frequency:    7.9404741365
  - # 9
    frequency:    9.6494742449
  - # 10
    frequency:   10.0472732579
  - # 11
    frequency:   12.6063735278
  - # 12
    frequency:   14.9776345076
  - # 13
    frequency:   15.8896988026
  - # 14
    frequency:   16.1274311204
  - # 15
    frequency:   16.4816013935
  - # 16
    frequency:   16.8587953179
  - # 17
    frequency:   19.6303590161
  - # 18
    frequency:  108.0212460069

- q-position: [    0.0959596,    0.0000000,    0.0000000 ]
  distance:    0.0339036
  band:
  - # 1
    frequency:    0.2718221772
  - # 2
    frequency:    1.0346189017
  - # 3
    frequency:    1.2173689679
  - # 4
    frequency:    2.9238984590
  - # 5
    frequency:    3.1274610925
  - # 6
    frequency:    5.2656667204
  - # 7
    frequency:    7.8273102232
  - # 8
    frequency:    7.9350496223
  - # 9
    frequency:    9.6324897257
  - # 10
    frequency:   10.0642382670
  - # 11
    frequency:   12.5859511073
  - # 12
    frequency:   14.9503329417
  - # 13
    frequency:   15.8489874308
  - # 14
    frequency:   16.1223415348
  - # 15
    frequency:   16.4123153629
  - # 16
    frequency:   16.8181399224
  - # 17
    frequency:   19.6211258013
  - # 18
    frequency:  107.9948277684

- q-position: [    0.1010101,    0.0000000,    0.0000000 ]
  distance:    0.0356880
  band:
  - # 1
    frequency:    0.2984730906
  - # 2
    frequency:    1.0884915621
  - # 3
    frequency:    1.2687046817
  - # 4
    frequency:    2.9386007815
  - # 5
    frequency:    3.1591354914
  - # 6
    frequency:    5.2540410512
  - # 7
    frequency:    7.8144851172
  - # 8
    frequency:    7.9293307056
  - # 9
    frequency:    9.6165429476
  - # 10
    frequency:   10.0817833134
  - # 11
    frequency:   12.5646630982
  - # 12
    frequency:   14.9220217000
  - # 13
    frequency:   15.8024541261
  - # 14
    frequency:   16.1163638242
  - # 15
    frequency:   16.3458673225
  - # 16
    frequency:   16.7774126021
  - # 17
    frequency:   19.6111516127
  - # 18
    frequency:  107.9677047938

- q-position: [    0.1060606,    0.0000000,    0.0000000 ]
  distance:    0.0374724
  band:
  - # 1
    frequency:    0.3262818481
  - # 2
    frequency:    1.1422622975
  - # 3
    frequency:    1.3182622553
  - # 4
    frequency:    2.9539823371
  - # 5
    frequency:    3.1915570933
  - # 6
    frequency:    5.2415476149
  - # 7
    frequency:    7.8019185980
  - # 8
    frequency:    7.9233209677
  - # 9
    frequency:    9.6018824146
  - # 10
    frequency:   10.0998797955
  - # 11
    frequency:   12.5425559858
  - # 12
    frequency:   14.8927031707
  - # 13
    frequency:   15.7493509226
  - # 14
    frequency:   16.1092648358
  - # 15
    frequency:   16.2834923415
  - # 16
    frequency:   16.7370530984
  - # 17
    frequency:   19.6004253332
  - # 18
    frequency:  107.9399787451

- q-position: [    0.1111111,    0.0000000,    0.0000000 ]
  distance:    0.0392568
  band:
  - # 1
    frequency:    0.3553057117
  - # 2
    frequency:    1.1959195146
  - # 3
    frequency:    1.3660298188
  - # 4
    frequency:    2.9700331752
  - # 5
    frequency:    3.2246511497
  - # 6
    frequency:    5.2281473481
  - # 7
    frequency:    7.7897332932
  - # 8
    frequency:    7.9170254227
  - # 9
    frequency:    9.5887520685
  - # 10
    frequency:   10.1185025773
  - # 11
    frequency:   12.5196792888
  - # 12
    frequency:   14.8623600768
  - # 13
    frequency:   15.6892326209
  - # 14
    frequency:   16.1007603685
  - # 15
    frequency:   16.2261583405
  - # 16
    frequency:   16.6975550526
  - # 17
    frequency:   19.5889388572
  - # 18
    frequency:  107.9117534229

- q-position: [    0.1161616,    0.0000000,    0.0000000 ]
  distance:    0.0410412
  band:
  - # 1
    frequency:    0.3856199796
  - # 2
    frequency:    1.2494500184
  - # 3
    frequency:    1.4120138524
  - # 4
    frequency:    2.9867426836
  - # 5
    frequency:    3.2583471947
  - # 6
    frequency:    5.2138035322
  - # 7
    frequency:    7.7780513393
  - # 8
    frequency:    7.9104507531
  - # 9
    frequency:    9.5773884479
  - # 10
    frequency:   10.1376303007
  - # 11
    frequency:   12.4960852261
  - # 12
    frequency:   14.8309504926
  - # 13
    frequency:   15.6221386659
  - # 14
    frequency:   16.0905164645
  - # 15
    frequency:   16.1743885904
  - # 16
    frequency:   16.6594637353
  - # 17
    frequency:   19.5766870519
  - # 18
    frequency:  107.8831343535

- q-position: [    0.1212121,    0.0000000,    0.0000000 ]
  distance:    0.0428256
  band:
  - # 1
    frequency:    0.4173185505
  - # 2
    frequency:    1.3028389300
  - # 3
    frequency:    1.4562401992
  - # 4
    frequency:    3.0040994717
  - # 5
    frequency:    3.2925792100
  - # 6
    frequency:    5.1984834447
  - # 7
    frequency:    7.7669925515
  - # 8
    frequency:    7.9036055525
  - # 9
    frequency:    9.5680178091
  - # 10
    frequency:   10.1572456308
  - # 11
    frequency:   12.4718283137
  - # 12
    frequency:   14.7984013058
  - # 13
    frequency:   15.5486502172
  - # 14
    frequency:   16.0781606223
  - # 15
    frequency:   16.1282105738
  - # 16
    frequency:   16.6233638511
  - # 17
    frequency:   19.5636676958
  - # 18
    frequency:  107.8542283694

- q-position: [    0.1262626,    0.0000000,    0.0000000 ]
  distance:    0.0446101
  band:
  - # 1
    frequency:    0.4505140861
  - # 2
    frequency:    1.3560696294
  - # 3
    frequency:    1.4987546673
  - # 4
    frequency:    3.0220912473
  - # 5
    frequency:    3.3272857514
  - # 6
    frequency:    5.1821601460
  - # 7
    frequency:    7.7566724360
  - # 8
    frequency:    7.8965005719
  - # 9
    frequency:    9.5608532616
  - # 10
    frequency:   10.1773354275
  - # 11
    frequency:   12.4469648980
  - # 12
    frequency:   14.7645996164
  - # 13
    frequency:   15.4697949493
  - # 14
    frequency:   16.0633080183
  - # 15
    frequency:   16.0872591593
  - # 16
    frequency:   16.5898523343
  - # 17
    frequency:   19.5498814018
  - # 18
    frequency:  107.8251431822

- q-position: [    0.1313131,    0.0000000,    0.0000000 ]
  distance:    0.0463945
  band:
  - # 1
    frequency:    0.4853376426
  - # 2
    frequency:    1.4091237239
  - # 3
    frequency:    1.5396231572
  - # 4
    frequency:    3.0407046932
  - # 5
    frequency:    3.3624100287
  - # 6
    frequency:    5.1648143270
  - # 7
    frequency:    7.7472001184
  - # 8
    frequency:    7.8891489655
  - # 9
    frequency:    9.5560919696
  - # 10
    frequency:   10.1978908416
  - # 11
    frequency:   12.4215526335
  - # 12
    frequency:   14.7293815953
  - # 13
    frequency:   15.3868722014
  - # 14
    frequency:   16.0456056142
  - # 15
    frequency:   16.0509619286
  - # 16
    frequency:   16.5594932641
  - # 17
    frequency:   19.5353315273
  - # 18
    frequency:  107.7959869509

- q-position: [    0.1363636,    0.0000000,    0.0000000 ]
  distance:    0.0481789
  band:
  - # 1
    frequency:    0.5219376337
  - # 2
    frequency:    1.4619810433
  - # 3
    frequency:    1.5789312706
  - # 4
    frequency:    3.0599253452
  - # 5
    frequency:    3.3978999304
  - # 6
    frequency:    5.1464361285
  - # 7
    frequency:    7.7386762825
  - # 8
    frequency:    7.8815665315
  - # 9
    frequency:    9.5539124723
  - # 10
    frequency:   10.2189073303
  - # 11
    frequency:   12.3956499155
  - # 12
    frequency:   14.6925187078
  - # 13
    frequency:   15.3012961053
  - # 14
    frequency:   16.0187090989
  - # 15
    frequency:   16.0247903650
  - # 16
    frequency:   16.5327586906
  - # 17
    frequency:   19.5200240767
  - # 18
    frequency:  107.7668678479

- q-position: [    0.1414141,    0.0000000,    0.0000000 ]
  distance:    0.0499633
  band:
  - # 1
    frequency:    0.5604779868
  - # 2
    frequency:    1.5146196609
  - # 3
    frequency:    1.6167833829
  - # 4
    frequency:    3.0797374775
  - # 5
    frequency:    3.4337079808
  - # 6
    frequency:    5.1270268296
  - # 7
    frequency:    7.7311912301
  - # 8
    frequency:    7.8737719426
  - # 9
    frequency:    9.5544721733
  - # 10
    frequency:   10.2403845923
  - # 11
    frequency:   12.3693152823
  - # 12
    frequency:   14.6537024440
  - # 13
    frequency:   15.2145049615
  - # 14
    frequency:   15.9899586020
  - # 15
    frequency:   16.0007478340
  - # 16
    frequency:   16.5099690695
  - # 17
    frequency:   19.5039675978
  - # 18
    frequency:  107.7378936233

- q-position: [    0.1464646,    0.0000000,    0.0000000 ]
  distance:    0.0517477
  band:
  - # 1
    frequency:    0.6011353730
  - # 2
    frequency:    1.5670159425
  - # 3
    frequency:    1.6533011938
  - # 4
    frequency:    3.1001239972
  - # 5
    frequency:    3.4697912201
  - # 6
    frequency:    5.1066003023
  - # 7
    frequency:    7.7248231780
  - # 8
    frequency:    7.8657869606
  - # 9
    frequency:    9.5579050469
  - # 10
    frequency:   10.2623264223
  - # 11
    frequency:   12.3426068008
  - # 12
    frequency:   14.6125317776
  - # 13
    frequency:   15.1279299719
  - # 14
    frequency:   15.9642789585
  - # 15
    frequency:   15.9735507228
  - # 16
    frequency:   16.4912538009
  - # 17
    frequency:   19.4871730764
  - # 18
    frequency:  107.7091711695

- q-position: [    0.1515152,    0.0000000,    0.0000000 ]
  distance:    0.0535321
  band:
  - # 1
    frequency:    0.6440954276
  - # 2
    frequency:    1.6191446203
  - # 3
    frequency:    1.6886218163
  - # 4
    frequency:    3.1210663526
  - # 5
    frequency:    3.5061109980
  - # 6
    frequency:    5.0851841354
  - # 7
    frequency:    7.7196369021
  - # 8
    frequency:    7.8576366286
  - # 9
    frequency:    9.5643196036
  - # 10
    frequency:   10.2847404859
  - # 11
    frequency:   12.3155814568
  - # 12
    frequency:   14.5685137919
  - # 13
    frequency:   15.0429896013
  - # 14
    frequency:   15.9413532031
  - # 15
    frequency:   15.9434610830
  - # 16
    frequency:   16.4765481139
  - # 17
    frequency:   19.4696538297
  - # 18
    frequency:  107.6808060897

- q-position: [    0.1565657,    0.0000000,    0.0000000 ]
  distance:    0.0553165
  band:
  - # 1
    frequency:    0.6895479267
  - # 2
    frequency:    1.6709788928
  - # 3
    frequency:    1.7228955047
  - # 4
    frequency:    3.1425444577
  - # 5
    frequency:    3.5426326789
  - # 6
    frequency:    5.0628203506
  - # 7
    frequency:    7.7156828243
  - # 8
    frequency:    7.8493494344
  - # 9
    frequency:    9.5737971548
  - # 10
    frequency:   10.3076380190
  - # 11
    frequency:   12.2882945724
  - # 12
    frequency:   14.5210973588
  - # 13
    frequency:   14.9610685316
  - # 14
    frequency:   15.9108954366
  - # 15
    frequency:   15.9209649705
  - # 16
    frequency:   16.4656270711
  - # 17
    frequency:   19.4514254039
  - # 18
    frequency:  107.6529022693

- q-position: [    0.1616162,    0.0000000,    0.0000000 ]
  distance:    0.0571009
  band:
  - # 1
    frequency:    0.7376809487
  - # 2
    frequency:    1.7224905493
  - # 3
    frequency:    1.7562831765
  - # 4
    frequency:    3.1645366346
  - # 5
    frequency:    3.5793252561
  - # 6
    frequency:    5.0395656578
  - # 7
    frequency:    7.7129966066
  - # 8
    frequency:    7.8409574391
  - # 9
    frequency:    9.5863904129
  - # 10
    frequency:   10.3310334557
  - # 11
    frequency:   12.2607992756
  - # 12
    frequency:   14.4697664145
  - # 13
    frequency:   14.8834419269
  - # 14
    frequency:   15.8763679466
  - # 15
    frequency:   15.9029794352
  - # 16
    frequency:   16.4581615590
  - # 17
    frequency:   19.4325054747
  - # 18
    frequency:  107.6255614548

- q-position: [    0.1666667,    0.0000000,    0.0000000 ]
  distance:    0.0588853
  band:
  - # 1
    frequency:    0.7886741113
  - # 2
    frequency:    1.7736501167
  - # 3
    frequency:    1.7889539298
  - # 4
    frequency:    3.1870195765
  - # 5
    frequency:    3.6161608824
  - # 6
    frequency:    5.0154912330
  - # 7
    frequency:    7.7115992847
  - # 8
    frequency:    7.8324963616
  - # 9
    frequency:    9.6021224569
  - # 10
    frequency:   10.3549439920
  - # 11
    frequency:   12.2331460531
  - # 12
    frequency:   14.4142051545
  - # 13
    frequency:   14.8111267241
  - # 14
    frequency:   15.8404319608
  - # 15
    frequency:   15.8873250199
  - # 16
    frequency:   16.4537759434
  - # 17
    frequency:   19.4129137564
  - # 18
    frequency:  107.5988828407

- q-position: [    0.1717172,    0.0000000,    0.0000000 ]
  distance:    0.0606697
  band:
  - # 1
    frequency:    0.8426910240
  - # 2
    frequency:    1.8210828104
  - # 3
    frequency:    1.8244270300
  - # 4
    frequency:    3.2099683321
  - # 5
    frequency:    3.6531143219
  - # 6
    frequency:    4.9906820388
  - # 7
    frequency:    7.7114979307
  - # 8
    frequency:    7.8240056148
  - # 9
    frequency:    9.6209860926
  - # 10
    frequency:   10.3793890913
  - # 11
    frequency:   12.2053824200
  - # 12
    frequency:   14.3544937015
  - # 13
    frequency:   14.7446992787
  - # 14
    frequency:   15.8036341817
  - # 15
    frequency:   15.8739779374
  - # 16
    frequency:   16.4520931435
  - # 17
    frequency:   19.3926719195
  - # 18
    frequency:  107.5729626660

- q-position: [    0.1767677,    0.0000000,    0.0000000 ]
  distance:    0.0624541
  band:
  - # 1
    frequency:    0.8998711186
  - # 2
    frequency:    1.8528491292
  - # 3
    frequency:    1.8747898217
  - # 4
    frequency:    3.2333563103
  - # 5
    frequency:    3.6901623334
  - # 6
    frequency:    4.9652357424
  - # 7
    frequency:    7.7126868009
  - # 8
    frequency:    7.8155282842
  - # 9
    frequency:    9.6429436293
  - # 10
    frequency:   10.4043899421
  - # 11
    frequency:   12.1775527402
  - # 12
    frequency:   14.2912278384
  - # 13
    frequency:   14.6841854247
  - # 14