nqpoint: 300    
npath: 3      
segment_nqpoint:
- 100
- 100
- 100
labels:
- [ 'G', 'M' ]
- [ 'M', 'K' ]
- [ 'K', 'G' ]
reciprocal_lattice:
- [   0.27706900,   0.15996586,   0.00000000 ] # a*
- [   0.00000000,   0.31993172,   0.00000000 ] # b*
- [   0.00000000,   0.00000000,   0.03779143 ] # c*
natom: 7      
lattice:
- [     3.609209258918540,     0.000000000000000,     0.000000000000000 ] # a
- [    -1.804604629459270,     3.125666905806620,     0.000000000000000 ] # b
- [     0.000000000000000,     0.000000000000000,    26.461026190263020 ] # c
points:
- symbol: Br # 1
  coordinates: [  0.666666984744047,  0.333332985985145,  0.340122863538519 ]
  mass: 79.904000
- symbol: C # 2
  coordinates: [  0.333332985432215,  0.666666983183674,  0.614297551584761 ]
  mass: 12.010700
- symbol: N # 3
  coordinates: [  0.000000000000000,  0.000000000000000,  0.464868379120372 ]
  mass: 14.006700
- symbol: N # 4
  coordinates: [  0.333332985432215,  0.666666983183674,  0.567206465819632 ]
  mass: 14.006700
- symbol: O # 5
  coordinates: [  0.333332985432215,  0.666666983183674,  0.659877136461481 ]
  mass: 15.999400
- symbol: Y # 6
  coordinates: [  0.333332985432215,  0.666666983183674,  0.414761379348102 ]
  mass: 88.905850
- symbol: Y # 7
  coordinates: [  0.666666984744047,  0.333332985985145,  0.513674716310679 ]
  mass: 88.905850

phonon:
- q-position: [    0.0000000,    0.0000000,    0.0000000 ]
  distance:    0.0000000
  band:
  - # 1
    frequency:   -0.0000111066
  - # 2
    frequency:    0.0000004107
  - # 3
    frequency:    0.0000107396
  - # 4
    frequency:    0.7166017659
  - # 5
    frequency:    0.7166017660
  - # 6
    frequency:    2.5349348119
  - # 7
    frequency:    2.5349348119
  - # 8
    frequency:    4.0201292757
  - # 9
    frequency:    4.6784274921
  - # 10
    frequency:    4.6784274921
  - # 11
    frequency:    6.1241148979
  - # 12
    frequency:    6.1241148979
  - # 13
    frequency:    6.7905088123
  - # 14
    frequency:    8.0408982305
  - # 15
    frequency:   10.1543227902
  - # 16
    frequency:   11.6382382574
  - # 17
    frequency:   11.6382382574
  - # 18
    frequency:   17.5058878386
  - # 19
    frequency:   17.5058878386
  - # 20
    frequency:   38.4647627932
  - # 21
    frequency:   68.8577710644

- q-position: [    0.0050505,    0.0000000,    0.0000000 ]
  distance:    0.0016158
  band:
  - # 1
    frequency:   -0.0600529245
  - # 2
    frequency:   -0.0239113859
  - # 3
    frequency:    0.0006859399
  - # 4
    frequency:    0.7207128470
  - # 5
    frequency:    0.7216207129
  - # 6
    frequency:    2.5352504373
  - # 7
    frequency:    2.5357187087
  - # 8
    frequency:    4.0197145555
  - # 9
    frequency:    4.6782521246
  - # 10
    frequency:    4.6783409684
  - # 11
    frequency:    6.1239603044
  - # 12
    frequency:    6.1241951761
  - # 13
    frequency:    6.7900423576
  - # 14
    frequency:    8.0400216120
  - # 15
    frequency:   10.1542458380
  - # 16
    frequency:   11.6364116418
  - # 17
    frequency:   11.6382033049
  - # 18
    frequency:   17.5059197039
  - # 19
    frequency:   17.5060749942
  - # 20
    frequency:   38.4647660714
  - # 21
    frequency:   68.8566174039

- q-position: [    0.0101010,    0.0000000,    0.0000000 ]
  distance:    0.0032316
  band:
  - # 1
    frequency:   -0.1171553895
  - # 2
    frequency:   -0.0471330245
  - # 3
    frequency:    0.0026002590
  - # 4
    frequency:    0.7328319112
  - # 5
    frequency:    0.7360026416
  - # 6
    frequency:    2.5362006491
  - # 7
    frequency:    2.5380681737
  - # 8
    frequency:    4.0184723735
  - # 9
    frequency:    4.6777272886
  - # 10
    frequency:    4.6780826486
  - # 11
    frequency:    6.1234952706
  - # 12
    frequency:    6.1244358628
  - # 13
    frequency:    6.7886435421
  - # 14
    frequency:    8.0373946558
  - # 15
    frequency:   10.1540148356
  - # 16
    frequency:   11.6309346277
  - # 17
    frequency:   11.6380963467
  - # 18
    frequency:   17.5060152018
  - # 19
    frequency:   17.5066359167
  - # 20
    frequency:   38.4647758896
  - # 21
    frequency:   68.8531589832

- q-position: [    0.0151515,    0.0000000,    0.0000000 ]
  distance:    0.0048475
  band:
  - # 1
    frequency:   -0.1691449895
  - # 2
    frequency:   -0.0691075360
  - # 3
    frequency:    0.0058126613
  - # 4
    frequency:    0.7523661499
  - # 5
    frequency:    0.7580806556
  - # 6
    frequency:    2.5377954260
  - # 7
    frequency:    2.5419764649
  - # 8
    frequency:    4.0164087042
  - # 9
    frequency:    4.6768567822
  - # 10
    frequency:    4.6776561434
  - # 11
    frequency:    6.1227160773
  - # 12
    frequency:    6.1248365037
  - # 13
    frequency:    6.7863140456
  - # 14
    frequency:    8.0330260559
  - # 15
    frequency:   10.1536293219
  - # 16
    frequency:   11.6218157456
  - # 17
    frequency:   11.6379110901
  - # 18
    frequency:   17.5061740395
  - # 19
    frequency:   17.5075689769
  - # 20
    frequency:   38.4647921982
  - # 21
    frequency:   68.8474034763

- q-position: [    0.0202020,    0.0000000,    0.0000000 ]
  distance:    0.0064633
  band:
  - # 1
    frequency:   -0.2148798927
  - # 2
    frequency:   -0.0894866298
  - # 3
    frequency:    0.0103600245
  - # 4
    frequency:    0.7784665640
  - # 5
    frequency:    0.7859069073
  - # 6
    frequency:    2.5400513006
  - # 7
    frequency:    2.5474321275
  - # 8
    frequency:    4.0135336265
  - # 9
    frequency:    4.6756469268
  - # 10
    frequency:    4.6770670019
  - # 11
    frequency:    6.1216166603
  - # 12
    frequency:    6.1253963064
  - # 13
    frequency:    6.7830567769
  - # 14
    frequency:    8.0269302922
  - # 15
    frequency:   10.1530884502
  - # 16
    frequency:   11.6090693188
  - # 17
    frequency:   11.6376370753
  - # 18
    frequency:   17.5063957313
  - # 19
    frequency:   17.5088714708
  - # 20
    frequency:   38.4648149143
  - # 21
    frequency:   68.8393636484

- q-position: [    0.0252525,    0.0000000,    0.0000000 ]
  distance:    0.0080791
  band:
  - # 1
    frequency:   -0.2539931146
  - # 2
    frequency:   -0.1081358456
  - # 3
    frequency:    0.0162923733
  - # 4
    frequency:    0.8101665127
  - # 5
    frequency:    0.8177671174
  - # 6
    frequency:    2.5429911984
  - # 7
    frequency:    2.5544186799
  - # 8
    frequency:    4.0098614925
  - # 9
    frequency:    4.6741065536
  - # 10
    frequency:    4.6763220337
  - # 11
    frequency:    6.1201888132
  - # 12
    frequency:    6.1261140904
  - # 13
    frequency:    6.7788760300
  - # 14
    frequency:    8.0191276158
  - # 15
    frequency:   10.1523908688
  - # 16
    frequency:   11.5927156271
  - # 17
    frequency:   11.6372597194
  - # 18
    frequency:   17.5066796031
  - # 19
    frequency:   17.5105396363
  - # 20
    frequency:   38.4648439208
  - # 21
    frequency:   68.8290573179

- q-position: [    0.0303030,    0.0000000,    0.0000000 ]
  distance:    0.0096949
  band:
  - # 1
    frequency:   -0.2865371019
  - # 2
    frequency:   -0.1250897094
  - # 3
    frequency:    0.0236735712
  - # 4
    frequency:    0.8464917525
  - # 5
    frequency:    0.8523566145
  - # 6
    frequency:    2.5466441852
  - # 7
    frequency:    2.5629141957
  - # 8
    frequency:    4.0054111324
  - # 9
    frequency:    4.6722469804
  - # 10
    frequency:    4.6754284074
  - # 11
    frequency:    6.1184224716
  - # 12
    frequency:    6.1269882195
  - # 13
    frequency:    6.7737776873
  - # 14
    frequency:    8.0096440304
  - # 15
    frequency:   10.1515345488
  - # 16
    frequency:   11.5727811415
  - # 17
    frequency:   11.6367603751
  - # 18
    frequency:   17.5070247978
  - # 19
    frequency:   17.5125686763
  - # 20
    frequency:   38.4648790660
  - # 21
    frequency:   68.8165073039

- q-position: [    0.0353535,    0.0000000,    0.0000000 ]
  distance:    0.0113107
  band:
  - # 1
    frequency:   -0.3127232257
  - # 2
    frequency:   -0.1404907138
  - # 3
    frequency:    0.0325816907
  - # 4
    frequency:    0.8865273887
  - # 5
    frequency:    0.8887550382
  - # 6
    frequency:    2.5510450969
  - # 7
    frequency:    2.5728908032
  - # 8
    frequency:    4.0002060715
  - # 9
    frequency:    4.6700819768
  - # 10
    frequency:    4.6743925703
  - # 11
    frequency:    6.1163060810
  - # 12
    frequency:    6.1280165229
  - # 13
    frequency:    6.7677694546
  - # 14
    frequency:    7.9985112715
  - # 15
    frequency:   10.1505165540
  - # 16
    frequency:   11.5492988401
  - # 17
    frequency:   11.6361164078
  - # 18
    frequency:   17.5074302818
  - # 19
    frequency:   17.5149527880
  - # 20
    frequency:   38.4649201623
  - # 21
    frequency:   68.8017413587

- q-position: [    0.0404040,    0.0000000,    0.0000000 ]
  distance:    0.0129265
  band:
  - # 1
    frequency:   -0.3327769772
  - # 2
    frequency:   -0.1545351653
  - # 3
    frequency:    0.0431100520
  - # 4
    frequency:    0.9263384874
  - # 5
    frequency:    0.9294485005
  - # 6
    frequency:    2.5562340190
  - # 7
    frequency:    2.5843141249
  - # 8
    frequency:    3.9942747294
  - # 9
    frequency:    4.6676277127
  - # 10
    frequency:    4.6732190430
  - # 11
    frequency:    6.1138270485
  - # 12
    frequency:    6.1291962066
  - # 13
    frequency:    6.7608611113
  - # 14
    frequency:    7.9857667855
  - # 15
    frequency:   10.1493327444
  - # 16
    frequency:   11.5223086148
  - # 17
    frequency:   11.6353012873
  - # 18
    frequency:   17.5078948539
  - # 19
    frequency:   17.5176851967
  - # 20
    frequency:   38.4649669850
  - # 21
    frequency:   68.7847920860

- q-position: [    0.0454545,    0.0000000,    0.0000000 ]
  distance:    0.0145424
  band:
  - # 1
    frequency:   -0.3468688304
  - # 2
    frequency:   -0.1674346529
  - # 3
    frequency:    0.0553695194
  - # 4
    frequency:    0.9646941100
  - # 5
    frequency:    0.9745277109
  - # 6
    frequency:    2.5622555766
  - # 7
    frequency:    2.5971426826
  - # 8
    frequency:    3.9876505700
  - # 9
    frequency:    4.6649026887
  - # 10
    frequency:    4.6719091429
  - # 11
    frequency:    6.1109722810
  - # 12
    frequency:    6.1305237619
  - # 13
    frequency:    6.7530647547
  - # 14
    frequency:    7.9714537100
  - # 15
    frequency:   10.1479774007
  - # 16
    frequency:   11.4918577853
  - # 17
    frequency:   11.6342846959
  - # 18
    frequency:   17.5084171547
  - # 19
    frequency:   17.5207581956
  - # 20
    frequency:   38.4650192717
  - # 21
    frequency:   68.7656968442

- q-position: [    0.0505051,    0.0000000,    0.0000000 ]
  distance:    0.0161582
  band:
  - # 1
    frequency:   -0.3550834666
  - # 2
    frequency:   -0.1793927886
  - # 3
    frequency:    0.0694928845
  - # 4
    frequency:    1.0035547152
  - # 5
    frequency:    1.0211309576
  - # 6
    frequency:    2.5691579954
  - # 7
    frequency:    2.6113272885
  - # 8
    frequency:    3.9803721754
  - # 9
    frequency:    4.6619276423
  - # 10
    frequency:    4.6704596984
  - # 11
    frequency:    6.1077288104
  - # 12
    frequency:    6.1319948755
  - # 13
    frequency:    6.7443950200
  - # 14
    frequency:    7.9556208570
  - # 15
    frequency:   10.1464427519
  - # 16
    frequency:   11.4580017418
  - # 17
    frequency:   11.6330326514
  - # 18
    frequency:   17.5089956773
  - # 19
    frequency:   17.5241631890
  - # 20
    frequency:   38.4650767203
  - # 21
    frequency:   68.7444976364

- q-position: [    0.0555556,    0.0000000,    0.0000000 ]
  distance:    0.0177740
  band:
  - # 1
    frequency:   -0.3574045774
  - # 2
    frequency:   -0.1905934018
  - # 3
    frequency:    0.0856425867
  - # 4
    frequency:    1.0427528165
  - # 5
    frequency:    1.0687086149
  - # 6
    frequency:    2.5769918931
  - # 7
    frequency:    2.6268104437
  - # 8
    frequency:    3.9724832195
  - # 9
    frequency:    4.6587254271
  - # 10
    frequency:    4.6688618094
  - # 11
    frequency:    6.1040845072
  - # 12
    frequency:    6.1336043463
  - # 13
    frequency:    6.7348692533
  - # 14
    frequency:    7.9383226997
  - # 15
    frequency:   10.1447183784
  - # 16
    frequency:   11.4208047466
  - # 17
    frequency:   11.6315076440
  - # 18
    frequency:   17.5096287789
  - # 19
    frequency:   17.5278907398
  - # 20
    frequency:   38.4651389887
  - # 21
    frequency:   68.7212409856

- q-position: [    0.0606061,    0.0000000,    0.0000000 ]
  distance:    0.0193898
  band:
  - # 1
    frequency:   -0.3537030575
  - # 2
    frequency:   -0.2011961044
  - # 3
    frequency:    0.1040236364
  - # 4
    frequency:    1.0821891904
  - # 5
    frequency:    1.1167857830
  - # 6
    frequency:    2.5858087662
  - # 7
    frequency:    2.6435257575
  - # 8
    frequency:    3.9640323240
  - # 9
    frequency:    4.6553208631
  - # 10
    frequency:    4.6670997093
  - # 11
    frequency:    6.1000288801
  - # 12
    frequency:    6.1353460136
  - # 13
    frequency:    6.7245076222
  - # 14
    frequency:    7.9196193632
  - # 15
    frequency:   10.1427904534
  - # 16
    frequency:   11.3803409367
  - # 17
    frequency:   11.6296687876
  - # 18
    frequency:   17.5103146937
  - # 19
    frequency:   17.5319306191
  - # 20
    frequency:   38.4652056928
  - # 21
    frequency:   68.6959777975

- q-position: [    0.0656566,    0.0000000,    0.0000000 ]
  distance:    0.0210056
  band:
  - # 1
    frequency:   -0.3437220765
  - # 2
    frequency:   -0.2113360467
  - # 3
    frequency:    0.1249042694
  - # 4
    frequency:    1.1218112817
  - # 5
    frequency:    1.1649535022
  - # 6
    frequency:    2.5956591539
  - # 7
    frequency:    2.6613973949
  - # 8
    frequency:    3.9550727882
  - # 9
    frequency:    4.6517405546
  - # 10
    frequency:    4.6651497799
  - # 11
    frequency:    6.0955539581
  - # 12
    frequency:    6.1372127031
  - # 13
    frequency:    6.7133331486
  - # 14
    frequency:    7.8995766162
  - # 15
    frequency:   10.1406407647
  - # 16
    frequency:   11.3366955848
  - # 17
    frequency:   11.6274719834
  - # 18
    frequency:   17.5110515457
  - # 19
    frequency:   17.5362718592
  - # 20
    frequency:   38.4652764066
  - # 21
    frequency:   68.6687632095

- q-position: [    0.0707071,    0.0000000,    0.0000000 ]
  distance:    0.0226214
  band:
  - # 1
    frequency:   -0.3270546274
  - # 2
    frequency:   -0.2211257400
  - # 3
    frequency:    0.1486466822
  - # 4
    frequency:    1.1615980066
  - # 5
    frequency:    1.2128615340
  - # 6
    frequency:    2.6065904772
  - # 7
    frequency:    2.6803395530
  - # 8
    frequency:    3.9456621915
  - # 9
    frequency:    4.6480126756
  - # 10
    frequency:    4.6629797643
  - # 11
    frequency:    6.0906552434
  - # 12
    frequency:    6.1391961916
  - # 13
    frequency:    6.7013716558
  - # 14
    frequency:    7.8782658612
  - # 15
    frequency:   10.1382454371
  - # 16
    frequency:   11.2899667058
  - # 17
    frequency:   11.6248700965
  - # 18
    frequency:   17.5118373631
  - # 19
    frequency:   17.5409028075
  - # 20
    frequency:   38.4653506605
  - # 21
    frequency:   68.6396564270

- q-position: [    0.0757576,    0.0000000,    0.0000000 ]
  distance:    0.0242373
  band:
  - # 1
    frequency:   -0.3031059557
  - # 2
    frequency:   -0.2306576562
  - # 3
    frequency:    0.1757456827
  - # 4
    frequency:    1.2015486098
  - # 5
    frequency:    1.2602127997
  - # 6
    frequency:    2.6186445874
  - # 7
    frequency:    2.7002559589
  - # 8
    frequency:    3.9358618746
  - # 9
    frequency:    4.6441667225
  - # 10
    frequency:    4.6605482229
  - # 11
    frequency:    6.0853327208
  - # 12
    frequency:    6.1412871968
  - # 13
    frequency:    6.6886516310
  - # 14
    frequency:    7.8557641175
  - # 15
    frequency:   10.1355732342
  - # 16
    frequency:   11.2402671260
  - # 17
    frequency:   11.6218131432
  - # 18
    frequency:   17.5126700917
  - # 19
    frequency:   17.5458111822
  - # 20
    frequency:   38.4654279418
  - # 21
    frequency:   68.6087205487

- q-position: [    0.0808081,    0.0000000,    0.0000000 ]
  distance:    0.0258531
  band:
  - # 1
    frequency:   -0.2710071689
  - # 2
    frequency:   -0.2400068873
  - # 3
    frequency:    0.2068537933
  - # 4
    frequency:    1.2416740425
  - # 5
    frequency:    1.3067593060
  - # 6
    frequency:    2.6318550917
  - # 7
    frequency:    2.7210393777
  - # 8
    frequency:    3.9257363135
  - # 9
    frequency:    4.6402332359
  - # 10
    frequency:    4.6578042766
  - # 11
    frequency:    6.0795918925
  - # 12
    frequency:    6.1434753930
  - # 13
    frequency:    6.6752040126
  - # 14
    frequency:    7.8321539869
  - # 15
    frequency:   10.1325832635
  - # 16
    frequency:   11.1877271949
  - # 17
    frequency:   11.6182484900
  - # 18
    frequency:   17.5135476097
  - # 19
    frequency:   17.5509841279
  - # 20
    frequency:   38.4655076940
  - # 21
    frequency:   68.5760223783

- q-position: [    0.0858586,    0.0000000,    0.0000000 ]
  distance:    0.0274689
  band:
  - # 1
    frequency:   -0.2492335107
  - # 2
    frequency:   -0.2293022534
  - # 3
    frequency:    0.2427187464
  - # 4
    frequency:    1.2819898639
  - # 5
    frequency:    1.3522992597
  - # 6
    frequency:    2.6462445733
  - # 7
    frequency:    2.7425711115
  - # 8
    frequency:    3.9153524016
  - # 9
    frequency:    4.6362434944
  - # 10
    frequency:    4.6546876834
  - # 11
    frequency:    6.0734448039
  - # 12
    frequency:    6.1457494540
  - # 13
    frequency:    6.6610619248
  - # 14
    frequency:    7.8075235924
  - # 15
    frequency:   10.1292218241
  - # 16
    frequency:   11.1324983975
  - # 17
    frequency:   11.6141210618
  - # 18
    frequency:   17.5144677417
  - # 19
    frequency:   17.5564082723
  - # 20
    frequency:   38.4655893176
  - # 21
    frequency:   68.5416322274

- q-position: [    0.0909091,    0.0000000,    0.0000000 ]
  distance:    0.0290847
  band:
  - # 1
    frequency:   -0.2583845138
  - # 2
    frequency:   -0.1744474118
  - # 3
    frequency:    0.2838947047
  - # 4
    frequency:    1.3225100285
  - # 5
    frequency:    1.3966750197
  - # 6
    frequency:    2.6618218625
  - # 7
    frequency:    2.7647204723
  - # 8
    frequency:    3.9047786602
  - # 9
    frequency:    4.6322291833
  - # 10
    frequency:    4.6511293015
  - # 11
    frequency:    6.0669110017
  - # 12
    frequency:    6.1480971248
  - # 13
    frequency:    6.6462603974
  - # 14
    frequency:    7.7819664735
  - # 15
    frequency:   10.1254180032
  - # 16
    frequency:   11.0747582587
  - # 17
    frequency:   11.6093735602
  - # 18
    frequency:   17.5154282726
  - # 19
    frequency:   17.5620697823
  - # 20
    frequency:   38.4656721705
  - # 21
    frequency:   68.5056237058

- q-position: [    0.0959596,    0.0000000,    0.0000000 ]
  distance:    0.0307005
  band:
  - # 1
    frequency:   -0.2674952555
  - # 2
    frequency:   -0.0897283861
  - # 3
    frequency:    0.3302216165
  - # 4
    frequency:    1.3632411462
  - # 5
    frequency:    1.4397715116
  - # 6
    frequency:    2.6785795530
  - # 7
    frequency:    2.7873442130
  - # 8
    frequency:    3.8940843937
  - # 9
    frequency:    4.6282220453
  - # 10
    frequency:    4.6470520019
  - # 11
    frequency:    6.0600183601
  - # 12
    frequency:    6.1505053196
  - # 13
    frequency:    6.6308361185
  - # 14
    frequency:    7.7555814204
  - # 15
    frequency:   10.1210774330
  - # 16
    frequency:   11.0147171225
  - # 17
    frequency:   11.6039466895
  - # 18
    frequency:   17.5164269616
  - # 19
    frequency:   17.5679544190
  - # 20
    frequency:   38.4657555694
  - # 21
    frequency:   68.4680735035

- q-position: [    0.1010101,    0.0000000,    0.0000000 ]
  distance:    0.0323163
  band:
  - # 1
    frequency:   -0.2765905032
  - # 2
    frequency:    0.1188588345
  - # 3
    frequency:    0.3805664604
  - # 4
    frequency:    1.4041769575
  - # 5
    frequency:    1.4815147362
  - # 6
    frequency:    2.6964919758
  - # 7
    frequency:    2.8102859079
  - # 8
    frequency:    3.8833388047
  - # 9
    frequency:    4.6242535168
  - # 10
    frequency:    4.6423721032
  - # 11
    frequency:    6.0528036865
  - # 12
    frequency:    6.1529602474
  - # 13
    frequency:    6.6148272868
  - # 14
    frequency:    7.7284722256
  - # 15
    frequency:   10.1160733181
  - # 16
    frequency:   10.9526276906
  - # 17
    frequency:   11.5977793917
  - # 18
    frequency:   17.5174615546
  - # 19
    frequency:   17.5740475929
  - # 20
    frequency:   38.4658387919
  - # 21
    frequency:   68.4290611624

- q-position: [    0.1060606,    0.0000000,    0.0000000 ]
  distance:    0.0339322
  band:
  - # 1
    frequency:   -0.2856851159
  - # 2
    frequency:    0.1908025296
  - # 3
    frequency:    0.4333109719
  - # 4
    frequency:    1.4452928568
  - # 5
    frequency:    1.5218700410
  - # 6
    frequency:    2.7155138341
  - # 7
    frequency:    2.8333752912
  - # 8
    frequency:    3.8726100780
  - # 9
    frequency:    4.6203543595
  - # 10
    frequency:    4.6370014153
  - # 11
    frequency:    6.0453130109
  - # 12
    frequency:    6.1554475596
  - # 13
    frequency:    6.5982736389
  - # 14
    frequency:    7.7007473280
  - # 15
    frequency:   10.1102334020
  - # 16
    frequency:   10.8887986407
  - # 17
    frequency:   11.5908090880
  - # 18
    frequency:   17.5185297969
  - # 19
    frequency:   17.5803344173
  - # 20
    frequency:   38.4659210782
  - # 21
    frequency:   68.3886688406

- q-position: [    0.1111111,    0.0000000,    0.0000000 ]
  distance:    0.0355480
  band:
  - # 1
    frequency:   -0.2947844589
  - # 2
    frequency:    0.2438494928
  - # 3
    frequency:    0.4870722619
  - # 4
    frequency:    1.4865403577
  - # 5
    frequency:    1.5608398840
  - # 6
    frequency:    2.7355796663
  - # 7
    frequency:    2.8564275826
  - # 8
    frequency:    3.8619644349
  - # 9
    frequency:    4.6165542915
  - # 10
    frequency:    4.6308499864
  - # 11
    frequency:    6.0376014513
  - # 12
    frequency:    6.1579525197
  - # 13
    frequency:    6.5812167347
  - # 14
    frequency:    7.6725193252
  - # 15
    frequency:   10.1033209302
  - # 16
    frequency:   10.8236142566
  - # 17
    frequency:   11.5829719276
  - # 18
    frequency:   17.5196294444
  - # 19
    frequency:   17.5867997609
  - # 20
    frequency:   38.4660016342
  - # 21
    frequency:   68.3469810678

- q-position: [    0.1161616,    0.0000000,    0.0000000 ]
  distance:    0.0371638
  band:
  - # 1
    frequency:   -0.3038846352
  - # 2
    frequency:    0.2897941358
  - # 3
    frequency:    0.5409824143
  - # 4
    frequency:    1.5278414127
  - # 5
    frequency:    1.5984609125
  - # 6
    frequency:    2.7566042389
  - # 7
    frequency:    2.8792428677
  - # 8
    frequency:    3.8514651543
  - # 9
    frequency:    4.6128816282
  - # 10
    frequency:    4.6238296508
  - # 11
    frequency:    6.0297325446
  - # 12
    frequency:    6.1604601881
  - # 13
    frequency:    6.5637005875
  - # 14
    frequency:    7.6439043269
  - # 15
    frequency:   10.0950069531
  - # 16
    frequency:   10.7575627107
  - # 17
    frequency:   11.5742030427
  - # 18
    frequency:   17.5207582741
  - # 19
    frequency:   17.5934282991
  - # 20
    frequency:   38.4660796349
  - # 21
    frequency:   68.3040844943

- q-position: [    0.1212121,    0.0000000,    0.0000000 ]
  distance:    0.0387796
  band:
  - # 1
    frequency:   -0.3129726175
  - # 2
    frequency:    0.3323972566
  - # 3
    frequency:    0.5946011713
  - # 4
    frequency:    1.5690824907
  - # 5
    frequency:    1.6348002855
  - # 6
    frequency:    2.7784838836
  - # 7
    frequency:    2.9016056514
  - # 8
    frequency:    3.8411715497
  - # 9
    frequency:    4.6093629377
  - # 10
    frequency:    4.6158584689
  - # 11
    frequency:    6.0217769421
  - # 12
    frequency:    6.1629556210
  - # 13
    frequency:    6.5457727210
  - # 14
    frequency:    7.6150211286
  - # 15
    frequency:   10.0848309176
  - # 16
    frequency:   10.6912760347
  - # 17
    frequency:   11.5644368083
  - # 18
    frequency:   17.5219140931
  - # 19
    frequency:   17.6002045635
  - # 20
    frequency:   38.4661542283
  - # 21
    frequency:   68.2600676344

- q-position: [    0.1262626,    0.0000000,    0.0000000 ]
  distance:    0.0403954
  band:
  - # 1
    frequency:   -0.3220263539
  - # 2
    frequency:    0.3732793268
  - # 3
    frequency:    0.6477552410
  - # 4
    frequency:    1.6101082736
  - # 5
    frequency:    1.6699512784
  - # 6
    frequency:    2.8010987043
  - # 7
    frequency:    2.9232847754
  - # 8
    frequency:    3.8311378875
  - # 9
    frequency:    4.6060227202
  - # 10
    frequency:    4.6068661196
  - # 11
    frequency:    6.0138103885
  - # 12
    frequency:    6.1654240754
  - # 13
    frequency:    6.5274857156
  - # 14
    frequency:    7.5859901872
  - # 15
    frequency:   10.0721478695
  - # 16
    frequency:   10.6255834321
  - # 17
    frequency:   11.5536071088
  - # 18
    frequency:   17.5230947467
  - # 19
    frequency:   17.6071129906
  - # 20
    frequency:   38.4662245394
  - # 21
    frequency:   68.2150206031

- q-position: [    0.1313131,    0.0000000,    0.0000000 ]
  distance:    0.0420112
  band:
  - # 1
    frequency:   -0.3310149109
  - # 2
    frequency:    0.4131875194
  - # 3
    frequency:    0.7004223685
  - # 4
    frequency:    1.6507147621
  - # 5
    frequency:    1.7040283104
  - # 6
    frequency:    2.8243154960
  - # 7
    frequency:    2.9440339951
  - # 8
    frequency:    3.8214122402
  - # 9
    frequency:    4.5968002582
  - # 10
    frequency:    4.6028831165
  - # 11
    frequency:    6.0059109339
  - # 12
    frequency:    6.1678512182
  - # 13
    frequency:    6.5088992886
  - # 14
    frequency:    7.5569323933
  - # 15
    frequency:   10.0560676915
  - # 16
    frequency:   10.5615724878
  - # 17
    frequency:   11.5416476080
  - # 18
    frequency:   17.5242981249
  - # 19
    frequency:   17.6141379683
  - # 20
    frequency:   38.4662896754
  - # 21
    frequency:   68.1690348497

- q-position: [    0.1363636,    0.0000000,    0.0000000 ]
  distance:    0.0436271
  band:
  - # 1
    frequency:   -0.3398987011
  - # 2
    frequency:    0.4524376790
  - # 3
    frequency:    0.7526645500
  - # 4
    frequency:    1.6906414816
  - # 5
    frequency:    1.7371616010
  - # 6
    frequency:    2.8479911600
  - # 7
    frequency:    2.9635936445
  - # 8
    frequency:    3.8120352790
  - # 9
    frequency:    4.5856337585
  - # 10
    frequency:    4.5999636519
  - # 11
    frequency:    5.9981553819
  - # 12
    frequency:    6.1702233321
  - # 13
    frequency:    6.4900829069
  - # 14
    frequency:    7.5279676455
  - # 15
    frequency:   10.0354126028
  - # 16
    frequency:   10.5006320188
  - # 17
    frequency:   11.5284920240
  - # 18
    frequency:   17.5255221679
  - # 19
    frequency:   17.6212638818
  - # 20
    frequency:   38.4663487307
  - # 21
    frequency:   68.1222028869

- q-position: [    0.1414141,    0.0000000,    0.0000000 ]
  distance:    0.0452429
  band:
  - # 1
    frequency:   -0.3486298314
  - # 2
    frequency:    0.4911043342
  - # 3
    frequency:    0.8045911957
  - # 4
    frequency:    1.7295623664
  - # 5
    frequency:    1.7694917046
  - # 6
    frequency:    2.8719763755
  - # 7
    frequency:    2.9816940010
  - # 8
    frequency:    3.8030390446
  - # 9
    frequency:    4.5733726273
  - # 10
    frequency:    4.5972810203
  - # 11
    frequency:    5.9906150341
  - # 12
    frequency:    6.1725275146
  - # 13
    frequency:    6.4711188898
  - # 14
    frequency:    7.4992132518
  - # 15
    frequency:   10.0087604703
  - # 16
    frequency:   10.4444089885
  - # 17
    frequency:   11.5140744086
  - # 18
    frequency:   17.5267648699
  - # 19
    frequency:   17.6284751576
  - # 20
    frequency:   38.4664007926
  - # 21
    frequency:   68.0746180179

- q-position: [    0.1464646,    0.0000000,    0.0000000 ]
  distance:    0.0468587
  band:
  - # 1
    frequency:   -0.3571525845
  - # 2
    frequency:    0.5291125776
  - # 3
    frequency:    0.8563372041
  - # 4
    frequency:    1.7670748018
  - # 5
    frequency:    1.8011641676
  - # 6
    frequency:    2.8961192917
  - # 7
    frequency:    2.9980611772
  - # 8
    frequency:    3.7944457893
  - # 9
    frequency:    4.5600641854
  - # 10
    frequency:    4.5948489135
  - # 11
    frequency:    5.9833508702
  - # 12
    frequency:    6.1747518642
  - # 13
    frequency:    6.4521058854
  - # 14
    frequency:    7.4707822042
  - # 15
    frequency:    9.9746781642
  - # 16
    frequency:   10.3945752198
  - # 17
    frequency:   11.4983294295
  - # 18
    frequency:   17.5280242816
  - # 19
    frequency:   17.6357563057
  - # 20
    frequency:   38.4664449472
  - # 21
    frequency:   68.0263740612

- q-position: [    0.1515152,    0.0000000,    0.0000000 ]
  distance:    0.0484745
  band:
  - # 1
    frequency:   -0.3654040385
  - # 2
    frequency:    0.5662857121
  - # 3
    frequency:    0.9080473842
  - # 4
    frequency:    1.8026862615
  - # 5
    frequency:    1.8323245279
  - # 6
    frequency:    2.9202690411
  - # 7
    frequency:    3.0124266160
  - # 8
    frequency:    3.7862670594
  - # 9
    frequency:    4.5458048672
  - # 10
    frequency:    4.5926778976
  - # 11
    frequency:    5.9764083891
  - # 12
    frequency:    6.1768856497
  - # 13
    frequency:    6.4331625310
  - # 14
    frequency:    7.4427813897
  - # 15
    frequency:    9.9321775439
  - # 16
    frequency:   10.3523712881
  - # 17
    frequency:   11.4811926567
  - # 18
    frequency:   17.5292985117
  - # 19
    frequency:   17.6430919612
  - # 20
    frequency:   38.4664802854
  - # 21
    frequency:   67.9775650753
