nqpoint: 300    
npath: 3      
segment_nqpoint:
- 100
- 100
- 100
labels:
- [ 'G', 'M' ]
- [ 'M', 'K' ]
- [ 'K', 'G' ]
reciprocal_lattice:
- [   0.27527069,   0.15892761,   0.00000000 ] # a*
- [   0.00000000,   0.31785521,   0.00000000 ] # b*
- [   0.00000000,   0.00000000,   0.03910965 ] # c*
natom: 7      
lattice:
- [     3.632787797840729,     0.000000000000000,     0.000000000000000 ] # a
- [    -1.816393898920364,     3.146086519485398,     0.000000000000000 ] # b
- [     0.000000000000000,     0.000000000000000,    25.569134061804235 ] # c
points:
- symbol: C # 1
  coordinates: [  0.000000000000000,  0.000000000000000,  0.554063874480898 ]
  mass: 12.010700
- symbol: C # 2
  coordinates: [  0.666666984744047,  0.333332985985145,  0.398498915657962 ]
  mass: 12.010700
- symbol: H # 3
  coordinates: [  0.333332985432215,  0.666666983183674,  0.648013109155526 ]
  mass: 1.007940
- symbol: N # 4
  coordinates: [  0.666666984744047,  0.333332985985145,  0.351986890844473 ]
  mass: 14.006700
- symbol: O # 5
  coordinates: [  0.666666984744047,  0.333332985985145,  0.450627397564907 ]
  mass: 15.999400
- symbol: Y # 6
  coordinates: [  0.333332985432215,  0.666666983183674,  0.500797496917428 ]
  mass: 88.905850
- symbol: Y # 7
  coordinates: [  0.666666984744047,  0.333332985985145,  0.607673116086209 ]
  mass: 88.905850

phonon:
- q-position: [    0.0000000,    0.0000000,    0.0000000 ]
  distance:    0.0000000
  band:
  - # 1
    frequency:   -1.4081041232
  - # 2
    frequency:   -1.4081041232
  - # 3
    frequency:   -0.0000088761
  - # 4
    frequency:    0.0000004040
  - # 5
    frequency:    0.0000064967
  - # 6
    frequency:    3.5659302590
  - # 7
    frequency:    3.5659302590
  - # 8
    frequency:    5.3906223720
  - # 9
    frequency:    5.4397938084
  - # 10
    frequency:    5.4397938084
  - # 11
    frequency:    7.9887081238
  - # 12
    frequency:    8.8511553221
  - # 13
    frequency:    8.8511553222
  - # 14
    frequency:   13.9207921593
  - # 15
    frequency:   13.9207921593
  - # 16
    frequency:   16.5993823245
  - # 17
    frequency:   24.5863981530
  - # 18
    frequency:   24.5863981530
  - # 19
    frequency:   24.6957941404
  - # 20
    frequency:   32.2382140098
  - # 21
    frequency:   67.8338856765

- q-position: [    0.0050505,    0.0000000,    0.0000000 ]
  distance:    0.0016053
  band:
  - # 1
    frequency:   -1.4078501868
  - # 2
    frequency:   -1.4065556002
  - # 3
    frequency:    0.0012737109
  - # 4
    frequency:    0.0616984156
  - # 5
    frequency:    0.1012603178
  - # 6
    frequency:    3.5659423156
  - # 7
    frequency:    3.5665275186
  - # 8
    frequency:    5.3900548908
  - # 9
    frequency:    5.4397340405
  - # 10
    frequency:    5.4430704405
  - # 11
    frequency:    7.9877719016
  - # 12
    frequency:    8.8508593932
  - # 13
    frequency:    8.8583970858
  - # 14
    frequency:   13.9208206002
  - # 15
    frequency:   13.9208918019
  - # 16
    frequency:   16.5974270572
  - # 17
    frequency:   24.5819405748
  - # 18
    frequency:   24.5863032059
  - # 19
    frequency:   24.7007890212
  - # 20
    frequency:   32.2378127598
  - # 21
    frequency:   67.8336405209

- q-position: [    0.0101010,    0.0000000,    0.0000000 ]
  distance:    0.0032107
  band:
  - # 1
    frequency:   -1.4070903638
  - # 2
    frequency:   -1.4019342869
  - # 3
    frequency:    0.0052062754
  - # 4
    frequency:    0.1233767316
  - # 5
    frequency:    0.2026296371
  - # 6
    frequency:    3.5659786577
  - # 7
    frequency:    3.5683181118
  - # 8
    frequency:    5.3886719311
  - # 9
    frequency:    5.4395552807
  - # 10
    frequency:    5.4524793046
  - # 11
    frequency:    7.9849969019
  - # 12
    frequency:    8.8499731829
  - # 13
    frequency:    8.8800756556
  - # 14
    frequency:   13.9209058787
  - # 15
    frequency:   13.9211906358
  - # 16
    frequency:   16.5915671400
  - # 17
    frequency:   24.5702844480
  - # 18
    frequency:   24.5860186621
  - # 19
    frequency:   24.7140559998
  - # 20
    frequency:   32.2366099785
  - # 21
    frequency:   67.8329055851

- q-position: [    0.0151515,    0.0000000,    0.0000000 ]
  distance:    0.0048160
  band:
  - # 1
    frequency:   -1.4058304999
  - # 2
    frequency:   -1.3943104886
  - # 3
    frequency:    0.0117506381
  - # 4
    frequency:    0.1850140703
  - # 5
    frequency:    0.3042065896
  - # 6
    frequency:    3.5660398022
  - # 7
    frequency:    3.5712984572
  - # 8
    frequency:    5.3870017222
  - # 9
    frequency:    5.4392591491
  - # 10
    frequency:    5.4671954291
  - # 11
    frequency:    7.9804755770
  - # 12
    frequency:    8.8485014191
  - # 13
    frequency:    8.9160559474
  - # 14
    frequency:   13.9210478628
  - # 15
    frequency:   13.9216883793
  - # 16
    frequency:   16.5818201999
  - # 17
    frequency:   24.5543179800
  - # 18
    frequency:   24.5855454133
  - # 19
    frequency:   24.7327036922
  - # 20
    frequency:   32.2346085683
  - # 21
    frequency:   67.8316824616

- q-position: [    0.0202020,    0.0000000,    0.0000000 ]
  distance:    0.0064213
  band:
  - # 1
    frequency:   -1.4040799739
  - # 2
    frequency:   -1.3837934669
  - # 3
    frequency:    0.0208946728
  - # 4
    frequency:    0.2465880607
  - # 5
    frequency:    0.4060701194
  - # 6
    frequency:    3.5661266106
  - # 7
    frequency:    3.5754625153
  - # 8
    frequency:    5.3853364541
  - # 9
    frequency:    5.4388483089
  - # 10
    frequency:    5.4864574695
  - # 11
    frequency:    7.9743375461
  - # 12
    frequency:    8.8464519716
  - # 13
    frequency:    8.9661262448
  - # 14
    frequency:   13.9212463328
  - # 15
    frequency:   13.9223845626
  - # 16
    frequency:   16.5682155261
  - # 17
    frequency:   24.5359080036
  - # 18
    frequency:   24.5848849431
  - # 19
    frequency:   24.7548599444
  - # 20
    frequency:   32.2318133544
  - # 21
    frequency:   67.8299737983

- q-position: [    0.0252525,    0.0000000,    0.0000000 ]
  distance:    0.0080266
  band:
  - # 1
    frequency:   -1.4018511857
  - # 2
    frequency:   -1.3705205655
  - # 3
    frequency:    0.0326204688
  - # 4
    frequency:    0.3080742432
  - # 5
    frequency:    0.5082723888
  - # 6
    frequency:    3.5662402899
  - # 7
    frequency:    3.5808017169
  - # 8
    frequency:    5.3837522613
  - # 9
    frequency:    5.4383264104
  - # 10
    frequency:    5.5095827567
  - # 11
    frequency:    7.9667240853
  - # 12
    frequency:    8.8438358387
  - # 13
    frequency:    9.0300088995
  - # 14
    frequency:   13.9215009822
  - # 15
    frequency:   13.9232785274
  - # 16
    frequency:   16.5507939392
  - # 17
    frequency:   24.5159456618
  - # 18
    frequency:   24.5840393235
  - # 19
    frequency:   24.7796261049
  - # 20
    frequency:   32.2282310676
  - # 21
    frequency:   67.8277832896

- q-position: [    0.0303030,    0.0000000,    0.0000000 ]
  distance:    0.0096320
  band:
  - # 1
    frequency:   -1.3991589030
  - # 2
    frequency:   -1.3546438831
  - # 3
    frequency:    0.0469048223
  - # 4
    frequency:    0.3694456392
  - # 5
    frequency:    0.6108346010
  - # 6
    frequency:    3.5663823928
  - # 7
    frequency:    3.5873049172
  - # 8
    frequency:    5.3822337438
  - # 9
    frequency:    5.4376980147
  - # 10
    frequency:    5.5358860723
  - # 11
    frequency:    7.9577672286
  - # 12
    frequency:    8.8406671263
  - # 13
    frequency:    9.1073637841
  - # 14
    frequency:   13.9218114194
  - # 15
    frequency:   13.9243694257
  - # 16
    frequency:   16.5296076164
  - # 17
    frequency:   24.4948099981
  - # 18
    frequency:   24.5830112095
  - # 19
    frequency:   24.8066133723
  - # 20
    frequency:   32.2238703188
  - # 21
    frequency:   67.8251156648

- q-position: [    0.0353535,    0.0000000,    0.0000000 ]
  distance:    0.0112373
  band:
  - # 1
    frequency:   -1.3960195221
  - # 2
    frequency:   -1.3363161273
  - # 3
    frequency:    0.0637192807
  - # 4
    frequency:    0.4306725098
  - # 5
    frequency:    0.7137461373
  - # 6
    frequency:    3.5665548199
  - # 7
    frequency:    3.5949584127
  - # 8
    frequency:    5.3807433953
  - # 9
    frequency:    5.4369684973
  - # 10
    frequency:    5.5646570249
  - # 11
    frequency:    7.9475775215
  - # 12
    frequency:    8.8369630201
  - # 13
    frequency:    9.1977832070
  - # 14
    frequency:   13.9221771681
  - # 15
    frequency:   13.9256562189
  - # 16
    frequency:   16.5047198808
  - # 17
    frequency:   24.4726409276
  - # 18
    frequency:   24.5818038325
  - # 19
    frequency:   24.8356697396
  - # 20
    frequency:   32.2187415674
  - # 21
    frequency:   67.8219766717

- q-position: [    0.0404040,    0.0000000,    0.0000000 ]
  distance:    0.0128426
  band:
  - # 1
    frequency:   -1.3924502980
  - # 2
    frequency:   -1.3156772967
  - # 3
    frequency:    0.0830301979
  - # 4
    frequency:    0.4917223134
  - # 5
    frequency:    0.8169668592
  - # 6
    frequency:    3.5667598217
  - # 7
    frequency:    3.6037460413
  - # 8
    frequency:    5.3792468677
  - # 9
    frequency:    5.4361439334
  - # 10
    frequency:    5.5951802498
  - # 11
    frequency:    7.9362400657
  - # 12
    frequency:    8.8327437496
  - # 13
    frequency:    9.3007814444
  - # 14
    frequency:   13.9225976704
  - # 15
    frequency:   13.9271376751
  - # 16
    frequency:   16.4762049618
  - # 17
    frequency:   24.4494681926
  - # 18
    frequency:   24.5804209921
  - # 19
    frequency:   24.8667509287
  - # 20
    frequency:   32.2128570835
  - # 21
    frequency:   67.8183730577

- q-position: [    0.0454545,    0.0000000,    0.0000000 ]
  distance:    0.0144480
  band:
  - # 1
    frequency:   -1.3884685989
  - # 2
    frequency:   -1.2928435402
  - # 3
    frequency:    0.1047988365
  - # 4
    frequency:    0.5525598517
  - # 5
    frequency:    0.9204319038
  - # 6
    frequency:    3.5670000027
  - # 7
    frequency:    3.6136493768
  - # 8
    frequency:    5.3777192380
  - # 9
    frequency:    5.4352309660
  - # 10
    frequency:    5.6267690383
  - # 11
    frequency:    7.9238162298
  - # 12
    frequency:    8.8280325433
  - # 13
    frequency:    9.4157838722
  - # 14
    frequency:   13.9230722879
  - # 15
    frequency:   13.9288123669
  - # 16
    frequency:   16.4441477422
  - # 17
    frequency:   24.4252717940
  - # 18
    frequency:   24.5788670466
  - # 19
    frequency:   24.8998598225
  - # 20
    frequency:   32.2062309024
  - # 21
    frequency:   67.8143125478

- q-position: [    0.0505051,    0.0000000,    0.0000000 ]
  distance:    0.0160533
  band:
  - # 1
    frequency:   -1.3840912312
  - # 2
    frequency:   -1.2678989625
  - # 3
    frequency:    0.1289815115
  - # 4
    frequency:    0.6131475809
  - # 5
    frequency:    1.0240579381
  - # 6
    frequency:    3.5672783263
  - # 7
    frequency:    3.6246480110
  - # 8
    frequency:    5.3761449231
  - # 9
    frequency:    5.4342366601
  - # 10
    frequency:    5.6587967012
  - # 11
    frequency:    7.9103481708
  - # 12
    frequency:    8.8228555736
  - # 13
    frequency:    9.5421200765
  - # 14
    frequency:   13.9236003046
  - # 15
    frequency:   13.9306786666
  - # 16
    frequency:   16.4086435026
  - # 17
    frequency:   24.4000114092
  - # 18
    frequency:   24.5771469017
  - # 19
    frequency:   24.9350168783
  - # 20
    frequency:   32.1988787740
  - # 21
    frequency:   67.8098038184

- q-position: [    0.0555556,    0.0000000,    0.0000000 ]
  distance:    0.0176586
  band:
  - # 1
    frequency:   -1.3793338660
  - # 2
    frequency:   -1.2408904658
  - # 3
    frequency:    0.1555297559
  - # 4
    frequency:    0.6734460518
  - # 5
    frequency:    1.1277497402
  - # 6
    frequency:    3.5675981221
  - # 7
    frequency:    3.6367199102
  - # 8
    frequency:    5.3745160404
  - # 9
    frequency:    5.4331683449
  - # 10
    frequency:    5.6907193213
  - # 11
    frequency:    7.8958640733
  - # 12
    frequency:    8.8172418889
  - # 13
    frequency:    9.6790234827
  - # 14
    frequency:   13.9241809293
  - # 15
    frequency:   13.9327347401
  - # 16
    frequency:   16.3697976814
  - # 17
    frequency:   24.3736412634
  - # 18
    frequency:   24.5752659981
  - # 19
    frequency:   24.9722450583
  - # 20
    frequency:   32.1908181054
  - # 21
    frequency:   67.8048564697

- q-position: [    0.0606061,    0.0000000,    0.0000000 ]
  distance:    0.0192640
  band:
  - # 1
    frequency:   -1.3742105889
  - # 2
    frequency:   -1.2118250931
  - # 3
    frequency:    0.1843904741
  - # 4
    frequency:    0.7334144403
  - # 5
    frequency:    1.2314061442
  - # 6
    frequency:    3.5679630953
  - # 7
    frequency:    3.6498418248
  - # 8
    frequency:    5.3728307497
  - # 9
    frequency:    5.4320334466
  - # 10
    frequency:    5.7220883124
  - # 11
    frequency:    7.8803829388
  - # 12
    frequency:    8.8112233342
  - # 13
    frequency:    9.8256380507
  - # 14
    frequency:   13.9248132992
  - # 15
    frequency:   13.9349785394
  - # 16
    frequency:   16.3277256672
  - # 17
    frequency:   24.3461177909
  - # 18
    frequency:   24.5732302977
  - # 19
    frequency:   25.0115619379
  - # 20
    frequency:   32.1820678983
  - # 21
    frequency:   67.7994809933

- q-position: [    0.0656566,    0.0000000,    0.0000000 ]
  distance:    0.0208693
  band:
  - # 1
    frequency:   -1.3687335789
  - # 2
    frequency:   -1.1806689234
  - # 3
    frequency:    0.2155060408
  - # 4
    frequency:    0.7930111280
  - # 5
    frequency:    1.3349247250
  - # 6
    frequency:    3.5683773374
  - # 7
    frequency:    3.6639897341
  - # 8
    frequency:    5.3710919510
  - # 9
    frequency:    5.4308393153
  - # 10
    frequency:    5.7525535952
  - # 11
    frequency:    7.8639184528
  - # 12
    frequency:    8.8048344553
  - # 13
    frequency:    9.9810310399
  - # 14
    frequency:   13.9254964823
  - # 15
    frequency:   13.9374077907
  - # 16
    frequency:   16.2825526483
  - # 17
    frequency:   24.3174035305
  - # 18
    frequency:   24.5710462678
  - # 19
    frequency:   25.0529755482
  - # 20
    frequency:   32.1726486812
  - # 21
    frequency:   67.7936887387

- q-position: [    0.0707071,    0.0000000,    0.0000000 ]
  distance:    0.0224746
  band:
  - # 1
    frequency:   -1.3629129110
  - # 2
    frequency:   -1.1473463545
  - # 3
    frequency:    0.2488142971
  - # 4
    frequency:    0.8521942966
  - # 5
    frequency:    1.4382049745
  - # 6
    frequency:    3.5688453409
  - # 7
    frequency:    3.6791393074
  - # 8
    frequency:    5.3693063519
  - # 9
    frequency:    5.4295930499
  - # 10
    frequency:    5.7818593453
  - # 11
    frequency:    7.8464818680
  - # 12
    frequency:    8.7981123876
  - # 13
    frequency:   10.1442099596
  - # 14
    frequency:   13.9262294815
  - # 15
    frequency:   13.9400199800
  - # 16
    frequency:   16.2344135424
  - # 17
    frequency:   24.2874689713
  - # 18
    frequency:   24.5687208646
  - # 19
    frequency:   25.0964822414
  - # 20
    frequency:   32.1625824357
  - # 21
    frequency:   67.7874918762

- q-position: [    0.0757576,    0.0000000,    0.0000000 ]
  distance:    0.0240799
  band:
  - # 1
    frequency:   -1.3567564703
  - # 2
    frequency:   -1.1117385475
  - # 3
    frequency:    0.2842483912
  - # 4
    frequency:    0.9109225049
  - # 5
    frequency:    1.5411500294
  - # 6
    frequency:    3.5693720142
  - # 7
    frequency:    3.6952663703
  - # 8
    frequency:    5.3674838258
  - # 9
    frequency:    5.4283013237
  - # 10
    frequency:    5.8098346554
  - # 11
    frequency:    7.8280840312
  - # 12
    frequency:    8.7910967263
  - # 13
    frequency:   10.3141415484
  - # 14
    frequency:   13.9270112383
  - # 15
    frequency:   13.9428123331
  - # 16
    frequency:   16.1834530409
  - # 17
    frequency:   24.2562932504
  - # 18
    frequency:   24.5662615148
  - # 19
    frequency:   25.1420656797
  - # 20
    frequency:   32.1518925195
  - # 21
    frequency:   67.7809033575

- q-position: [    0.0808081,    0.0000000,    0.0000000 ]
  distance:    0.0256853
  band:
  - # 1
    frequency:   -1.3502699586
  - # 2
    frequency:   -1.0736797576
  - # 3
    frequency:    0.3217364122
  - # 4
    frequency:    0.9691552269
  - # 5
    frequency:    1.6436671957
  - # 6
    frequency:    3.5699627002
  - # 7
    frequency:    3.7123473671
  - # 8
    frequency:    5.3656369812
  - # 9
    frequency:    5.4269702156
  - # 10
    frequency:    5.8363813502
  - # 11
    frequency:    7.8087367392
  - # 12
    frequency:    8.7838293774
  - # 13
    frequency:   10.4897707979
  - # 14
    frequency:   13.9278406363
  - # 15
    frequency:   13.9457817886
  - # 16
    frequency:   16.1298258057
  - # 17
    frequency:   24.2238642063
  - # 18
    frequency:   24.5636760957
  - # 19
    frequency:   25.1896964527
  - # 20
    frequency:   32.1406035843
  - # 21
    frequency:   67.7739368741

- q-position: [    0.0858586,    0.0000000,    0.0000000 ]
  distance:    0.0272906
  band:
  - # 1
    frequency:   -1.3434569726
  - # 2
    frequency:   -1.0329501048
  - # 3
    frequency:    0.3612007721
  - # 4
    frequency:    1.0268533356
  - # 5
    frequency:    1.7456675871
  - # 6
    frequency:    3.5706231952
  - # 7
    frequency:    3.7303598173
  - # 8
    frequency:    5.3637808772
  - # 9
    frequency:    5.4256050510
  - # 10
    frequency:    5.8614608037
  - # 11
    frequency:    7.7884536056
  - # 12
    frequency:    8.7763543878
  - # 13
    frequency:   10.6700384687
  - # 14
    frequency:   13.9287165059
  - # 15
    frequency:   13.9489249631
  - # 16
    frequency:   16.0736968687
  - # 17
    frequency:   24.1901780718
  - # 18
    frequency:   24.5609729148
  - # 19
    frequency:   25.2393320449
  - # 20
    frequency:   32.1287414899
  - # 21
    frequency:   67.7666068139

- q-position: [    0.0909091,    0.0000000,    0.0000000 ]
  distance:    0.0288959
  band:
  - # 1
    frequency:   -1.3363191338
  - # 2
    frequency:   -0.9892628607
  - # 3
    frequency:    0.4025573062
  - # 4
    frequency:    1.0839795231
  - # 5
    frequency:    1.8470651844
  - # 6
    frequency:    3.5713597698
  - # 7
    frequency:    3.7492827658
  - # 8
    frequency:    5.3619328379
  - # 9
    frequency:    5.4242102561
  - # 10
    frequency:    5.8850811052
  - # 11
    frequency:    7.7672505852
  - # 12
    frequency:    8.7687177524
  - # 13
    frequency:   10.8538960553
  - # 14
    frequency:   13.9296376280
  - # 15
    frequency:   13.9522381034
  - # 16
    frequency:   16.0152423000
  - # 17
    frequency:   24.1552389792
  - # 18
    frequency:   24.5581606866
  - # 19
    frequency:   25.2909169940
  - # 20
    frequency:   32.1163332155
  - # 21
    frequency:   67.7589282153

- q-position: [    0.0959596,    0.0000000,    0.0000000 ]
  distance:    0.0305013
  band:
  - # 1
    frequency:   -1.3288562512
  - # 2
    frequency:   -0.9422432954
  - # 3
    frequency:    0.4457140930
  - # 4
    frequency:    1.1404986561
  - # 5
    frequency:    1.9477755637
  - # 6
    frequency:    3.5721791897
  - # 7
    frequency:    3.7690972313
  - # 8
    frequency:    5.3601123338
  - # 9
    frequency:    5.4227892309
  - # 10
    frequency:    5.9072854236
  - # 11
    frequency:    7.7451462721
  - # 12
    frequency:    8.7609671985
  - # 13
    frequency:   11.0403176260
  - # 14
    frequency:   13.9306027390
  - # 15
    frequency:   13.9557170234
  - # 16
    frequency:   15.9546502298
  - # 17
    frequency:   24.1190583753
  - # 18
    frequency:   24.5552485092
  - # 19
    frequency:   25.3443831503
  - # 20
    frequency:   32.1034067676
  - # 21
    frequency:   67.7509167200

- q-position: [    0.1010101,    0.0000000,    0.0000000 ]
  distance:    0.0321066
  band:
  - # 1
    frequency:   -1.3210665007
  - # 2
    frequency:   -0.8913940193
  - # 3
    frequency:    0.4905700443
  - # 4
    frequency:    1.1963780662
  - # 5
    frequency:    2.0477144769
  - # 6
    frequency:    3.5730887353
  - # 7
    frequency:    3.7897866590
  - # 8
    frequency:    5.3583409054
  - # 9
    frequency:    5.4213442433
  - # 10
    frequency:    5.9281420081
  - # 11
    frequency:    7.7221620510
  - # 12
    frequency:    8.7531519456
  - # 13
    frequency:   11.2283083240
  - # 14
    frequency:   13.9316105347
  - # 15
    frequency:   13.9593570183
  - # 16
    frequency:   15.8921223416
  - # 17
    frequency:   24.0816544090
  - # 18
    frequency:   24.5522458392
  - # 19
    frequency:   25.3996499914
  - # 20
    frequency:   32.0899910856
  - # 21
    frequency:   67.7425885240

- q-position: [    0.1060606,    0.0000000,    0.0000000 ]
  distance:    0.0337119
  band:
  - # 1
    frequency:   -1.3129466090
  - # 2
    frequency:   -0.8360374092
  - # 3
    frequency:    0.5370133844
  - # 4
    frequency:    1.2515877809
  - # 5
    frequency:    2.1467963986
  - # 6
    frequency:    3.5740962203
  - # 7
    frequency:    3.8113373828
  - # 8
    frequency:    5.3566421162
  - # 9
    frequency:    5.4198763509
  - # 10
    frequency:    5.9477359527
  - # 11
    frequency:    7.6983221605
  - # 12
    frequency:    8.7453224409
  - # 13
    frequency:   11.4169095381
  - # 14
    frequency:   13.9326596755
  - # 15
    frequency:   13.9631527487
  - # 16
    frequency:   15.8278759943
  - # 17
    frequency:   24.0430513233
  - # 18
    frequency:   24.5491624646
  - # 19
    frequency:   25.4566249707
  - # 20
    frequency:   32.0761159453
  - # 21
    frequency:   67.7339603274

- q-position: [    0.1111111,    0.0000000,    0.0000000 ]
  distance:    0.0353172
  band:
  - # 1
    frequency:   -1.3044920321
  - # 2
    frequency:   -0.7752161535
  - # 3
    frequency:    0.5849202314
  - # 4
    frequency:    1.3061006992
  - # 5
    frequency:    2.2449331079
  - # 6
    frequency:    3.5752100069
  - # 7
    frequency:    3.8337391067
  - # 8
    frequency:    5.3550415208
  - # 9
    frequency:    5.4183853517
  - # 10
    frequency:    5.9661626557
  - # 11
    frequency:    7.6736537061
  - # 12
    frequency:    8.7375300703
  - # 13
    frequency:   11.6052008515
  - # 14
    frequency:   13.9337487906
  - # 15
    frequency:   13.9670980801
  - # 16
    frequency:   15.7621471938
  - # 17
    frequency:   24.0032788728
  - # 18
    frequency:   24.5460084778
  - # 19
    frequency:   25.5152038944
  - # 20
    frequency:   32.0618118611
  - # 21
    frequency:   67.7250492831

- q-position: [    0.1161616,    0.0000000,    0.0000000 ]
  distance:    0.0369226
  band:
  - # 1
    frequency:   -1.2956971236
  - # 2
    frequency:   -0.7075098378
  - # 3
    frequency:    0.6341535833
  - # 4
    frequency:    1.3598927191
  - # 5
    frequency:    2.3420323352
  - # 6
    frequency:    3.5764390163
  - # 7
    frequency:    3.8569854093
  - # 8
    frequency:    5.3535666428
  - # 9
    frequency:    5.4168697673
  - # 10
    frequency:    5.9835227903
  - # 11
    frequency:    7.6481866503
  - # 12
    frequency:    8.7298268448
  - # 13
    frequency:   11.7922988587
  - # 14
    frequency:   13.9348764829
  - # 15
    frequency:   13.9711858619
  - # 16
    frequency:   15.6951947233
  - # 17
    frequency:   23.9623717747
  - # 18
    frequency:   24.5427942455
  - # 19
    frequency:   25.5752713337
  - # 20
    frequency:   32.0471099872
  - # 21
    frequency:   67.7158729446

- q-position: [    0.1212121,    0.0000000,    0.0000000 ]
  distance:    0.0385279
  band:
  - # 1
    frequency:   -1.2865552867
  - # 2
    frequency:   -0.6306616684
  - # 3
    frequency:    0.6845630799
  - # 4
    frequency:    1.4129428217
  - # 5
    frequency:    2.4379964851
  - # 6
    frequency:    3.5777927331
  - # 7
    frequency:    3.8810742741
  - # 8
    frequency:    5.3522469550
  - # 9
    frequency:    5.4153268631
  - # 10
    frequency:    5.9999185541
  - # 11
    frequency:    7.6219537947
  - # 12
    frequency:    8.7222650652
  - # 13
    frequency:   11.9773528302
  - # 14
    frequency:   13.9360413335
  - # 15
    frequency:   13.9754076164
  - # 16
    frequency:   15.6273058661
  - # 17
    frequency:   23.9203691974
  - # 18
    frequency:   24.5395303790
  - # 19
    frequency:   25.6367010800
  - # 20
    frequency:   32.0320420173
  - # 21
    frequency:   67.7064492129

- q-position: [    0.1262626,    0.0000000,    0.0000000 ]
  distance:    0.0401332
  band:
  - # 1
    frequency:   -1.2770591096
  - # 2
    frequency:   -0.5406974826
  - # 3
    frequency:    0.7359859140
  - # 4
    frequency:    1.4652331180
  - # 5
    frequency:    2.5327214396
  - # 6
    frequency:    3.5792812027
  - # 7
    frequency:    3.9060086438
  - # 8
    frequency:    5.3511138585
  - # 9
    frequency:    5.4137527033
  - # 10
    frequency:    6.0154509581
  - # 11
    frequency:    7.5949907692
  - # 12
    frequency:    8.7148969645
  - # 13
    frequency:   12.1595370032
  - # 14
    frequency:   13.9372419065
  - # 15
    frequency:   13.9797530989
  - # 16
    frequency:   15.5588043385
  - # 17
    frequency:   23.8773142868
  - # 18
    frequency:   24.5362277022
  - # 19
    frequency:   25.6993566571
  - # 20
    frequency:   32.0166400861
  - # 21
    frequency:   67.6967962829

- q-position: [    0.1313131,    0.0000000,    0.0000000 ]
  distance:    0.0417386
  band:
  - # 1
    frequency:   -1.2672004828
  - # 2
    frequency:   -0.4292818144
  - # 3
    frequency:    0.7882491599
  - # 4
    frequency:    1.5167488637
  - # 5
    frequency:    2.6260954451
  - # 6
    frequency:    3.5809150189
  - # 7
    frequency:    3.9317969861
  - # 8
    frequency:    5.3502006577
  - # 9
    frequency:    5.4121422451
  - # 10
    frequency:    6.0302179322
  - # 11
    frequency:    7.5673360333
  - # 12
    frequency:    8.7077743330
  - # 13
    frequency:   12.3380389927
  - # 14
    frequency:   13.9384767529
  - # 15
    frequency:   13.9842096690
  - # 16
    frequency:   15.4900613095
  - # 17
    frequency:   23.8332537269
  - # 18
    frequency:   24.5328972184
  - # 19
    frequency:   25.7630919015
  - # 20
    frequency:   32.0009366690
  - # 21
    frequency:   67.6869325898

- q-position: [    0.1363636,    0.0000000,    0.0000000 ]
  distance:    0.0433439
  band:
  - # 1
    frequency:   -1.2569706994
  - # 2
    frequency:   -0.2707888538
  - # 3
    frequency:    0.8411735696
  - # 4
    frequency:    1.5674784442
  - # 5
    frequency:    2.7179981007
  - # 6
    frequency:    3.5827053011
  - # 7
    frequency:    3.9584538444
  - # 8
    frequency:    5.3495425267
  - # 9
    frequency:    5.4104894692
  - # 10
    frequency:    6.0443130519
  - # 11
    frequency:    7.5390308980
  - # 12
    frequency:    8.7009481271
  - # 13
    frequency:   12.5120434257
  - # 14
    frequency:   13.9397444158
  - # 15
    frequency:   13.9887613869
  - # 16
    frequency:   15.4215107438
  - # 17
    frequency:   23.7882373352
  - # 18
    frequency:   24.5295500766
  - # 19
    frequency:   25.8277516235
  - # 20
    frequency:   31.9849644842
  - # 21
    frequency:   67.6768767550

- q-position: [    0.1414141,    0.0000000,    0.0000000 ]
  distance:    0.0449492
  band:
  - # 1
    frequency:   -1.2463605379
  - # 2
    frequency:    0.2018779685
  - # 3
    frequency:    0.8945785943
  - # 4
    frequency:    1.6174133346
  - # 5
    frequency:    2.8082994842
  - # 6
    frequency:    3.5846636597
  - # 7
    frequency:    3.9860003286
  - # 8
    frequency:    5.3491764670
  - # 9
    frequency:    5.4087875464
  - # 10
    frequency:    6.0578247245
  - # 11
    frequency:    7.5101195740
  - # 12
    frequency:    8.6944680675
  - # 13
    frequency:   12.6807094103
  - # 14
    frequency:   13.9410434336
  - # 15
    frequency:   13.9933877129
  - # 16
    frequency:   15.3536707827
  - # 17
    frequency:   23.7423176849
  - # 18
    frequency:   24.5261975359
  - # 19
    frequency:   25.8931723558
  - # 20
    frequency:   31.9687563956
  - # 21
    frequency:   67.6666475324

- q-position: [    0.1464646,    0.0000000,    0.0000000 ]
  distance:    0.0465546
  band:
  - # 1
    frequency:   -1.2353603304
  - # 2
    frequency:    0.3977899830
  - # 3
    frequency:    0.9482881087
  - # 4
    frequency:    1.6665480371
  - # 5
    frequency:    2.8968594845
  - # 6
    frequency:    3.5868021476
  - # 7
    frequency:    4.0144644691
  - # 8
    frequency:    5.3491412509
  - # 9
    frequency:    5.4070290369
  - # 10
    frequency:    6.0708356990
  - # 11
    frequency:    7.4806492504
  - # 12
    frequency:    8.6883822307
  - # 13
    frequency:   12.8431398791
  - # 14
    frequency:   13.9423723449
  - # 15
    frequency:   13.9980616564
  - # 16
    frequency:   15.2871734391
  - # 17
    frequency:   23.6955497553
  - # 18
    frequency:   24.5228509293
  - # 19
    frequency:   25.9591831973
  - # 20
    frequency:   31.9523453173
  - # 21
    frequency:   67.6562637546

- q-position: [    0.1515152,    0.0000000,    0.0000000 ]
  distance:    0.0481599
  band:
  - # 1
    frequency:   -1.2239600168
  - # 2
    frequency:    0.5286010095
  - # 3
    frequency:    1.0021361475
  - # 4
    frequency:    1.7148799970
  - # 5
    frequency:    2.9835274487
  - # 6
    frequency:    3.5891331982
  - # 7
    frequency:    4.0438813203
  - # 8
    frequency:    5.3494773502
  - # 9
    frequency:    5.4052061187
  - # 10
    frequency:    6.0834227952
  - # 11
    frequency:    7.4506702125
  - # 12
    frequency:    8.6827366390
  - # 13
    frequency:   12.9983403319
  - # 14
    frequency:   13.9437296917
  - # 15
    frequency:   14.0027472209
  - # 16
    frequency:   15.2228053547
  - # 17
    frequency:   23.6479906039
  - # 18
    frequency:   24.5195216260
  - # 19
    frequency:   26.0256067526
  - # 20
    frequency:   31.9357641205
  - # 21
    frequency:   67.6457442801
