nqpoint: 300    
npath: 3      
segment_nqpoint:
- 100
- 100
- 100
labels:
- [ 'G', 'M' ]
- [ 'M', 'K' ]
- [ 'K', 'G' ]
reciprocal_lattice:
- [   0.30547852,   0.17636811,   0.00000000 ] # a*
- [   0.00000000,   0.35273621,   0.00000000 ] # b*
- [   0.00000000,   0.00000000,   0.03521075 ] # c*
natom: 9      
lattice:
- [     3.273552585248457,     0.000000000000000,     0.000000000000000 ] # a
- [    -1.636776292624229,     2.834979699457080,     0.000000000000000 ] # b
- [     0.000000000000000,     0.000000000000000,    28.400419450037994 ] # c
points:
- symbol: C # 1
  coordinates: [  0.000000000000000,  0.000000000000000,  0.487749338612797 ]
  mass: 12.010700
- symbol: C # 2
  coordinates: [  0.333332985432215,  0.666666983183674,  0.641160140227644 ]
  mass: 12.010700
- symbol: C # 3
  coordinates: [  0.666666984744047,  0.333332985985145,  0.358757462130482 ]
  mass: 12.010700
- symbol: N # 4
  coordinates: [  0.333332985432215,  0.666666983183674,  0.683103271913543 ]
  mass: 14.006700
- symbol: N # 5
  coordinates: [  0.666666984744047,  0.333332985985145,  0.316896728086457 ]
  mass: 14.006700
- symbol: O # 6
  coordinates: [  0.666666984744047,  0.333332985985145,  0.405748084209834 ]
  mass: 15.999400
- symbol: S # 7
  coordinates: [  0.333332985432215,  0.666666983183674,  0.582126991570261 ]
  mass: 32.065000
- symbol: Ti # 8
  coordinates: [  0.333332985432215,  0.666666983183674,  0.450768911434849 ]
  mass: 47.867000
- symbol: Ti # 9
  coordinates: [  0.666666984744047,  0.333332985985145,  0.527052547691772 ]
  mass: 47.867000

phonon:
- q-position: [    0.0000000,    0.0000000,    0.0000000 ]
  distance:    0.0000000
  band:
  - # 1
    frequency:   -0.0000175421
  - # 2
    frequency:    0.0000006668
  - # 3
    frequency:    0.0000185247
  - # 4
    frequency:    0.9134679848
  - # 5
    frequency:    0.9134679849
  - # 6
    frequency:    1.4019998047
  - # 7
    frequency:    1.4019998047
  - # 8
    frequency:    4.6702393398
  - # 9
    frequency:    4.6702393398
  - # 10
    frequency:    5.5058994372
  - # 11
    frequency:    6.3481864704
  - # 12
    frequency:    6.3481864705
  - # 13
    frequency:    8.2712762068
  - # 14
    frequency:    8.2712762068
  - # 15
    frequency:    8.9499358080
  - # 16
    frequency:   11.0980999343
  - # 17
    frequency:   11.0980999343
  - # 18
    frequency:   12.1982311110
  - # 19
    frequency:   14.1001194815
  - # 20
    frequency:   14.1001194815
  - # 21
    frequency:   16.6516008273
  - # 22
    frequency:   17.4665058436
  - # 23
    frequency:   17.4665058436
  - # 24
    frequency:   20.4224189728
  - # 25
    frequency:   31.7052917304
  - # 26
    frequency:   64.6994570816
  - # 27
    frequency:   67.2672424175

- q-position: [    0.0050505,    0.0000000,    0.0000000 ]
  distance:    0.0017815
  band:
  - # 1
    frequency:    0.0027547493
  - # 2
    frequency:    0.0731018193
  - # 3
    frequency:    0.1170336149
  - # 4
    frequency:    0.9141251952
  - # 5
    frequency:    0.9173616225
  - # 6
    frequency:    1.4025602524
  - # 7
    frequency:    1.4047865716
  - # 8
    frequency:    4.6706917608
  - # 9
    frequency:    4.6715132039
  - # 10
    frequency:    5.5053631226
  - # 11
    frequency:    6.3480895127
  - # 12
    frequency:    6.3491907012
  - # 13
    frequency:    8.2714290646
  - # 14
    frequency:    8.2714781923
  - # 15
    frequency:    8.9500597737
  - # 16
    frequency:   11.0982585826
  - # 17
    frequency:   11.0984178969
  - # 18
    frequency:   12.1973974183
  - # 19
    frequency:   14.1001751308
  - # 20
    frequency:   14.1003799436
  - # 21
    frequency:   16.6512214769
  - # 22
    frequency:   17.4664797403
  - # 23
    frequency:   17.4672616937
  - # 24
    frequency:   20.4223197835
  - # 25
    frequency:   31.7049875968
  - # 26
    frequency:   64.6993701408
  - # 27
    frequency:   67.2671177939

- q-position: [    0.0101010,    0.0000000,    0.0000000 ]
  distance:    0.0035630
  band:
  - # 1
    frequency:    0.0109183184
  - # 2
    frequency:    0.1460045662
  - # 3
    frequency:    0.2336086254
  - # 4
    frequency:    0.9161071693
  - # 5
    frequency:    0.9289802485
  - # 6
    frequency:    1.4042495059
  - # 7
    frequency:    1.4131383870
  - # 8
    frequency:    4.6720473641
  - # 9
    frequency:    4.6753239362
  - # 10
    frequency:    5.5037666055
  - # 11
    frequency:    6.3477991107
  - # 12
    frequency:    6.3521925173
  - # 13
    frequency:    8.2718864216
  - # 14
    frequency:    8.2720823818
  - # 15
    frequency:    8.9504322050
  - # 16
    frequency:   11.0987340851
  - # 17
    frequency:   11.0993708079
  - # 18
    frequency:   12.1948982460
  - # 19
    frequency:   14.1003419889
  - # 20
    frequency:   14.1011606711
  - # 21
    frequency:   16.6500854676
  - # 22
    frequency:   17.4664024824
  - # 23
    frequency:   17.4695241348
  - # 24
    frequency:   20.4220224554
  - # 25
    frequency:   31.7040758877
  - # 26
    frequency:   64.6991094707
  - # 27
    frequency:   67.2667441361

- q-position: [    0.0151515,    0.0000000,    0.0000000 ]
  distance:    0.0053445
  band:
  - # 1
    frequency:    0.0243381057
  - # 2
    frequency:    0.2184982897
  - # 3
    frequency:    0.3492221649
  - # 4
    frequency:    0.9194462440
  - # 5
    frequency:    0.9481567353
  - # 6
    frequency:    1.4070917705
  - # 7
    frequency:    1.4270350733
  - # 8
    frequency:    4.6743011827
  - # 9
    frequency:    4.6816391000
  - # 10
    frequency:    5.5011466748
  - # 11
    frequency:    6.3473166732
  - # 12
    frequency:    6.3571598477
  - # 13
    frequency:    8.2726446390
  - # 14
    frequency:    8.2730834998
  - # 15
    frequency:    8.9510546967
  - # 16
    frequency:   11.0995251158
  - # 17
    frequency:   11.1009557354
  - # 18
    frequency:   12.1907393071
  - # 19
    frequency:   14.1006197860
  - # 20
    frequency:   14.1024596960
  - # 21
    frequency:   16.6481988716
  - # 22
    frequency:   17.4662772180
  - # 23
    frequency:   17.4732779143
  - # 24
    frequency:   20.4215277073
  - # 25
    frequency:   31.7025586753
  - # 26
    frequency:   64.6986755271
  - # 27
    frequency:   67.2661220829

- q-position: [    0.0202020,    0.0000000,    0.0000000 ]
  distance:    0.0071260
  band:
  - # 1
    frequency:    0.0427660300
  - # 2
    frequency:    0.2903499828
  - # 3
    frequency:    0.4632766435
  - # 4
    frequency:    0.9242008818
  - # 5
    frequency:    0.9746740302
  - # 6
    frequency:    1.4111290030
  - # 7
    frequency:    1.4464603542
  - # 8
    frequency:    4.6774449781
  - # 9
    frequency:    4.6904050957
  - # 10
    frequency:    5.4975630840
  - # 11
    frequency:    6.3466445283
  - # 12
    frequency:    6.3640410224
  - # 13
    frequency:    8.2736976904
  - # 14
    frequency:    8.2744728392
  - # 15
    frequency:    8.9519298789
  - # 16
    frequency:   11.1006294690
  - # 17
    frequency:   11.1031677882
  - # 18
    frequency:   12.1849301066
  - # 19
    frequency:   14.1010080738
  - # 20
    frequency:   14.1042737639
  - # 21
    frequency:   16.6455716323
  - # 22
    frequency:   17.4661091667
  - # 23
    frequency:   17.4784978568
  - # 24
    frequency:   20.4208367333
  - # 25
    frequency:   31.7004394054
  - # 26
    frequency:   64.6980690689
  - # 27
    frequency:   67.2652526968

- q-position: [    0.0252525,    0.0000000,    0.0000000 ]
  distance:    0.0089075
  band:
  - # 1
    frequency:    0.0659053412
  - # 2
    frequency:    0.3612886213
  - # 3
    frequency:    0.5750184662
  - # 4
    frequency:    0.9304632677
  - # 5
    frequency:    1.0083439487
  - # 6
    frequency:    1.4164234481
  - # 7
    frequency:    1.4714271069
  - # 8
    frequency:    4.6814672999
  - # 9
    frequency:    4.7015478030
  - # 10
    frequency:    5.4930964648
  - # 11
    frequency:    6.3457858957
  - # 12
    frequency:    6.3727672066
  - # 13
    frequency:    8.2750372175
  - # 14
    frequency:    8.2762383879
  - # 15
    frequency:    8.9530613759
  - # 16
    frequency:   11.1020440665
  - # 17
    frequency:   11.1060001077
  - # 18
    frequency:   12.1774839183
  - # 19
    frequency:   14.1015062264
  - # 20
    frequency:   14.1065983721
  - # 21
    frequency:   16.6422173165
  - # 22
    frequency:   17.4659055794
  - # 23
    frequency:   17.4851492157
  - # 24
    frequency:   20.4199511975
  - # 25
    frequency:   31.6977228856
  - # 26
    frequency:   64.6972911552
  - # 27
    frequency:   67.2641374616

- q-position: [    0.0303030,    0.0000000,    0.0000000 ]
  distance:    0.0106890
  band:
  - # 1
    frequency:    0.0934411630
  - # 2
    frequency:    0.4309856951
  - # 3
    frequency:    0.6834690062
  - # 4
    frequency:    0.9383714439
  - # 5
    frequency:    1.0490914029
  - # 6
    frequency:    1.4230614112
  - # 7
    frequency:    1.5020111746
  - # 8
    frequency:    4.6863535674
  - # 9
    frequency:    4.7149733829
  - # 10
    frequency:    5.4878458605
  - # 11
    frequency:    6.3447448474
  - # 12
    frequency:    6.3832553846
  - # 13
    frequency:    8.2766526078
  - # 14
    frequency:    8.2783650054
  - # 15
    frequency:    8.9544537463
  - # 16
    frequency:   11.1037649668
  - # 17
    frequency:   11.1094438552
  - # 18
    frequency:   12.1684177571
  - # 19
    frequency:   14.1021134427
  - # 20
    frequency:   14.1094278206
  - # 21
    frequency:   16.6381527954
  - # 22
    frequency:   17.4656756823
  - # 23
    frequency:   17.4931881352
  - # 24
    frequency:   20.4188732263
  - # 25
    frequency:   31.6944152682
  - # 26
    frequency:   64.6963431430
  - # 27
    frequency:   67.2627782780

- q-position: [    0.0353535,    0.0000000,    0.0000000 ]
  distance:    0.0124705
  band:
  - # 1
    frequency:    0.1250630735
  - # 2
    frequency:    0.4990293732
  - # 3
    frequency:    0.7873781058
  - # 4
    frequency:    0.9481272974
  - # 5
    frequency:    1.0970045845
  - # 6
    frequency:    1.4311584569
  - # 7
    frequency:    1.5383914029
  - # 8
    frequency:    4.6920861741
  - # 9
    frequency:    4.7305691444
  - # 10
    frequency:    5.4819262324
  - # 11
    frequency:    6.3435262585
  - # 12
    frequency:    6.3954115787
  - # 13
    frequency:    8.2785310928
  - # 14
    frequency:    8.2808346477
  - # 15
    frequency:    8.9561124046
  - # 16
    frequency:   11.1057873776
  - # 17
    frequency:   11.1134881932
  - # 18
    frequency:   12.1577523475
  - # 19
    frequency:   14.1028287490
  - # 20
    frequency:   14.1127552743
  - # 21
    frequency:   16.6333978810
  - # 22
    frequency:   17.4654306053
  - # 23
    frequency:   17.5025621963
  - # 24
    frequency:   20.4176053983
  - # 25
    frequency:   31.6905240291
  - # 26
    frequency:   64.6952266836
  - # 27
    frequency:   67.2611774588

- q-position: [    0.0404040,    0.0000000,    0.0000000 ]
  distance:    0.0142520
  band:
  - # 1
    frequency:    0.1604785625
  - # 2
    frequency:    0.5648912883
  - # 3
    frequency:    0.8852973471
  - # 4
    frequency:    0.9600210051
  - # 5
    frequency:    1.1522547432
  - # 6
    frequency:    1.4408661990
  - # 7
    frequency:    1.5808896025
  - # 8
    frequency:    4.6986446113
  - # 9
    frequency:    4.7482043616
  - # 10
    frequency:    5.4754662746
  - # 11
    frequency:    6.3421357491
  - # 12
    frequency:    6.4091340138
  - # 13
    frequency:    8.2806578655
  - # 14
    frequency:    8.2836266371
  - # 15
    frequency:    8.9580435234
  - # 16
    frequency:   11.1081056713
  - # 17
    frequency:   11.1181202582
  - # 18
    frequency:   12.1455120962
  - # 19
    frequency:   14.1036510018
  - # 20
    frequency:   14.1165728356
  - # 21
    frequency:   16.6279749420
  - # 22
    frequency:   17.4651832961
  - # 23
    frequency:   17.5132110209
  - # 24
    frequency:   20.4161507323
  - # 25
    frequency:   31.6860579424
  - # 26
    frequency:   64.6939437175
  - # 27
    frequency:   67.2593377226

- q-position: [    0.0454545,    0.0000000,    0.0000000 ]
  distance:    0.0160335
  band:
  - # 1
    frequency:    0.1994189665
  - # 2
    frequency:    0.6278891095
  - # 3
    frequency:    0.9744585925
  - # 4
    frequency:    0.9759448038
  - # 5
    frequency:    1.2147292363
  - # 6
    frequency:    1.4523806768
  - # 7
    frequency:    1.6299942830
  - # 8
    frequency:    4.7060056118
  - # 9
    frequency:    4.7677309042
  - # 10
    frequency:    5.4686068329
  - # 11
    frequency:    6.3405796184
  - # 12
    frequency:    6.4243160036
  - # 13
    frequency:    8.2830162152
  - # 14
    frequency:    8.2867179761
  - # 15
    frequency:    8.9602539138
  - # 16
    frequency:   11.1107134035
  - # 17
    frequency:   11.1233251210
  - # 18
    frequency:   12.1317250726
  - # 19
    frequency:   14.1045788922
  - # 20
    frequency:   14.1208716224
  - # 21
    frequency:   16.6219085209
  - # 22
    frequency:   17.4649484192
  - # 23
    frequency:   17.5250669104
  - # 24
    frequency:   20.4145126731
  - # 25
    frequency:   31.6810270496
  - # 26
    frequency:   64.6924964701
  - # 27
    frequency:   67.2572621869

- q-position: [    0.0505051,    0.0000000,    0.0000000 ]
  distance:    0.0178150
  band:
  - # 1
    frequency:    0.2416403986
  - # 2
    frequency:    0.6871610373
  - # 3
    frequency:    0.9919768076
  - # 4
    frequency:    1.0588790188
  - # 5
    frequency:    1.2833952738
  - # 6
    frequency:    1.4659518564
  - # 7
    frequency:    1.6863347001
  - # 8
    frequency:    4.7141433106
  - # 9
    frequency:    4.7889835263
  - # 10
    frequency:    5.4615001583
  - # 11
    frequency:    6.3388647708
  - # 12
    frequency:    6.4408484137
  - # 13
    frequency:    8.2855876795
  - # 14
    frequency:    8.2900837013
  - # 15
    frequency:    8.9627508863
  - # 16
    frequency:   11.1136033345
  - # 17
    frequency:   11.1290857314
  - # 18
    frequency:   12.1164230044
  - # 19
    frequency:   14.1056109499
  - # 20
    frequency:   14.1256418527
  - # 21
    frequency:   16.6152249727
  - # 22
    frequency:   17.4647422430
  - # 23
    frequency:   17.5380554968
  - # 24
    frequency:   20.4126950749
  - # 25
    frequency:   31.6754426255
  - # 26
    frequency:   64.6908874449
  - # 27
    frequency:   67.2549543593

- q-position: [    0.0555556,    0.0000000,    0.0000000 ]
  distance:    0.0195965
  band:
  - # 1
    frequency:    0.2869219338
  - # 2
    frequency:    0.7416972802
  - # 3
    frequency:    1.0132016242
  - # 4
    frequency:    1.1349465733
  - # 5
    frequency:    1.3559798988
  - # 6
    frequency:    1.4818927900
  - # 7
    frequency:    1.7505577924
  - # 8
    frequency:    4.7230294205
  - # 9
    frequency:    4.8117796405
  - # 10
    frequency:    5.4543101774
  - # 11
    frequency:    6.3369986380
  - # 12
    frequency:    6.4586216346
  - # 13
    frequency:    8.2883522096
  - # 14
    frequency:    8.2936972713
  - # 15
    frequency:    8.9655420887
  - # 16
    frequency:   11.1167674544
  - # 17
    frequency:   11.1353828401
  - # 18
    frequency:   12.0996412984
  - # 19
    frequency:   14.1067455481
  - # 20
    frequency:   14.1308729307
  - # 21
    frequency:   16.6079521359
  - # 22
    frequency:   17.4645825129
  - # 23
    frequency:   17.5520963932
  - # 24
    frequency:   20.4107021830
  - # 25
    frequency:   31.6693171399
  - # 26
    frequency:   64.6891194174
  - # 27
    frequency:   67.2524181287

- q-position: [    0.0606061,    0.0000000,    0.0000000 ]
  distance:    0.0213780
  band:
  - # 1
    frequency:    0.3350626422
  - # 2
    frequency:    0.7905079809
  - # 3
    frequency:    1.0386741501
  - # 4
    frequency:    1.2058946717
  - # 5
    frequency:    1.4295975674
  - # 6
    frequency:    1.5005851184
  - # 7
    frequency:    1.8230875777
  - # 8
    frequency:    4.7326334220
  - # 9
    frequency:    4.8359183894
  - # 10
    frequency:    5.4472139186
  - # 11
    frequency:    6.3349890950
  - # 12
    frequency:    6.4775270636
  - # 13
    frequency:    8.2912883491
  - # 14
    frequency:    8.2975309862
  - # 15
    frequency:    8.9686353254
  - # 16
    frequency:   11.1201970111
  - # 17
    frequency:   11.1421948895
  - # 18
    frequency:   12.0814190952
  - # 19
    frequency:   14.1079809097
  - # 20
    frequency:   14.1365535331
  - # 21
    frequency:   16.6001190445
  - # 22
    frequency:   17.4644883133
  - # 23
    frequency:   17.5671038323
  - # 24
    frequency:   20.4085386125
  - # 25
    frequency:   31.6626642150
  - # 26
    frequency:   64.6871954274
  - # 27
    frequency:   67.2496577545

- q-position: [    0.0656566,    0.0000000,    0.0000000 ]
  distance:    0.0231594
  band:
  - # 1
    frequency:    0.3858784166
  - # 2
    frequency:    0.8329703033
  - # 3
    frequency:    1.0685072892
  - # 4
    frequency:    1.2735402632
  - # 5
    frequency:    1.5018529996
  - # 6
    frequency:    1.5224748071
  - # 7
    frequency:    1.9038496913
  - # 8
    frequency:    4.7429227637
  - # 9
    frequency:    4.8611788238
  - # 10
    frequency:    5.4404042040
  - # 11
    frequency:    6.3328443741
  - # 12
    frequency:    6.4974581366
  - # 13
    frequency:    8.2943734230
  - # 14
    frequency:    8.3015564292
  - # 15
    frequency:    8.9720383573
  - # 16
    frequency:   11.1238825424
  - # 17
    frequency:   11.1494978615
  - # 18
    frequency:   12.0617993738
  - # 19
    frequency:   14.1093151129
  - # 20
    frequency:   14.1426716947
  - # 21
    frequency:   16.5917556833
  - # 22
    frequency:   17.4644799193
  - # 23
    frequency:   17.5829872885
  - # 24
    frequency:   20.4062093264
  - # 25
    frequency:   31.6554985793
  - # 26
    frequency:   64.6851187709
  - # 27
    frequency:   67.2466778563

- q-position: [    0.0707071,    0.0000000,    0.0000000 ]
  distance:    0.0249409
  band:
  - # 1
    frequency:    0.4391990747
  - # 2
    frequency:    0.8691904163
  - # 3
    frequency:    1.1020463643
  - # 4
    frequency:    1.3392702290
  - # 5
    frequency:    1.5480491315
  - # 6
    frequency:    1.5714611702
  - # 7
    frequency:    1.9921460283
  - # 8
    frequency:    4.7538630716
  - # 9
    frequency:    4.8873170240
  - # 10
    frequency:    5.4340936757
  - # 11
    frequency:    6.3305729770
  - # 12
    frequency:    6.5183109784
  - # 13
    frequency:    8.2975837351
  - # 14
    frequency:    8.3057449236
  - # 15
    frequency:    8.9757586861
  - # 16
    frequency:   11.1278139108
  - # 17
    frequency:   11.1572650662
  - # 18
    frequency:   12.0408291220
  - # 19
    frequency:   14.1107460979
  - # 20
    frequency:   14.1492148900
  - # 21
    frequency:   16.5828927833
  - # 22
    frequency:   17.4645786388
  - # 23
    frequency:   17.5996520831
  - # 24
    frequency:   20.4037196098
  - # 25
    frequency:   31.6478360184
  - # 26
    frequency:   64.6828929916
  - # 27
    frequency:   67.2434834007

- q-position: [    0.0757576,    0.0000000,    0.0000000 ]
  distance:    0.0267224
  band:
  - # 1
    frequency:    0.4948659230
  - # 2
    frequency:    0.9000388086
  - # 3
    frequency:    1.1378842020
  - # 4
    frequency:    1.4039824168
  - # 5
    frequency:    1.5777859480
  - # 6
    frequency:    1.6381643089
  - # 7
    frequency:    2.0867907552
  - # 8
    frequency:    4.7654183660
  - # 9
    frequency:    4.9140621052
  - # 10
    frequency:    5.4285201249
  - # 11
    frequency:    6.3281835866
  - # 12
    frequency:    6.5399847491
  - # 13
    frequency:    8.3008947724
  - # 14
    frequency:    8.3100679964
  - # 15
    frequency:    8.9798033278
  - # 16
    frequency:   11.1319803422
  - # 17
    frequency:   11.1654668487
  - # 18
    frequency:   12.0185595983
  - # 19
    frequency:   14.1122716747
  - # 20
    frequency:   14.1561701105
  - # 21
    frequency:   16.5735616546
  - # 22
    frequency:   17.4648066461
  - # 23
    frequency:   17.6169999731
  - # 24
    frequency:   20.4010750437
  - # 25
    frequency:   31.6396933220
  - # 26
    frequency:   64.6805218713
  - # 27
    frequency:   67.2400796892

- q-position: [    0.0808081,    0.0000000,    0.0000000 ]
  distance:    0.0285039
  band:
  - # 1
    frequency:    0.5527298147
  - # 2
    frequency:    0.9267864655
  - # 3
    frequency:    1.1743041198
  - # 4
    frequency:    1.4682070610
  - # 5
    frequency:    1.6120742568
  - # 6
    frequency:    1.7023112641
  - # 7
    frequency:    2.1864033791
  - # 8
    frequency:    4.7775512818
  - # 9
    frequency:    4.9411113090
  - # 10
    frequency:    5.4239528394
  - # 11
    frequency:    6.3256849799
  - # 12
    frequency:    6.5623817630
  - # 13
    frequency:    8.3042814136
  - # 14
    frequency:    8.3144978367
  - # 15
    frequency:    8.9841785797
  - # 16
    frequency:   11.1363704679
  - # 17
    frequency:   11.1740701818
  - # 18
    frequency:   11.9950467158
  - # 19
    frequency:   14.1138895306
  - # 20
    frequency:   14.1635239373
  - # 21
    frequency:   16.5637940489
  - # 22
    frequency:   17.4651868089
  - # 23
    frequency:   17.6349297276
  - # 24
    frequency:   20.3982814757
  - # 25
    frequency:   31.6310882282
  - # 26
    frequency:   64.6780094198
  - # 27
    frequency:   67.2364723442

- q-position: [    0.0858586,    0.0000000,    0.0000000 ]
  distance:    0.0302854
  band:
  - # 1
    frequency:    0.6126496537
  - # 2
    frequency:    0.9506771870
  - # 3
    frequency:    1.2097983073
  - # 4
    frequency:    1.5322372030
  - # 5
    frequency:    1.6511232671
  - # 6
    frequency:    1.7644636041
  - # 7
    frequency:    2.2896662317
  - # 8
    frequency:    4.7902232913
  - # 9
    frequency:    4.9681249489
  - # 10
    frequency:    5.4206991413
  - # 11
    frequency:    6.3230859433
  - # 12
    frequency:    6.5854074498
  - # 13
    frequency:    8.3077181402
  - # 14
    frequency:    8.3190077394
  - # 15
    frequency:    8.9888897879
  - # 16
    frequency:   11.1409723700
  - # 17
    frequency:   11.1830380993
  - # 18
    frequency:   11.9703515970
  - # 19
    frequency:   14.1155972381
  - # 20
    frequency:   14.1712626064
  - # 21
    frequency:   16.5536220465
  - # 22
    frequency:   17.4657425099
  - # 23
    frequency:   17.6533376942
  - # 24
    frequency:   20.3953449895
  - # 25
    frequency:   31.6220393651
  - # 26
    frequency:   64.6753598650
  - # 27
    frequency:   67.2326672940

- q-position: [    0.0909091,    0.0000000,    0.0000000 ]
  distance:    0.0320669
  band:
  - # 1
    frequency:    0.6744912717
  - # 2
    frequency:    0.9727062412
  - # 3
    frequency:    1.2433553970
  - # 4
    frequency:    1.5962219646
  - # 5
    frequency:    1.6948959654
  - # 6
    frequency:    1.8251664315
  - # 7
    frequency:    2.3954547207
  - # 8
    frequency:    4.8033949268
  - # 9
    frequency:    4.9947230464
  - # 10
    frequency:    5.4191092319
  - # 11
    frequency:    6.3203951915
  - # 12
    frequency:    6.6089702176
  - # 13
    frequency:    8.3111792485
  - # 14
    frequency:    8.3235725191
  - # 15
    frequency:    8.9939411232
  - # 16
    frequency:   11.1457736297
  - # 17
    frequency:   11.1923289034
  - # 18
    frequency:   11.9445413614
  - # 19
    frequency:   14.1173922642
  - # 20
    frequency:   14.1793720689
  - # 21
    frequency:   16.5430779592
  - # 22
    frequency:   17.4664974636
  - # 23
    frequency:   17.6721183605
  - # 24
    frequency:   20.3922718726
  - # 25
    frequency:   31.6125661902
  - # 26
    frequency:   64.6725776411
  - # 27
    frequency:   67.2286707582

- q-position: [    0.0959596,    0.0000000,    0.0000000 ]
  distance:    0.0338484
  band:
  - # 1
    frequency:    0.7381265987
  - # 2
    frequency:    0.9935918146
  - # 3
    frequency:    1.2744961034
  - # 4
    frequency:    1.6602252389
  - # 5
    frequency:    1.7431018334
  - # 6
    frequency:    1.8848599762
  - # 7
    frequency:    2.5028617997
  - # 8
    frequency:    4.8170260010
  - # 9
    frequency:    5.0204872084
  - # 10
    frequency:    5.4195757676
  - # 11
    frequency:    6.3176212910
  - # 12
    frequency:    6.6329812644
  - # 13
    frequency:    8.3146390596
  - # 14
    frequency:    8.3281688844
  - # 15
    frequency:    8.9993353725
  - # 16
    frequency:   11.1507613788
  - # 17
    frequency:   11.2018950519
  - # 18
    frequency:   11.9176902436
  - # 19
    frequency:   14.1192719788
  - # 20
    frequency:   14.1878380434
  - # 21
    frequency:   16.5321942451
  - # 22
    frequency:   17.4674755311
  - # 23
    frequency:   17.6911649111
  - # 24
    frequency:   20.3890685818
  - # 25
    frequency:   31.6026889267
  - # 26
    frequency:   64.6696673775
  - # 27
    frequency:   67.2244892316

- q-position: [    0.1010101,    0.0000000,    0.0000000 ]
  distance:    0.0356299
  band:
  - # 1
    frequency:    0.8034330540
  - # 2
    frequency:    1.0138280517
  - # 3
    frequency:    1.3031629607
  - # 4
    frequency:    1.7242610265
  - # 5
    frequency:    1.7952538899
  - # 6
    frequency:    1.9438673498
  - # 7
    frequency:    2.6111700601
  - # 8
    frequency:    4.8310758233
  - # 9
    frequency:    5.0449733930
  - # 10
    frequency:    5.4225225094
  - # 11
    frequency:    6.3147725900
  - # 12
    frequency:    6.6573543774
  - # 13
    frequency:    8.3180721269
  - # 14
    frequency:    8.3327757568
  - # 15
    frequency:    9.0050737546
  - # 16
    frequency:   11.1559223539
  - # 17
    frequency:   11.2116815827
  - # 18
    frequency:   11.8898811808
  - # 19
    frequency:   14.1212336643
  - # 20
    frequency:   14.1966460633
  - # 21
    frequency:   16.5210034290
  - # 22
    frequency:   17.4687005333
  - # 23
    frequency:   17.7103697832
  - # 24
    frequency:   20.3857417080
  - # 25
    frequency:   31.5924284988
  - # 26
    frequency:   64.6666338868
  - # 27
    frequency:   67.2201294675

- q-position: [    0.1060606,    0.0000000,    0.0000000 ]
  distance:    0.0374114
  band:
  - # 1
    frequency:    0.8702930985
  - # 2
    frequency:    1.0337490344
  - # 3
    frequency:    1.3295640588
  - # 4
    frequency:    1.7883144714
  - # 5
    frequency:    1.8507607978
  - # 6
    frequency:    2.0024115969
  - # 7
    frequency:    2.7198092326
  - # 8
    frequency:    4.8455034099
  - # 9
    frequency:    5.0677422710
  - # 10
    frequency:    5.4283753355
  - # 11
    frequency:    6.3118571546
  - # 12
    frequency:    6.6820057480
  - # 13
    frequency:    8.3214534382
  - # 14
    frequency:    8.3373745249
  - # 15
    frequency:    9.0111557680
  - # 16
    frequency:   11.1612429527
  - # 17
    frequency:   11.2216238647
  - # 18
    frequency:   11.8612080799
  - # 19
    frequency:   14.1232745249
  - # 20
    frequency:   14.2057815175
  - # 21
    frequency:   16.5095380246
  - # 22
    frequency:   17.4701960647
  - # 23
    frequency:   17.7296252210
  - # 24
    frequency:   20.3822979389
  - # 25
    frequency:   31.5818064651
  - # 26
    frequency:   64.6634821524
  - # 27
    frequency:   67.2155984606

- q-position: [    0.1111111,    0.0000000,    0.0000000 ]
  distance:    0.0391929
  band:
  - # 1
    frequency:    0.9385938990
  - # 2
    frequency:    1.0535799056
  - # 3
    frequency:    1.3540337477
  - # 4
    frequency:    1.8523544061
  - # 5
    frequency:    1.9090148633
  - # 6
    frequency:    2.0606389372
  - # 7
    frequency:    2.8283163562
  - # 8
    frequency:    4.8602676864
  - # 9
    frequency:    5.0884108913
  - # 10
    frequency:    5.4375119226
  - # 11
    frequency:    6.3088827127
  - # 12
    frequency:    6.7068538237
  - # 13
    frequency:    8.3247586122
  - # 14
    frequency:    8.3419492196
  - # 15
    frequency:    9.0175790778
  - # 16
    frequency:   11.1667092925
  - # 17
    frequency:   11.2316443556
  - # 18
    frequency:   11.8317790820
  - # 19
    frequency:   14.1253916961
  - # 20
    frequency:   14.2152296855
  - # 21
    frequency:   16.4978304567
  - # 22
    frequency:   17.4719853084
  - # 23
    frequency:   17.7488238277
  - # 24
    frequency:   20.3787440222
  - # 25
    frequency:   31.5708449505
  - # 26
    frequency:   64.6602173155
  - # 27
    frequency:   67.2109034301

- q-position: [    0.1161616,    0.0000000,    0.0000000 ]
  distance:    0.0409744
  band:
  - # 1
    frequency:    1.0082270678
  - # 2
    frequency:    1.0734726491
  - # 3
    frequency:    1.3769364129
  - # 4
    frequency:    1.9163408717
  - # 5
    frequency:    1.9694523058
  - # 6
    frequency:    2.1186395529
  - # 7
    frequency:    2.9363037399
  - # 8
    frequency:    4.8753276810
  - # 9
    frequency:    5.1067192637
  - # 10
    frequency:    5.4501964909
  - # 11
    frequency:    6.3058566065
  - # 12
    frequency:    6.7318192133
  - # 13
    frequency:    8.3279640861
  - # 14
    frequency:    8.3464866045
  - # 15
    frequency:    9.0243394474
  - # 16
    frequency:   11.1723072707
  - # 17
    frequency:   11.2416478802
  - # 18
    frequency:   11.8017213097
  - # 19
    frequency:   14.1275822545
  - # 20
    frequency:   14.2249757682
  - # 21
    frequency:   16.4859129804
  - # 22
    frequency:   17.4740908549
  - # 23
    frequency:   17.7678591148
  - # 24
    frequency:   20.3750867262
  - # 25
    frequency:   31.5595665770
  - # 26
    frequency:   64.6568446626
  - # 27
    frequency:   67.2060518007

- q-position: [    0.1212121,    0.0000000,    0.0000000 ]
  distance:    0.0427559
  band:
  - # 1
    frequency:    1.0790884500
  - # 2
    frequency:    1.0935299352
  - # 3
    frequency:    1.3986129591
  - # 4
    frequency:    1.9802296458
  - # 5
    frequency:    2.0315827553
  - # 6
    frequency:    2.1764638232
  - # 7
    frequency:    3.0434347388
  - # 8
    frequency:    4.8906427083
  - # 9
    frequency:    5.1225909108
  - # 10
    frequency:    5.4665205792