nqpoint: 300    
npath: 3      
segment_nqpoint:
- 100
- 100
- 100
labels:
- [ 'G', 'M' ]
- [ 'M', 'K' ]
- [ 'K', 'G' ]
reciprocal_lattice:
- [   0.29114860,   0.16809472,   0.00000000 ] # a*
- [   0.00000000,   0.33618944,   0.00000000 ] # b*
- [   0.00000000,   0.00000000,   0.03806419 ] # c*
natom: 7      
lattice:
- [     3.434672247943061,     0.000000000000000,     0.000000000000000 ] # a
- [    -1.717336123971531,     2.974513420386113,     0.000000000000000 ] # b
- [     0.000000000000000,     0.000000000000000,    26.271409305620423 ] # c
points:
- symbol: C # 1
  coordinates: [  0.333332985432215,  0.666666983183674,  0.598264029253812 ]
  mass: 12.010700
- symbol: Cl # 2
  coordinates: [  0.666666984744047,  0.333332985985145,  0.342577738989989 ]
  mass: 35.453000
- symbol: N # 3
  coordinates: [  0.000000000000000,  0.000000000000000,  0.454458938904153 ]
  mass: 14.006700
- symbol: N # 4
  coordinates: [  0.333332985432215,  0.666666983183674,  0.550532752597428 ]
  mass: 14.006700
- symbol: S # 5
  coordinates: [  0.333332985432215,  0.666666983183674,  0.657422261010011 ]
  mass: 32.065000
- symbol: Zr # 6
  coordinates: [  0.333332985432215,  0.666666983183674,  0.410895350032077 ]
  mass: 91.224000
- symbol: Zr # 7
  coordinates: [  0.666666984744047,  0.333332985985145,  0.498249505536220 ]
  mass: 91.224000

phonon:
- q-position: [    0.0000000,    0.0000000,    0.0000000 ]
  distance:    0.0000000
  band:
  - # 1
    frequency:   -0.0000138878
  - # 2
    frequency:   -0.0000002264
  - # 3
    frequency:    0.0000108978
  - # 4
    frequency:    1.1959805757
  - # 5
    frequency:    1.1959805757
  - # 6
    frequency:    3.5545826016
  - # 7
    frequency:    3.5545826016
  - # 8
    frequency:    5.2504082252
  - # 9
    frequency:    5.7488871334
  - # 10
    frequency:    5.7488871334
  - # 11
    frequency:    7.3129496739
  - # 12
    frequency:    7.3129496740
  - # 13
    frequency:    7.3494156172
  - # 14
    frequency:    9.3028841910
  - # 15
    frequency:   13.4746497320
  - # 16
    frequency:   13.9212759875
  - # 17
    frequency:   13.9212759875
  - # 18
    frequency:   15.4927671464
  - # 19
    frequency:   15.4927671464
  - # 20
    frequency:   26.8976459202
  - # 21
    frequency:   56.4788890512

- q-position: [    0.0050505,    0.0000000,    0.0000000 ]
  distance:    0.0016979
  band:
  - # 1
    frequency:    0.0019994117
  - # 2
    frequency:    0.0487815901
  - # 3
    frequency:    0.0778677926
  - # 4
    frequency:    1.1971141158
  - # 5
    frequency:    1.1992003539
  - # 6
    frequency:    3.5545689395
  - # 7
    frequency:    3.5549134088
  - # 8
    frequency:    5.2496749316
  - # 9
    frequency:    5.7486048519
  - # 10
    frequency:    5.7497377247
  - # 11
    frequency:    7.3129318080
  - # 12
    frequency:    7.3134448115
  - # 13
    frequency:    7.3491101935
  - # 14
    frequency:    9.3020653503
  - # 15
    frequency:   13.4742544958
  - # 16
    frequency:   13.9212691020
  - # 17
    frequency:   13.9214569704
  - # 18
    frequency:   15.4929296911
  - # 19
    frequency:   15.4929535105
  - # 20
    frequency:   26.8975184627
  - # 21
    frequency:   56.4784699824

- q-position: [    0.0101010,    0.0000000,    0.0000000 ]
  distance:    0.0033959
  band:
  - # 1
    frequency:    0.0079516610
  - # 2
    frequency:    0.0975450358
  - # 3
    frequency:    0.1557199164
  - # 4
    frequency:    1.2005050750
  - # 5
    frequency:    1.2087888954
  - # 6
    frequency:    3.5545266044
  - # 7
    frequency:    3.5559069027
  - # 8
    frequency:    5.2474938398
  - # 9
    frequency:    5.7477602158
  - # 10
    frequency:    5.7522741103
  - # 11
    frequency:    7.3128772302
  - # 12
    frequency:    7.3148978259
  - # 13
    frequency:    7.3482221143
  - # 14
    frequency:    9.2996103815
  - # 15
    frequency:   13.4730708000
  - # 16
    frequency:   13.9212489977
  - # 17
    frequency:   13.9219977659
  - # 18
    frequency:   15.4934162464
  - # 19
    frequency:   15.4935109054
  - # 20
    frequency:   26.8971363746
  - # 21
    frequency:   56.4772131646

- q-position: [    0.0151515,    0.0000000,    0.0000000 ]
  distance:    0.0050938
  band:
  - # 1
    frequency:    0.0177267711
  - # 2
    frequency:    0.1462721433
  - # 3
    frequency:    0.2335404635
  - # 4
    frequency:    1.2061247560
  - # 5
    frequency:    1.2245414516
  - # 6
    frequency:    3.5544515671
  - # 7
    frequency:    3.5575663031
  - # 8
    frequency:    5.2439196954
  - # 9
    frequency:    5.7463598297
  - # 10
    frequency:    5.7564516629
  - # 11
    frequency:    7.3127830193
  - # 12
    frequency:    7.3171904813
  - # 13
    frequency:    7.3468570603
  - # 14
    frequency:    9.2955239447
  - # 15
    frequency:   13.4711045816
  - # 16
    frequency:   13.9212173208
  - # 17
    frequency:   13.9228920234
  - # 18
    frequency:   15.4942235799
  - # 19
    frequency:   15.4944342512
  - # 20
    frequency:   26.8965005082
  - # 21
    frequency:   56.4751197624

- q-position: [    0.0202020,    0.0000000,    0.0000000 ]
  distance:    0.0067917
  band:
  - # 1
    frequency:    0.0311274689
  - # 2
    frequency:    0.1949446200
  - # 3
    frequency:    0.3113130644
  - # 4
    frequency:    1.2139262631
  - # 5
    frequency:    1.2461402454
  - # 6
    frequency:    3.5543371669
  - # 7
    frequency:    3.5598969820
  - # 8
    frequency:    5.2390386721
  - # 9
    frequency:    5.7444146335
  - # 10
    frequency:    5.7622007885
  - # 11
    frequency:    7.3126443671
  - # 12
    frequency:    7.3200298010
  - # 13
    frequency:    7.3452873007
  - # 14
    frequency:    9.2898138097
  - # 15
    frequency:   13.4683654079
  - # 16
    frequency:   13.9211767809
  - # 17
    frequency:   13.9241295093
  - # 18
    frequency:   15.4953463178
  - # 19
    frequency:   15.4957151200
  - # 20
    frequency:   26.8956122805
  - # 21
    frequency:   56.4721917165

- q-position: [    0.0252525,    0.0000000,    0.0000000 ]
  distance:    0.0084896
  band:
  - # 1
    frequency:    0.0479131784
  - # 2
    frequency:    0.2435440346
  - # 3
    frequency:    0.3890206805
  - # 4
    frequency:    1.2238458323
  - # 5
    frequency:    1.2731836850
  - # 6
    frequency:    3.5541741946
  - # 7
    frequency:    3.5629064672
  - # 8
    frequency:    5.2329618343
  - # 9
    frequency:    5.7419398018
  - # 10
    frequency:    5.7694330484
  - # 11
    frequency:    7.3124546683
  - # 12
    frequency:    7.3227037300
  - # 13
    frequency:    7.3441963514
  - # 14
    frequency:    9.2824908581
  - # 15
    frequency:   13.4648660165
  - # 16
    frequency:   13.9211311021
  - # 17
    frequency:   13.9256966010
  - # 18
    frequency:   15.4967769660
  - # 19
    frequency:   15.4973417938
  - # 20
    frequency:   26.8944736690
  - # 21
    frequency:   56.4684317420

- q-position: [    0.0303030,    0.0000000,    0.0000000 ]
  distance:    0.0101876
  band:
  - # 1
    frequency:    0.0678247414
  - # 2
    frequency:    0.2920517856
  - # 3
    frequency:    0.4666454253
  - # 4
    frequency:    1.2358045633
  - # 5
    frequency:    1.3052178534
  - # 6
    frequency:    3.5539510091
  - # 7
    frequency:    3.5666044355
  - # 8
    frequency:    5.2258177344
  - # 9
    frequency:    5.7389546063
  - # 10
    frequency:    5.7780479954
  - # 11
    frequency:    7.3122056419
  - # 12
    frequency:    7.3237878642
  - # 13
    frequency:    7.3449726912
  - # 14
    frequency:    9.2735690879
  - # 15
    frequency:   13.4606217296
  - # 16
    frequency:   13.9210849541
  - # 17
    frequency:   13.9275769160
  - # 18
    frequency:   15.4985059419
  - # 19
    frequency:   15.4992993429
  - # 20
    frequency:   26.8930872042
  - # 21
    frequency:   56.4638433274

- q-position: [    0.0353535,    0.0000000,    0.0000000 ]
  distance:    0.0118855
  band:
  - # 1
    frequency:    0.0906056114
  - # 2
    frequency:    0.3404490813
  - # 3
    frequency:    0.5441684196
  - # 4
    frequency:    1.2497104437
  - # 5
    frequency:    1.3417652733
  - # 6
    frequency:    3.5536536883
  - # 7
    frequency:    3.5710026847
  - # 8
    frequency:    5.2177452123
  - # 9
    frequency:    5.7354822415
  - # 10
    frequency:    5.7879396744
  - # 11
    frequency:    7.3118874823
  - # 12
    frequency:    7.3220901213
  - # 13
    frequency:    7.3487656516
  - # 14
    frequency:    9.2630656163
  - # 15
    frequency:   13.4556497917
  - # 16
    frequency:   13.9210438692
  - # 17
    frequency:   13.9297520257
  - # 18
    frequency:   15.5005216169
  - # 19
    frequency:   15.5015697241
  - # 20
    frequency:   26.8914559618
  - # 21
    frequency:   56.4584307318

- q-position: [    0.0404040,    0.0000000,    0.0000000 ]
  distance:    0.0135834
  band:
  - # 1
    frequency:    0.1160171608
  - # 2
    frequency:    0.3887169336
  - # 3
    frequency:    0.6215696820
  - # 4
    frequency:    1.2654605454
  - # 5
    frequency:    1.3823479968
  - # 6
    frequency:    3.5532662156
  - # 7
    frequency:    3.5761150744
  - # 8
    frequency:    5.2088871558
  - # 9
    frequency:    5.7315496191
  - # 10
    frequency:    5.7990020478
  - # 11
    frequency:    7.3114890348
  - # 12
    frequency:    7.3180157346
  - # 13
    frequency:    7.3551210919
  - # 14
    frequency:    9.2510006832
  - # 15
    frequency:   13.4499686792
  - # 16
    frequency:   13.9210141431
  - # 17
    frequency:   13.9322022017
  - # 18
    frequency:   15.5028103727
  - # 19
    frequency:   15.5041318964
  - # 20
    frequency:   26.8895835518
  - # 21
    frequency:   56.4521989833

- q-position: [    0.0454545,    0.0000000,    0.0000000 ]
  distance:    0.0152813
  band:
  - # 1
    frequency:    0.1438477043
  - # 2
    frequency:    0.4368361664
  - # 3
    frequency:    0.6988280547
  - # 4
    frequency:    1.2829432776
  - # 5
    frequency:    1.4265041148
  - # 6
    frequency:    3.5527707027
  - # 7
    frequency:    3.5819574222
  - # 8
    frequency:    5.1993856069
  - # 9
    frequency:    5.7271871311
  - # 10
    frequency:    5.8111329822
  - # 11
    frequency:    7.3109979930
  - # 12
    frequency:    7.3123717400
  - # 13
    frequency:    7.3631776807
  - # 14
    frequency:    9.2373976520
  - # 15
    frequency:   13.4435974273
  - # 16
    frequency:   13.9210027249
  - # 17
    frequency:   13.9349071458
  - # 18
    frequency:   15.5053566722
  - # 19
    frequency:   15.5069619515
  - # 20
    frequency:   26.8874741063
  - # 21
    frequency:   56.4451538751

- q-position: [    0.0505051,    0.0000000,    0.0000000 ]
  distance:    0.0169793
  band:
  - # 1
    frequency:    0.1739161417
  - # 2
    frequency:    0.4847874386
  - # 3
    frequency:    0.7759211634
  - # 4
    frequency:    1.3020405947
  - # 5
    frequency:    1.4737982025
  - # 6
    frequency:    3.5521476485
  - # 7
    frequency:    3.5885473435
  - # 8
    frequency:    5.1893782760
  - # 9
    frequency:    5.7224283873
  - # 10
    frequency:    5.8242367588
  - # 11
    frequency:    7.3055940241
  - # 12
    frequency:    7.3104011110
  - # 13
    frequency:    7.3724407026
  - # 14
    frequency:    9.2222830087
  - # 15
    frequency:   13.4365550115
  - # 16
    frequency:   13.9210170973
  - # 17
    frequency:   13.9378466622
  - # 18
    frequency:   15.5081431459
  - # 19
    frequency:   15.5100332574
  - # 20
    frequency:   26.8851322664
  - # 21
    frequency:   56.4373019626

- q-position: [    0.0555556,    0.0000000,    0.0000000 ]
  distance:    0.0186772
  band:
  - # 1
    frequency:    0.2060716760
  - # 2
    frequency:    0.5325512830
  - # 3
    frequency:    0.8528254056
  - # 4
    frequency:    1.3226300734
  - # 5
    frequency:    1.5238269093
  - # 6
    frequency:    3.5513762373
  - # 7
    frequency:    3.5959040264
  - # 8
    frequency:    5.1789963162
  - # 9
    frequency:    5.7173099282
  - # 10
    frequency:    5.8382252793
  - # 11
    frequency:    7.2978821158
  - # 12
    frequency:    7.3096844276
  - # 13
    frequency:    7.3826481981
  - # 14
    frequency:    9.2056863578
  - # 15
    frequency:   13.4288598121
  - # 16
    frequency:   13.9210651507
  - # 17
    frequency:   13.9410012434
  - # 18
    frequency:   15.5111506960
  - # 19
    frequency:   15.5133166114
  - # 20
    frequency:   26.8825631661
  - # 21
    frequency:   56.4286505593

- q-position: [    0.0606061,    0.0000000,    0.0000000 ]
  distance:    0.0203751
  band:
  - # 1
    frequency:    0.2401910718
  - # 2
    frequency:    0.5801081578
  - # 3
    frequency:    0.9295159624
  - # 4
    frequency:    1.3445867996
  - # 5
    frequency:    1.5762210402
  - # 6
    frequency:    3.5504346741
  - # 7
    frequency:    3.6040479326
  - # 8
    frequency:    5.1683631076
  - # 9
    frequency:    5.7118709170
  - # 10
    frequency:    5.8530182405
  - # 11
    frequency:    7.2893369033
  - # 12
    frequency:    7.3088334963
  - # 13
    frequency:    7.3936342391
  - # 14
    frequency:    9.1876404137
  - # 15
    frequency:   13.4205291757
  - # 16
    frequency:   13.9211550528
  - # 17
    frequency:   13.9443525494
  - # 18
    frequency:   15.5143586172
  - # 19
    frequency:   15.5167804016
  - # 20
    frequency:   26.8797724158
  - # 21
    frequency:   56.4192077320

- q-position: [    0.0656566,    0.0000000,    0.0000000 ]
  distance:    0.0220730
  band:
  - # 1
    frequency:    0.2761746548
  - # 2
    frequency:    0.6274385129
  - # 3
    frequency:    1.0059668267
  - # 4
    frequency:    1.3677850254
  - # 5
    frequency:    1.6306453223
  - # 6
    frequency:    3.5493005595
  - # 7
    frequency:    3.6130004217
  - # 8
    frequency:    5.1575937860
  - # 9
    frequency:    5.7061528137
  - # 10
    frequency:    5.8685425666
  - # 11
    frequency:    7.2800185541
  - # 12
    frequency:    7.3078336179
  - # 13
    frequency:    7.4052720522
  - # 14
    frequency:    9.1681809886
  - # 15
    frequency:   13.4115790833
  - # 16
    frequency:   13.9212951174
  - # 17
    frequency:   13.9478837723
  - # 18
    frequency:   15.5177447344
  - # 19
    frequency:   15.5203907720
  - # 20
    frequency:   26.8767660838
  - # 21
    frequency:   56.4089822961

- q-position: [    0.0707071,    0.0000000,    0.0000000 ]
  distance:    0.0237710
  band:
  - # 1
    frequency:    0.3139419054
  - # 2
    frequency:    0.6745228656
  - # 3
    frequency:    1.0821508413
  - # 4
    frequency:    1.3920995782
  - # 5
    frequency:    1.6867967743
  - # 6
    frequency:    3.5479513031
  - # 7
    frequency:    3.6227832976
  - # 8
    frequency:    5.1467952731
  - # 9
    frequency:    5.7001990317
  - # 10
    frequency:    5.8847313590
  - # 11
    frequency:    7.2699698275
  - # 12
    frequency:    7.3066700693
  - # 13
    frequency:    7.4174517840
  - # 14
    frequency:    9.1473469751
  - # 15
    frequency:   13.4020239227
  - # 16
    frequency:   13.9214936745
  - # 17
    frequency:   13.9515798853
  - # 18
    frequency:   15.5212855575
  - # 19
    frequency:   15.5241117913
  - # 20
    frequency:   26.8735506770
  - # 21
    frequency:   56.3979838099

- q-position: [    0.0757576,    0.0000000,    0.0000000 ]
  distance:    0.0254689
  band:
  - # 1
    frequency:    0.3534271818
  - # 2
    frequency:    0.7213418870
  - # 3
    frequency:    1.1580397406
  - # 4
    frequency:    1.4174070216
  - # 5
    frequency:    1.7444023364
  - # 6
    frequency:    3.5463645743
  - # 7
    frequency:    3.6334182808
  - # 8
    frequency:    5.1360666195
  - # 9
    frequency:    5.6940545819
  - # 10
    frequency:    5.9015225706
  - # 11
    frequency:    7.2592262426
  - # 12
    frequency:    7.3053283272
  - # 13
    frequency:    7.4300714362
  - # 14
    frequency:    9.1251803239
  - # 15
    frequency:   13.3918763591
  - # 16
    frequency:   13.9217589444
  - # 17
    frequency:   13.9554277835
  - # 18
    frequency:   15.5249564499
  - # 19
    frequency:   15.5279056226
  - # 20
    frequency:   26.8701331198
  - # 21
    frequency:   56.3862225682

- q-position: [    0.0808081,    0.0000000,    0.0000000 ]
  distance:    0.0271668
  band:
  - # 1
    frequency:    0.3945758684
  - # 2
    frequency:    0.7678764940
  - # 3
    frequency:    1.2336041885
  - # 4
    frequency:    1.4435865800
  - # 5
    frequency:    1.8032161922
  - # 6
    frequency:    3.5445187899
  - # 7
    frequency:    3.6449264142
  - # 8
    frequency:    5.1254995150
  - # 9
    frequency:    5.6877657035
  - # 10
    frequency:    5.9188575588
  - # 11
    frequency:    7.2478210015
  - # 12
    frequency:    7.3037942814
  - # 13
    frequency:    7.4430330575
  - # 14
    frequency:    9.1017260169
  - # 15
    frequency:   13.3811472950
  - # 16
    frequency:   13.9220989169
  - # 17
    frequency:   13.9594163255
  - # 18
    frequency:   15.5287318102
  - # 19
    frequency:   15.5317326910
  - # 20
    frequency:   26.8665207325
  - # 21
    frequency:   56.3737095957

- q-position: [    0.0858586,    0.0000000,    0.0000000 ]
  distance:    0.0288647
  band:
  - # 1
    frequency:    0.4373410742
  - # 2
    frequency:    0.8141079474
  - # 3
    frequency:    1.3088138082
  - # 4
    frequency:    1.4705208499
  - # 5
    frequency:    1.8630170569
  - # 6
    frequency:    3.5423936354
  - # 7
    frequency:    3.6573274141
  - # 8
    frequency:    5.1151788690
  - # 9
    frequency:    5.6813794846
  - # 10
    frequency:    5.9366796238
  - # 11
    frequency:    7.2357876566
  - # 12
    frequency:    7.3020544353
  - # 13
    frequency:    7.4562411938
  - # 14
    frequency:    9.0770320362
  - # 15
    frequency:   13.3698459052
  - # 16
    frequency:   13.9225212396
  - # 17
    frequency:   13.9635362918
  - # 18
    frequency:   15.5325852632
  - # 19
    frequency:   15.5355518498
  - # 20
    frequency:   26.8627212085
  - # 21
    frequency:   56.3604566399

- q-position: [    0.0909091,    0.0000000,    0.0000000 ]
  distance:    0.0305627
  band:
  - # 1
    frequency:    0.4816809070
  - # 2
    frequency:    0.8600179511
  - # 3
    frequency:    1.3836371981
  - # 4
    frequency:    1.4980963242
  - # 5
    frequency:    1.9236055894
  - # 6
    frequency:    3.5399706159
  - # 7
    frequency:    3.6706389796
  - # 8
    frequency:    5.1051833937
  - # 9
    frequency:    5.6749434733
  - # 10
    frequency:    5.9549325999
  - # 11
    frequency:    7.2231617428
  - # 12
    frequency:    7.3000960915
  - # 13
    frequency:    7.4696023687
  - # 14
    frequency:    9.0511493284
  - # 15
    frequency:   13.3579797366
  - # 16
    frequency:   13.9230331141
  - # 17
    frequency:   13.9677802713
  - # 18
    frequency:   15.5364898582
  - # 19
    frequency:   15.5393205423
  - # 20
    frequency:   26.8587425905
  - # 21
    frequency:   56.3464761626

- q-position: [    0.0959596,    0.0000000,    0.0000000 ]
  distance:    0.0322606
  band:
  - # 1
    frequency:    0.5275562869
  - # 2
    frequency:    0.9055887530
  - # 3
    frequency:    1.4580419298
  - # 4
    frequency:    1.5262037604
  - # 5
    frequency:    1.9848020160
  - # 6
    frequency:    3.5372336327
  - # 7
    frequency:    3.6848760781
  - # 8
    frequency:    5.0955861502
  - # 9
    frequency:    5.6685052828
  - # 10
    frequency:    5.9735595386
  - # 11
    frequency:    7.2099819090
  - # 12
    frequency:    7.2979075211
  - # 13
    frequency:    7.4830250523
  - # 14
    frequency:    9.0241317677
  - # 15
    frequency:   13.3455548597
  - # 16
    frequency:   13.9236412039
  - # 17
    frequency:   13.9721424937
  - # 18
    frequency:   15.5404182707
  - # 19
    frequency:   15.5429949605
  - # 20
    frequency:   26.8545932464
  - # 21
    frequency:   56.3317813318

- q-position: [    0.1010101,    0.0000000,    0.0000000 ]
  distance:    0.0339585
  band:
  - # 1
    frequency:    0.5749292389
  - # 2
    frequency:    0.9508032426
  - # 3
    frequency:    1.5319945245
  - # 4
    frequency:    1.5547384241
  - # 5
    frequency:    2.0464440063
  - # 6
    frequency:    3.5341695772
  - # 7
    frequency:    3.7000502239
  - # 8
    frequency:    5.0864550335
  - # 9
    frequency:    5.6621121904
  - # 10
    frequency:    5.9925015023
  - # 11
    frequency:    7.1962908017
  - # 12
    frequency:    7.2954781145
  - # 13
    frequency:    7.4964198601
  - # 14
    frequency:    8.9960361160
  - # 15
    frequency:   13.3325760611
  - # 16
    frequency:   13.9243515534
  - # 17
    frequency:   13.9766186188
  - # 18
    frequency:   15.5443430041
  - # 19
    frequency:   15.5465301979
  - # 20
    frequency:   26.8502818445
  - # 21
    frequency:   56.3163860121

- q-position: [    0.1060606,    0.0000000,    0.0000000 ]
  distance:    0.0356565
  band:
  - # 1
    frequency:    0.6237615941
  - # 2
    frequency:    0.9956450463
  - # 3
    frequency:    1.5836002362
  - # 4
    frequency:    1.6054604054
  - # 5
    frequency:    2.1083848118
  - # 6
    frequency:    3.5307689352
  - # 7
    frequency:    3.7161687689
  - # 8
    frequency:    5.0778531849
  - # 9
    frequency:    5.6558107352
  - # 10
    frequency:    6.0116964721
  - # 11
    frequency:    7.1821358268
  - # 12
    frequency:    7.2927985129
  - # 13
    frequency:    7.5096998521
  - # 14
    frequency:    8.9669219842
  - # 15
    frequency:   13.3190470673
  - # 16
    frequency:   13.9251695185
  - # 17
    frequency:   13.9812054971
  - # 18
    frequency:   15.5482365886
  - # 19
    frequency:   15.5498803994
  - # 20
    frequency:   26.8458173279
  - # 21
    frequency:   56.3003047549

- q-position: [    0.1111111,    0.0000000,    0.0000000 ]
  distance:    0.0373544
  band:
  - # 1
    frequency:    0.6740140313
  - # 2
    frequency:    1.0400986172
  - # 3
    frequency:    1.6126938538
  - # 4
    frequency:    1.6784038222
  - # 5
    frequency:    2.1704916658
  - # 6
    frequency:    3.5270263906
  - # 7
    frequency:    3.7332342224
  - # 8
    frequency:    5.0698393265
  - # 9
    frequency:    5.6496463154
  - # 10
    frequency:    6.0310783657
  - # 11
    frequency:    7.1675698512
  - # 12
    frequency:    7.2898607209
  - # 13
    frequency:    7.5227808658
  - # 14
    frequency:    8.9368517942
  - # 15
    frequency:   13.3049707911
  - # 16
    frequency:   13.9260997113
  - # 17
    frequency:   13.9859009114
  - # 18
    frequency:   15.5520717748
  - # 19
    frequency:   15.5529989051
  - # 20
    frequency:   26.8412088893
  - # 21
    frequency:   56.2835527881

- q-position: [    0.1161616,    0.0000000,    0.0000000 ]
  distance:    0.0390523
  band:
  - # 1
    frequency:    0.7256453970
  - # 2
    frequency:    1.0841493189
  - # 3
    frequency:    1.6419287070
  - # 4
    frequency:    1.7507877479
  - # 5
    frequency:    2.2326444311
  - # 6
    frequency:    3.5229414159
  - # 7
    frequency:    3.7512436183
  - # 8
    frequency:    5.0624680183
  - # 9
    frequency:    5.6436627910
  - # 10
    frequency:    6.0505761577
  - # 11
    frequency:    7.1526518769
  - # 12
    frequency:    7.2866582000
  - # 13
    frequency:    7.5355818450
  - # 14
    frequency:    8.9058907448
  - # 15
    frequency:   13.2903495940
  - # 16
    frequency:   13.9271459554
  - # 17
    frequency:   13.9907033103
  - # 18
    frequency:   15.5558217180
  - # 19
    frequency:   15.5558383925
  - # 20
    frequency:   26.8364659447
  - # 21
    frequency:   56.2661460044

- q-position: [    0.1212121,    0.0000000,    0.0000000 ]
  distance:    0.0407502
  band:
  - # 1
    frequency:    0.7786122505
  - # 2
    frequency:    1.1277835017
  - # 3
    frequency:    1.6712190175
  - # 4
    frequency:    1.8225737442
  - # 5
    frequency:    2.2947344792
  - # 6
    frequency:    3.5185188363
  - # 7
    frequency:    3.7701879412
  - # 8
    frequency:    5.0557898409
  - # 9
    frequency:    5.6379020950
  - # 10
    frequency:    6.0701130936
  - # 11
    frequency:    7.1374476961
  - # 12
    frequency:    7.2831859415
  - # 13
    frequency:    7.5480251475
  - # 14
    frequency:    8.8741067825
  - # 15
    frequency:   13.2751855580
  - # 16
    frequency:   13.9283112551
  - # 17
    frequency:   13.9956115390
  - # 18
    frequency:   15.5583510143
  - # 19
    frequency:   15.5594601527
  - # 20
    frequency:   26.8315981079
  - # 21
    frequency:   56.2481009495

- q-position: [    0.1262626,    0.0000000,    0.0000000 ]
  distance:    0.0424482
  band:
  - # 1
    frequency:    0.8328685914
  - # 2
    frequency:    1.1709885718
  - # 3
    frequency:    1.7004838157
  - # 4
    frequency:    1.8937217960
  - # 5
    frequency:    2.3566637844
  - # 6
    frequency:    3.5137693505
  - # 7
    frequency:    3.7900516261
  - # 8
    frequency:    5.0498515074
  - # 9
    frequency:    5.6324038578
  - # 10
    frequency:    6.0896059960
  - # 11
    frequency:    7.1220305229
  - # 12
    frequency:    7.2794405222
  - # 13
    frequency:    7.5600368235
  - # 14
    frequency:    8.8415705784
  - # 15
    frequency:   13.2594807616
  - # 16
    frequency:   13.9295977753
  - # 17
    frequency:   14.0006245765
  - # 18
    frequency:   15.5604885349
  - # 19
    frequency:   15.5629615554
  - # 20
    frequency:   26.8266151643
  - # 21
    frequency:   56.2294348098

- q-position: [    0.1313131,    0.0000000,    0.0000000 ]
  distance:    0.0441461
  band:
  - # 1
    frequency:    0.8883657302
  - # 2
    frequency:    1.2137530517
  - # 3
    frequency:    1.7296469755
  - # 4
    frequency:    1.9641901147
  - # 5
    frequency:    2.4183442129
  - # 6
    frequency:    3.5087099911
  - # 7
    frequency:    3.8108121379
  - # 8
    frequency:    5.0446959115
  - # 9
    frequency:    5.6272050516
  - # 10
    frequency:    6.1089646689
  - # 11
    frequency:    7.1064815789
  - # 12
    frequency:    7.2754201406
  - # 13
    frequency:    7.5715468630
  - # 14
    frequency:    8.8083555121
  - # 15
    frequency:   13.2432375553
  - # 16
    frequency:   13.9310068341
  - # 17
    frequency:   14.0057412818
  - # 18
    frequency:   15.5622024671
  - # 19
    frequency:   15.5663012952
  - # 20
    frequency:   26.8215270450
  - # 21
    frequency:   56.2101653985

- q-position: [    0.1363636,    0.0000000,    0.0000000 ]
  distance:    0.0458440
  band:
  - # 1
    frequency:    0.9450522747
  - # 2
    frequency:    1.2560666329
  - # 3
    frequency:    1.7586372807
  - # 4
    frequency:    2.0339349110
  - # 5
    frequency:    2.4796969903
  - # 6
    frequency:    3.5033645057
  - # 7
    frequency:    3.8324396376
  - # 8
    frequency:    5.0403621163
  - # 9
    frequency:    5.6223396595
  - # 10
    frequency:    6.1280914210
  - # 11
    frequency:    7.0908905953
  - # 12
    frequency:    7.2711246367
  - # 13
    frequency:    7.5824894178
  - # 14
    frequency:    8.7745376638
  - # 15
    frequency:   13.2264588310
  - # 16
    frequency:   13.9325389043
  - # 17
    frequency:   14.0109601555
  - # 18
    frequency:   15.5634442078
  - # 19
    frequency:   15.5694557709
  - # 20
    frequency:   26.8163438011
  - # 21
    frequency:   56.1903111421

- q-position: [    0.1414141,    0.0000000,    0.0000000 ]
  distance:    0.0475419
  band:
  - # 1
    frequency:    1.0028742063
  - # 2
    frequency:    1.2979202198
  - # 3
    frequency:    1.7873885352
  - # 4
    frequency:    2.1029101407
  - # 5
    frequency:    2.5406523291
  - # 6
    frequency:    3.4977636388
  - # 7
    frequency:    3.8548967366
  - # 8
    frequency:    5.0368852924
  - # 9
    frequency:    5.6178383747
  - # 10
    frequency:    6.1468807502
  - # 11
    frequency:    7.0753561699
  - # 12
    frequency:    7.2665554948
  - # 13
    frequency:    7.5928030040
  - # 14
    frequency:    8.7401958118
  - # 15
    frequency:   13.2091482827
  - # 16
    frequency:   13.9341936258
  - # 17
    frequency:   14.0162791172
  - # 18
    frequency:   15.5641651772
  - # 19
    frequency:   15.5724025369
  - # 20
    frequency:   26.8110755783
  - # 21
    frequency:   56.1698910652

- q-position: [    0.1464646,    0.0000000,    0.0000000 ]
  distance:    0.0492399
  band:
  - # 1
    frequency:    1.0617750262
  - # 2
    frequency:    1.3393059653
  - # 3
    frequency:    1.8158397288
  - # 4
    frequency:    2.1710672270
  - # 5
    frequency:    2.6011491968
  - # 6
    frequency:    3.4919452949
  - # 7
    frequency:    3.8781383389
  - # 8
    frequency:    5.0342966105
  - # 9
    frequency:    5.6137283379
  - # 10
    frequency:    6.1652192593
  - # 11
    frequency:    7.0599858889
  - # 12
    frequency:    7.2617158314
  - # 13
    frequency:    7.6024306986
  - # 14
    frequency:    8.7054114340
  - # 15
    frequency:   13.1913106518
  - # 16
    frequency:   13.9359698256
  - # 17
    frequency:   14.0216953037
  - # 18
    frequency:   15.5643169598
  - # 19
    frequency:   15.5751204172
  - # 20
    frequency:   26.8057325914
  - # 21
    frequency:   56.1489247753

- q-position: [    0.1515152,    0.0000000,    0.0000000 ]
  distance:    0.0509378
  band:
  - # 1
    frequency:    1.1216959548
  - # 2
    frequency:    1.3802172978
  - # 3
    frequency:    1.8439352646
  - # 4
    frequency:    2.2383547704
  - # 5
    frequency:    2.6611352044
  - # 6
    frequency:    3.4859545632
  - # 7
    frequency:    3.9021115673
  - # 8
    frequency:    5.0326230986
  - # 9
    frequency:    5.6100329145
  - # 10
    frequency:    6.1829859055
  - # 11
    frequency:    7.0448960919
  - # 12
    frequency:    7.2566103684
  - # 13
    frequency:    7.6113203438
  - # 14
    frequency:    8.6702687080
  - # 15
    frequency:   13.1729519528
  - # 16
    frequency:   13.9378655455
  - # 17
    frequency:   14.0272048880
  - # 18
    frequency:   15.5638514510
  - # 19
    frequency:   15.5775896102
  - # 20
    frequency:   26.8003250993
  - # 21