nqpoint: 300    
npath: 3      
segment_nqpoint:
- 100
- 100
- 100
labels:
- [ 'G', 'M' ]
- [ 'M', 'K' ]
- [ 'K', 'G' ]
reciprocal_lattice:
- [   0.30393967,   0.17547965,   0.00000000 ] # a*
- [   0.00000000,   0.35095930,   0.00000000 ] # b*
- [   0.00000000,   0.00000000,   0.04251110 ] # c*
natom: 5      
lattice:
- [     3.290126651493292,     0.000000000000000,     0.000000000000000 ] # a
- [    -1.645063325746646,     2.849333261857178,     0.000000000000000 ] # b
- [     0.000000000000000,     0.000000000000000,    23.523267301032458 ] # c
points:
- symbol: Br # 1
  coordinates: [  0.666666984744047,  0.333332985985145,  0.382599912028589 ]
  mass: 79.904000
- symbol: Cl # 2
  coordinates: [  0.333332985432215,  0.666666983183674,  0.617400087971411 ]
  mass: 35.453000
- symbol: N # 3
  coordinates: [  0.000000000000000,  0.000000000000000,  0.503687917366785 ]
  mass: 14.006700
- symbol: Ti # 4
  coordinates: [  0.333332985432215,  0.666666983183674,  0.461074813380137 ]
  mass: 47.867000
- symbol: Ti # 5
  coordinates: [  0.666666984744047,  0.333332985985145,  0.546497247103803 ]
  mass: 47.867000

phonon:
- q-position: [    0.0000000,    0.0000000,    0.0000000 ]
  distance:    0.0000000
  band:
  - # 1
    frequency:   -0.0000128925
  - # 2
    frequency:   -0.0000002897
  - # 3
    frequency:    0.0000125282
  - # 4
    frequency:    3.1700712329
  - # 5
    frequency:    3.1700712329
  - # 6
    frequency:    5.1162940051
  - # 7
    frequency:    5.7763254016
  - # 8
    frequency:    5.7763254017
  - # 9
    frequency:    7.7331957332
  - # 10
    frequency:    7.7331957332
  - # 11
    frequency:    8.8509366563
  - # 12
    frequency:   12.0724610404
  - # 13
    frequency:   14.7521689359
  - # 14
    frequency:   16.3599691546
  - # 15
    frequency:   16.3599691546

- q-position: [    0.0050505,    0.0000000,    0.0000000 ]
  distance:    0.0017725
  band:
  - # 1
    frequency:    0.0022912562
  - # 2
    frequency:    0.0735178960
  - # 3
    frequency:    0.1204118970
  - # 4
    frequency:    3.1706243514
  - # 5
    frequency:    3.1721395257
  - # 6
    frequency:    5.1145006496
  - # 7
    frequency:    5.7764532736
  - # 8
    frequency:    5.7788467600
  - # 9
    frequency:    7.7327841140
  - # 10
    frequency:    7.7331183351
  - # 11
    frequency:    8.8508836217
  - # 12
    frequency:   12.0711757784
  - # 13
    frequency:   14.7519788148
  - # 14
    frequency:   16.3598519378
  - # 15
    frequency:   16.3600459822

- q-position: [    0.0101010,    0.0000000,    0.0000000 ]
  distance:    0.0035450
  band:
  - # 1
    frequency:    0.0091338232
  - # 2
    frequency:    0.1469816234
  - # 3
    frequency:    0.2407394133
  - # 4
    frequency:    3.1722825318
  - # 5
    frequency:    3.1783256024
  - # 6
    frequency:    5.1092101150
  - # 7
    frequency:    5.7768369056
  - # 8
    frequency:    5.7863192444
  - # 9
    frequency:    7.7315497058
  - # 10
    frequency:    7.7328853303
  - # 11
    frequency:    8.8507253759
  - # 12
    frequency:   12.0673230727
  - # 13
    frequency:   14.7514077673
  - # 14
    frequency:   16.3595009461
  - # 15
    frequency:   16.3602762368

- q-position: [    0.0151515,    0.0000000,    0.0000000 ]
  distance:    0.0053176
  band:
  - # 1
    frequency:    0.0204747886
  - # 2
    frequency:    0.2203371388
  - # 3
    frequency:    0.3608982425
  - # 4
    frequency:    3.1750422546
  - # 5
    frequency:    3.1885738255
  - # 6
    frequency:    5.1006745413
  - # 7
    frequency:    5.7774763425
  - # 8
    frequency:    5.7984845630
  - # 9
    frequency:    7.7294938624
  - # 10
    frequency:    7.7324942893
  - # 11
    frequency:    8.8504644819
  - # 12
    frequency:   12.0609121529
  - # 13
    frequency:   14.7504537625
  - # 14
    frequency:   16.3589181411
  - # 15
    frequency:   16.3606592322

- q-position: [    0.0202020,    0.0000000,    0.0000000 ]
  distance:    0.0070901
  band:
  - # 1
    frequency:    0.0362218168
  - # 2
    frequency:    0.2935306461
  - # 3
    frequency:    0.4808042274
  - # 4
    frequency:    3.1788976762
  - # 5
    frequency:    3.2027939527
  - # 6
    frequency:    5.0892659347
  - # 7
    frequency:    5.7783716485
  - # 8
    frequency:    5.8149605381
  - # 9
    frequency:    7.7266188579
  - # 10
    frequency:    7.7319411726
  - # 11
    frequency:    8.8501051789
  - # 12
    frequency:   12.0519583670
  - # 13
    frequency:   14.7491134851
  - # 14
    frequency:   16.3581067460
  - # 15
    frequency:   16.3611938192

- q-position: [    0.0252525,    0.0000000,    0.0000000 ]
  distance:    0.0088626
  band:
  - # 1
    frequency:    0.0562506344
  - # 2
    frequency:    0.3665087229
  - # 3
    frequency:    0.6003734297
  - # 4
    frequency:    3.1838406610
  - # 5
    frequency:    3.2208646243
  - # 6
    frequency:    5.0754226108
  - # 7
    frequency:    5.7795228905
  - # 8
    frequency:    5.8352947848
  - # 9
    frequency:    7.7229279131
  - # 10
    frequency:    7.7312203467
  - # 11
    frequency:    8.8496533315
  - # 12
    frequency:   12.0404831294
  - # 13
    frequency:   14.7473824394
  - # 14
    frequency:   16.3570711772
  - # 15
    frequency:   16.3618783765

- q-position: [    0.0303030,    0.0000000,    0.0000000 ]
  distance:    0.0106351
  band:
  - # 1
    frequency:    0.0804094904
  - # 2
    frequency:    0.4392184484
  - # 3
    frequency:    0.7195221950
  - # 4
    frequency:    3.1898608254
  - # 5
    frequency:    3.2426378003
  - # 6
    frequency:    5.0596000884
  - # 7
    frequency:    5.7809301159
  - # 8
    frequency:    5.8590139865
  - # 9
    frequency:    7.7184252318
  - # 10
    frequency:    7.7303246084
  - # 11
    frequency:    8.8491163589
  - # 12
    frequency:   12.0265138501
  - # 13
    frequency:   14.7452550901
  - # 14
    frequency:   16.3558169501
  - # 15
    frequency:   16.3627107996

- q-position: [    0.0353535,    0.0000000,    0.0000000 ]
  distance:    0.0124077
  band:
  - # 1
    frequency:    0.1085242118
  - # 2
    frequency:    0.5116075332
  - # 3
    frequency:    0.8381672108
  - # 4
    frequency:    3.1969455941
  - # 5
    frequency:    3.2679437866
  - # 6
    frequency:    5.0422351983
  - # 7
    frequency:    5.7825933245
  - # 8
    frequency:    5.8856600042
  - # 9
    frequency:    7.7131160468
  - # 10
    frequency:    7.7292452213
  - # 11
    frequency:    8.8485031399
  - # 12
    frequency:   12.0100838453
  - # 13
    frequency:   14.7427250384
  - # 14
    frequency:   16.3543505621
  - # 15
    frequency:   16.3636884856

- q-position: [    0.0404040,    0.0000000,    0.0000000 ]
  distance:    0.0141802
  band:
  - # 1
    frequency:    0.1404034898
  - # 2
    frequency:    0.5836244528
  - # 3
    frequency:    0.9562255569
  - # 4
    frequency:    3.2050802649
  - # 5
    frequency:    3.2965964825
  - # 6
    frequency:    5.0237250372
  - # 7
    frequency:    5.7845124340
  - # 8
    frequency:    5.9148111860
  - # 9
    frequency:    7.7070066743
  - # 10
    frequency:    7.7279719667
  - # 11
    frequency:    8.8478238956
  - # 12
    frequency:   11.9912322333
  - # 13
    frequency:   14.7397852283
  - # 14
    frequency:   16.3526793530
  - # 15
    frequency:   16.3648083162

- q-position: [    0.0454545,    0.0000000,    0.0000000 ]
  distance:    0.0159527
  band:
  - # 1
    frequency:    0.1758440694
  - # 2
    frequency:    0.6552185837
  - # 3
    frequency:    1.0736147454
  - # 4
    frequency:    3.2142480838
  - # 5
    frequency:    3.3283985195
  - # 6
    frequency:    5.0044180486
  - # 7
    frequency:    5.7866872415
  - # 8
    frequency:    5.9460915979
  - # 9
    frequency:    7.7001045757
  - # 10
    frequency:    7.7264932126
  - # 11
    frequency:    8.8470900444
  - # 12
    frequency:   11.9700038140
  - # 13
    frequency:   14.7364281783
  - # 14
    frequency:   16.3508113488
  - # 15
    frequency:   16.3660666380

- q-position: [    0.0505051,    0.0000000,    0.0000000 ]
  distance:    0.0177252
  band:
  - # 1
    frequency:    0.2146355778
  - # 2
    frequency:    0.7263403430
  - # 3
    frequency:    1.1902527505
  - # 4
    frequency:    3.2244303270
  - # 5
    frequency:    3.3631460248
  - # 6
    frequency:    4.9846131965
  - # 7
    frequency:    5.7891173792
  - # 8
    frequency:    5.9791722062
  - # 9
    frequency:    7.6924184268
  - # 10
    frequency:    7.7247960044
  - # 11
    frequency:    8.8463140316
  - # 12
    frequency:   11.9464489378
  - # 13
    frequency:   14.7326462345
  - # 14
    frequency:   16.3487550886
  - # 15
    frequency:   16.3674592410

- q-position: [    0.0555556,    0.0000000,    0.0000000 ]
  distance:    0.0194977
  band:
  - # 1
    frequency:    0.2565648070
  - # 2
    frequency:    0.7969413316
  - # 3
    frequency:    1.3060580255
  - # 4
    frequency:    3.2356063894
  - # 5
    frequency:    3.4006328194
  - # 6
    frequency:    4.9645636686
  - # 7
    frequency:    5.7918022663
  - # 8
    frequency:    6.0137675786
  - # 9
    frequency:    7.6839581917
  - # 10
    frequency:    7.7228661822
  - # 11
    frequency:    8.8455091296
  - # 12
    frequency:   11.9206233629
  - # 13
    frequency:   14.7284318371
  - # 14
    frequency:   16.3465194417
  - # 15
    frequency:   16.3689813358

- q-position: [    0.0606061,    0.0000000,    0.0000000 ]
  distance:    0.0212703
  band:
  - # 1
    frequency:    0.3014193431
  - # 2
    frequency:    0.8669744808
  - # 3
    frequency:    1.4209495067
  - # 4
    frequency:    3.2477538780
  - # 5
    frequency:    3.4406539409
  - # 6
    frequency:    4.9444826051
  - # 7
    frequency:    5.7947410576
  - # 8
    frequency:    6.0496306079
  - # 9
    frequency:    7.6747352020
  - # 10
    frequency:    7.7206885265
  - # 11
    frequency:    8.8446892079
  - # 12
    frequency:   11.8925881045
  - # 13
    frequency:   14.7237777962
  - # 14
    frequency:   16.3441134158
  - # 15
    frequency:   16.3706275298

- q-position: [    0.0656566,    0.0000000,    0.0000000 ]
  distance:    0.0230428
  band:
  - # 1
    frequency:    0.3489905073
  - # 2
    frequency:    0.9363942011
  - # 3
    frequency:    1.5348466030
  - # 4
    frequency:    3.2608487093
  - # 5
    frequency:    3.4830084460
  - # 6
    frequency:    4.9245493459
  - # 7
    frequency:    5.7979325891
  - # 8
    frequency:    6.0865467677
  - # 9
    frequency:    7.6647622375
  - # 10
    frequency:    7.7182469380
  - # 11
    frequency:    8.8438684739
  - # 12
    frequency:   11.8624092770
  - # 13
    frequency:   14.7186775702
  - # 14
    frequency:   16.3415459635
  - # 15
    frequency:   16.3723918030

- q-position: [    0.0707071,    0.0000000,    0.0000000 ]
  distance:    0.0248153
  band:
  - # 1
    frequency:    0.3990756228
  - # 2
    frequency:    1.0051565337
  - # 3
    frequency:    1.6476691702
  - # 4
    frequency:    3.2748652084
  - # 5
    frequency:    3.5275014999
  - # 6
    frequency:    4.9049154153
  - # 7
    frequency:    5.8013753205
  - # 8
    frequency:    6.1243286879
  - # 9
    frequency:    7.6540536093
  - # 10
    frequency:    7.7155246527
  - # 11
    frequency:    8.8430611834
  - # 12
    frequency:   11.8301579317
  - # 13
    frequency:   14.7131255398
  - # 14
    frequency:   16.3388257890
  - # 15
    frequency:   16.3742674846

- q-position: [    0.0757576,    0.0000000,    0.0000000 ]
  distance:    0.0265878
  band:
  - # 1
    frequency:    0.4514796621
  - # 2
    frequency:    1.0732193035
  - # 3
    frequency:    1.7593374684
  - # 4
    frequency:    3.2897762109
  - # 5
    frequency:    3.5739457955
  - # 6
    frequency:    4.8857099108
  - # 7
    frequency:    5.8050672779
  - # 8
    frequency:    6.1628113905
  - # 9
    frequency:    7.6426252422
  - # 10
    frequency:    7.7125044942
  - # 11
    frequency:    8.8422813216
  - # 12
    frequency:   11.7959098898
  - # 13
    frequency:   14.7071172730
  - # 14
    frequency:   16.3359611607
  - # 15
    frequency:   16.3762472294

- q-position: [    0.0808081,    0.0000000,    0.0000000 ]
  distance:    0.0283603
  band:
  - # 1
    frequency:    0.5060163522
  - # 2
    frequency:    1.1405422712
  - # 3
    frequency:    1.8697721027
  - # 4
    frequency:    3.3055531643
  - # 5
    frequency:    3.6221623605
  - # 6
    frequency:    4.8670442216
  - # 7
    frequency:    5.8090059942
  - # 8
    frequency:    6.2018482731
  - # 9
    frequency:    7.6304947548
  - # 10
    frequency:    7.7091691667
  - # 11
    frequency:    8.8415422581
  - # 12
    frequency:   11.7597455743
  - # 13
    frequency:   14.7006497747
  - # 14
    frequency:   16.3329597343
  - # 15
    frequency:   16.3783229971

- q-position: [    0.0858586,    0.0000000,    0.0000000 ]
  distance:    0.0301329
  band:
  - # 1
    frequency:    0.5625088216
  - # 2
    frequency:    1.2070872859
  - # 3
    frequency:    1.9788939441
  - # 4
    frequency:    3.3221662303
  - # 5
    frequency:    3.6719808139
  - # 6
    frequency:    4.8490161316
  - # 7
    frequency:    5.8131884511
  - # 8
    frequency:    6.2413078064
  - # 9
    frequency:    7.6176815369
  - # 10
    frequency:    7.7055015851
  - # 11
    frequency:    8.8408563779
  - # 12
    frequency:   11.7217498393
  - # 13
    frequency:   14.6937217157
  - # 14
    frequency:   16.3298283898
  - # 15
    frequency:   16.3804860321

- q-position: [    0.0909091,    0.0000000,    0.0000000 ]
  distance:    0.0319054
  band:
  - # 1
    frequency:    0.6207898758
  - # 2
    frequency:    1.2728184335
  - # 3
    frequency:    2.0866240314
  - # 4
    frequency:    3.3395843866
  - # 5
    frequency:    3.7232391263
  - # 6
    frequency:    4.8317134265
  - # 7
    frequency:    5.8176110211
  - # 8
    frequency:    6.2810708559
  - # 9
    frequency:    7.6042068206
  - # 10
    frequency:    7.7014852436
  - # 11
    frequency:    8.8402346935
  - # 12
    frequency:   11.6820117990
  - # 13
    frequency:   14.6863336363
  - # 14
    frequency:   16.3265730865
  - # 15
    frequency:   16.3827268478

- q-position: [    0.0959596,    0.0000000,    0.0000000 ]
  distance:    0.0336779
  band:
  - # 1
    frequency:    0.6807019822
  - # 2
    frequency:    1.3377021811
  - # 3
    frequency:    2.1928834485
  - # 4
    frequency:    3.3577755289
  - # 5
    frequency:    3.7757829133
  - # 6
    frequency:    4.8152171534
  - # 7
    frequency:    5.8222694125
  - # 8
    frequency:    6.3210285269
  - # 9
    frequency:    7.5900937445
  - # 10
    frequency:    7.6971046197
  - # 11
    frequency:    8.8396864443
  - # 12
    frequency:   11.6406246565
  - # 13
    frequency:   14.6784881214
  - # 14
    frequency:   16.3231987396
  - # 15
    frequency:   16.3850352127

- q-position: [    0.1010101,    0.0000000,    0.0000000 ]
  distance:    0.0354504
  band:
  - # 1
    frequency:    0.7420970337
  - # 2
    frequency:    1.4017075143
  - # 3
    frequency:    2.2975931780
  - # 4
    frequency:    3.3767065721
  - # 5
    frequency:    3.8294642592
  - # 6
    frequency:    4.7996047038
  - # 7
    frequency:    5.8271586169
  - # 8
    frequency:    6.3610804336
  - # 9
    frequency:    7.5753674091
  - # 10
    frequency:    7.6923456083
  - # 11
    frequency:    8.8392186889
  - # 12
    frequency:   11.5976855318
  - # 13
    frequency:   14.6701899426
  - # 14
    frequency:   16.3197091218
  - # 15
    frequency:   16.3874001416

- q-position: [    0.1060606,    0.0000000,    0.0000000 ]
  distance:    0.0372230
  band:
  - # 1
    frequency:    0.8048359532
  - # 2
    frequency:    1.4648060663
  - # 3
    frequency:    2.4006739242
  - # 4
    frequency:    3.3963435531
  - # 5
    frequency:    3.8841400219
  - # 6
    frequency:    4.7849529195
  - # 7
    frequency:    5.8322728608
  - # 8
    frequency:    6.4011333045
  - # 9
    frequency:    7.5600549215
  - # 10
    frequency:    7.6871959838
  - # 11
    frequency:    8.8388359010
  - # 12
    frequency:   11.5532952905
  - # 13
    frequency:   14.6614461662
  - # 14
    frequency:   16.3161067901
  - # 15
    frequency:   16.3898098910

- q-position: [    0.1111111,    0.0000000,    0.0000000 ]
  distance:    0.0389955
  band:
  - # 1
    frequency:    0.8687881874
  - # 2
    frequency:    1.5269722346
  - # 3
    frequency:    2.5020459024
  - # 4
    frequency:    3.4166517339
  - # 5
    frequency:    3.9396694895
  - # 6
    frequency:    4.7713414702
  - # 7
    frequency:    5.8376055624
  - # 8
    frequency:    6.4410998527
  - # 9
    frequency:    7.5441854270
  - # 10
    frequency:    7.6816458823
  - # 11
    frequency:    8.8385395754
  - # 12
    frequency:   11.5075583710
  - # 13
    frequency:   14.6522662242
  - # 14
    frequency:   16.3123930425
  - # 15
    frequency:   16.3922519598

- q-position: [    0.1161616,    0.0000000,    0.0000000 ]
  distance:    0.0407680
  band:
  - # 1
    frequency:    0.9338311288
  - # 2
    frequency:    1.5881832845
  - # 3
    frequency:    2.6016285868
  - # 4
    frequency:    3.4375957068
  - # 5
    frequency:    3.9959111470
  - # 6
    frequency:    4.7588568522
  - # 7
    frequency:    5.8431492947
  - # 8
    frequency:    6.4808978470
  - # 9
    frequency:    7.5277901268
  - # 10
    frequency:    7.6756882995
  - # 11
    frequency:    8.8383278552
  - # 12
    frequency:   11.4605826114
  - # 13
    frequency:   14.6426619492
  - # 14
    frequency:   16.3085679024
  - # 15
    frequency:   16.3947130950

- q-position: [    0.1212121,    0.0000000,    0.0000000 ]
  distance:    0.0425405
  band:
  - # 1
    frequency:    0.9998494974
  - # 2
    frequency:    1.6484194361
  - # 3
    frequency:    2.6993404110
  - # 4
    frequency:    3.4591395029
  - # 5
    frequency:    4.0527181132
  - # 6
    frequency:    4.7475975302
  - # 7
    frequency:    5.8488957549
  - # 8
    frequency:    6.5204493360
  - # 9
    frequency:    7.5109022796
  - # 10
    frequency:    7.6693195978
  - # 11
    frequency:    8.8381951894
  - # 12
    frequency:   11.4124790731
  - # 13
    frequency:   14.6326475713
  - # 14
    frequency:   16.3046301324
  - # 15
    frequency:   16.3971793047

- q-position: [    0.1262626,    0.0000000,    0.0000000 ]
  distance:    0.0443130
  band:
  - # 1
    frequency:    1.0667347037
  - # 2
    frequency:    1.7076639329
  - # 3
    frequency:    2.7950984102
  - # 4
    frequency:    3.4812467043
  - # 5
    frequency:    4.1099314701
  - # 6
    frequency:    4.7376810684
  - # 7
    frequency:    5.8548357435
  - # 8
    frequency:    6.5596799826
  - # 9
    frequency:    7.4935571859
  - # 10
    frequency:    7.6625400191
  - # 11
    frequency:    8.8381320316
  - # 12
    frequency:   11.3633618624
  - # 13
    frequency:   14.6222396799
  - # 14
    frequency:   16.3005772772
  - # 15
    frequency:   16.3996358770

- q-position: [    0.1313131,    0.0000000,    0.0000000 ]
  distance:    0.0460856
  band:
  - # 1
    frequency:    1.1343842103
  - # 2
    frequency:    1.7659030885
  - # 3
    frequency:    2.8888177977
  - # 4
    frequency:    3.5038805612
  - # 5
    frequency:    4.1673701044
  - # 6
    frequency:    4.7292546909
  - # 7
    frequency:    5.8609591511
  - # 8
    frequency:    6.5985184754
  - # 9
    frequency:    7.4757921521
  - # 10
    frequency:    7.6553541985
  - # 11
    frequency:    8.8381245877
  - # 12
    frequency:   11.3133479464
  - # 13
    frequency:   14.6114571512
  - # 14
    frequency:   16.2964057320
  - # 15
    frequency:   16.4020674052

- q-position: [    0.1363636,    0.0000000,    0.0000000 ]
  distance:    0.0478581
  band:
  - # 1
    frequency:    1.2027009023
  - # 2
    frequency:    1.8231263112
  - # 3
    frequency:    2.9804114664
  - # 4
    frequency:    3.5270041153
  - # 5
    frequency:    4.2248145618
  - # 6
    frequency:    4.7225118097
  - # 7
    frequency:    5.8672549565
  - # 8
    frequency:    6.6368959870
  - # 9
    frequency:    7.4576464348
  - # 10
    frequency:    7.6477716781
  - # 11
    frequency:    8.8381546222
  - # 12
    frequency:   11.2625569611
  - # 13
    frequency:   14.6003210431
  - # 14
    frequency:   16.2921108376
  - # 15
    frequency:   16.4044578214

- q-position: [    0.1414141,    0.0000000,    0.0000000 ]
  distance:    0.0496306
  band:
  - # 1
    frequency:    1.2715924759
  - # 2
    frequency:    1.8793261030
  - # 3
    frequency:    3.0697894129
  - # 4
    frequency:    3.5505803291
  - # 5
    frequency:    4.2819803658
  - # 6
    frequency:    4.7177191055
  - # 7
    frequency:    5.8737112361
  - # 8
    frequency:    6.6747456536
  - # 9
    frequency:    7.4391611624
  - # 10
    frequency:    7.6398074232
  - # 11
    frequency:    8.8381993299
  - # 12
    frequency:   11.2111110113
  - # 13
    frequency:   14.5888544614
  - # 14
    frequency:   16.2876869969
  - # 15
    frequency:   16.4067904364

- q-position: [    0.1464646,    0.0000000,    0.0000000 ]
  distance:    0.0514031
  band:
  - # 1
    frequency:    1.3409708470
  - # 2
    frequency:    1.9344980326
  - # 3
    frequency:    3.1568580862
  - # 4
    frequency:    3.5745722223
  - # 5
    frequency:    4.3384725932
  - # 6
    frequency:    4.7152623809
  - # 7
    frequency:    5.8803151850
  - # 8
    frequency:    6.7120020523
  - # 9
    frequency:    7.4203792339
  - # 10
    frequency:    7.6314823456
  - # 11
    frequency:    8.8382312795
  - # 12
    frequency:   11.1591344560
  - # 13
    frequency:   14.5770823994
  - # 14
    frequency:   16.2831278111
  - # 15
    frequency:   16.4090479875

- q-position: [    0.1515152,    0.0000000,    0.0000000 ]
  distance:    0.0531757
  band:
  - # 1
    frequency:    1.4107515842
  - # 2
    frequency:    1.9886406812
  - # 3
    frequency:    3.2415196849
  - # 4
    frequency:    3.5989430156
  - # 5
    frequency:    4.3937079870
  - # 6
    frequency:    4.7157249062
  - # 7
    frequency:    5.8870531527
  - # 8
    frequency:    6.7486006526
  - # 9
    frequency:    7.4013451925
  - # 10
    frequency:    7.6228238435
  - # 11
    frequency:    8.8382184340
  - # 12
    frequency:   11.1067536768
  - # 13
    frequency:   14.5650315559
  - # 14
    frequency:   16.2784262329
  - # 15
    frequency:   16.4112126940

- q-position: [    0.1565657,    0.0000000,    0.0000000 ]
  distance:    0.0549482
  band:
  - # 1
    frequency:    1.4808533654
  - # 2
    frequency:    2.0417555605
  - # 3
    frequency:    3.3236714472
  - # 4
    frequency:    3.6236562807
  - # 5
    frequency:    4.4467878781
  - # 6
    frequency:    4.7200149470
  - # 7
    frequency:    5.8939106914
  - # 8
    frequency:    6.7844772177
  - # 9
    frequency:    7.3821050748
  - # 10
    frequency:    7.6138663732
  - # 11
    frequency:    8.8381242513
  - # 12
    frequency:   11.0540968249
  - # 13
    frequency:   14.5527301329
  - # 14
    frequency:   16.2735747318
  - # 15
    frequency:   16.4132663199

- q-position: [    0.1616162,    0.0000000,    0.0000000 ]
  distance:    0.0567207
  band:
  - # 1
    frequency:    1.5511974580
  - # 2
    frequency:    2.0938470027
  - # 3
    frequency:    3.4032050280
  - # 4
    frequency:    3.6486760972
  - # 5
    frequency:    4.4963323276
  - # 6
    frequency:    4.7295319852
  - # 7
    frequency:    5.9008726202
  - # 8
    frequency:    6.8195671292
  - # 9
    frequency:    7.3627062330
  - # 10
    frequency:    7.6046520720
  - # 11
    frequency:    8.8379078698
  - # 12
    frequency:   11.0012935386
  - # 13
    frequency:   14.5402076191
  - # 14
    frequency:   16.2685654695
  - # 15
    frequency:   16.4151902437

- q-position: [    0.1666667,    0.0000000,    0.0000000 ]
  distance:    0.0584932
  band:
  - # 1
    frequency:    1.6217072206
  - # 2
    frequency:    2.1449220242
  - # 3
    frequency:    3.4800061136
  - # 4
    frequency:    3.6739672134
  - # 5
    frequency:    4.5404360496
  - # 6
    frequency:    4.7462109254
  - # 7
    frequency:    5.9079231054
  - # 8
    frequency:    6.8538046079
  - # 9
    frequency:    7.3431971317
  - # 10
    frequency:    7.5952314581
  - # 11
    frequency:    8.8375243784
  - # 12
    frequency:   10.9484746261
  - # 13
    frequency:   14.5274945610
  - # 14
    frequency:   16.2633904803
  - # 15
    frequency:   16.4169655359

- q-position: [    0.1717172,    0.0000000,    0.0000000 ]
  distance:    0.0602657
  band:
  - # 1
    frequency:    1.6923076252
  - # 2
    frequency:    2.1949901626
  - # 3
    frequency:    3.5539545180
  - # 4
    frequency:    3.6994952117
  - # 5
    frequency:    4.5772285689
  - # 6
    frequency:    4.7719615999
  - # 7
    frequency:    5.9150457553
  - # 8
    frequency:    6.8871217962
  - # 9
    frequency:    7.3236271171
  - # 10
    frequency:    7.5856642385
  - # 11
    frequency:    8.8369251772
  - # 12
    frequency:   10.8957717040
  - # 13
    frequency:   14.5146223260
  - # 14
    frequency:   16.2580418547
  - # 15
    frequency:   16.4185730433

- q-position: [    0.1767677,    0.0000000,    0.0000000 ]
  distance:    0.0620383
  band:
  - # 1
    frequency:    1.7629247972
  - # 2
    frequency:    2.2440632893
  - # 3
    frequency:    3.6249251104
  - # 4
    frequency:    3.7252266744
  - # 5
    frequency:    4.6062445500
  - # 6
    frequency:    4.8072972910
  - # 7
    frequency:    5.9222237337
  - # 8
    frequency:    6.9194476704
  - # 9
    frequency:    7.3040461605
  - # 10
    frequency:    7.5760202594
  - # 11
    frequency:    8.8360584273
  - # 12
    frequency:   10.8433167831
  - # 13
    frequency:   14.5016228609
  - # 14
    frequency:   16.2525119220
  - # 15
    frequency:   16.4199934789

- q-position: [    0.1818182,    0.0000000,    0.0000000 ]
  distance:    0.0638108
  band:
  - # 1
    frequency:    1.8334855721
  - # 2
    frequency:    2.2921554009
  - # 3
    frequency:    3.6927900465
  - # 4
    frequency:    3.7511293499
  - # 5
    frequency:    4.6291089717
  - # 6
    frequency:    4.8506471302
  - # 7
    frequency:    5.9294398877
  - # 8
    frequency:    6.9507067483
  - # 9
    frequency:    7.2845045760
  - # 10
    frequency:    7.5663806332
  - # 11
    frequency:    8.8348695968
  - # 12
    frequency:   10.7912417889
  - # 13
    frequency:   14.4885284473
  - # 14
    frequency:   16.2467934287
  - # 15
    frequency:   16.4212075190

- q-position: [    0.1868687,    0.0000000,    0.0000000 ]
  distance:    0.0655833
  band:
  - # 1
    frequency:    1.9039170665
  - # 2
    frequency:    2.3392823895
  - # 3
    frequency:    3.7574228695
  - # 4
    frequency:    3.7771723146
  - # 5
    frequency:    4.6483912051
  - # 6
    frequency:    4.8994977570
  - # 7
    frequency:    5.9366768938
  - # 8
    frequency:    6.9808175697
  - # 9
    frequency:    7.2650527133
  - # 10
    frequency:    7.5568390656
  - # 11
    frequency:    8.8333021024
  - # 12
    frequency:   10.7396780083
  - # 13
    frequency:   14.4753714590
  - # 14
    frequency:   16.2408797113
  - # 15
    frequency:   16.4221959054

- q-position: [    0.1919192,    0.0000000,    0.0000000 ]
  distance:    0.0673558
  band:
  - # 1
    frequency:    1.9741462637
  - # 2
    frequency:    2.3854617967
  - # 3
    frequency:    3.8033261297
  - # 4
    frequency:    3.8187050554
  - # 5
    frequency:    4.6662964415
  - # 6
    frequency:    4.9516952199
  - # 7
    frequency:    5.9439174184
  - # 8
    frequency:    7.0096909527
  - # 9
    frequency:    7.2457406278
  - # 10
    frequency:    7.5475033822
  - # 11
    frequency:    8.8312980546
  - # 12
    frequency:   10.6887554483
  - # 13
    frequency:   14.4621841216
  - # 14
    frequency:   16.2347648592
  - # 15
    frequency:   16.4229395516

- q-position: [    0.1969697,    0.0000000,    0.0000000 ]
  distance:    0.0691283
  band:
  - # 1
    frequency:    2.0440996120
  - # 2
    frequency:    2.4307125536
  - # 3
    frequency:    3.8295629885
  - # 4
    frequency:    3.8765353998
  - # 5
    frequency:    4.6843205302
  - # 6
    frequency:    5.0057806724
  - # 7
    frequency:    5.9511442938
  - # 8
    frequency:    7.0372280874
  - # 9
    frequency:    7.2266177294
  - # 10
    frequency:    7.5384971913
  - # 11
    frequency:    8.8287991064
  - # 12
    frequency:   10.6386020976
  - # 13
    frequency:   14.4489982778
  - # 14
    frequency:   16.2284438678
  - # 15
    frequency:   16.4234196550

- q-position: [    0.2020202,    0.0000000,    0.0000000 ]
  distance:    0.0709009
  band:
  - # 1
    frequency:    2.1137026389
  - # 2
    frequency:    2.4750547100
  - # 3
    frequency:    3.8558568523
  - # 4
    frequency:    3.9308421746
  - # 5
    frequency:    4.7033994896
  - # 6
    frequency:    5.0608286727
  - # 7
    frequency:    5.9583407077
  - # 8
    frequency:    7.0633186398
  - # 9
    frequency:    7.2077324134
  - # 10
    frequency:    7.5299615081
  - # 11
    frequency:    8.8257474108
  - # 12
    frequency:   10.5893430816
  - # 13
    frequency:   14.4358451602
  - # 14
    frequency:   16.2219127779
  - # 15
    frequency:   16.4236178110

- q-position: [    0.2070707,    0.0000000,    0.0000000 ]
  distance:    0.0726734
  band:
  - # 1
    frequency:    2.1828795819
  - # 2
    frequency:    2.5185091562
  - # 3
    frequency:    3.8821835713
  - # 4
    frequency:    3.9815971846
  - # 5
    frequency:    4.7240996853
  - # 6
    frequency:    5.1162429709
  - # 7
    frequency:    5.9654904038
  - # 8
    frequency:    7.0878392396
  - # 9
    frequency:    7.1891316776
  - # 10
    frequency:    7.5220559656
  - # 11
    frequency:    8.8220866863
  - # 12
    frequency:   10.5410997039
  - # 13
    frequency:   14.4227551720
  - # 14
    frequency:   16.2151688023
  - # 15
    frequency:   16.4235161309

- q-position: [    0.2121212,    0.0000000,    0.0000000 ]
  distance:    0.0744459
  band:
  - # 1
    frequency:    2.2515530405