nqpoint: 300    
npath: 3      
segment_nqpoint:
- 100
- 100
- 100
labels:
- [ 'G', 'M' ]
- [ 'M', 'K' ]
- [ 'K', 'G' ]
reciprocal_lattice:
- [   0.30393967,   0.17547965,   0.00000000 ] # a*
- [   0.00000000,   0.35095930,   0.00000000 ] # b*
- [   0.00000000,   0.00000000,   0.04251110 ] # c*
natom: 5      
lattice:
- [     3.290126651493292,     0.000000000000000,     0.000000000000000 ] # a
- [    -1.645063325746646,     2.849333261857178,     0.000000000000000 ] # b
- [     0.000000000000000,     0.000000000000000,    23.523267301032458 ] # c
points:
- symbol: Br # 1
  coordinates: [  0.666666984744047,  0.333332985985145,  0.382599912028589 ]
  mass: 79.904000
- symbol: Cl # 2
  coordinates: [  0.333332985432215,  0.666666983183674,  0.617400087971411 ]
  mass: 35.453000
- symbol: N # 3
  coordinates: [  0.000000000000000,  0.000000000000000,  0.503687917366785 ]
  mass: 14.006700
- symbol: Ti # 4
  coordinates: [  0.333332985432215,  0.666666983183674,  0.461074813380137 ]
  mass: 47.867000
- symbol: Ti # 5
  coordinates: [  0.666666984744047,  0.333332985985145,  0.546497247103803 ]
  mass: 47.867000

phonon:
- q-position: [    0.0000000,    0.0000000,    0.0000000 ]
  distance:    0.0000000
  band:
  - # 1
    frequency:   -0.0000013556
  - # 2
    frequency:    0.0000004905
  - # 3
    frequency:    0.0000011795
  - # 4
    frequency:    3.2144587774
  - # 5
    frequency:    3.2144587774
  - # 6
    frequency:    5.1413352012
  - # 7
    frequency:    5.7519977274
  - # 8
    frequency:    5.7519977274
  - # 9
    frequency:    7.6790674057
  - # 10
    frequency:    7.6790674057
  - # 11
    frequency:    8.8806621729
  - # 12
    frequency:   12.1566654829
  - # 13
    frequency:   14.7719709728
  - # 14
    frequency:   16.4469251541
  - # 15
    frequency:   16.4469251541

- q-position: [    0.0050505,    0.0000000,    0.0000000 ]
  distance:    0.0017725
  band:
  - # 1
    frequency:    0.0155759246
  - # 2
    frequency:    0.0772215604
  - # 3
    frequency:    0.1249164263
  - # 4
    frequency:    3.2149653452
  - # 5
    frequency:    3.2164905971
  - # 6
    frequency:    5.1394750197
  - # 7
    frequency:    5.7521316603
  - # 8
    frequency:    5.7547505259
  - # 9
    frequency:    7.6786389242
  - # 10
    frequency:    7.6792095677
  - # 11
    frequency:    8.8805078315
  - # 12
    frequency:   12.1552195016
  - # 13
    frequency:   14.7717441354
  - # 14
    frequency:   16.4464683737
  - # 15
    frequency:   16.4468880767

- q-position: [    0.0101010,    0.0000000,    0.0000000 ]
  distance:    0.0035450
  band:
  - # 1
    frequency:    0.0398867966
  - # 2
    frequency:    0.1543687701
  - # 3
    frequency:    0.2485722193
  - # 4
    frequency:    3.2164842106
  - # 5
    frequency:    3.2225695803
  - # 6
    frequency:    5.1339993271
  - # 7
    frequency:    5.7525333837
  - # 8
    frequency:    5.7628998486
  - # 9
    frequency:    7.6773545165
  - # 10
    frequency:    7.6796332742
  - # 11
    frequency:    8.8800467923
  - # 12
    frequency:   12.1508852984
  - # 13
    frequency:   14.7710628359
  - # 14
    frequency:   16.4451019140
  - # 15
    frequency:   16.4467772653

- q-position: [    0.0151515,    0.0000000,    0.0000000 ]
  distance:    0.0053176
  band:
  - # 1
    frequency:    0.0633568586
  - # 2
    frequency:    0.2313675949
  - # 3
    frequency:    0.3722341404
  - # 4
    frequency:    3.2190128605
  - # 5
    frequency:    3.2326468982
  - # 6
    frequency:    5.1252005759
  - # 7
    frequency:    5.7532026696
  - # 8
    frequency:    5.7761406245
  - # 9
    frequency:    7.6752172883
  - # 10
    frequency:    7.6803302065
  - # 11
    frequency:    8.8792849976
  - # 12
    frequency:   12.1436740870
  - # 13
    frequency:   14.7699247351
  - # 14
    frequency:   16.4428373743
  - # 15
    frequency:   16.4465939763

- q-position: [    0.0202020,    0.0000000,    0.0000000 ]
  distance:    0.0070901
  band:
  - # 1
    frequency:    0.0881124782
  - # 2
    frequency:    0.3081446315
  - # 3
    frequency:    0.4955972929
  - # 4
    frequency:    3.2225471079
  - # 5
    frequency:    3.2466431155
  - # 6
    frequency:    5.1135025243
  - # 7
    frequency:    5.7541391331
  - # 8
    frequency:    5.7940282173
  - # 9
    frequency:    7.6722324002
  - # 10
    frequency:    7.6812865645
  - # 11
    frequency:    8.8782323062
  - # 12
    frequency:   12.1336045270
  - # 13
    frequency:   14.7683260081
  - # 14
    frequency:   16.4396939344
  - # 15
    frequency:   16.4463402850

- q-position: [    0.0252525,    0.0000000,    0.0000000 ]
  distance:    0.0088626
  band:
  - # 1
    frequency:    0.1148089974
  - # 2
    frequency:    0.3846274201
  - # 3
    frequency:    0.6185053470
  - # 4
    frequency:    3.2270810939
  - # 5
    frequency:    3.2644509334
  - # 6
    frequency:    5.0993923756
  - # 7
    frequency:    5.7553422239
  - # 8
    frequency:    5.8160465116
  - # 9
    frequency:    7.6684070442
  - # 10
    frequency:    7.6824831640
  - # 11
    frequency:    8.8769024244
  - # 12
    frequency:   12.1207026805
  - # 13
    frequency:   14.7662614562
  - # 14
    frequency:   16.4356981271
  - # 15
    frequency:   16.4460190571

- q-position: [    0.0303030,    0.0000000,    0.0000000 ]
  distance:    0.0106351
  band:
  - # 1
    frequency:    0.1438172754
  - # 2
    frequency:    0.4607447516
  - # 3
    frequency:    0.7408294206
  - # 4
    frequency:    3.2326072911
  - # 5
    frequency:    3.2859387050
  - # 6
    frequency:    5.0833621126
  - # 7
    frequency:    5.7568112148
  - # 8
    frequency:    5.8416668966
  - # 9
    frequency:    7.6637504122
  - # 10
    frequency:    7.6838955761
  - # 11
    frequency:    8.8753128054
  - # 12
    frequency:   12.1050019505
  - # 13
    frequency:   14.7637246607
  - # 14
    frequency:   16.4308835218
  - # 15
    frequency:   16.4456339095

- q-position: [    0.0353535,    0.0000000,    0.0000000 ]
  distance:    0.0124077
  band:
  - # 1
    frequency:    0.1753593396
  - # 2
    frequency:    0.5364269702
  - # 3
    frequency:    0.8624505698
  - # 4
    frequency:    3.2391165071
  - # 5
    frequency:    3.3109544555
  - # 6
    frequency:    5.0658691228
  - # 7
    frequency:    5.7585451879
  - # 8
    frequency:    5.8703880450
  - # 9
    frequency:    7.6582736559
  - # 10
    frequency:    7.6854943104
  - # 11
    frequency:    8.8734845121
  - # 12
    frequency:   12.0865430049
  - # 13
    frequency:   14.7607081804
  - # 14
    frequency:   16.4252903199
  - # 15
    frequency:   16.4451891603

- q-position: [    0.0404040,    0.0000000,    0.0000000 ]
  distance:    0.0141802
  band:
  - # 1
    frequency:    0.2095519926
  - # 2
    frequency:    0.6116062679
  - # 3
    frequency:    0.9832556938
  - # 4
    frequency:    3.2465978893
  - # 5
    frequency:    3.3393301296
  - # 6
    frequency:    5.0473161415
  - # 7
    frequency:    5.7605430159
  - # 8
    frequency:    5.9017564620
  - # 9
    frequency:    7.6519898401
  - # 10
    frequency:    7.6872450443
  - # 11
    frequency:    8.8714420406
  - # 12
    frequency:   12.0653736834
  - # 13
    frequency:   14.7572037899
  - # 14
    frequency:   16.4189648670
  - # 15
    frequency:   16.4446897689

- q-position: [    0.0454545,    0.0000000,    0.0000000 ]
  distance:    0.0159527
  band:
  - # 1
    frequency:    0.2464326947
  - # 2
    frequency:    0.6862169713
  - # 3
    frequency:    1.1031364200
  - # 4
    frequency:    3.2550389310
  - # 5
    frequency:    3.3708858092
  - # 6
    frequency:    5.0280454770
  - # 7
    frequency:    5.7628033417
  - # 8
    frequency:    5.9353728374
  - # 9
    frequency:    7.6449138899
  - # 10
    frequency:    7.6891089043
  - # 11
    frequency:    8.8692130968
  - # 12
    frequency:   12.0415488913
  - # 13
    frequency:   14.7532027571
  - # 14
    frequency:   16.4119590828
  - # 15
    frequency:   16.4441412662

- q-position: [    0.0505051,    0.0000000,    0.0000000 ]
  distance:    0.0177252
  band:
  - # 1
    frequency:    0.2859793422
  - # 2
    frequency:    0.7601958180
  - # 3
    frequency:    1.2219888527
  - # 4
    frequency:    3.2644254777
  - # 5
    frequency:    3.4054336864
  - # 6
    frequency:    5.0083417654
  - # 7
    frequency:    5.7653245536
  - # 8
    frequency:    5.9708899521
  - # 9
    frequency:    7.6370625322
  - # 10
    frequency:    7.6910428000
  - # 11
    frequency:    8.8668283199
  - # 12
    frequency:   12.0151304789
  - # 13
    frequency:   14.7486961565
  - # 14
    frequency:   16.4043298164
  - # 15
    frequency:   16.4435496757

- q-position: [    0.0555556,    0.0000000,    0.0000000 ]
  distance:    0.0194977
  band:
  - # 1
    frequency:    0.3281262068
  - # 2
    frequency:    0.8334822221
  - # 3
    frequency:    1.3397135990
  - # 4
    frequency:    3.2747417355
  - # 5
    frequency:    3.4427816334
  - # 6
    frequency:    4.9884388081
  - # 7
    frequency:    5.7681047582
  - # 8
    frequency:    6.0080065831
  - # 9
    frequency:    7.6284542338
  - # 10
    frequency:    7.6929998177
  - # 11
    frequency:    8.8643209472
  - # 12
    frequency:   11.9861871085
  - # 13
    frequency:   14.7436752160
  - # 14
    frequency:   16.3961381312
  - # 15
    frequency:   16.4429214259

- q-position: [    0.0606061,    0.0000000,    0.0000000 ]
  distance:    0.0212703
  band:
  - # 1
    frequency:    0.3727766898
  - # 2
    frequency:    0.9060185267
  - # 3
    frequency:    1.4562158740
  - # 4
    frequency:    3.2859702804
  - # 5
    frequency:    3.4827362659
  - # 6
    frequency:    4.9685277099
  - # 7
    frequency:    5.7711417502
  - # 8
    frequency:    6.0464601903
  - # 9
    frequency:    7.6191091360
  - # 10
    frequency:    7.6949296765
  - # 11
    frequency:    8.8617264128
  - # 12
    frequency:   11.9547941095
  - # 13
    frequency:   14.7381316904
  - # 14
    frequency:   16.3874485286
  - # 15
    frequency:   16.4422632563

- q-position: [    0.0656566,    0.0000000,    0.0000000 ]
  distance:    0.0230428
  band:
  - # 1
    frequency:    0.4198133250
  - # 2
    frequency:    0.9777502429
  - # 3
    frequency:    1.5714056040
  - # 4
    frequency:    3.2980920709
  - # 5
    frequency:    3.5251054503
  - # 6
    frequency:    4.9487648348
  - # 7
    frequency:    5.7744329795
  - # 8
    frequency:    6.0860198655
  - # 9
    frequency:    7.6090489871
  - # 10
    frequency:    7.6967792500
  - # 11
    frequency:    8.8590818736
  - # 12
    frequency:   11.9210333217
  - # 13
    frequency:   14.7320582570
  - # 14
    frequency:   16.3783281195
  - # 15
    frequency:   16.4415821150

- q-position: [    0.0707071,    0.0000000,    0.0000000 ]
  distance:    0.0248153
  band:
  - # 1
    frequency:    0.4691054608
  - # 2
    frequency:    1.0486262720
  - # 3
    frequency:    1.6851974927
  - # 4
    frequency:    3.3110864624
  - # 5
    frequency:    3.5697002469
  - # 6
    frequency:    4.9292789328
  - # 7
    frequency:    5.7779755164
  - # 8
    frequency:    6.1264801922
  - # 9
    frequency:    7.5982970744
  - # 10
    frequency:    7.6984931574
  - # 11
    frequency:    8.8564256595
  - # 12
    frequency:   11.8849929287
  - # 13
    frequency:   14.7254489255
  - # 14
    frequency:   16.3688457546
  - # 15
    frequency:   16.4408850518

- q-position: [    0.0757576,    0.0000000,    0.0000000 ]
  distance:    0.0265878
  band:
  - # 1
    frequency:    0.5205150431
  - # 2
    frequency:    1.1185991119
  - # 3
    frequency:    1.7975110285
  - # 4
    frequency:    3.3249312257
  - # 5
    frequency:    3.6163363116
  - # 6
    frequency:    4.9101772509
  - # 7
    frequency:    5.7817660144
  - # 8
    frequency:    6.1676562056
  - # 9
    frequency:    7.5868781552
  - # 10
    frequency:    7.7000144249
  - # 11
    frequency:    8.8537966429
  - # 12
    frequency:   11.8467672794
  - # 13
    frequency:   14.7182994526
  - # 14
    frequency:   16.3590711279
  - # 15
    frequency:   16.4401791064

- q-position: [    0.0808081,    0.0000000,    0.0000000 ]
  distance:    0.0283603
  band:
  - # 1
    frequency:    0.5739008750
  - # 2
    frequency:    1.1876250444
  - # 3
    frequency:    1.9082704239
  - # 4
    frequency:    3.3396025703
  - # 5
    frequency:    3.6648347971
  - # 6
    frequency:    4.8915506735
  - # 7
    frequency:    5.7858006727
  - # 8
    frequency:    6.2093794136
  - # 9
    frequency:    7.5748183885
  - # 10
    frequency:    7.7012852155
  - # 11
    frequency:    8.8512335283
  - # 12
    frequency:   11.8064567008
  - # 13
    frequency:   14.7106077531
  - # 14
    frequency:   16.3490738669
  - # 15
    frequency:   16.4394711923

- q-position: [    0.0858586,    0.0000000,    0.0000000 ]
  distance:    0.0301329
  band:
  - # 1
    frequency:    0.6291216837
  - # 2
    frequency:    1.2556643015
  - # 3
    frequency:    2.0174044771
  - # 4
    frequency:    3.3550751739
  - # 5
    frequency:    3.7150227991
  - # 6
    frequency:    4.8734780356
  - # 7
    frequency:    5.7900751976
  - # 8
    frequency:    6.2514947468
  - # 9
    frequency:    7.5621452671
  - # 10
    frequency:    7.7022476255
  - # 11
    frequency:    8.8487740654
  - # 12
    frequency:   11.7641672990
  - # 13
    frequency:   14.7023742941
  - # 14
    frequency:   16.3389226262
  - # 15
    frequency:   16.4387679791

- q-position: [    0.0909091,    0.0000000,    0.0000000 ]
  distance:    0.0319054
  band:
  - # 1
    frequency:    0.6860382606
  - # 2
    frequency:    1.3226812110
  - # 3
    frequency:    2.1248463505
  - # 4
    frequency:    3.3713222189
  - # 5
    frequency:    3.7667333920
  - # 6
    frequency:    4.8560297839
  - # 7
    frequency:    5.7945847649
  - # 8
    frequency:    6.2938582812
  - # 9
    frequency:    7.5488875506
  - # 10
    frequency:    7.7028445390
  - # 11
    frequency:    8.8464541931
  - # 12
    frequency:   11.7200107511
  - # 13
    frequency:   14.6936024623
  - # 14
    frequency:   16.3286842023
  - # 15
    frequency:   16.4380757725

- q-position: [    0.0959596,    0.0000000,    0.0000000 ]
  distance:    0.0336779
  band:
  - # 1
    frequency:    0.7445148942
  - # 2
    frequency:    1.3886443176
  - # 3
    frequency:    2.2305332611
  - # 4
    frequency:    3.3883154384
  - # 5
    frequency:    3.8198052796
  - # 6
    frequency:    4.8392711722
  - # 7
    frequency:    5.7993239829
  - # 8
    frequency:    6.3363355803
  - # 9
    frequency:    7.5350751998
  - # 10
    frequency:    7.7030205308
  - # 11
    frequency:    8.8443071266
  - # 12
    frequency:   11.6741040849
  - # 13
    frequency:   14.6842988904
  - # 14
    frequency:   16.3184226861
  - # 15
    frequency:   16.4374003958

- q-position: [    0.1010101,    0.0000000,    0.0000000 ]
  distance:    0.0354504
  band:
  - # 1
    frequency:    0.8044202679
  - # 2
    frequency:    1.4535264790
  - # 3
    frequency:    2.3344060779
  - # 4
    frequency:    3.4060251727
  - # 5
    frequency:    3.8740820618
  - # 6
    frequency:    4.8232651786
  - # 7
    frequency:    5.8042868586
  - # 8
    frequency:    6.3788005234
  - # 9
    frequency:    7.5207393104
  - # 10
    frequency:    7.7027228027
  - # 11
    frequency:    8.8423624062
  - # 12
    frequency:   11.6265694490
  - # 13
    frequency:   14.6744737324
  - # 14
    frequency:   16.3081986730
  - # 15
    frequency:   16.4367470709

- q-position: [    0.1060606,    0.0000000,    0.0000000 ]
  distance:    0.0372230
  band:
  - # 1
    frequency:    0.8656279603
  - # 2
    frequency:    1.5173049347
  - # 3
    frequency:    2.4364088217
  - # 4
    frequency:    3.4244204381
  - # 5
    frequency:    3.9294110760
  - # 6
    frequency:    4.8080753488
  - # 7
    frequency:    5.8094667671
  - # 8
    frequency:    6.4211345039
  - # 9
    frequency:    7.5059120480
  - # 10
    frequency:    7.7019021354
  - # 11
    frequency:    8.8406449306
  - # 12
    frequency:   11.5775338691
  - # 13
    frequency:   14.6641408741
  - # 14
    frequency:   16.2980685443
  - # 15
    frequency:   16.4361203032

- q-position: [    0.1111111,    0.0000000,    0.0000000 ]
  distance:    0.0389955
  band:
  - # 1
    frequency:    0.9280166513
  - # 2
    frequency:    1.5799613468
  - # 3
    frequency:    2.5364880618
  - # 4
    frequency:    3.4434690106
  - # 5
    frequency:    3.9856417003
  - # 6
    frequency:    4.7937688122
  - # 7
    frequency:    5.8148564259
  - # 8
    frequency:    6.4632259045
  - # 9
    frequency:    7.4906265809
  - # 10
    frequency:    7.7005138328
  - # 11
    frequency:    8.8391740016
  - # 12
    frequency:   11.5271289929
  - # 13
    frequency:   14.6533180718
  - # 14
    frequency:   16.2880838390
  - # 15
    frequency:   16.4355237697

- q-position: [    0.1161616,    0.0000000,    0.0000000 ]
  distance:    0.0407680
  band:
  - # 1
    frequency:    0.9914701172
  - # 2
    frequency:    1.6414818100
  - # 3
    frequency:    2.6345922060
  - # 4
    frequency:    3.4631375245
  - # 5
    frequency:    4.0426228936
  - # 6
    frequency:    4.7804198090
  - # 7
    frequency:    5.8204478749
  - # 8
    frequency:    6.5049697678
  - # 9
    frequency:    7.4749170116
  - # 10
    frequency:    7.6985186381
  - # 11
    frequency:    8.8379624137
  - # 12
    frequency:   11.4754908203
  - # 13
    frequency:   14.6420270081
  - # 14
    frequency:   16.2782907253
  - # 15
    frequency:   16.4349602127

- q-position: [    0.1212121,    0.0000000,    0.0000000 ]
  distance:    0.0425405
  band:
  - # 1
    frequency:    1.0558770770
  - # 2
    frequency:    1.7018568309
  - # 3
    frequency:    2.7306706770
  - # 4
    frequency:    3.4833915893
  - # 5
    frequency:    4.1001995398
  - # 6
    frequency:    4.7681142502
  - # 7
    frequency:    5.8262324649
  - # 8
    frequency:    6.5462675970
  - # 9
    frequency:    7.4588183051
  - # 10
    frequency:    7.6958835945
  - # 11
    frequency:    8.8370156210
  - # 12
    frequency:   11.4227594176
  - # 13
    frequency:   14.6302932633
  - # 14
    frequency:   16.2687295843
  - # 15
    frequency:   16.4344313398

- q-position: [    0.1262626,    0.0000000,    0.0000000 ]
  distance:    0.0443130
  band:
  - # 1
    frequency:    1.1211309354
  - # 2
    frequency:    1.7610812741
  - # 3
    frequency:    2.8246729708
  - # 4
    frequency:    3.5041959242
  - # 5
    frequency:    4.1582067916
  - # 6
    frequency:    4.7569561908
  - # 7
    frequency:    5.8322008533
  - # 8
    frequency:    6.5870272314
  - # 9
    frequency:    7.4423662123
  - # 10
    frequency:    7.6925828311
  - # 11
    frequency:    8.8363310153
  - # 12
    frequency:   11.3690786149
  - # 13
    frequency:   14.6181461973
  - # 14
    frequency:   16.2594347116
  - # 15
    frequency:   16.4339377312

- q-position: [    0.1313131,    0.0000000,    0.0000000 ]
  distance:    0.0460856
  band:
  - # 1
    frequency:    1.1871294595
  - # 2
    frequency:    1.8191542761
  - # 3
    frequency:    2.9165475941
  - # 4
    frequency:    3.5255145118
  - # 5
    frequency:    4.2164608664
  - # 6
    frequency:    4.7470778203
  - # 7
    frequency:    5.8383430108
  - # 8
    frequency:    6.6271627482
  - # 9
    frequency:    7.4255971870
  - # 10
    frequency:    7.6885982528
  - # 11
    frequency:    8.8358973497
  - # 12
    frequency:   11.3145956825
  - # 13
    frequency:   14.6056187453
  - # 14
    frequency:   16.2504341394
  - # 15
    frequency:   16.4334787573

- q-position: [    0.1363636,    0.0000000,    0.0000000 ]
  distance:    0.0478581
  band:
  - # 1
    frequency:    1.2537744137
  - # 2
    frequency:    1.8760791253
  - # 3
    frequency:    3.0062408775
  - # 4
    frequency:    3.5473107716
  - # 5
    frequency:    4.2747432457
  - # 6
    frequency:    4.7386560662
  - # 7
    frequency:    5.8446482390
  - # 8
    frequency:    6.6665943519
  - # 9
    frequency:    7.4085482959
  - # 10
    frequency:    7.6839201238
  - # 11
    frequency:    8.8356943332
  - # 12
    frequency:   11.2594609842
  - # 13
    frequency:   14.5927471315
  - # 14
    frequency:   16.2417495781
  - # 15
    frequency:   16.4330525047

- q-position: [    0.1414141,    0.0000000,    0.0000000 ]
  distance:    0.0496306
  band:
  - # 1
    frequency:    1.3209711732
  - # 2
    frequency:    1.9318631083
  - # 3
    frequency:    3.0936956701
  - # 4
    frequency:    3.5695477517
  - # 5
    frequency:    4.3327720113
  - # 6
    frequency:    4.7319421070
  - # 7
    frequency:    5.8511052003
  - # 8
    frequency:    6.7052482136
  - # 9
    frequency:    7.3912571188
  - # 10
    frequency:    7.6785475394
  - # 11
    frequency:    8.8356924225
  - # 12
    frequency:   11.2038276029
  - # 13
    frequency:   14.5795705077
  - # 14
    frequency:   16.2333964727
  - # 15
    frequency:   16.4326557145

- q-position: [    0.1464646,    0.0000000,    0.0000000 ]
  distance:    0.0514031
  band:
  - # 1
    frequency:    1.3886283277
  - # 2
    frequency:    1.9865173239
  - # 3
    frequency:    3.1788499288
  - # 4
    frequency:    3.5921883387
  - # 5
    frequency:    4.3901469841
  - # 6
    frequency:    4.7273171398
  - # 7
    frequency:    5.8577019602
  - # 8
    frequency:    6.7430562314
  - # 9
    frequency:    7.3737616383
  - # 10
    frequency:    7.6724887906
  - # 11
    frequency:    8.8358528237
  - # 12
    frequency:   11.1478509327
  - # 13
    frequency:   14.5661305288
  - # 14
    frequency:   16.2253841656
  - # 15
    frequency:   16.4322837332

- q-position: [    0.1515152,    0.0000000,    0.0000000 ]
  distance:    0.0531757
  band:
  - # 1
    frequency:    1.4566572876
  - # 2
    frequency:    2.0400564657
  - # 3
    frequency:    3.2616352336
  - # 4
    frequency:    3.6151954834
  - # 5
    frequency:    4.4462400564
  - # 6
    frequency:    4.7254030069
  - # 7
    frequency:    5.8644260445
  - # 8
    frequency:    6.7799556799
  - # 9
    frequency:    7.3561001180
  - # 10
    frequency:    7.6657616386
  - # 11
    frequency:    8.8361277149
  - # 12
    frequency:   11.0916882318
  - # 13
    frequency:   14.5524708772
  - # 14
    frequency:   16.2177161544
  - # 15
    frequency:   16.4319304751

- q-position: [    0.1565657,    0.0000000,    0.0000000 ]
  distance:    0.0549482
  band:
  - # 1
    frequency:    1.5249718961
  - # 2
    frequency:    2.0924985730
  - # 3
    frequency:    3.3419752866
  - # 4
    frequency:    3.6385324405
  - # 5
    frequency:    4.4999745765
  - # 6
    frequency:    4.7272837758
  - # 7
    frequency:    5.8712645102
  - # 8
    frequency:    6.8158887249
  - # 9
    frequency:    7.3383109667
  - # 10
    frequency:    7.6583935255
  - # 11
    frequency:    8.8364606893
  - # 12
    frequency:   11.0354981275
  - # 13
    frequency:   14.5386367498
  - # 14
    frequency:   16.2103904326
  - # 15
    frequency:   16.4315884006

- q-position: [    0.1616162,    0.0000000,    0.0000000 ]
  distance:    0.0567207
  band:
  - # 1
    frequency:    1.5934880541
  - # 2
    frequency:    2.1438647555
  - # 3
    frequency:    3.4197845004
  - # 4
    frequency:    3.6621630188
  - # 5
    frequency:    4.5494348135
  - # 6
    frequency:    4.7348971582
  - # 7
    frequency:    5.8782040302
  - # 8
    frequency:    6.8508017732
  - # 9
    frequency:    7.3204325910
  - # 10
    frequency:    7.6504217590
  - # 11
    frequency:    8.8367874143
  - # 12
    frequency:   10.9794400636
  - # 13
    frequency:   14.5246743237
  - # 14
    frequency:   16.2033998969
  - # 15
    frequency:   16.4312485078

- q-position: [    0.1666667,    0.0000000,    0.0000000 ]
  distance:    0.0584932
  band:
  - # 1
    frequency:    1.6621233595
  - # 2
    frequency:    2.1941788897
  - # 3
    frequency:    3.4949668426
  - # 4
    frequency:    3.6860518381
  - # 5
    frequency:    4.5915687172
  - # 6
    frequency:    4.7513323908
  - # 7
    frequency:    5.8852309937
  - # 8
    frequency:    6.8846446306
  - # 9
    frequency:    7.3025032321
  - # 10
    frequency:    7.6418937199
  - # 11
    frequency:    8.8370364962
  - # 12
    frequency:   10.9236736798
  - # 13
    frequency:   14.5106302138
  - # 14
    frequency:   16.1967328076
  - # 15
    frequency:   16.4309003398

- q-position: [    0.1717172,    0.0000000,    0.0000000 ]
  distance:    0.0602657
  band:
  - # 1
    frequency:    1.7307967623
  - # 2
    frequency:    2.2434672944
  - # 3
    frequency:    3.5674152010
  - # 4
    frequency:    3.7101645896
  - # 5
    frequency:    4.6234410413
  - # 6
    frequency:    4.7795772576
  - # 7
    frequency:    5.8923316187
  - # 8
    frequency:    6.9173694359
  - # 9
    frequency:    7.2845607908
  - # 10
    frequency:    7.6328671508
  - # 11
    frequency:    8.8371305378
  - # 12
    frequency:   10.8683581091
  - # 13
    frequency:   14.4965509376
  - # 14
    frequency:   16.1903732864
  - # 15
    frequency:   16.4305320073

- q-position: [    0.1767677,    0.0000000,    0.0000000 ]
  distance:    0.0620383
  band:
  - # 1
    frequency:    1.7994282388
  - # 2
    frequency:    2.2917583838
  - # 3
    frequency:    3.6370116561
  - # 4
    frequency:    3.7344682940
  - # 5
    frequency:    4.6454883194
  - # 6
    frequency:    4.8192623806
  - # 7
    frequency:    5.8994920780
  - # 8
    frequency:    6.9489293362
  - # 9
    frequency:    7.2666426389
  - # 10
    frequency:    7.6234105920
  - # 11
    frequency:    8.8369873740
  - # 12
    frequency:   10.8136511813
  - # 13
    frequency:   14.4824823999
  - # 14
    frequency:   16.1843018363
  - # 15
    frequency:   16.4301302280

- q-position: [    0.1818182,    0.0000000,    0.0000000 ]
  distance:    0.0638108
  band:
  - # 1
    frequency:    1.8679384831
  - # 2
    frequency:    2.3390823043
  - # 3
    frequency:    3.7036291898
  - # 4
    frequency:    3.7589315536
  - # 5
    frequency:    4.6614507870
  - # 6
    frequency:    4.8667271614
  - # 7
    frequency:    5.9066986364
  - # 8
    frequency:    6.9792768614
  - # 9
    frequency:    7.2487854199
  - # 10
    frequency:    7.6136040380
  - # 11
    frequency:    8.8365214687
  - # 12
    frequency:   10.7597085174
  - # 13
    frequency:   14.4684694072
  - # 14
    frequency:   16.1784958724
  - # 15
    frequency:   16.4296803808

- q-position: [    0.1868687,    0.0000000,    0.0000000 ]
  distance:    0.0655833
  band:
  - # 1
    frequency:    1.9362486196
  - # 2
    frequency:    2.3854705574
  - # 3
    frequency:    3.7671354940
  - # 4
    frequency:    3.7835247938
  - # 5
    frequency:    4.6749515591
  - # 6
    frequency:    4.9184364044
  - # 7
    frequency:    5.9139377974
  - # 8
    frequency:    7.0083619553
  - # 9
    frequency:    7.2310248399
  - # 10
    frequency:    7.6035398919
  - # 11
    frequency:    8.8356454607
  - # 12
    frequency:   10.7066825020
  - # 13
    frequency:   14.4545552214
  - # 14
    frequency:   16.1729302505
  - # 15
    frequency:   16.4291665770

- q-position: [    0.1919192,    0.0000000,    0.0000000 ]
  distance:    0.0673558
  band:
  - # 1
    frequency:    2.0042799362
  - # 2
    frequency:    2.4309556110
  - # 3
    frequency:    3.8082204883
  - # 4
    frequency:    3.8273995948
  - # 5
    frequency:    4.6882315036
  - # 6
    frequency:    4.9722384656
  - # 7
    frequency:    5.9211964564
  - # 8
    frequency:    7.0361296225
  - # 9
    frequency:    7.2133954522
  - # 10
    frequency:    7.5933242876
  - # 11
    frequency:    8.8342718398
  - # 12
    frequency:   10.6547211255
  - # 13
    frequency:   14.4407811599
  - # 14
    frequency:   16.1675777845
  - # 15
    frequency:   16.4285717471

- q-position: [    0.1969697,    0.0000000,    0.0000000 ]
  distance:    0.0691283
  band:
  - # 1
    frequency:    2.0719536425
  - # 2
    frequency:    2.4755705036
  - # 3
    frequency:    3.8329933642
  - # 4
    frequency:    3.8843018707
  - # 5
    frequency:    4.7025429958
  - # 6
    frequency:    5.0269611633
  - # 7
    frequency:    5.9284620589
  - # 8
    frequency:    7.0625171686
  - # 9
    frequency:    7.1959304386
  - # 10
    frequency:    7.5830788292
  - # 11
    frequency:    8.8323147396
  - # 12
    frequency:   10.6039666884
  - # 13
    frequency:   14.4271862453
  - # 14
    frequency:   16.1624097448
  - # 15
    frequency:   16.4278777430

- q-position: [    0.2020202,    0.0000000,    0.0000000 ]
  distance:    0.0709009
  band:
  - # 1
    frequency:    2.1391906536
  - # 2
    frequency:    2.5193484439
  - # 3
    frequency:    3.8578205825
  - # 4
    frequency:    3.9377475803
  - # 5
    frequency:    4.7186013400
  - # 6
    frequency:    5.0819465527
  - # 7
    frequency:    5.9357227598
  - # 8
    frequency:    7.0874510627
  - # 9
    frequency:    7.1786613905
  - # 10
    frequency:    7.5729427420
  - # 11
    frequency:    8.8296918230
  - # 12
    frequency:   10.5545543714
  - # 13
    frequency:   14.4138069075
  - # 14
    frequency:   16.1573963318
  - # 15
    frequency:   16.4270654559

- q-position: [    0.2070707,    0.0000000,    0.0000000 ]
  distance:    0.0726734
  band:
  - # 1
    frequency:    2.2059114064
  - # 2
    frequency:    2.5623224091
  - # 3
    frequency:    3.8826818913
  - # 4
    frequency:    3.9876831230
  - # 5
    frequency:    4.7368229732
  - # 6
    frequency:    5.1367962168
  - # 7
    frequency:    5.9429675802
  - # 8
    frequency:    7.1108435643
  - # 9
    frequency:    7.1616180950
  - # 10
    frequency:    7.5630753085
  - # 11
    frequency:    8.8263262357
  - # 12
    frequency:   10.5066106863
  - # 13
    frequency:   14.4006767393
  - # 14
    frequency:   16.1525071205
  - # 15
    frequency:   16.4261149479

- q-position: [    0.2121212,    0.0000000,    0.0000000 ]
  distance:    0.0744459
  band:
  - # 1
    frequency:    2.2720357129