nqpoint: 300    
npath: 3      
segment_nqpoint:
- 100
- 100
- 100
labels:
- [ 'G', 'M' ]
- [ 'M', 'K' ]
- [ 'K', 'G' ]
reciprocal_lattice:
- [   0.30259394,   0.17470269,   0.00000000 ] # a*
- [   0.00000000,   0.34940539,   0.00000000 ] # b*
- [   0.00000000,   0.00000000,   0.03486013 ] # c*
natom: 9      
lattice:
- [     3.304758847908822,     0.000000000000000,     0.000000000000000 ] # a
- [    -1.652379423954411,     2.862005115673960,     0.000000000000000 ] # b
- [     0.000000000000000,     0.000000000000000,    28.686064508275447 ] # c
points:
- symbol: C # 1
  coordinates: [  0.000000000000000,  0.000000000000000,  0.506196849173500 ]
  mass: 12.010700
- symbol: C # 2
  coordinates: [  0.333332985432215,  0.666666983183674,  0.632117476401862 ]
  mass: 12.010700
- symbol: C # 3
  coordinates: [  0.666666984744047,  0.333332985985145,  0.355257762686574 ]
  mass: 12.010700
- symbol: N # 4
  coordinates: [  0.333332985432215,  0.666666983183674,  0.588525779014198 ]
  mass: 14.006700
- symbol: N # 5
  coordinates: [  0.666666984744047,  0.333332985985145,  0.313741189468623 ]
  mass: 14.006700
- symbol: S # 6
  coordinates: [  0.333332985432215,  0.666666983183674,  0.686258810531377 ]
  mass: 32.065000
- symbol: S # 7
  coordinates: [  0.666666984744047,  0.333332985985145,  0.413721674637175 ]
  mass: 32.065000
- symbol: Ti # 8
  coordinates: [  0.333332985432215,  0.666666983183674,  0.467998465904901 ]
  mass: 47.867000
- symbol: Ti # 9
  coordinates: [  0.666666984744047,  0.333332985985145,  0.543768239190093 ]
  mass: 47.867000

phonon:
- q-position: [    0.0000000,    0.0000000,    0.0000000 ]
  distance:    0.0000000
  band:
  - # 1
    frequency:   -0.0000010327
  - # 2
    frequency:    0.0000007759
  - # 3
    frequency:    0.0000010789
  - # 4
    frequency:    0.6785964829
  - # 5
    frequency:    0.6785964829
  - # 6
    frequency:    1.1563104831
  - # 7
    frequency:    1.1563104831
  - # 8
    frequency:    4.6408862351
  - # 9
    frequency:    4.6408862351
  - # 10
    frequency:    5.0861796506
  - # 11
    frequency:    6.5194657613
  - # 12
    frequency:    6.5194657613
  - # 13
    frequency:    8.1425418214
  - # 14
    frequency:    8.1425418214
  - # 15
    frequency:    8.1878011755
  - # 16
    frequency:   11.1064615260
  - # 17
    frequency:   11.1064615260
  - # 18
    frequency:   11.3911622461
  - # 19
    frequency:   14.0881315362
  - # 20
    frequency:   14.0881315362
  - # 21
    frequency:   15.8860667138
  - # 22
    frequency:   16.5023375295
  - # 23
    frequency:   16.5023375295
  - # 24
    frequency:   20.3482967899
  - # 25
    frequency:   27.3082891275
  - # 26
    frequency:   58.0484149202
  - # 27
    frequency:   64.7574050990

- q-position: [    0.0050505,    0.0000000,    0.0000000 ]
  distance:    0.0017647
  band:
  - # 1
    frequency:   -0.0881622106
  - # 2
    frequency:    0.0761213059
  - # 3
    frequency:    0.1431012579
  - # 4
    frequency:    0.6807390585
  - # 5
    frequency:    0.6867560004
  - # 6
    frequency:    1.1572030406
  - # 7
    frequency:    1.1594522030
  - # 8
    frequency:    4.6413861554
  - # 9
    frequency:    4.6421354678
  - # 10
    frequency:    5.0857970839
  - # 11
    frequency:    6.5195405604
  - # 12
    frequency:    6.5206572272
  - # 13
    frequency:    8.1387508881
  - # 14
    frequency:    8.1427690371
  - # 15
    frequency:    8.1917421357
  - # 16
    frequency:   11.1066672896
  - # 17
    frequency:   11.1068811523
  - # 18
    frequency:   11.3907001037
  - # 19
    frequency:   14.0882324057
  - # 20
    frequency:   14.0885061327
  - # 21
    frequency:   15.8860883071
  - # 22
    frequency:   16.5028349786
  - # 23
    frequency:   16.5031210684
  - # 24
    frequency:   20.3482520215
  - # 25
    frequency:   27.3081904958
  - # 26
    frequency:   58.0472803139
  - # 27
    frequency:   64.7573169474

- q-position: [    0.0101010,    0.0000000,    0.0000000 ]
  distance:    0.0035293
  band:
  - # 1
    frequency:   -0.1058079086
  - # 2
    frequency:    0.1519875672
  - # 3
    frequency:    0.2493588464
  - # 4
    frequency:    0.6871490808
  - # 5
    frequency:    0.7104979558
  - # 6
    frequency:    1.1598896399
  - # 7
    frequency:    1.1688633524
  - # 8
    frequency:    4.6428836512
  - # 9
    frequency:    4.6458747031
  - # 10
    frequency:    5.0846551946
  - # 11
    frequency:    6.5197643264
  - # 12
    frequency:    6.5242226820
  - # 13
    frequency:    8.1297909379
  - # 14
    frequency:    8.1434493474
  - # 15
    frequency:    8.2011511838
  - # 16
    frequency:   11.1072838557
  - # 17
    frequency:   11.1081382379
  - # 18
    frequency:   11.3893142311
  - # 19
    frequency:   14.0885348167
  - # 20
    frequency:   14.0896289811
  - # 21
    frequency:   15.8861524035
  - # 22
    frequency:   16.5043237241
  - # 23
    frequency:   16.5054665658
  - # 24
    frequency:   20.3481176315
  - # 25
    frequency:   27.3078947200
  - # 26
    frequency:   58.0438791263
  - # 27
    frequency:   64.7570526741

- q-position: [    0.0151515,    0.0000000,    0.0000000 ]
  distance:    0.0052940
  band:
  - # 1
    frequency:   -0.1144597745
  - # 2
    frequency:    0.2273253264
  - # 3
    frequency:    0.3581133858
  - # 4
    frequency:    0.6977783836
  - # 5
    frequency:    0.7479507159
  - # 6
    frequency:    1.1643982160
  - # 7
    frequency:    1.1845112672
  - # 8
    frequency:    4.6453719540
  - # 9
    frequency:    4.6520786781
  - # 10
    frequency:    5.0827713019
  - # 11
    frequency:    6.5201351702
  - # 12
    frequency:    6.5301354947
  - # 13
    frequency:    8.1186301809
  - # 14
    frequency:    8.1445787517
  - # 15
    frequency:    8.2130571976
  - # 16
    frequency:   11.1083090533
  - # 17
    frequency:   11.1102273945
  - # 18
    frequency:   11.3870063140
  - # 19
    frequency:   14.0890381781
  - # 20
    frequency:   14.0914972664
  - # 21
    frequency:   15.8862569611
  - # 22
    frequency:   16.5067929954
  - # 23
    frequency:   16.5093586945
  - # 24
    frequency:   20.3478933664
  - # 25
    frequency:   27.3074021582
  - # 26
    frequency:   58.0382192390
  - # 27
    frequency:   64.7566128227

- q-position: [    0.0202020,    0.0000000,    0.0000000 ]
  distance:    0.0070587
  band:
  - # 1
    frequency:   -0.1162064543
  - # 2
    frequency:    0.3018222884
  - # 3
    frequency:    0.4677234338
  - # 4
    frequency:    0.7125626785
  - # 5
    frequency:    0.7968009616
  - # 6
    frequency:    1.1707793111
  - # 7
    frequency:    1.2063729370
  - # 8
    frequency:    4.6488398717
  - # 9
    frequency:    4.6607056929
  - # 10
    frequency:    5.0801739171
  - # 11
    frequency:    6.5206499603
  - # 12
    frequency:    6.5383519233
  - # 13
    frequency:    8.1065593214
  - # 14
    frequency:    8.1461506128
  - # 15
    frequency:    8.2261647423
  - # 16
    frequency:   11.1097392748
  - # 17
    frequency:   11.1131396091
  - # 18
    frequency:   11.3837792385
  - # 19
    frequency:   14.0897415036
  - # 20
    frequency:   14.0941063255
  - # 21
    frequency:   15.8863986076
  - # 22
    frequency:   16.5102249548
  - # 23
    frequency:   16.5147720091
  - # 24
    frequency:   20.3475788080
  - # 25
    frequency:   27.3067134077
  - # 26
    frequency:   58.0303137502
  - # 27
    frequency:   64.7559982966

- q-position: [    0.0252525,    0.0000000,    0.0000000 ]
  distance:    0.0088234
  band:
  - # 1
    frequency:   -0.1085914020
  - # 2
    frequency:    0.3751033116
  - # 3
    frequency:    0.5767862316
  - # 4
    frequency:    0.7314436227
  - # 5
    frequency:    0.8548240215
  - # 6
    frequency:    1.1791125211
  - # 7
    frequency:    1.2344829918
  - # 8
    frequency:    4.6532719193
  - # 9
    frequency:    4.6716981621
  - # 10
    frequency:    5.0769022841
  - # 11
    frequency:    6.5213043487
  - # 12
    frequency:    6.5488120336
  - # 13
    frequency:    8.0940634500
  - # 14
    frequency:    8.1481557031
  - # 15
    frequency:    8.2399823608
  - # 16
    frequency:   11.1115694928
  - # 17
    frequency:   11.1168621816
  - # 18
    frequency:   11.3796372176
  - # 19
    frequency:   14.0906434128
  - # 20
    frequency:   14.0974496888
  - # 21
    frequency:   15.8865726856
  - # 22
    frequency:   16.5145948669
  - # 23
    frequency:   16.5216710959
  - # 24
    frequency:   20.3471733800
  - # 25
    frequency:   27.3058293057
  - # 26
    frequency:   58.0201809168
  - # 27
    frequency:   64.7552103555

- q-position: [    0.0303030,    0.0000000,    0.0000000 ]
  distance:    0.0105880
  band:
  - # 1
    frequency:   -0.0855564341
  - # 2
    frequency:    0.4467030458
  - # 3
    frequency:    0.6843012943
  - # 4
    frequency:    0.7543947972
  - # 5
    frequency:    0.9200649449
  - # 6
    frequency:    1.1895164639
  - # 7
    frequency:    1.2690021430
  - # 8
    frequency:    4.6586484984
  - # 9
    frequency:    4.6849832709
  - # 10
    frequency:    5.0730058777
  - # 11
    frequency:    6.5220928064
  - # 12
    frequency:    6.5614408965
  - # 13
    frequency:    8.0813402781
  - # 14
    frequency:    8.1505822688
  - # 15
    frequency:    8.2543045910
  - # 16
    frequency:   11.1137932821
  - # 17
    frequency:   11.1213786080
  - # 18
    frequency:   11.3745859996
  - # 19
    frequency:   14.0917421306
  - # 20
    frequency:   14.1015191372
  - # 21
    frequency:   15.8867733140
  - # 22
    frequency:   16.5198713320
  - # 23
    frequency:   16.5300107848
  - # 24
    frequency:   20.3466763560
  - # 25
    frequency:   27.3047509308
  - # 26
    frequency:   58.0078440754
  - # 27
    frequency:   64.7542506105

- q-position: [    0.0353535,    0.0000000,    0.0000000 ]
  distance:    0.0123527
  band:
  - # 1
    frequency:    0.0222248723
  - # 2
    frequency:    0.5160411804
  - # 3
    frequency:    0.7814422091
  - # 4
    frequency:    0.7894771393
  - # 5
    frequency:    0.9907521549
  - # 6
    frequency:    1.2021631301
  - # 7
    frequency:    1.3103023173
  - # 8
    frequency:    4.6649461227
  - # 9
    frequency:    4.7004736042
  - # 10
    frequency:    5.0685440135
  - # 11
    frequency:    6.5230086683
  - # 12
    frequency:    6.5761499907
  - # 13
    frequency:    8.0684785571
  - # 14
    frequency:    8.1534161112
  - # 15
    frequency:    8.2690338645
  - # 16
    frequency:   11.1164028497
  - # 17
    frequency:   11.1266683663
  - # 18
    frequency:   11.3686331962
  - # 19
    frequency:   14.0930354879
  - # 20
    frequency:   14.1063047731
  - # 21
    frequency:   15.8869934650
  - # 22
    frequency:   16.5260165825
  - # 23
    frequency:   16.5397364222
  - # 24
    frequency:   20.3460868709
  - # 25
    frequency:   27.3034796035
  - # 26
    frequency:   57.9933315401
  - # 27
    frequency:   64.7531210174

- q-position: [    0.0404040,    0.0000000,    0.0000000 ]
  distance:    0.0141174
  band:
  - # 1
    frequency:    0.1103720416
  - # 2
    frequency:    0.5824205187
  - # 3
    frequency:    0.8126564793
  - # 4
    frequency:    0.8917100050
  - # 5
    frequency:    1.0650787061
  - # 6
    frequency:    1.2172973240
  - # 7
    frequency:    1.3590438479
  - # 8
    frequency:    4.6721376834
  - # 9
    frequency:    4.7180675458
  - # 10
    frequency:    5.0635857887
  - # 11
    frequency:    6.5240441890
  - # 12
    frequency:    6.5928387302
  - # 13
    frequency:    8.0555220333
  - # 14
    frequency:    8.1566406859
  - # 15
    frequency:    8.2841169331
  - # 16
    frequency:   11.1193890693
  - # 17
    frequency:   11.1327065339
  - # 18
    frequency:   11.3617888042
  - # 19
    frequency:   14.0945209225
  - # 20
    frequency:   14.1117951030
  - # 21
    frequency:   15.8872250537
  - # 22
    frequency:   16.5329868375
  - # 23
    frequency:   16.5507842063
  - # 24
    frequency:   20.3454039343
  - # 25
    frequency:   27.3020168886
  - # 26
    frequency:   57.9766764802
  - # 27
    frequency:   64.7518238693

- q-position: [    0.0454545,    0.0000000,    0.0000000 ]
  distance:    0.0158821
  band:
  - # 1
    frequency:    0.1680965371
  - # 2
    frequency:    0.6450923100
  - # 3
    frequency:    0.8480715970
  - # 4
    frequency:    0.9906599870
  - # 5
    frequency:    1.1410210282
  - # 6
    frequency:    1.2352607226
  - # 7
    frequency:    1.4161644019
  - # 8
    frequency:    4.6801927519
  - # 9
    frequency:    4.7376491181
  - # 10
    frequency:    5.0582106930
  - # 11
    frequency:    6.5251906059
  - # 12
    frequency:    6.6113960412
  - # 13
    frequency:    8.0424952994
  - # 14
    frequency:    8.1602372186
  - # 15
    frequency:    8.2995194549
  - # 16
    frequency:   11.1227415236
  - # 17
    frequency:   11.1394631021
  - # 18
    frequency:   11.3540660517
  - # 19
    frequency:   14.0961954816
  - # 20
    frequency:   14.1179771311
  - # 21
    frequency:   15.8874590396
  - # 22
    frequency:   16.5407327129
  - # 23
    frequency:   16.5630815847
  - # 24
    frequency:   20.3446264445
  - # 25
    frequency:   27.3003645963
  - # 26
    frequency:   57.9579167763
  - # 27
    frequency:   64.7503617870

- q-position: [    0.0505051,    0.0000000,    0.0000000 ]
  distance:    0.0176467
  band:
  - # 1
    frequency:    0.2218739262
  - # 2
    frequency:    0.7034420687
  - # 3
    frequency:    0.8874806800
  - # 4
    frequency:    1.0863008810
  - # 5
    frequency:    1.2164579379
  - # 6
    frequency:    1.2565163938
  - # 7
    frequency:    1.4826288595
  - # 8
    frequency:    4.6890779119
  - # 9
    frequency:    4.7590866879
  - # 10
    frequency:    5.0525104730
  - # 11
    frequency:    6.5264382125
  - # 12
    frequency:    6.6317019183
  - # 13
    frequency:    8.0294155527
  - # 14
    frequency:    8.1641848364
  - # 15
    frequency:    8.3152147289
  - # 16
    frequency:   11.1264485512
  - # 17
    frequency:   11.1469017314
  - # 18
    frequency:   11.3454828254
  - # 19
    frequency:   14.0980558250
  - # 20
    frequency:   14.1248364605
  - # 21
    frequency:   15.8876855372
  - # 22
    frequency:   16.5491996813
  - # 23
    frequency:   16.5765477153
  - # 24
    frequency:   20.3437532063
  - # 25
    frequency:   27.2985247840
  - # 26
    frequency:   57.9370948574
  - # 27
    frequency:   64.7487377093

- q-position: [    0.0555556,    0.0000000,    0.0000000 ]
  distance:    0.0194114
  band:
  - # 1
    frequency:    0.2749799114
  - # 2
    frequency:    0.7572685913
  - # 3
    frequency:    0.9301486688
  - # 4
    frequency:    1.1788216479
  - # 5
    frequency:    1.2816611254
  - # 6
    frequency:    1.2897650714
  - # 7
    frequency:    1.5588763098
  - # 8
    frequency:    4.6987571174
  - # 9
    frequency:    4.7822294302
  - # 10
    frequency:    5.0465933497
  - # 11
    frequency:    6.5277764387
  - # 12
    frequency:    6.6536289057
  - # 13
    frequency:    8.0162985284
  - # 14
    frequency:    8.1684607144
  - # 15
    frequency:    8.3311783024
  - # 16
    frequency:   11.1304973005
  - # 17
    frequency:   11.1549774333
  - # 18
    frequency:   11.3360641908
  - # 19
    frequency:   14.1000982299
  - # 20
    frequency:   14.1323574001
  - # 21
    frequency:   15.8878939349
  - # 22
    frequency:   16.5583285774
  - # 23
    frequency:   16.5910939866
  - # 24
    frequency:   20.3427829485
  - # 25
    frequency:   27.2964997588
  - # 26
    frequency:   57.9142575188
  - # 27
    frequency:   64.7469548811

- q-position: [    0.0606061,    0.0000000,    0.0000000 ]
  distance:    0.0211761
  band:
  - # 1
    frequency:    0.3285396744
  - # 2
    frequency:    0.8069563423
  - # 3
    frequency:    0.9746687712
  - # 4
    frequency:    1.2683471324
  - # 5
    frequency:    1.3113988464
  - # 6
    frequency:    1.3605613305
  - # 7
    frequency:    1.6443119210
  - # 8
    frequency:    4.7091920691
  - # 9
    frequency:    4.8068992322
  - # 10
    frequency:    5.0405929053
  - # 11
    frequency:    6.5291939390
  - # 12
    frequency:    6.6770434592
  - # 13
    frequency:    8.0031617785
  - # 14
    frequency:    8.1730402364
  - # 15
    frequency:    8.3473852770
  - # 16
    frequency:   11.1348737882
  - # 17
    frequency:   11.1636320668
  - # 18
    frequency:   11.3258471164
  - # 19
    frequency:   14.1023185977
  - # 20
    frequency:   14.1405230764
  - # 21
    frequency:   15.8880730190
  - # 22
    frequency:   16.5680561439
  - # 23
    frequency:   16.6066245998
  - # 24
    frequency:   20.3417143438
  - # 25
    frequency:   27.2942920788
  - # 26
    frequency:   57.8894557230
  - # 27
    frequency:   64.7450168411

- q-position: [    0.0656566,    0.0000000,    0.0000000 ]
  distance:    0.0229408
  band:
  - # 1
    frequency:    0.3830515067
  - # 2
    frequency:    0.8533422402
  - # 3
    frequency:    1.0191990456
  - # 4
    frequency:    1.3464381130
  - # 5
    frequency:    1.3545117706
  - # 6
    frequency:    1.4300226196
  - # 7
    frequency:    1.7373892555
  - # 8
    frequency:    4.7203426038
  - # 9
    frequency:    4.8328727011
  - # 10
    frequency:    5.0346869582
  - # 11
    frequency:    6.5306786881
  - # 12
    frequency:    6.7018071635
  - # 13
    frequency:    7.9900266356
  - # 14
    frequency:    8.1778971678
  - # 15
    frequency:    8.3638089702
  - # 16
    frequency:   11.1395629647
  - # 17
    frequency:   11.1727850679
  - # 18
    frequency:   11.3148899815
  - # 19
    frequency:   14.1047124630
  - # 20
    frequency:   14.1493155457
  - # 21
    frequency:   15.8882111031
  - # 22
    frequency:   16.5783156102
  - # 23
    frequency:   16.6230372066
  - # 24
    frequency:   20.3405460290
  - # 25
    frequency:   27.2919045552
  - # 26
    frequency:   57.8627443832
  - # 27
    frequency:   64.7429274082

- q-position: [    0.0707071,    0.0000000,    0.0000000 ]
  distance:    0.0247054
  band:
  - # 1
    frequency:    0.4387585615
  - # 2
    frequency:    0.8973832330
  - # 3
    frequency:    1.0619871047
  - # 4
    frequency:    1.3872996723
  - # 5
    frequency:    1.4359904902
  - # 6
    frequency:    1.5007342651
  - # 7
    frequency:    1.8362039500
  - # 8
    frequency:    4.7321670908
  - # 9
    frequency:    4.8598398638
  - # 10
    frequency:    5.0291398314
  - # 11
    frequency:    6.5322180811
  - # 12
    frequency:    6.7277777839
  - # 13
    frequency:    7.9769194780
  - # 14
    frequency:    8.1830038410
  - # 15
    frequency:    8.3804203103
  - # 16
    frequency:   11.1445487832
  - # 17
    frequency:   11.1823128152
  - # 18
    frequency:   11.3032934630
  - # 19
    frequency:   14.1072750047
  - # 20
    frequency:   14.1587159073
  - # 21
    frequency:   15.8882961589
  - # 22
    frequency:   16.5890373011
  - # 23
    frequency:   16.6402236021
  - # 24
    frequency:   20.3392766261
  - # 25
    frequency:   27.2893402541
  - # 26
    frequency:   57.8341821323
  - # 27
    frequency:   64.7406906671

- q-position: [    0.0757576,    0.0000000,    0.0000000 ]
  distance:    0.0264701
  band:
  - # 1
    frequency:    0.4957779456
  - # 2
    frequency:    0.9398966676
  - # 3
    frequency:    1.1018444416
  - # 4
    frequency:    1.4341009472
  - # 5
    frequency:    1.5109408171
  - # 6
    frequency:    1.5757033970
  - # 7
    frequency:    1.9390212430
  - # 8
    frequency:    4.7446228298
  - # 9
    frequency:    4.8873027733
  - # 10
    frequency:    5.0244047886
  - # 11
    frequency:    6.5337990402
  - # 12
    frequency:    6.7548101498
  - # 13
    frequency:    7.9638726039
  - # 14
    frequency:    8.1883313495
  - # 15
    frequency:    8.3971876542
  - # 16
    frequency:   11.1498142757
  - # 17
    frequency:   11.1919979153
  - # 18
    frequency:   11.2912515155
  - # 19
    frequency:   14.1100010592
  - # 20
    frequency:   14.1687044137
  - # 21
    frequency:   15.8883159499
  - # 22
    frequency:   16.6001492655
  - # 23
    frequency:   16.6580704670
  - # 24
    frequency:   20.3379047644
  - # 25
    frequency:   27.2866024977
  - # 26
    frequency:   57.8038310782
  - # 27
    frequency:   64.7383109526

- q-position: [    0.0808081,    0.0000000,    0.0000000 ]
  distance:    0.0282348
  band:
  - # 1
    frequency:    0.5541557518
  - # 2
    frequency:    0.9814743270
  - # 3
    frequency:    1.1383276694
  - # 4
    frequency:    1.4864595401
  - # 5
    frequency:    1.5794264961
  - # 6
    frequency:    1.6557205941
  - # 7
    frequency:    2.0444763066
  - # 8
    frequency:    4.7576664445
  - # 9
    frequency:    4.9143087085
  - # 10
    frequency:    5.0213919485
  - # 11
    frequency:    6.5354081246
  - # 12
    frequency:    6.7827568674
  - # 13
    frequency:    7.9509248791
  - # 14
    frequency:    8.1938497510
  - # 15
    frequency:    8.4140768576
  - # 16
    frequency:   11.1553416325
  - # 17
    frequency:   11.2013892541
  - # 18
    frequency:   11.2791915966
  - # 19
    frequency:   14.1128851373
  - # 20
    frequency:   14.1792605782
  - # 21
    frequency:   15.8882581639
  - # 22
    frequency:   16.6115779223
  - # 23
    frequency:   16.6764601550
  - # 24
    frequency:   20.3364291021
  - # 25
    frequency:   27.2836948660
  - # 26
    frequency:   57.7717565468
  - # 27
    frequency:   64.7357928340

- q-position: [    0.0858586,    0.0000000,    0.0000000 ]
  distance:    0.0299995
  band:
  - # 1
    frequency:    0.6138941895
  - # 2
    frequency:    1.0225050874
  - # 3
    frequency:    1.1716101805
  - # 4
    frequency:    1.5435974955
  - # 5
    frequency:    1.6437029721
  - # 6
    frequency:    1.7390793534
  - # 7
    frequency:    2.1515575094
  - # 8
    frequency:    4.7712542677
  - # 9
    frequency:    4.9387754795
  - # 10
    frequency:    5.0221441675
  - # 11
    frequency:    6.5370316441
  - # 12
    frequency:    6.8114688702
  - # 13
    frequency:    7.9381222499
  - # 14
    frequency:    8.1995282768
  - # 15
    frequency:    8.4310515021
  - # 16
    frequency:   11.1611122874
  - # 17
    frequency:   11.2093808736
  - # 18
    frequency:   11.2681960758
  - # 19
    frequency:   14.1159214419
  - # 20
    frequency:   14.1903632771
  - # 21
    frequency:   15.8881105452
  - # 22
    frequency:   16.6232487148
  - # 23
    frequency:   16.6952715195
  - # 24
    frequency:   20.3348483485
  - # 25
    frequency:   27.2806211973
  - # 26
    frequency:   57.7380268135
  - # 27
    frequency:   64.7331410982

- q-position: [    0.0909091,    0.0000000,    0.0000000 ]
  distance:    0.0317641
  band:
  - # 1
    frequency:    0.6749665632
  - # 2
    frequency:    1.0632287323
  - # 3
    frequency:    1.2022023925
  - # 4
    frequency:    1.6045657523
  - # 5
    frequency:    1.7057867561
  - # 6
    frequency:    1.8240818038
  - # 7
    frequency:    2.2595215044
  - # 8
    frequency:    4.7853427131
  - # 9
    frequency:    4.9567055180
  - # 10
    frequency:    5.0306242233
  - # 11
    frequency:    6.5386557747
  - # 12
    frequency:    6.8407958173
  - # 13
    frequency:    7.9255181753
  - # 14
    frequency:    8.2053355458
  - # 15
    frequency:    8.4480732152
  - # 16
    frequency:   11.1671070065
  - # 17
    frequency:   11.2131948303
  - # 18
    frequency:   11.2610196684
  - # 19
    frequency:   14.1191038900
  - # 20
    frequency:   14.2019908462
  - # 21
    frequency:   15.8878610242
  - # 22
    frequency:   16.6350867688
  - # 23
    frequency:   16.7143807734
  - # 24
    frequency:   20.3331612852
  - # 25
    frequency:   27.2773855885
  - # 26
    frequency:   57.7027128269
  - # 27
    frequency:   64.7303607322

- q-position: [    0.0959596,    0.0000000,    0.0000000 ]
  distance:    0.0335288
  band:
  - # 1
    frequency:    0.7373263297
  - # 2
    frequency:    1.1037847282
  - # 3
    frequency:    1.2307016639
  - # 4
    frequency:    1.6684439824
  - # 5
    frequency:    1.7667723181
  - # 6
    frequency:    1.9097962253
  - # 7
    frequency:    2.3678104485
  - # 8
    frequency:    4.7998886304
  - # 9
    frequency:    4.9651502365
  - # 10
    frequency:    5.0497518326
  - # 11
    frequency:    6.5402666747
  - # 12
    frequency:    6.8705863578
  - # 13
    frequency:    7.9131740062
  - # 14
    frequency:    8.2112397812
  - # 15
    frequency:    8.4651020461
  - # 16
    frequency:   11.1733059822
  - # 17
    frequency:   11.2089965143
  - # 18
    frequency:   11.2614744124
  - # 19
    frequency:   14.1224261362
  - # 20
    frequency:   14.2141211712
  - # 21
    frequency:   15.8874978435
  - # 22
    frequency:   16.6470175467
  - # 23
    frequency:   16.7336623745
  - # 24
    frequency:   20.3313667881
  - # 25
    frequency:   27.2739923952
  - # 26
    frequency:   57.6658879234
  - # 27
    frequency:   64.7274569056

- q-position: [    0.1010101,    0.0000000,    0.0000000 ]
  distance:    0.0352935
  band:
  - # 1
    frequency:    0.8009129863
  - # 2
    frequency:    1.1442474095
  - # 3
    frequency:    1.2576501950
  - # 4
    frequency:    1.7344461063
  - # 5
    frequency:    1.8271895365
  - # 6
    frequency:    1.9957551347
  - # 7
    frequency:    2.4759892032
  - # 8
    frequency:    4.8148496396
  - # 9
    frequency:    4.9667863136
  - # 10
    frequency:    5.0768288715
  - # 11
    frequency:    6.5418506019
  - # 12
    frequency:    6.9006882827
  - # 13
    frequency:    7.9011593233
  - # 14
    frequency:    8.2172090281
  - # 15
    frequency:    8.4820968683
  - # 16
    frequency:   11.1796889301
  - # 17
    frequency:   11.1975489744
  - # 18
    frequency:   11.2687756415
  - # 19
    frequency:   14.1258815986
  - # 20
    frequency:   14.2267317700
  - # 21
    frequency:   15.8870096805
  - # 22
    frequency:   16.6589674935
  - # 23
    frequency:   16.7529899305
  - # 24
    frequency:   20.3294638475
  - # 25
    frequency:   27.2704462307
  - # 26
    frequency:   57.6276275375
  - # 27
    frequency:   64.7244349524

- q-position: [    0.1060606,    0.0000000,    0.0000000 ]
  distance:    0.0370581
  band:
  - # 1
    frequency:    0.8656561177
  - # 2
    frequency:    1.1846489384
  - # 3
    frequency:    1.2834853732
  - # 4
    frequency:    1.8019456852
  - # 5
    frequency:    1.8872910600
  - # 6
    frequency:    2.0817054161
  - # 7
    frequency:    2.5837014002
  - # 8
    frequency:    4.8301844426
  - # 9
    frequency:    4.9654478731
  - # 10
    frequency:    5.1080088627
  - # 11
    frequency:    6.5433940281
  - # 12
    frequency:    6.9309485966
  - # 13
    frequency:    7.8895522242
  - # 14
    frequency:    8.2232113697
  - # 15
    frequency:    8.4990157903
  - # 16
    frequency:   11.1822607861
  - # 17
    frequency:   11.1862351897
  - # 18
    frequency:   11.2794944136
  - # 19
    frequency:   14.1294634873
  - # 20
    frequency:   14.2397998687
  - # 21
    frequency:   15.8863857642
  - # 22
    frequency:   16.6708646672
  - # 23
    frequency:   16.7722371134
  - # 24
    frequency:   20.3274515884
  - # 25
    frequency:   27.2667519642
  - # 26
    frequency:   57.5880089073
  - # 27
    frequency:   64.7213003528

- q-position: [    0.1111111,    0.0000000,    0.0000000 ]
  distance:    0.0388228
  band:
  - # 1
    frequency:    0.9314782951
  - # 2
    frequency:    1.2249930157
  - # 3
    frequency:    1.3085406152
  - # 4
    frequency:    1.8704601730
  - # 5
    frequency:    1.9471923231
  - # 6
    frequency:    2.1674926218
  - # 7
    frequency:    2.6906392821
  - # 8
    frequency:    4.8458531104
  - # 9
    frequency:    4.9631537984
  - # 10
    frequency:    5.1412715209
  - # 11
    frequency:    6.5448837525
  - # 12
    frequency:    6.9612135545
  - # 13
    frequency:    7.8784395356
  - # 14
    frequency:    8.2292151403
  - # 15
    frequency:    8.5158165613
  - # 16
    frequency:   11.1649284294
  - # 17
    frequency:   11.1929238287
  - # 18
    frequency:   11.2918154246
  - # 19
    frequency:   14.1331648340
  - # 20
    frequency:   14.2533024693
  - # 21
    frequency:   15.8856159866
  - # 22
    frequency:   16.6826393493
  - # 23
    frequency:   16.7912785783
  - # 24
    frequency:   20.3253292899
  - # 25
    frequency:   27.2629147186
  - # 26
    frequency:   57.5471107770
  - # 27
    frequency:   64.7180587143

- q-position: [    0.1161616,    0.0000000,    0.0000000 ]
  distance:    0.0405875
  band:
  - # 1
    frequency:    0.9982972146
  - # 2
    frequency:    1.2652609056
  - # 3
    frequency:    1.3330667427
  - # 4
    frequency:    1.9396224324
  - # 5
    frequency:    2.0069373302
  - # 6
    frequency:    2.2530107211
  - # 7
    frequency:    2.7965227564
  - # 8
    frequency:    4.8618173429
  - # 9
    frequency:    4.9608411172
  - # 10
    frequency:    5.1756914501
  - # 11
    frequency:    6.5463070110
  - # 12
    frequency:    6.9913287244
  - # 13
    frequency:    7.8679168992
  - # 14
    frequency:    8.2351891333
  - # 15
    frequency:    8.5324569620
  - # 16
    frequency:   11.1462545616
  - # 17
    frequency:   11.1997337487
  - # 18
    frequency:   11.3050190198
  - # 19
    frequency:   14.1369785245
  - # 20
    frequency:   14.2672164102
  - # 21
    frequency:   15.8846910079
  - # 22
    frequency:   16.6942246289
  - # 23
    frequency:   16.8099908758
  - # 24
    frequency:   20.3230964032
  - # 25
    frequency:   27.2589398668
  - # 26
    frequency:   57.5050131000
  - # 27
    frequency:   64.7147157536

- q-position: [    0.1212121,    0.0000000,    0.0000000 ]
  distance:    0.0423522
  band:
  - # 1
    frequency:    1.0660273054
  - # 2
    frequency:    1.3054071449
  - # 3
    frequency:    1.3572630322
  - # 4
    frequency:    2.0091529949
  - # 5
    frequency:    2.0665312074
  - # 6
    frequency:    2.3381794149
  - # 7
    frequency:    2.9010844150
  - # 8
    frequency:    4.8780407009
  - # 9
    frequency:    4.9590175777
  - # 10
    frequency:    5.2107878938