nqpoint: 300    
npath: 3      
segment_nqpoint:
- 100
- 100
- 100
labels:
- [ 'G', 'M' ]
- [ 'M', 'K' ]
- [ 'K', 'G' ]
reciprocal_lattice:
- [   0.27917686,   0.16118284,  -0.00000000 ] # a*
- [   0.00000000,   0.32236567,  -0.00000000 ] # b*
- [   0.00000000,   0.00000000,   0.03680887 ] # c*
natom: 5      
lattice:
- [     3.581958736460091,     0.000000000000000,     0.000000000000000 ] # a
- [    -1.790979368230045,     3.102067261086180,     0.000000000000000 ] # b
- [     0.000000000000002,     0.000000000000003,    27.167362099400922 ] # c
points:
- symbol: C # 1
  coordinates: [  0.000000000000000,  0.000000000000000,  0.498114760669771 ]
  mass: 12.010700
- symbol: F # 2
  coordinates: [  0.333332985432215,  0.666666983183674,  0.591595365007660 ]
  mass: 18.998403
- symbol: H # 3
  coordinates: [  0.666666984744048,  0.333332985985145,  0.408165661666909 ]
  mass: 1.007940
- symbol: Y # 4
  coordinates: [  0.333332985432215,  0.666666983183674,  0.447874579854390 ]
  mass: 88.905850
- symbol: Y # 5
  coordinates: [  0.666666984744048,  0.333332985985145,  0.548682698632059 ]
  mass: 88.905850

phonon:
- q-position: [    0.0000000,    0.0000000,    0.0000000 ]
  distance:    0.0000000
  band:
  - # 1
    frequency:   -0.0000092583
  - # 2
    frequency:   -0.0000001980
  - # 3
    frequency:    0.0000116905
  - # 4
    frequency:    3.7464264097
  - # 5
    frequency:    3.7464264097
  - # 6
    frequency:    6.4092274861
  - # 7
    frequency:    6.6002178306
  - # 8
    frequency:    6.6002178306
  - # 9
    frequency:   10.1009212956
  - # 10
    frequency:   10.1009212957
  - # 11
    frequency:   10.1061090442
  - # 12
    frequency:   17.3100998367
  - # 13
    frequency:   25.0016268522
  - # 14
    frequency:   25.0016268522
  - # 15
    frequency:   25.2567704818

- q-position: [    0.0050505,    0.0000000,    0.0000000 ]
  distance:    0.0016281
  band:
  - # 1
    frequency:    0.0007073679
  - # 2
    frequency:    0.0646946548
  - # 3
    frequency:    0.1067164025
  - # 4
    frequency:    3.7463668095
  - # 5
    frequency:    3.7473334883
  - # 6
    frequency:    6.4089826897
  - # 7
    frequency:    6.5999886828
  - # 8
    frequency:    6.6025210261
  - # 9
    frequency:   10.0838623262
  - # 10
    frequency:   10.1006726952
  - # 11
    frequency:   10.1286948471
  - # 12
    frequency:   17.3082640565
  - # 13
    frequency:   24.9992000424
  - # 14
    frequency:   25.0013116490
  - # 15
    frequency:   25.2593724503

- q-position: [    0.0101010,    0.0000000,    0.0000000 ]
  distance:    0.0032562
  band:
  - # 1
    frequency:    0.0053626495
  - # 2
    frequency:    0.1293555954
  - # 3
    frequency:    0.2134074159
  - # 4
    frequency:    3.7461885382
  - # 5
    frequency:    3.7500517983
  - # 6
    frequency:    6.4082520044
  - # 7
    frequency:    6.5993024899
  - # 8
    frequency:    6.6093413393
  - # 9
    frequency:   10.0683720257
  - # 10
    frequency:   10.0999282553
  - # 11
    frequency:   10.1607597814
  - # 12
    frequency:   17.3027624575
  - # 13
    frequency:   24.9921470747
  - # 14
    frequency:   25.0003670039
  - # 15
    frequency:   25.2669512573

- q-position: [    0.0151515,    0.0000000,    0.0000000 ]
  distance:    0.0048843
  band:
  - # 1
    frequency:    0.0123830325
  - # 2
    frequency:    0.1939491264
  - # 3
    frequency:    0.3200656738
  - # 4
    frequency:    3.7458931815
  - # 5
    frequency:    3.7545725569
  - # 6
    frequency:    6.4070449974
  - # 7
    frequency:    6.5981629988
  - # 8
    frequency:    6.6204183996
  - # 9
    frequency:   10.0553463572
  - # 10
    frequency:   10.0986920544
  - # 11
    frequency:   10.2013873695
  - # 12
    frequency:   17.2936122469
  - # 13
    frequency:   24.9810406430
  - # 14
    frequency:   24.9987958074
  - # 15
    frequency:   25.2789352839

- q-position: [    0.0202020,    0.0000000,    0.0000000 ]
  distance:    0.0065124
  band:
  - # 1
    frequency:    0.0221217253
  - # 2
    frequency:    0.2584415930
  - # 3
    frequency:    0.4266731164
  - # 4
    frequency:    3.7454833784
  - # 5
    frequency:    3.7608811171
  - # 6
    frequency:    6.4053735800
  - # 7
    frequency:    6.5965764370
  - # 8
    frequency:    6.6353413757
  - # 9
    frequency:   10.0436845084
  - # 10
    frequency:   10.0969708716
  - # 11
    frequency:   10.2516348755
  - # 12
    frequency:   17.2808420427
  - # 13
    frequency:   24.9665707984
  - # 14
    frequency:   24.9966028673
  - # 15
    frequency:   25.2946362210

- q-position: [    0.0252525,    0.0000000,    0.0000000 ]
  distance:    0.0081405
  band:
  - # 1
    frequency:    0.0345806943
  - # 2
    frequency:    0.3227994020
  - # 3
    frequency:    0.5332132755
  - # 4
    frequency:    3.7449628152
  - # 5
    frequency:    3.7689569885
  - # 6
    frequency:    6.4032487025
  - # 7
    frequency:    6.5945514867
  - # 8
    frequency:    6.6535788993
  - # 9
    frequency:   10.0325519278
  - # 10
    frequency:   10.0947741582
  - # 11
    frequency:   10.3122574635
  - # 12
    frequency:   17.2644917864
  - # 13
    frequency:   24.9493639084
  - # 14
    frequency:   24.9937948945
  - # 15
    frequency:   25.3134300351

- q-position: [    0.0303030,    0.0000000,    0.0000000 ]
  distance:    0.0097687
  band:
  - # 1
    frequency:    0.0497325356
  - # 2
    frequency:    0.3869890453
  - # 3
    frequency:    0.6396703723
  - # 4
    frequency:    3.7443362175
  - # 5
    frequency:    3.7787739230
  - # 6
    frequency:    6.4006786107
  - # 7
    frequency:    6.5920992487
  - # 8
    frequency:    6.6745142814
  - # 9
    frequency:   10.0213631034
  - # 10
    frequency:   10.0921139991
  - # 11
    frequency:   10.3837098284
  - # 12
    frequency:   17.2446126271
  - # 13
    frequency:   24.9299071178
  - # 14
    frequency:   24.9903804829
  - # 15
    frequency:   25.3348323997

- q-position: [    0.0353535,    0.0000000,    0.0000000 ]
  distance:    0.0113968
  band:
  - # 1
    frequency:    0.0675378210
  - # 2
    frequency:    0.4509771254
  - # 3
    frequency:    0.7460290520
  - # 4
    frequency:    3.7436093404
  - # 5
    frequency:    3.7903001024
  - # 6
    frequency:    6.3976686498
  - # 7
    frequency:    6.5892331953
  - # 8
    frequency:    6.6974827830
  - # 9
    frequency:   10.0097236453
  - # 10
    frequency:   10.0890050622
  - # 11
    frequency:   10.4661877768
  - # 12
    frequency:   17.2212667825
  - # 13
    frequency:   24.9085464573
  - # 14
    frequency:   24.9863700837
  - # 15
    frequency:   25.3585004463

- q-position: [    0.0404040,    0.0000000,    0.0000000 ]
  distance:    0.0130249
  band:
  - # 1
    frequency:    0.0879484095
  - # 2
    frequency:    0.5147303849
  - # 3
    frequency:    0.8522740926
  - # 4
    frequency:    3.7427889577
  - # 5
    frequency:    3.8034984557
  - # 6
    frequency:    6.3942219234
  - # 7
    frequency:    6.5859691113
  - # 8
    frequency:    6.7218081663
  - # 9
    frequency:    9.9973746720
  - # 10
    frequency:   10.0854645366
  - # 11
    frequency:   10.5596689380
  - # 12
    frequency:   17.1945273868
  - # 13
    frequency:   24.8855142568
  - # 14
    frequency:   24.9817759745
  - # 15
    frequency:   25.3842051738

- q-position: [    0.0454545,    0.0000000,    0.0000000 ]
  distance:    0.0146530
  band:
  - # 1
    frequency:    0.1109086050
  - # 2
    frequency:    0.5782157380
  - # 3
    frequency:    0.9583900318
  - # 4
    frequency:    3.7418828494
  - # 5
    frequency:    3.8183271170
  - # 6
    frequency:    6.3903401783
  - # 7
    frequency:    6.5823250252
  - # 8
    frequency:    6.7468359294
  - # 9
    frequency:    9.9841498564
  - # 10
    frequency:   10.0815120594
  - # 11
    frequency:   10.6639442577
  - # 12
    frequency:   17.1644783347
  - # 13
    frequency:   24.8609605168
  - # 14
    frequency:   24.9766122220
  - # 15
    frequency:   25.4117998643

- q-position: [    0.0505051,    0.0000000,    0.0000000 ]
  distance:    0.0162811
  band:
  - # 1
    frequency:    0.1363558989
  - # 2
    frequency:    0.6414003075
  - # 3
    frequency:    1.0643607210
  - # 4
    frequency:    3.7408997892
  - # 5
    frequency:    3.8347400179
  - # 6
    frequency:    6.3860245814
  - # 7
    frequency:    6.5783211273
  - # 8
    frequency:    6.7719609734
  - # 9
    frequency:    9.9699452951
  - # 10
    frequency:   10.0771696317
  - # 11
    frequency:   10.7786416376
  - # 12
    frequency:   17.1312141349
  - # 13
    frequency:   24.8349790387
  - # 14
    frequency:   24.9708946409
  - # 15
    frequency:   25.4411936985

- q-position: [    0.0555556,    0.0000000,    0.0000000 ]
  distance:    0.0179092
  band:
  - # 1
    frequency:    0.1642216688
  - # 2
    frequency:    0.7042514654
  - # 3
    frequency:    1.1701688326
  - # 4
    frequency:    3.7398495320
  - # 5
    frequency:    3.8526875923
  - # 6
    frequency:    6.3812762974
  - # 7
    frequency:    6.5739796764
  - # 8
    frequency:    6.7966481478
  - # 9
    frequency:    9.9546993280
  - # 10
    frequency:   10.0724615223
  - # 11
    frequency:   10.9032454119
  - # 12
    frequency:   17.0948397894
  - # 13
    frequency:   24.8076267911
  - # 14
    frequency:   24.9646407461
  - # 15
    frequency:   25.4723320975

- q-position: [    0.0606061,    0.0000000,    0.0000000 ]
  distance:    0.0195373
  band:
  - # 1
    frequency:    0.1944319195
  - # 2
    frequency:    0.7667368786
  - # 3
    frequency:    1.2757953459
  - # 4
    frequency:    3.7387428010
  - # 5
    frequency:    3.8721175632
  - # 6
    frequency:    6.3760968860
  - # 7
    frequency:    6.5693248941
  - # 8
    frequency:    6.8204450547
  - # 9
    frequency:    9.9383792831
  - # 10
    frequency:   10.0674141607
  - # 11
    frequency:   11.0371147006
  - # 12
    frequency:   17.0554707177
  - # 13
    frequency:   24.7789375370
  - # 14
    frequency:   24.9578697007
  - # 15
    frequency:   25.5051827618

- q-position: [    0.0656566,    0.0000000,    0.0000000 ]
  distance:    0.0211654
  band:
  - # 1
    frequency:    0.2269080679
  - # 2
    frequency:    0.8288245598
  - # 3
    frequency:    1.3812190372
  - # 4
    frequency:    3.7375912765
  - # 5
    frequency:    3.8929757742
  - # 6
    frequency:    6.3704885735
  - # 7
    frequency:    6.5643828460
  - # 8
    frequency:    6.8429874339
  - # 9
    frequency:    9.9209728015
  - # 10
    frequency:   10.0620560182
  - # 11
    frequency:   11.1795022587
  - # 12
    frequency:   17.0132327506
  - # 13
    frequency:   24.7489311933
  - # 14
    frequency:   24.9506022587
  - # 15
    frequency:   25.5397259387

- q-position: [    0.0707071,    0.0000000,    0.0000000 ]
  distance:    0.0227935
  band:
  - # 1
    frequency:    0.2615677531
  - # 2
    frequency:    0.8904829237
  - # 3
    frequency:    1.4864159902
  - # 4
    frequency:    3.7364075843
  - # 5
    frequency:    3.9152070310
  - # 6
    frequency:    6.3644544451
  - # 7
    frequency:    6.5591813111
  - # 8
    frequency:    6.8639981979
  - # 9
    frequency:    9.9024821288
  - # 10
    frequency:   10.0564174784
  - # 11
    frequency:   11.3295741698
  - # 12
    frequency:   16.9682622228
  - # 13
    frequency:   24.7176201787
  - # 14
    frequency:   24.9428607034
  - # 15
    frequency:   25.5759476629

- q-position: [    0.0757576,    0.0000000,    0.0000000 ]
  distance:    0.0244216
  band:
  - # 1
    frequency:    0.2983256433
  - # 2
    frequency:    0.9516808495
  - # 3
    frequency:    1.5913591412
  - # 4
    frequency:    3.7352052869
  - # 5
    frequency:    3.9387559208
  - # 6
    frequency:    6.3579985956
  - # 7
    frequency:    6.5537496367
  - # 8
    frequency:    6.8832816255
  - # 9
    frequency:    9.8829203136
  - # 10
    frequency:   10.0505306964
  - # 11
    frequency:   11.4864299026
  - # 12
    frequency:   16.9207062027
  - # 13
    frequency:   24.6850136838
  - # 14
    frequency:   24.9346687803
  - # 15
    frequency:   25.6138350415

- q-position: [    0.0808081,    0.0000000,    0.0000000 ]
  distance:    0.0260498
  band:
  - # 1
    frequency:    0.3370942124
  - # 2
    frequency:    1.0123877481
  - # 3
    frequency:    1.6960178665
  - # 4
    frequency:    3.7339988743
  - # 5
    frequency:    3.9635675838
  - # 6
    frequency:    6.3511262583
  - # 7
    frequency:    6.5481185816
  - # 8
    frequency:    6.9007143571
  - # 9
    frequency:    9.8623086354
  - # 10
    frequency:   10.0444294468
  - # 11
    frequency:   11.6491218539
  - # 12
    frequency:   16.8707229084
  - # 13
    frequency:   24.6511205144
  - # 14
    frequency:   24.9260516265
  - # 15
    frequency:   25.6533729350

- q-position: [    0.0858586,    0.0000000,    0.0000000 ]
  distance:    0.0276779
  band:
  - # 1
    frequency:    0.3777844650
  - # 2
    frequency:    1.0725736363
  - # 3
    frequency:    1.8003576128
  - # 4
    frequency:    3.7328037569
  - # 5
    frequency:    3.9895884204
  - # 6
    frequency:    6.3438439250
  - # 7
    frequency:    6.5423201463
  - # 8
    frequency:    6.9162347111
  - # 9
    frequency:    9.8406748318
  - # 10
    frequency:   10.0381489618
  - # 11
    frequency:   11.8166734446
  - # 12
    frequency:   16.8184823720
  - # 13
    frequency:   24.6159509574
  - # 14
    frequency:   24.9170356950
  - # 15
    frequency:   25.6945415933

- q-position: [    0.0909091,    0.0000000,    0.0000000 ]
  distance:    0.0293060
  band:
  - # 1
    frequency:    0.4203065941
  - # 2
    frequency:    1.1322092159
  - # 3
    frequency:    1.9043395726
  - # 4
    frequency:    3.7316362585
  - # 5
    frequency:    4.0167667202
  - # 6
    frequency:    6.3361594648
  - # 7
    frequency:    6.5363873896
  - # 8
    frequency:    6.9298315640
  - # 9
    frequency:    9.8180518481
  - # 10
    frequency:   10.0317257596
  - # 11
    frequency:   11.9880949778
  - # 12
    frequency:   16.7641674358
  - # 13
    frequency:   24.5795179747
  - # 14
    frequency:   24.9076486756
  - # 15
    frequency:   25.7373149496

- q-position: [    0.0959596,    0.0000000,    0.0000000 ]
  distance:    0.0309341
  band:
  - # 1
    frequency:    0.4645705618
  - # 2
    frequency:    1.1912659586
  - # 3
    frequency:    2.0079204012
  - # 4
    frequency:    3.7305136093
  - # 5
    frequency:    4.0450532083
  - # 6
    frequency:    6.3280822421
  - # 7
    frequency:    6.5303542351
  - # 8
    frequency:    6.9415336950
  - # 9
    frequency:    9.7944769337
  - # 10
    frequency:   10.0251974621
  - # 11
    frequency:   12.1623966962
  - # 12
    frequency:   16.7079751919
  - # 13
    frequency:   24.5418379332
  - # 14
    frequency:   24.8979194114
  - # 15
    frequency:   25.7816593733

- q-position: [    0.1010101,    0.0000000,    0.0000000 ]
  distance:    0.0325622
  band:
  - # 1
    frequency:    0.5104865984
  - # 2
    frequency:    1.2497161964
  - # 3
    frequency:    2.1110519711
  - # 4
    frequency:    3.7294539391
  - # 5
    frequency:    4.0744015076
  - # 6
    frequency:    6.3196232353
  - # 7
    frequency:    6.5242552651
  - # 8
    frequency:    6.9514001653
  - # 9
    frequency:    9.7699909704
  - # 10
    frequency:   10.0186026050
  - # 11
    frequency:   12.3385986975
  - # 12
    frequency:   16.6501190144
  - # 13
    frequency:   24.5029310146
  - # 14
    frequency:   24.8878778112
  - # 15
    frequency:   25.8275327506

- q-position: [    0.1060606,    0.0000000,    0.0000000 ]
  distance:    0.0341903
  band:
  - # 1
    frequency:    0.5579656202
  - # 2
    frequency:    1.3075332164
  - # 3
    frequency:    2.2136811620
  - # 4
    frequency:    3.7284762672
  - # 5
    frequency:    4.1047685171
  - # 6
    frequency:    6.3107951562
  - # 7
    frequency:    6.5181255050
  - # 8
    frequency:    6.9595120243
  - # 9
    frequency:    9.7446379554
  - # 10
    frequency:   10.0119804398
  - # 11
    frequency:   12.5157375262
  - # 12
    frequency:   16.5908313888
  - # 13
    frequency:   24.4628214049
  - # 14
    frequency:   24.8775547595
  - # 15
    frequency:   25.8748838076

- q-position: [    0.1111111,    0.0000000,    0.0000000 ]
  distance:    0.0358184
  band:
  - # 1
    frequency:    0.6069195695
  - # 2
    frequency:    1.3646913604
  - # 3
    frequency:    2.3157496834
  - # 4
    frequency:    3.7276004902
  - # 5
    frequency:    4.1361147102
  - # 6
    frequency:    6.3016125670
  - # 7
    frequency:    6.5120001989
  - # 8
    frequency:    6.9659654267
  - # 9
    frequency:    9.7184645910
  - # 10
    frequency:   10.0053707275
  - # 11
    frequency:   12.6928693399
  - # 12
    frequency:   16.5303678202
  - # 13
    frequency:   24.4215373301
  - # 14
    frequency:   24.8669820215
  - # 15
    frequency:   25.9236516206

- q-position: [    0.1161616,    0.0000000,    0.0000000 ]
  distance:    0.0374465
  band:
  - # 1
    frequency:    0.6572616822
  - # 2
    frequency:    1.4211661284
  - # 3
    frequency:    2.4171939274
  - # 4
    frequency:    3.7268473643
  - # 5
    frequency:    4.1684043547
  - # 6
    frequency:    6.2920919947
  - # 7
    frequency:    6.5059145782
  - # 8
    frequency:    6.9708661065
  - # 9
    frequency:    9.6915199450
  - # 10
    frequency:    9.9988135280
  - # 11
    frequency:   12.8690695274
  - # 12
    frequency:   16.4690122099
  - # 13
    frequency:   24.3791109883
  - # 14
    frequency:   24.8561921464
  - # 15
    frequency:   25.9737652826

- q-position: [    0.1212121,    0.0000000,    0.0000000 ]
  distance:    0.0390746
  band:
  - # 1
    frequency:    0.7089066908
  - # 2
    frequency:    1.4769342842
  - # 3
    frequency:    2.5179448551
  - # 4
    frequency:    3.7262384809
  - # 5
    frequency:    4.2016056565
  - # 6
    frequency:    6.2822520415
  - # 7
    frequency:    6.4999036245
  - # 8
    frequency:    6.9743250747
  - # 9
    frequency:    9.6638551590
  - # 10
    frequency:    9.9923489834
  - # 11
    frequency:   13.0434285441
  - # 12
    frequency:   16.4070842385
  - # 13
    frequency:   24.3355784098
  - # 14
    frequency:   24.8452183659
  - # 15
    frequency:   26.0251437072

- q-position: [    0.1262626,    0.0000000,    0.0000000 ]
  distance:    0.0407027
  band:
  - # 1
    frequency:    0.7617709698
  - # 2
    frequency:    1.5319739649
  - # 3
    frequency:    2.6179279183
  - # 4
    frequency:    3.7257962332
  - # 5
    frequency:    4.2356908270
  - # 6
    frequency:    6.2721134895
  - # 7
    frequency:    6.4940018298
  - # 8
    frequency:    6.9764553702
  - # 9
    frequency:    9.6355231888
  - # 10
    frequency:    9.9860170977
  - # 11
    frequency:   13.2150435268
  - # 12
    frequency:   16.3449495034
  - # 13
    frequency:   24.2909792699
  - # 14
    frequency:   24.8340944918
  - # 15
    frequency:   26.0776955622

- q-position: [    0.1313131,    0.0000000,    0.0000000 ]
  distance:    0.0423308
  band:
  - # 1
    frequency:    0.8157726321
  - # 2
    frequency:    1.5862647896
  - # 3
    frequency:    2.7170630239
  - # 4
    frequency:    3.7255437713
  - # 5
    frequency:    4.2706360674
  - # 6
    frequency:    6.2616994001
  - # 7
    frequency:    6.4882429558
  - # 8
    frequency:    6.9773696865
  - # 9
    frequency:    9.6065785654
  - # 10
    frequency:    9.9798575152
  - # 11
    frequency:   13.3830049502
  - # 12
    frequency:   16.2830334271
  - # 13
    frequency:   24.2453566697
  - # 14
    frequency:   24.8228548091
  - # 15
    frequency:   26.1313193314

- q-position: [    0.1363636,    0.0000000,    0.0000000 ]
  distance:    0.0439590
  band:
  - # 1
    frequency:    0.8708315847
  - # 2
    frequency:    1.6397879709
  - # 3
    frequency:    2.8152645528
  - # 4
    frequency:    3.7255049435
  - # 5
    frequency:    4.3064214642
  - # 6
    frequency:    6.2510352086
  - # 7
    frequency:    6.4826597955
  - # 8
    frequency:    6.9771787084
  - # 9
    frequency:    9.5770771683
  - # 10
    frequency:    9.9739092972
  - # 11
    frequency:   13.5463772241
  - # 12
    frequency:   16.2218402890
  - # 13
    frequency:   24.1987568971
  - # 14
    frequency:   24.8115339674
  - # 15
    frequency:   26.1859035068

- q-position: [    0.1414141,    0.0000000,    0.0000000 ]
  distance:    0.0455871
  band:
  - # 1
    frequency:    0.9268695497
  - # 2
    frequency:    1.6925264233
  - # 3
    frequency:    2.9124414484
  - # 4
    frequency:    3.7257042210
  - # 5
    frequency:    4.3430307781
  - # 6
    frequency:    6.2401488144
  - # 7
    frequency:    6.4772839393
  - # 8
    frequency:    6.9759900101
  - # 9
    frequency:    9.5470760059
  - # 10
    frequency:    9.9682107005
  - # 11
    frequency:   13.7041717491
  - # 12
    frequency:   16.1619790693
  - # 13
    frequency:   24.1512291758
  - # 14
    frequency:   24.8001668701
  - # 15
    frequency:   26.2413269141

- q-position: [    0.1464646,    0.0000000,    0.0000000 ]
  distance:    0.0472152
  band:
  - # 1
    frequency:    0.9838100596
  - # 2
    frequency:    1.7444648712
  - # 3
    frequency:    3.0084973961
  - # 4
    frequency:    3.7261666039
  - # 5
    frequency:    4.3804511071
  - # 6
    frequency:    6.2290706706
  - # 7
    frequency:    6.4721455493
  - # 8
    frequency:    6.9739073912
  - # 9
    frequency:    9.5166329985
  - # 10
    frequency:    9.9627989577
  - # 11
    frequency:   13.8553107670
  - # 12
    frequency:   16.1041979426
  - # 13
    frequency:   24.1028254075
  - # 14
    frequency:   24.7887885611
  - # 15
    frequency:   26.2974591750

- q-position: [    0.1515152,    0.0000000,    0.0000000 ]
  distance:    0.0488433
  band:
  - # 1
    frequency:    1.0415784316
  - # 2
    frequency:    1.7955899533
  - # 3
    frequency:    3.1033311220
  - # 4
    frequency:    3.7269175058
  - # 5
    frequency:    4.4186723929
  - # 6
    frequency:    6.2178338760
  - # 7
    frequency:    6.4672731436
  - # 8
    frequency:    6.9710305482
  - # 9
    frequency:    9.4858067621
  - # 10
    frequency:    9.9577100630
  - # 11
    frequency:   13.9985808717
  - # 12
    frequency:   16.0494286897
  - # 13
    frequency:   24.0535999125
  - # 14
    frequency:   24.7774341098
  - # 15
    frequency:   26.3541613075

- q-position: [    0.1565657,    0.0000000,    0.0000000 ]
  distance:    0.0504714
  band:
  - # 1
    frequency:    1.1001017264
  - # 2
    frequency:    1.8458903228
  - # 3
    frequency:    3.1968368461
  - # 4
    frequency:    3.7279826147
  - # 5
    frequency:    4.4576867341
  - # 6
    frequency:    6.2064742765
  - # 7
    frequency:    6.4626933959
  - # 8
    frequency:    6.9674550001
  - # 9
    frequency:    9.4546563906
  - # 10
    frequency:    9.9529785634
  - # 11
    frequency:   14.1325775276
  - # 12
    frequency:   15.9988397941
  - # 13
    frequency:   24.0036091697
  - # 14
    frequency:   24.7661384940
  - # 15
    frequency:   26.4112864653

- q-position: [    0.1616162,    0.0000000,    0.0000000 ]
  distance:    0.0520995
  band:
  - # 1
    frequency:    1.1593086980
  - # 2
    frequency:    1.8953567411
  - # 3
    frequency:    3.2889049290
  - # 4
    frequency:    3.7293877287
  - # 5
    frequency:    4.4974874599
  - # 6
    frequency:    6.1950305816
  - # 7
    frequency:    6.4584309502
  - # 8
    frequency:    6.9632722024
  - # 9
    frequency:    9.4232412359
  - # 10
    frequency:    9.9486373584
  - # 11
    frequency:   14.2556488387
  - # 12
    frequency:   15.9538900615
  - # 13
    frequency:   23.9529115602
  - # 14
    frequency:   24.7549364819
  - # 15
    frequency:   26.4686808097

- q-position: [    0.1666667,    0.0000000,    0.0000000 ]
  distance:    0.0537276
  band:
  - # 1
    frequency:    1.2191297371
  - # 2
    frequency:    1.9439821648
  - # 3
    frequency:    3.3794227602
  - # 4
    frequency:    3.7311585662
  - # 5
    frequency:    4.5380679111
  - # 6
    frequency:    6.1835445076
  - # 7
    frequency:    6.4545082564
  - # 8
    frequency:    6.9585698012
  - # 9
    frequency:    9.3916206859
  - # 10
    frequency:    9.9447175093
  - # 11
    frequency:   14.3658620123
  - # 12
    frequency:   15.9163593906
  - # 13
    frequency:   23.9015671142
  - # 14
    frequency:   24.7438625129
  - # 15
    frequency:   26.5261845102

- q-position: [    0.1717172,    0.0000000,    0.0000000 ]
  distance:    0.0553557
  band:
  - # 1
    frequency:    1.2794968131
  - # 2
    frequency:    1.9917618241
  - # 3
    frequency:    3.4682759356
  - # 4
    frequency:    3.7333205483
  - # 5
    frequency:    4.5794198733
  - # 6
    frequency:    6.1720609580
  - # 7
    frequency:    6.4509454270
  - # 8
    frequency:    6.9534319859
  - # 9
    frequency:    9.3598539400
  - # 10
    frequency:    9.9412480609
  - # 11
    frequency:   14.4610419957
  - # 12
    frequency:   15.8883072705
  - # 13
    frequency:   23.8496372643
  - # 14
    frequency:   24.7329505768
  - # 15
    frequency:   26.5836328609

- q-position: [    0.1767677,    0.0000000,    0.0000000 ]
  distance:    0.0569838
  band:
  - # 1
    frequency:    1.3403434168
  - # 2
    frequency:    2.0386932900
  - # 3
    frequency:    3.5553497665
  - # 4
    frequency:    3.7358985552
  - # 5
    frequency:    4.6215316059
  - # 6
    frequency:    6.1606282572
  - # 7
    frequency:    6.4477601185
  - # 8
    frequency:    6.9479399112
  - # 9
    frequency:    9.3279997835
  - # 10
    frequency:    9.9382558760
  - # 11
    frequency:   14.5389588108
  - # 12
    frequency:   15.8718825257
  - # 13
    frequency:   23.7971846052
  - # 14
    frequency:   24.7222340932
  - # 15
    frequency:   26.6408575002

- q-position: [    0.1818182,    0.0000000,    0.0000000 ]
  distance:    0.0586119
  band:
  - # 1
    frequency:    1.4016045081
  - # 2
    frequency:    2.0847765300
  - # 3
    frequency:    3.6405311541
  - # 4
    frequency:    3.7389166574
  - # 5
    frequency:    4.6643854222
  - # 6
    frequency:    6.1492984530
  - # 7
    frequency:    6.4449674384
  - # 8
    frequency:    6.9421721633
  - # 9
    frequency:    9.2961163626
  - # 10
    frequency:    9.9357654853
  - # 11
    frequency:   14.5977263664
  - # 12
    frequency:   15.8689215668
  - # 13
    frequency:   23.7442726612
  - # 14
    frequency:   24.7117457904
  - # 15
    frequency:   26.6976877153

- q-position: [    0.1868687,    0.0000000,    0.0000000 ]
  distance:    0.0602400
  band:
  - # 1
    frequency:    1.4632164693
  - # 2
    frequency:    2.1300139492
  - # 3
    frequency:    3.7237108351
  - # 4
    frequency:    3.7423978241
  - # 5
    frequency:    4.7079548000
  - # 6
    frequency:    6.1381277098
  - # 7
    frequency:    6.4425798790
  - # 8
    frequency:    6.9362052500
  - # 9
    frequency:    9.2642609607
  - # 10
    frequency:    9.9337989539
  - # 11
    frequency:   14.6363561941
  - # 12
    frequency:   15.8803917362
  - # 13
    frequency:   23.6909656628
  - # 14
    frequency:   24.7015175845
  - # 15
    frequency:   26.7539518135

- q-position: [    0.1919192,    0.0000000,    0.0000000 ]
  distance:    0.0618682
  band:
  - # 1
    frequency:    1.5251170676
  - # 2
    frequency:    2.1744104162
  - # 3
    frequency:    3.7463636113
  - # 4
    frequency:    3.8047859672
  - # 5
    frequency:    4.7522010352
  - # 6
    frequency:    6.1271768136
  - # 7
    frequency:    6.4406072799
  - # 8
    frequency:    6.9301140982
  - # 9
    frequency:    9.2324897774
  - # 10
    frequency:    9.9323757657
  - # 11
    frequency:   14.6552077410
  - # 12
    frequency:   15.9059381440
  - # 13
    frequency:   23.6373283331
  - # 14
    frequency:   24.6915804585
  - # 15
    frequency:   26.8094785369

- q-position: [    0.1969697,    0.0000000,    0.0000000 ]
  distance:    0.0634963
  band:
  - # 1
    frequency:    1.5872454270
  - # 2
    frequency:    2.2179732703
  - # 3
    frequency:    3.7508338353
  - # 4
    frequency:    3.8836629712
  - # 5
    frequency:    4.7970695062
  - # 6
    frequency:    6.1165118135
  - # 7
    frequency:    6.4390568173
  - # 8
    frequency:    6.9239725430
  - # 9
    frequency:    9.2008577147
  - # 10
    frequency:    9.9315127269
  - # 11
    frequency:   14.6560175451
  - # 12
    frequency:   15.9438516961
  - # 13
    frequency:   23.5834256856
  - # 14
    frequency:   24.6819643436
  - # 15
    frequency:   26.8640984978

- q-position: [    0.2020202,    0.0000000,    0.0000000 ]
  distance:    0.0651244
  band:
  - # 1
    frequency:    1.6495420119
  - # 2
    frequency:    2.2607123095
  - # 3
    frequency:    3.7558262364
  - # 4
    frequency:    3.9602604807
  - # 5
    frequency:    4.8424856811
  - # 6
    frequency:    6.1062048227
  - # 7
    frequency:    6.4379330217
  - # 8
    frequency:    6.9178537943
  - # 9
    frequency:    9.1694181699
  - # 10
    frequency:    9.9312238898
  - # 11
    frequency:   14.6414551690
  - # 12
    frequency:   15.9915104635
  - # 13
    frequency:   23.5293228335
  - # 14
    frequency:   24.6726980003
  - # 15
    frequency:   26.9176456125

- q-position: [    0.2070707,    0.0000000,    0.0000000 ]
  distance:    0.0667525
  band:
  - # 1
    frequency:    1.7119486228
  - # 2
    frequency:    2.3026397555
  - # 3
    frequency:    3.7613561387
  - # 4
    frequency:    4.0345121861
  - # 5
    frequency:    4.8883510693
  - # 6
    frequency:    6.0963350013
  - # 7
    frequency:    6.4372378220
  - # 8
    frequency:    6.9118308671
  - # 9
    frequency:    9.1382228389
  - # 10
    frequency:    9.9315204969
  - # 11
    frequency:   14.6144926492
  - # 12
    frequency:   16.0460076574
  - # 13
    frequency:   23.4750848124
  - # 14
    frequency:   24.6638089029
  - # 15
    frequency:   26.9699585074

- q-position: [    0.2121212,    0.0000000,    0.0000000 ]
  distance:    0.0683806
  band:
  - # 1
    frequency:    1.7744084042
  - # 2