nqpoint: 300    
npath: 3      
segment_nqpoint:
- 100
- 100
- 100
labels:
- [ 'G', 'M' ]
- [ 'M', 'K' ]
- [ 'K', 'G' ]
reciprocal_lattice:
- [   0.29376410,   0.16960478,   0.00000000 ] # a*
- [   0.00000000,   0.33920957,   0.00000000 ] # b*
- [   0.00000000,   0.00000000,   0.03846824 ] # c*
natom: 7      
lattice:
- [     3.404091889452991,     0.000000000000000,     0.000000000000000 ] # a
- [    -1.702045944726495,     2.948030053060597,     0.000000000000000 ] # b
- [     0.000000000000000,     0.000000000000000,    25.995469869639312 ] # c
points:
- symbol: C # 1
  coordinates: [  0.333332985432215,  0.666666983183674,  0.607997282064451 ]
  mass: 12.010700
- symbol: F # 2
  coordinates: [  0.666666984744047,  0.333332985985144,  0.346214169050712 ]
  mass: 18.998403
- symbol: N # 3
  coordinates: [  0.000000000000000,  0.000000000000000,  0.433107512440726 ]
  mass: 14.006700
- symbol: N # 4
  coordinates: [  0.333332985432215,  0.666666983183674,  0.653785830949288 ]
  mass: 14.006700
- symbol: S # 5
  coordinates: [  0.333332985432215,  0.666666983183674,  0.543521256263591 ]
  mass: 32.065000
- symbol: Sc # 6
  coordinates: [  0.333332985432215,  0.666666983183674,  0.389384431526594 ]
  mass: 44.955912
- symbol: Sc # 7
  coordinates: [  0.666666984744047,  0.333332985985144,  0.481113116624300 ]
  mass: 44.955912

phonon:
- q-position: [    0.0000000,    0.0000000,    0.0000000 ]
  distance:    0.0000000
  band:
  - # 1
    frequency:   -0.0000228652
  - # 2
    frequency:   -0.0000001932
  - # 3
    frequency:    0.0000267489
  - # 4
    frequency:    1.6910544838
  - # 5
    frequency:    1.6910544839
  - # 6
    frequency:    3.8673183460
  - # 7
    frequency:    3.8673183461
  - # 8
    frequency:    5.3414844310
  - # 9
    frequency:    6.1660463619
  - # 10
    frequency:    6.1660463619
  - # 11
    frequency:    7.5787119299
  - # 12
    frequency:    7.5787119300
  - # 13
    frequency:    9.7222786444
  - # 14
    frequency:   10.3382761651
  - # 15
    frequency:   10.3382761652
  - # 16
    frequency:   11.2788738196
  - # 17
    frequency:   12.0169579276
  - # 18
    frequency:   12.0169579277
  - # 19
    frequency:   13.5415385278
  - # 20
    frequency:   20.5596406006
  - # 21
    frequency:   65.0597110840

- q-position: [    0.0050505,    0.0000000,    0.0000000 ]
  distance:    0.0017132
  band:
  - # 1
    frequency:   -0.0356209489
  - # 2
    frequency:    0.0023748215
  - # 3
    frequency:    0.0228933567
  - # 4
    frequency:    1.6930448213
  - # 5
    frequency:    1.6939661015
  - # 6
    frequency:    3.8674891783
  - # 7
    frequency:    3.8687078360
  - # 8
    frequency:    5.3413772368
  - # 9
    frequency:    6.1652894342
  - # 10
    frequency:    6.1660710966
  - # 11
    frequency:    7.5785740225
  - # 12
    frequency:    7.5786679556
  - # 13
    frequency:    9.7217482615
  - # 14
    frequency:   10.3383259746
  - # 15
    frequency:   10.3383483496
  - # 16
    frequency:   11.2781765452
  - # 17
    frequency:   12.0146041585
  - # 18
    frequency:   12.0169635037
  - # 19
    frequency:   13.5418568386
  - # 20
    frequency:   20.5595878234
  - # 21
    frequency:   65.0596248917

- q-position: [    0.0101010,    0.0000000,    0.0000000 ]
  distance:    0.0034264
  band:
  - # 1
    frequency:   -0.0703681057
  - # 2
    frequency:    0.0095127088
  - # 3
    frequency:    0.0460517632
  - # 4
    frequency:    1.6989868696
  - # 5
    frequency:    1.7026283446
  - # 6
    frequency:    3.8680035735
  - # 7
    frequency:    3.8728667787
  - # 8
    frequency:    5.3410560073
  - # 9
    frequency:    6.1630236506
  - # 10
    frequency:    6.1661438530
  - # 11
    frequency:    7.5781622016
  - # 12
    frequency:    7.5785343046
  - # 13
    frequency:    9.7201576110
  - # 14
    frequency:   10.3384746260
  - # 15
    frequency:   10.3385636890
  - # 16
    frequency:   11.2760864213
  - # 17
    frequency:   12.0075615447
  - # 18
    frequency:   12.0169798310
  - # 19
    frequency:   13.5427986400
  - # 20
    frequency:   20.5594294959
  - # 21
    frequency:   65.0593664347

- q-position: [    0.0151515,    0.0000000,    0.0000000 ]
  distance:    0.0051395
  band:
  - # 1
    frequency:   -0.1034210131
  - # 2
    frequency:    0.0214516689
  - # 3
    frequency:    0.0697219921
  - # 4
    frequency:    1.7087953379
  - # 5
    frequency:    1.7168319278
  - # 6
    frequency:    3.8688672063
  - # 7
    frequency:    3.8797665899
  - # 8
    frequency:    5.3405218294
  - # 9
    frequency:    6.1592638136
  - # 10
    frequency:    6.1662603161
  - # 11
    frequency:    7.5774821478
  - # 12
    frequency:    7.5783058954
  - # 13
    frequency:    9.7175082003
  - # 14
    frequency:   10.3387198026
  - # 15
    frequency:   10.3389185581
  - # 16
    frequency:   11.2726084735
  - # 17
    frequency:   11.9958855276
  - # 18
    frequency:   12.0170057000
  - # 19
    frequency:   13.5443252795
  - # 20
    frequency:   20.5591656293
  - # 21
    frequency:   65.0589360722

- q-position: [    0.0202020,    0.0000000,    0.0000000 ]
  distance:    0.0068527
  band:
  - # 1
    frequency:   -0.1340563603
  - # 2
    frequency:    0.0382441332
  - # 3
    frequency:    0.0941170502
  - # 4
    frequency:    1.7223331943
  - # 5
    frequency:    1.7362543148
  - # 6
    frequency:    3.8700894664
  - # 7
    frequency:    3.8893596229
  - # 8
    frequency:    5.3397766047
  - # 9
    frequency:    6.1540339515
  - # 10
    frequency:    6.1664133843
  - # 11
    frequency:    7.5765432461
  - # 12
    frequency:    7.5779745941
  - # 13
    frequency:    9.7138025845
  - # 14
    frequency:   10.3390576899
  - # 15
    frequency:   10.3394069635
  - # 16
    frequency:   11.2677508376
  - # 17
    frequency:   11.9796664697
  - # 18
    frequency:   12.0170390698
  - # 19
    frequency:   13.5463747182
  - # 20
    frequency:   20.5587962425
  - # 21
    frequency:   65.0583344020

- q-position: [    0.0252525,    0.0000000,    0.0000000 ]
  distance:    0.0085659
  band:
  - # 1
    frequency:   -0.1616744050
  - # 2
    frequency:    0.0599403746
  - # 3
    frequency:    0.1194056893
  - # 4
    frequency:    1.7394186474
  - # 5
    frequency:    1.7604923614
  - # 6
    frequency:    3.8716833567
  - # 7
    frequency:    3.9015791697
  - # 8
    frequency:    5.3388231838
  - # 9
    frequency:    6.1473663887
  - # 10
    frequency:    6.1665933045
  - # 11
    frequency:    7.5753584637
  - # 12
    frequency:    7.5775296958
  - # 13
    frequency:    9.7090444365
  - # 14
    frequency:   10.3394830435
  - # 15
    frequency:   10.3400205977
  - # 16
    frequency:   11.2615243935
  - # 17
    frequency:   11.9590269022
  - # 18
    frequency:   12.0170770318
  - # 19
    frequency:   13.5488648096
  - # 20
    frequency:   20.5583213620
  - # 21
    frequency:   65.0575622597

- q-position: [    0.0303030,    0.0000000,    0.0000000 ]
  distance:    0.0102791
  band:
  - # 1
    frequency:   -0.1858023431
  - # 2
    frequency:    0.0865654989
  - # 3
    frequency:    0.1457076357
  - # 4
    frequency:    1.7598336880
  - # 5
    frequency:    1.7890973475
  - # 6
    frequency:    3.8736653487
  - # 7
    frequency:    3.9163394799
  - # 8
    frequency:    5.3376655510
  - # 9
    frequency:    6.1393005078
  - # 10
    frequency:    6.1667878570
  - # 11
    frequency:    7.5739441788
  - # 12
    frequency:    7.5769585586
  - # 13
    frequency:    9.7032386576
  - # 14
    frequency:   10.3399892841
  - # 15
    frequency:   10.3407488745
  - # 16
    frequency:   11.2539422441
  - # 17
    frequency:   11.9341182261
  - # 18
    frequency:   12.0171157602
  - # 19
    frequency:   13.5516973669
  - # 20
    frequency:   20.5577410210
  - # 21
    frequency:   65.0566207160

- q-position: [    0.0353535,    0.0000000,    0.0000000 ]
  distance:    0.0119923
  band:
  - # 1
    frequency:   -0.2060713446
  - # 2
    frequency:    0.1180932237
  - # 3
    frequency:    0.1730941407
  - # 4
    frequency:    1.7833332902
  - # 5
    frequency:    1.8216066592
  - # 6
    frequency:    3.8760551957
  - # 7
    frequency:    3.9335358102
  - # 8
    frequency:    5.3363090566
  - # 9
    frequency:    6.1298812667
  - # 10
    frequency:    6.1669825897
  - # 11
    frequency:    7.5723199617
  - # 12
    frequency:    7.5762473533
  - # 13
    frequency:    9.6963915361
  - # 14
    frequency:   10.3405686139
  - # 15
    frequency:   10.3415789097
  - # 16
    frequency:   11.2450190236
  - # 17
    frequency:   11.9051173007
  - # 18
    frequency:   12.0171504522
  - # 19
    frequency:   13.5547626175
  - # 20
    frequency:   20.5570552597
  - # 21
    frequency:   65.0555110758

- q-position: [    0.0404040,    0.0000000,    0.0000000 ]
  distance:    0.0137054
  band:
  - # 1
    frequency:   -0.2221666289
  - # 2
    frequency:    0.1544227592
  - # 3
    frequency:    0.2015925967
  - # 4
    frequency:    1.8096544601
  - # 5
    frequency:    1.8575687077
  - # 6
    frequency:    3.8788757022
  - # 7
    frequency:    3.9530445149
  - # 8
    frequency:    5.3347606892
  - # 9
    frequency:    6.1191575409
  - # 10
    frequency:    6.1671610971
  - # 11
    frequency:    7.5705083102
  - # 12
    frequency:    7.5753818901
  - # 13
    frequency:    9.6885109631
  - # 14
    frequency:   10.3412121549
  - # 15
    frequency:   10.3424954019
  - # 16
    frequency:   11.2347700119
  - # 17
    frequency:   11.8722233501
  - # 18
    frequency:   12.0171752593
  - # 19
    frequency:   13.5579436658
  - # 20
    frequency:   20.5562641242
  - # 21
    frequency:   65.0542348743

- q-position: [    0.0454545,    0.0000000,    0.0000000 ]
  distance:    0.0154186
  band:
  - # 1
    frequency:   -0.2337529276
  - # 2
    frequency:    0.1953666256
  - # 3
    frequency:    0.2311936465
  - # 4
    frequency:    1.8385245145
  - # 5
    frequency:    1.8965600378
  - # 6
    frequency:    3.8821524475
  - # 7
    frequency:    3.9747231819
  - # 8
    frequency:    5.3330293807
  - # 9
    frequency:    6.1071803766
  - # 10
    frequency:    6.1673053395
  - # 11
    frequency:    7.5685343400
  - # 12
    frequency:    7.5743484798
  - # 13
    frequency:    9.6796067105
  - # 14
    frequency:   10.3419101050
  - # 15
    frequency:   10.3434803609
  - # 16
    frequency:   11.2232100188
  - # 17
    frequency:   11.8356555692
  - # 18
    frequency:   12.0171832116
  - # 19
    frequency:   13.5611206560
  - # 20
    frequency:   20.5553676655
  - # 21
    frequency:   65.0527938747

- q-position: [    0.0505051,    0.0000000,    0.0000000 ]
  distance:    0.0171318
  band:
  - # 1
    frequency:   -0.2403783163
  - # 2
    frequency:    0.2406546768
  - # 3
    frequency:    0.2618593118
  - # 4
    frequency:    1.8696682078
  - # 5
    frequency:    1.9381952644
  - # 6
    frequency:    3.8859134629
  - # 7
    frequency:    3.9984108118
  - # 8
    frequency:    5.3311263278
  - # 9
    frequency:    6.0940012430
  - # 10
    frequency:    6.1673959984
  - # 11
    frequency:    7.5664254339
  - # 12
    frequency:    7.5731347902
  - # 13
    frequency:    9.6696907728
  - # 14
    frequency:   10.3426519076
  - # 15
    frequency:   10.3445126242
  - # 16
    frequency:   11.2103519759
  - # 17
    frequency:   11.7956517500
  - # 18
    frequency:   12.0171661403
  - # 19
    frequency:   13.5641744189
  - # 20
    frequency:   20.5543659389
  - # 21
    frequency:   65.0511900643

- q-position: [    0.0555556,    0.0000000,    0.0000000 ]
  distance:    0.0188450
  band:
  - # 1
    frequency:   -0.2413514248
  - # 2
    frequency:    0.2899533641
  - # 3
    frequency:    0.2935310144
  - # 4
    frequency:    1.9028135460
  - # 5
    frequency:    1.9821313115
  - # 6
    frequency:    3.8901888609
  - # 7
    frequency:    4.0239280297
  - # 8
    frequency:    5.3290653104
  - # 9
    frequency:    6.0796703833
  - # 10
    frequency:    6.1674128616
  - # 11
    frequency:    7.5642108517
  - # 12
    frequency:    7.5717306611
  - # 13
    frequency:    9.6587777693
  - # 14
    frequency:   10.3434264338
  - # 15
    frequency:   10.3455670948
  - # 16
    frequency:   11.1962051457
  - # 17
    frequency:   11.7524681931
  - # 18
    frequency:   12.0171145985
  - # 19
    frequency:   13.5669894873
  - # 20
    frequency:   20.5532590017
  - # 21
    frequency:   65.0494256503

- q-position: [    0.0606061,    0.0000000,    0.0000000 ]
  distance:    0.0205582
  band:
  - # 1
    frequency:   -0.2355597132
  - # 2
    frequency:    0.3261367653
  - # 3
    frequency:    0.3428933119
  - # 4
    frequency:    1.9376963016
  - # 5
    frequency:    2.0280676082
  - # 6
    frequency:    3.8950104147
  - # 7
    frequency:    4.0510773114
  - # 8
    frequency:    5.3268629752
  - # 9
    frequency:    6.0642353698
  - # 10
    frequency:    6.1673352317
  - # 11
    frequency:    7.5619213060
  - # 12
    frequency:    7.5701288474
  - # 13
    frequency:    9.6468853960
  - # 14
    frequency:   10.3442221705
  - # 15
    frequency:   10.3466136196
  - # 16
    frequency:   11.1807728075
  - # 17
    frequency:   11.7063811484
  - # 18
    frequency:   12.0170177854
  - # 19
    frequency:   13.5694564455
  - # 20
    frequency:   20.5520469114
  - # 21
    frequency:   65.0475030555

- q-position: [    0.0656566,    0.0000000,    0.0000000 ]
  distance:    0.0222713
  band:
  - # 1
    frequency:   -0.2211189751
  - # 2
    frequency:    0.3595971622
  - # 3
    frequency:    0.3990965100
  - # 4
    frequency:    1.9740633565
  - # 5
    frequency:    2.0757436985
  - # 6
    frequency:    3.9004110872
  - # 7
    frequency:    4.0796432021
  - # 8
    frequency:    5.3245390405
  - # 9
    frequency:    6.0477399775
  - # 10
    frequency:    6.1671423510
  - # 11
    frequency:    7.5595885088
  - # 12
    frequency:    7.5683256652
  - # 13
    frequency:    9.6340349142
  - # 14
    frequency:   10.3450274127
  - # 15
    frequency:   10.3476154171
  - # 16
    frequency:   11.1640492177
  - # 17
    frequency:   11.6576900486
  - # 18
    frequency:   12.0168634767
  - # 19
    frequency:   13.5714736459
  - # 20
    frequency:   20.5507297233
  - # 21
    frequency:   65.0454249136

- q-position: [    0.0707071,    0.0000000,    0.0000000 ]
  distance:    0.0239845
  band:
  - # 1
    frequency:   -0.1944634902
  - # 2
    frequency:    0.3938300954
  - # 3
    frequency:    0.4581970246
  - # 4
    frequency:    2.0116750615
  - # 5
    frequency:    2.1249353770
  - # 6
    frequency:    3.9064245114
  - # 7
    frequency:    4.1093925034
  - # 8
    frequency:    5.3221163588
  - # 9
    frequency:    6.0302235055
  - # 10
    frequency:    6.1668138344
  - # 11
    frequency:    7.5572446954
  - # 12
    frequency:    7.5663215200
  - # 13
    frequency:    9.6202516533
  - # 14
    frequency:   10.3458304562
  - # 15
    frequency:   10.3485269319
  - # 16
    frequency:   11.1460155607
  - # 17
    frequency:   11.6067228668
  - # 18
    frequency:   12.0166379633
  - # 19
    frequency:   13.5729483625
  - # 20
    frequency:   20.5493074879
  - # 21
    frequency:   65.0431940631

- q-position: [    0.0757576,    0.0000000,    0.0000000 ]
  distance:    0.0256977
  band:
  - # 1
    frequency:   -0.1468373519
  - # 2
    frequency:    0.4287542342
  - # 3
    frequency:    0.5198532593
  - # 4
    frequency:    2.0503068172
  - # 5
    frequency:    2.1754501147
  - # 6
    frequency:    3.9130844214
  - # 7
    frequency:    4.1400744126
  - # 8
    frequency:    5.3196207472
  - # 9
    frequency:    6.0117206925
  - # 10
    frequency:    6.1663301031
  - # 11
    frequency:    7.5549221319
  - # 12
    frequency:    7.5641213038
  - # 13
    frequency:    9.6055655065
  - # 14
    frequency:   10.3466197853
  - # 15
    frequency:   10.3492909658
  - # 16
    frequency:   11.1266345201
  - # 17
    frequency:   11.5538440304
  - # 18
    frequency:   12.0163260023
  - # 19
    frequency:   13.5737974728
  - # 20
    frequency:   20.5477802469
  - # 21
    frequency:   65.0408135425

- q-position: [    0.0808081,    0.0000000,    0.0000000 ]
  distance:    0.0274109
  band:
  - # 1
    frequency:    0.0244965138
  - # 2
    frequency:    0.4642914469
  - # 3
    frequency:    0.5837528298
  - # 4
    frequency:    2.0897500695
  - # 5
    frequency:    2.2271222426
  - # 6
    frequency:    3.9204240392
  - # 7
    frequency:    4.1714206083
  - # 8
    frequency:    5.3170804601
  - # 9
    frequency:    5.9922623997
  - # 10
    frequency:    6.1656728088
  - # 11
    frequency:    7.5526526163
  - # 12
    frequency:    7.5617346494
  - # 13
    frequency:    9.5900113921
  - # 14
    frequency:   10.3473842555
  - # 15
    frequency:   10.3498348832
  - # 16
    frequency:   11.1058430685
  - # 17
    frequency:   11.4994654018
  - # 18
    frequency:   12.0159107819
  - # 19
    frequency:   13.5739477655
  - # 20
    frequency:   20.5461480303
  - # 21
    frequency:   65.0382865836

- q-position: [    0.0858586,    0.0000000,    0.0000000 ]
  distance:    0.0291241
  band:
  - # 1
    frequency:    0.1715193327
  - # 2
    frequency:    0.5003683436
  - # 3
    frequency:    0.6496123154
  - # 4
    frequency:    2.1298128859
  - # 5
    frequency:    2.2798081445
  - # 6
    frequency:    3.9284754225
  - # 7
    frequency:    4.2031453010
  - # 8
    frequency:    5.3145251283
  - # 9
    frequency:    5.9718772661
  - # 10
    frequency:    6.1648252412
  - # 11
    frequency:    7.5504669807
  - # 12
    frequency:    7.5591760352
  - # 13
    frequency:    9.5736296547
  - # 14
    frequency:   10.3481132640
  - # 15
    frequency:   10.3500656265
  - # 16
    frequency:   11.0835432396
  - # 17
    frequency:   11.4440607326
  - # 18
    frequency:   12.0153739037
  - # 19
    frequency:   13.5733359630
  - # 20
    frequency:   20.5444108521
  - # 21
    frequency:   65.0356166052

- q-position: [    0.0909091,    0.0000000,    0.0000000 ]
  distance:    0.0308372
  band:
  - # 1
    frequency:    0.2562308844
  - # 2
    frequency:    0.5369171242
  - # 3
    frequency:    0.7171740757
  - # 4
    frequency:    2.1703202452
  - # 5
    frequency:    2.3333815468
  - # 6
    frequency:    3.9372687825
  - # 7
    frequency:    4.2349452991
  - # 8
    frequency:    5.3119839258
  - # 9
    frequency:    5.9505945902
  - # 10
    frequency:    6.1637727087
  - # 11
    frequency:    7.5483946051
  - # 12
    frequency:    7.5564647351
  - # 13
    frequency:    9.5564663828
  - # 14
    frequency:   10.3487969092
  - # 15
    frequency:   10.3498632031
  - # 16
    frequency:   11.0595914264
  - # 17
    frequency:   11.3881833013
  - # 18
    frequency:   12.0146953821
  - # 19
    frequency:   13.5719085389
  - # 20
    frequency:   20.5425687062
  - # 21
    frequency:   65.0328072061

- q-position: [    0.0959596,    0.0000000,    0.0000000 ]
  distance:    0.0325504
  band:
  - # 1
    frequency:    0.3317517632
  - # 2
    frequency:    0.5738758974
  - # 3
    frequency:    0.7862017384
  - # 4
    frequency:    2.2111141357
  - # 5
    frequency:    2.3877288909
  - # 6
    frequency:    3.9468317843
  - # 7
    frequency:    4.2665001866
  - # 8
    frequency:    5.3094826432
  - # 9
    frequency:    5.9284487427
  - # 10
    frequency:    6.1625028844
  - # 11
    frequency:    7.5464629532
  - # 12
    frequency:    7.5536246105
  - # 13
    frequency:    9.5385736206
  - # 14
    frequency:   10.3490722351
  - # 15
    frequency:   10.3494261344
  - # 16
    frequency:   11.0337890176
  - # 17
    frequency:   11.3324842550
  - # 18
    frequency:   12.0138536650
  - # 19
    frequency:   13.5696213966
  - # 20
    frequency:   20.5406215625
  - # 21
    frequency:   65.0298621585

- q-position: [    0.1010101,    0.0000000,    0.0000000 ]
  distance:    0.0342636
  band:
  - # 1
    frequency:    0.4041868906
  - # 2
    frequency:    0.6111886068
  - # 3
    frequency:    0.8564753577
  - # 4
    frequency:    2.2520535282
  - # 5
    frequency:    2.4427446935
  - # 6
    frequency:    3.9571888453
  - # 7
    frequency:    4.2974727626
  - # 8
    frequency:    5.3070392505
  - # 9
    frequency:    5.9054854831
  - # 10
    frequency:    6.1610061099
  - # 11
    frequency:    7.5446971396
  - # 12
    frequency:    7.5506837433
  - # 13
    frequency:    9.5200094581
  - # 14
    frequency:   10.3474911459
  - # 15
    frequency:   10.3499928545
  - # 16
    frequency:   11.0058824839
  - # 17
    frequency:   11.2777238950
  - # 18
    frequency:   12.0128256740
  - # 19
    frequency:   13.5664394604
  - # 20
    frequency:   20.5385693625
  - # 21
    frequency:   65.0267853996

- q-position: [    0.1060606,    0.0000000,    0.0000000 ]
  distance:    0.0359768
  band:
  - # 1
    frequency:    0.4756871162
  - # 2
    frequency:    0.6488046764
  - # 3
    frequency:    0.9277867893
  - # 4
    frequency:    2.2930142614
  - # 5
    frequency:    2.4983267447
  - # 6
    frequency:    3.9683604513
  - # 7
    frequency:    4.3275099581
  - # 8
    frequency:    5.3046574400
  - # 9
    frequency:    5.8817706155
  - # 10
    frequency:    6.1592756490
  - # 11
    frequency:    7.5431195379
  - # 12
    frequency:    7.5476739107
  - # 13
    frequency:    9.5008379894
  - # 14
    frequency:   10.3448587051
  - # 15
    frequency:   10.3504900646
  - # 16
    frequency:   10.9755905778
  - # 17
    frequency:   11.2247584548
  - # 18
    frequency:   12.0115868667
  - # 19
    frequency:   13.5623362192
  - # 20
    frequency:   20.5364120155
  - # 21
    frequency:   65.0235810247

- q-position: [    0.1111111,    0.0000000,    0.0000000 ]
  distance:    0.0376900
  band:
  - # 1
    frequency:    0.5472188211
  - # 2
    frequency:    0.6866784623
  - # 3
    frequency:    0.9999355440
  - # 4
    frequency:    2.3338888533
  - # 5
    frequency:    2.5543709455
  - # 6
    frequency:    3.9803625146
  - # 7
    frequency:    4.3562445139
  - # 8
    frequency:    5.3023175768
  - # 9
    frequency:    5.8574014497
  - # 10
    frequency:    6.1573078865
  - # 11
    frequency:    7.5417494400
  - # 12
    frequency:    7.5446299072
  - # 13
    frequency:    9.4811291342
  - # 14
    frequency:   10.3408382188
  - # 15
    frequency:   10.3509119293
  - # 16
    frequency:   10.9426860101
  - # 17
    frequency:   11.1744746515
  - # 18
    frequency:   12.0101113192
  - # 19
    frequency:   13.5572932499
  - # 20
    frequency:   20.5341493954
  - # 21
    frequency:   65.0202532787

- q-position: [    0.1161616,    0.0000000,    0.0000000 ]
  distance:    0.0394031
  band:
  - # 1
    frequency:    0.6192552595
  - # 2
    frequency:    0.7247685769
  - # 3
    frequency:    1.0727252178
  - # 4
    frequency:    2.3745862397
  - # 5
    frequency:    2.6107655355
  - # 6
    frequency:    3.9932057977
  - # 7
    frequency:    4.3832977544
  - # 8
    frequency:    5.2999645385
  - # 9
    frequency:    5.8325214830
  - # 10
    frequency:    6.1551024676
  - # 11
    frequency:    7.5406027723
  - # 12
    frequency:    7.5415887233
  - # 13
    frequency:    9.4609583248
  - # 14
    frequency:   10.3350011125
  - # 15
    frequency:   10.3512538517
  - # 16
    frequency:   10.9071497946
  - # 17
    frequency:   11.1276520085
  - # 18
    frequency:   12.0083718303
  - # 19
    frequency:   13.5512997425
  - # 20
    frequency:   20.5317813375
  - # 21
    frequency:   65.0168065482

- q-position: [    0.1212121,    0.0000000,    0.0000000 ]
  distance:    0.0411163
  band:
  - # 1
    frequency:    0.6920237139
  - # 2
    frequency:    0.7630371378
  - # 3
    frequency:    1.1459605150
  - # 4
    frequency:    2.4150314235
  - # 5
    frequency:    2.6673844031
  - # 6
    frequency:    4.0068954314
  - # 7
    frequency:    4.4082838347
  - # 8
    frequency:    5.2974922415
  - # 9
    frequency:    5.8073384264
  - # 10
    frequency:    6.1526623750
  - # 11
    frequency:    7.5385885972
  - # 12
    frequency:    7.5396918762
  - # 13
    frequency:    9.4404060675
  - # 14
    frequency:   10.3268147693
  - # 15
    frequency:   10.3515125224
  - # 16
    frequency:   10.8693605805
  - # 17
    frequency:   11.0847856981
  - # 18
    frequency:   12.0063400450
  - # 19
    frequency:   13.5443520367
  - # 20
    frequency:   20.5293076365
  - # 21
    frequency:   65.0132453526

- q-position: [    0.1262626,    0.0000000,    0.0000000 ]
  distance:    0.0428295
  band:
  - # 1
    frequency:    0.7656132819
  - # 2
    frequency:    0.8014489809
  - # 3
    frequency:    1.2194448351
  - # 4
    frequency:    2.4551650159
  - # 5
    frequency:    2.7240790974
  - # 6
    frequency:    4.0214305548
  - # 7
    frequency:    4.4308158379
  - # 8
    frequency:    5.2947255134
  - # 9
    frequency:    5.7821449295
  - # 10
    frequency:    6.1499939436
  - # 11
    frequency:    7.5356679657
  - # 12
    frequency:    7.5390253570
  - # 13
    frequency:    9.4195573898
  - # 14
    frequency:   10.3156449674
  - # 15
    frequency:   10.3516859486
  - # 16
    frequency:   10.8302014290
  - # 17
    frequency:   11.0459770418
  - # 18
    frequency:   12.0039865962
  - # 19
    frequency:   13.5364531791
  - # 20
    frequency:   20.5267280453
  - # 21
    frequency:   65.0095743355

- q-position: [    0.1313131,    0.0000000,    0.0000000 ]
  distance:    0.0445427
  band:
  - # 1
    frequency:    0.8399708701
  - # 2
    frequency:    0.8400282535
  - # 3
    frequency:    1.2929783741
  - # 4
    frequency:    2.4949426449
  - # 5
    frequency:    2.7806690619
  - # 6
    frequency:    4.0368041011
  - # 7
    frequency:    4.4505140932
  - # 8
    frequency:    5.2914018042
  - # 9
    frequency:    5.7573396454
  - # 10
    frequency:    6.1471068136
  - # 11
    frequency:    7.5328643501
  - # 12
    frequency:    7.5386080023
  - # 13
    frequency:    9.3985011915
  - # 14
    frequency:   10.3007902530
  - # 15
    frequency:   10.3517734633
  - # 16
    frequency:   10.7909715712
  - # 17
    frequency:   11.0109867336
  - # 18
    frequency:   12.0012812647
  - # 19
    frequency:   13.5276125036
  - # 20
    frequency:   20.5240422748
  - # 21
    frequency:   65.0057982564

- q-position: [    0.1363636,    0.0000000,    0.0000000 ]
  distance:    0.0462559
  band:
  - # 1
    frequency:    0.8785707280
  - # 2
    frequency:    0.9152167670
  - # 3
    frequency:    1.3663566668
  - # 4
    frequency:    2.5343342083
  - # 5
    frequency:    2.8369294881
  - # 6
    frequency:    4.0530027516
  - # 7
    frequency:    4.4670171150
  - # 8
    frequency:    5.2871585566
  - # 9
    frequency:    5.7334430848
  - # 10
    frequency:    6.1440138250
  - # 11
    frequency:    7.5302132240
  - # 12
    frequency:    7.5384407719
  - # 13
    frequency:    9.3773295168
  - # 14
    frequency:   10.2815683616
  - # 15
    frequency:   10.3517757160
  - # 16
    frequency:   10.7531175250
  - # 17
    frequency:   10.9794162417
  - # 18
    frequency:   11.9981931536
  - # 19
    frequency:   13.5178452344
  - # 20
    frequency:   20.5212499951
  - # 21
    frequency:   65.0019219807

- q-position: [    0.1414141,    0.0000000,    0.0000000 ]
  distance:    0.0479690
  band:
  - # 1
    frequency:    0.9172169089
  - # 2
    frequency:    0.9910867295
  - # 3
    frequency:    1.4393694827
  - # 4
    frequency:    2.5733229527
  - # 5
    frequency:    2.8925760354
  - # 6
    frequency:    4.0700070747
  - # 7
    frequency:    4.4799957511
  - # 8
    frequency:    5.2815369088
  - # 9
    frequency:    5.7110978642
  - # 10
    frequency:    6.1407308570
  - # 11
    frequency:    7.5277469218
  - # 12
    frequency:    7.5385208552
  - # 13
    frequency:    9.3561367653
  - # 14
    frequency:   10.2574606096
  - # 15
    frequency:   10.3516946452
  - # 16
    frequency:   10.7179018421
  - # 17
    frequency:   10.9508931565
  - # 18
    frequency:   11.9946908766
  - # 19
    frequency:   13.5071721112
  - # 20
    frequency:   20.5183508376
  - # 21
    frequency:   64.9979504716

- q-position: [    0.1464646,    0.0000000,    0.0000000 ]
  distance:    0.0496822
  band:
  - # 1
    frequency:    0.9558775346
  - # 2
    frequency:    1.0675142720
  - # 3
    frequency:    1.5117999614
  - # 4
    frequency:    2.6119043668
  - # 5
    frequency:    2.9472455068
  - # 6
    frequency:    4.0877918557
  - # 7
    frequency:    4.4891716256
  - # 8
    frequency:    5.2740169494
  - # 9
    frequency:    5.6910381520
  - # 10
    frequency:    6.1372766196
  - # 11
    frequency:    7.5254936540
  - # 12
    frequency:    7.5388417938
  - # 13
    frequency:    9.3350188546
  - # 14
    frequency:   10.2282798428
  - # 15
    frequency:   10.3515334342
  - # 16
    frequency:   10.6861246006
  - # 17
    frequency:   10.9251797604
  - # 18
    frequency:   11.9907427582
  - # 19
    frequency:   13.4956190319
  - # 20
    frequency:   20.5153443992
  - # 21
    frequency:   64.9938887802

- q-position: [    0.1515152,    0.0000000,    0.0000000 ]
  distance:    0.0513954
  band:
  - # 1
    frequency:    0.9945199063
  - # 2
    frequency:    1.1443470640
  - # 3
    frequency:    1.5834238592
  - # 4
    frequency:    2.6500848861
  - # 5
    frequency:    3.0004714651
  - # 6
    frequency:    4.1063266192
  - # 7
    frequency:    4.4943418815
  - # 8
    frequency:    5.2640981846
  - # 9
    frequency:    5.6740139839
  - # 10
    frequency:    6.1336724017
  - # 11
    frequency:    7.5234767025
  - # 12
    frequency:    7.5393936620
  - # 13
    frequency:    9.3140723417
  - # 14
    frequency:   10.1942834003
  - # 15
    frequency:   10.3512964508
  - # 16
    frequency:   10.6579778759
  - # 17
    frequency:   10.9022031306
  - # 18
    frequency:   11.9863170435
  - # 19
    frequency:   13.4832167095
  - # 20
    frequency:   20.5122302475
  - # 21
    frequency:   64.9897420365