nqpoint: 300    
npath: 3      
segment_nqpoint:
- 100
- 100
- 100
labels:
- [ 'G', 'M' ]
- [ 'M', 'K' ]
- [ 'K', 'G' ]
reciprocal_lattice:
- [   0.29376410,   0.16960478,   0.00000000 ] # a*
- [   0.00000000,   0.33920957,   0.00000000 ] # b*
- [   0.00000000,   0.00000000,   0.03846824 ] # c*
natom: 7      
lattice:
- [     3.404091889452991,     0.000000000000000,     0.000000000000000 ] # a
- [    -1.702045944726495,     2.948030053060597,     0.000000000000000 ] # b
- [     0.000000000000000,     0.000000000000000,    25.995469869639312 ] # c
points:
- symbol: C # 1
  coordinates: [  0.333332985432215,  0.666666983183674,  0.607997282064451 ]
  mass: 12.010700
- symbol: F # 2
  coordinates: [  0.666666984744047,  0.333332985985144,  0.346214169050712 ]
  mass: 18.998403
- symbol: N # 3
  coordinates: [  0.000000000000000,  0.000000000000000,  0.433107512440726 ]
  mass: 14.006700
- symbol: N # 4
  coordinates: [  0.333332985432215,  0.666666983183674,  0.653785830949288 ]
  mass: 14.006700
- symbol: S # 5
  coordinates: [  0.333332985432215,  0.666666983183674,  0.543521256263591 ]
  mass: 32.065000
- symbol: Sc # 6
  coordinates: [  0.333332985432215,  0.666666983183674,  0.389384431526594 ]
  mass: 44.955912
- symbol: Sc # 7
  coordinates: [  0.666666984744047,  0.333332985985144,  0.481113116624300 ]
  mass: 44.955912

phonon:
- q-position: [    0.0000000,    0.0000000,    0.0000000 ]
  distance:    0.0000000
  band:
  - # 1
    frequency:   -0.3781199154
  - # 2
    frequency:   -0.3781199154
  - # 3
    frequency:   -0.0000052075
  - # 4
    frequency:   -0.0000018941
  - # 5
    frequency:    0.0000052860
  - # 6
    frequency:    3.8465861918
  - # 7
    frequency:    3.8465861918
  - # 8
    frequency:    5.5907368270
  - # 9
    frequency:    5.7204915981
  - # 10
    frequency:    5.7204915981
  - # 11
    frequency:    7.4761184660
  - # 12
    frequency:    7.4761184660
  - # 13
    frequency:    9.7946219642
  - # 14
    frequency:   10.3241370905
  - # 15
    frequency:   10.3241370905
  - # 16
    frequency:   11.7376370541
  - # 17
    frequency:   11.9095245405
  - # 18
    frequency:   11.9095245405
  - # 19
    frequency:   14.1599281486
  - # 20
    frequency:   20.6038046635
  - # 21
    frequency:   65.0710434527

- q-position: [    0.0050505,    0.0000000,    0.0000000 ]
  distance:    0.0017132
  band:
  - # 1
    frequency:   -0.3772037833
  - # 2
    frequency:   -0.3719568385
  - # 3
    frequency:   -0.0950229668
  - # 4
    frequency:    0.0831971151
  - # 5
    frequency:    0.1562656846
  - # 6
    frequency:    3.8469516797
  - # 7
    frequency:    3.8480558164
  - # 8
    frequency:    5.5896251746
  - # 9
    frequency:    5.7213653764
  - # 10
    frequency:    5.7215188950
  - # 11
    frequency:    7.4760107233
  - # 12
    frequency:    7.4762223381
  - # 13
    frequency:    9.7939141624
  - # 14
    frequency:   10.3238872048
  - # 15
    frequency:   10.3243144400
  - # 16
    frequency:   11.7359958186
  - # 17
    frequency:   11.9082537293
  - # 18
    frequency:   11.9092353707
  - # 19
    frequency:   14.1586780403
  - # 20
    frequency:   20.6036675011
  - # 21
    frequency:   65.0709284853

- q-position: [    0.0101010,    0.0000000,    0.0000000 ]
  distance:    0.0034264
  band:
  - # 1
    frequency:   -0.3739683219
  - # 2
    frequency:   -0.3531480880
  - # 3
    frequency:   -0.1117405502
  - # 4
    frequency:    0.1652725856
  - # 5
    frequency:    0.2724881497
  - # 6
    frequency:    3.8480487052
  - # 7
    frequency:    3.8524521132
  - # 8
    frequency:    5.5863698363
  - # 9
    frequency:    5.7239043925
  - # 10
    frequency:    5.7245914250
  - # 11
    frequency:    7.4756895180
  - # 12
    frequency:    7.4765318036
  - # 13
    frequency:    9.7917975884
  - # 14
    frequency:   10.3231349311
  - # 15
    frequency:   10.3248454941
  - # 16
    frequency:   11.7310726846
  - # 17
    frequency:   11.9044473969
  - # 18
    frequency:   11.9083692117
  - # 19
    frequency:   14.1549363421
  - # 20
    frequency:   20.6032565559
  - # 21
    frequency:   65.0705839112

- q-position: [    0.0151515,    0.0000000,    0.0000000 ]
  distance:    0.0051395
  band:
  - # 1
    frequency:   -0.3673512248
  - # 2
    frequency:   -0.3206266122
  - # 3
    frequency:   -0.1180664242
  - # 4
    frequency:    0.2457450061
  - # 5
    frequency:    0.3920835893
  - # 6
    frequency:    3.8498789354
  - # 7
    frequency:    3.8597376546
  - # 8
    frequency:    5.5811792865
  - # 9
    frequency:    5.7278921005
  - # 10
    frequency:    5.7296812429
  - # 11
    frequency:    7.4751609014
  - # 12
    frequency:    7.4770404401
  - # 13
    frequency:    9.7882924583
  - # 14
    frequency:   10.3218726657
  - # 15
    frequency:   10.3257272793
  - # 16
    frequency:   11.7228702434
  - # 17
    frequency:   11.8981231236
  - # 18
    frequency:   11.9069300946
  - # 19
    frequency:   14.1487287740
  - # 20
    frequency:   20.6025734478
  - # 21
    frequency:   65.0700107138

- q-position: [    0.0202020,    0.0000000,    0.0000000 ]
  distance:    0.0068527
  band:
  - # 1
    frequency:   -0.3562972237
  - # 2
    frequency:   -0.2736177478
  - # 3
    frequency:   -0.1104753147
  - # 4
    frequency:    0.3247185500
  - # 5
    frequency:    0.5136114706
  - # 6
    frequency:    3.8524450901
  - # 7
    frequency:    3.8698510503
  - # 8
    frequency:    5.5743235739
  - # 9
    frequency:    5.7330450884
  - # 10
    frequency:    5.7367422259
  - # 11
    frequency:    7.4744349017
  - # 12
    frequency:    7.4777376442
  - # 13
    frequency:    9.7834315632
  - # 14
    frequency:   10.3200885329
  - # 15
    frequency:   10.3269548745
  - # 16
    frequency:   11.7113955885
  - # 17
    frequency:   11.8893079295
  - # 18
    frequency:   11.9049246743
  - # 19
    frequency:   14.1400976736
  - # 20
    frequency:   20.6016208595
  - # 21
    frequency:   65.0692105248

- q-position: [    0.0252525,    0.0000000,    0.0000000 ]
  distance:    0.0085659
  band:
  - # 1
    frequency:   -0.3398957037
  - # 2
    frequency:   -0.2236490830
  - # 3
    frequency:    0.0420111072
  - # 4
    frequency:    0.4025193255
  - # 5
    frequency:    0.6358708796
  - # 6
    frequency:    3.8557508563
  - # 7
    frequency:    3.8827083590
  - # 8
    frequency:    5.5660732377
  - # 9
    frequency:    5.7390742947
  - # 10
    frequency:    5.7457107391
  - # 11
    frequency:    7.4735254384
  - # 12
    frequency:    7.4786087791
  - # 13
    frequency:    9.7772589965
  - # 14
    frequency:   10.3177675020
  - # 15
    frequency:   10.3285214614
  - # 16
    frequency:   11.6966640148
  - # 17
    frequency:   11.8780352997
  - # 18
    frequency:   11.9023621352
  - # 19
    frequency:   14.1291012151
  - # 20
    frequency:   20.6004025109
  - # 21
    frequency:   65.0681856147

- q-position: [    0.0303030,    0.0000000,    0.0000000 ]
  distance:    0.0102791
  band:
  - # 1
    frequency:   -0.3171775688
  - # 2
    frequency:   -0.2012955718
  - # 3
    frequency:    0.2012190167
  - # 4
    frequency:    0.4794617662
  - # 5
    frequency:    0.7581775033
  - # 6
    frequency:    3.8598007720
  - # 7
    frequency:    3.8982049261
  - # 8
    frequency:    5.5566662619
  - # 9
    frequency:    5.7457182370
  - # 10
    frequency:    5.7565065399
  - # 11
    frequency:    7.4724502010
  - # 12
    frequency:    7.4796353792
  - # 13
    frequency:    9.7698285221
  - # 14
    frequency:   10.3148928058
  - # 15
    frequency:   10.3304183935
  - # 16
    frequency:   11.6787033472
  - # 17
    frequency:   11.8643418301
  - # 18
    frequency:   11.8992540637
  - # 19
    frequency:   14.1158123433
  - # 20
    frequency:   20.5989231235
  - # 21
    frequency:   65.0669388786

- q-position: [    0.0353535,    0.0000000,    0.0000000 ]
  distance:    0.0119923
  band:
  - # 1
    frequency:   -0.2867306742
  - # 2
    frequency:   -0.1960424581
  - # 3
    frequency:    0.3105150360
  - # 4
    frequency:    0.5557752558
  - # 5
    frequency:    0.8801149718
  - # 6
    frequency:    3.8646000843
  - # 7
    frequency:    3.9162175298
  - # 8
    frequency:    5.5462998217
  - # 9
    frequency:    5.7527514942
  - # 10
    frequency:    5.7690338993
  - # 11
    frequency:    7.4712304937
  - # 12
    frequency:    7.4807954067
  - # 13
    frequency:    9.7612017077
  - # 14
    frequency:   10.3114475399
  - # 15
    frequency:   10.3326352826
  - # 16
    frequency:   11.6575582287
  - # 17
    frequency:   11.8482641286
  - # 18
    frequency:   11.8956142916
  - # 19
    frequency:   14.1003174504
  - # 20
    frequency:   20.5971883767
  - # 21
    frequency:   65.0654738188

- q-position: [    0.0404040,    0.0000000,    0.0000000 ]
  distance:    0.0137054
  band:
  - # 1
    frequency:   -0.2459396502
  - # 2
    frequency:   -0.1926855396
  - # 3
    frequency:    0.4042088097
  - # 4
    frequency:    0.6316043749
  - # 5
    frequency:    1.0013996285
  - # 6
    frequency:    3.8701545841
  - # 7
    frequency:    3.9366067078
  - # 8
    frequency:    5.5351352484
  - # 9
    frequency:    5.7599800121
  - # 10
    frequency:    5.7831829083
  - # 11
    frequency:    7.4698910436
  - # 12
    frequency:    7.4820635578
  - # 13
    frequency:    9.7514459520
  - # 14
    frequency:   10.3074163204
  - # 15
    frequency:   10.3351600993
  - # 16
    frequency:   11.6332937445
  - # 17
    frequency:   11.8298365476
  - # 18
    frequency:   11.8914587146
  - # 19
    frequency:   14.0827148296
  - # 20
    frequency:   20.5952048555
  - # 21
    frequency:   65.0637945229

- q-position: [    0.0454545,    0.0000000,    0.0000000 ]
  distance:    0.0154186
  band:
  - # 1
    frequency:   -0.1885907353
  - # 2
    frequency:   -0.1855461590
  - # 3
    frequency:    0.4895985453
  - # 4
    frequency:    0.7070289787
  - # 5
    frequency:    1.1218170680
  - # 6
    frequency:    3.8764704232
  - # 7
    frequency:    3.9592191359
  - # 8
    frequency:    5.5233072690
  - # 9
    frequency:    5.7672321721
  - # 10
    frequency:    5.7988309384
  - # 11
    frequency:    7.4684597737
  - # 12
    frequency:    7.4834116176
  - # 13
    frequency:    9.7406325273
  - # 14
    frequency:   10.3027868807
  - # 15
    frequency:   10.3379792864
  - # 16
    frequency:   11.6059979284
  - # 17
    frequency:   11.8090901409
  - # 18
    frequency:   11.8868050920
  - # 19
    frequency:   14.0631129515
  - # 20
    frequency:   20.5929799913
  - # 21
    frequency:   65.0619056398

- q-position: [    0.0505051,    0.0000000,    0.0000000 ]
  distance:    0.0171318
  band:
  - # 1
    frequency:   -0.1707924754
  - # 2
    frequency:   -0.0872689035
  - # 3
    frequency:    0.5698683537
  - # 4
    frequency:    0.7820842482
  - # 5
    frequency:    1.2411918780
  - # 6
    frequency:    3.8835539157
  - # 7
    frequency:    3.9838899439
  - # 8
    frequency:    5.5109330423
  - # 9
    frequency:    5.7743500929
  - # 10
    frequency:    5.8158442219
  - # 11
    frequency:    7.4669675392
  - # 12
    frequency:    7.4848088594
  - # 13
    frequency:    9.7288347434
  - # 14
    frequency:   10.2975515063
  - # 15
    frequency:   10.3410778815
  - # 16
    frequency:   11.5757829459
  - # 17
    frequency:   11.7860529902
  - # 18
    frequency:   11.8816728344
  - # 19
    frequency:   14.0416286149
  - # 20
    frequency:   20.5905219966
  - # 21
    frequency:   65.0598123511

- q-position: [    0.0555556,    0.0000000,    0.0000000 ]
  distance:    0.0188450
  band:
  - # 1
    frequency:   -0.1429756344
  - # 2
    frequency:    0.1523212257
  - # 3
    frequency:    0.6466378705
  - # 4
    frequency:    0.8567758962
  - # 5
    frequency:    1.3593725447
  - # 6
    frequency:    3.8914113291
  - # 7
    frequency:    4.0104448720
  - # 8
    frequency:    5.4981194410
  - # 9
    frequency:    5.7811827126
  - # 10
    frequency:    5.8340795173
  - # 11
    frequency:    7.4654478285
  - # 12
    frequency:    7.4862224900
  - # 13
    frequency:    9.7161263180
  - # 14
    frequency:   10.2917082249
  - # 15
    frequency:   10.3444396466
  - # 16
    frequency:   11.5427849888
  - # 17
    frequency:   11.7607517916
  - # 18
    frequency:   11.8760827844
  - # 19
    frequency:   14.0183850293
  - # 20
    frequency:   20.5878397950
  - # 21
    frequency:   65.0575203405

- q-position: [    0.0606061,    0.0000000,    0.0000000 ]
  distance:    0.0205582
  band:
  - # 1
    frequency:   -0.0860670872
  - # 2
    frequency:    0.2381668590
  - # 3
    frequency:    0.7208233749
  - # 4
    frequency:    0.9310906114
  - # 5
    frequency:    1.4762235222
  - # 6
    frequency:    3.9000486647
  - # 7
    frequency:    4.0387021928
  - # 8
    frequency:    5.4849683843
  - # 9
    frequency:    5.7875808396
  - # 10
    frequency:    5.8533858261
  - # 11
    frequency:    7.4639364273
  - # 12
    frequency:    7.4876181413
  - # 13
    frequency:    9.7025800170
  - # 14
    frequency:   10.2852616849
  - # 15
    frequency:   10.3480472004
  - # 16
    frequency:   11.5071631000
  - # 17
    frequency:   11.7332144134
  - # 18
    frequency:   11.8700569999
  - # 19
    frequency:   13.9935098947
  - # 20
    frequency:   20.5849429469
  - # 21
    frequency:   65.0550357603

- q-position: [    0.0656566,    0.0000000,    0.0000000 ]
  distance:    0.0222713
  band:
  - # 1
    frequency:    0.1036064144
  - # 2
    frequency:    0.3046119562
  - # 3
    frequency:    0.7929846492
  - # 4
    frequency:    1.0050029291
  - # 5
    frequency:    1.5916208235
  - # 6
    frequency:    3.9094714324
  - # 7
    frequency:    4.0684743480
  - # 8
    frequency:    5.4715805070
  - # 9
    frequency:    5.7933938818
  - # 10
    frequency:    5.8736061311
  - # 11
    frequency:    7.4624710482
  - # 12
    frequency:    7.4889604088
  - # 13
    frequency:    9.6882666092
  - # 14
    frequency:   10.2782236716
  - # 15
    frequency:   10.3518821510
  - # 16
    frequency:   11.4690972326
  - # 17
    frequency:   11.7034730486
  - # 18
    frequency:   11.8636185433
  - # 19
    frequency:   13.9671335438
  - # 20
    frequency:   20.5818415727
  - # 21
    frequency:   65.0523651949

- q-position: [    0.0707071,    0.0000000,    0.0000000 ]
  distance:    0.0239845
  band:
  - # 1
    frequency:    0.1864382432
  - # 2
    frequency:    0.3622685530
  - # 3
    frequency:    0.8634841463
  - # 4
    frequency:    1.0784796748
  - # 5
    frequency:    1.7054493992
  - # 6
    frequency:    3.9196844185
  - # 7
    frequency:    4.0995692700
  - # 8
    frequency:    5.4580575431
  - # 9
    frequency:    5.7984678770
  - # 10
    frequency:    5.8945791260
  - # 11
    frequency:    7.4610909264
  - # 12
    frequency:    7.4902134403
  - # 13
    frequency:    9.6732541661
  - # 14
    frequency:   10.2706132185
  - # 15
    frequency:   10.3559252255
  - # 16
    frequency:   11.4287858504
  - # 17
    frequency:   11.6715675937
  - # 18
    frequency:   11.8567912865
  - # 19
    frequency:   13.9393872126
  - # 20
    frequency:   20.5785462750
  - # 21
    frequency:   65.0495156232

- q-position: [    0.0757576,    0.0000000,    0.0000000 ]
  distance:    0.0256977
  band:
  - # 1
    frequency:    0.2557680409
  - # 2
    frequency:    0.4146300581
  - # 3
    frequency:    0.9325676807
  - # 4
    frequency:    1.1514828298
  - # 5
    frequency:    1.8176014336
  - # 6
    frequency:    3.9306914497
  - # 7
    frequency:    4.1317913775
  - # 8
    frequency:    5.4445037551
  - # 9
    frequency:    5.8026444913
  - # 10
    frequency:    5.9161409143
  - # 11
    frequency:    7.4598363823
  - # 12
    frequency:    7.4913415758
  - # 13
    frequency:    9.6576077184
  - # 14
    frequency:   10.2624562747
  - # 15
    frequency:   10.3601563917
  - # 16
    frequency:   11.3864433282
  - # 17
    frequency:   11.6375489472
  - # 18
    frequency:   11.8495997349
  - # 19
    frequency:   13.9104015006
  - # 20
    frequency:   20.5750680588
  - # 21
    frequency:   65.0464943784

- q-position: [    0.0808081,    0.0000000,    0.0000000 ]
  distance:    0.0274109
  band:
  - # 1
    frequency:    0.3216039803
  - # 2
    frequency:    0.4633296777
  - # 3
    frequency:    1.0004085938
  - # 4
    frequency:    1.2239713960
  - # 5
    frequency:    1.9279750959
  - # 6
    frequency:    3.9424951525
  - # 7
    frequency:    4.1649422490
  - # 8
    frequency:    5.4310266634
  - # 9
    frequency:    5.8057607423
  - # 10
    frequency:    5.9381266551
  - # 11
    frequency:    7.4587483558
  - # 12
    frequency:    7.4923100401
  - # 13
    frequency:    9.6413892756
  - # 14
    frequency:   10.2537848917
  - # 15
    frequency:   10.3645549713
  - # 16
    frequency:   11.3422973423
  - # 17
    frequency:   11.6014820104
  - # 18
    frequency:   11.8420688756
  - # 19
    frequency:   13.8803050738
  - # 20
    frequency:   20.5714182535
  - # 21
    frequency:   65.0433091065

- q-position: [    0.0858586,    0.0000000,    0.0000000 ]
  distance:    0.0291241
  band:
  - # 1
    frequency:    0.3866283488
  - # 2
    frequency:    0.5092715487
  - # 3
    frequency:    1.0671334173
  - # 4
    frequency:    1.2959026315
  - # 5
    frequency:    2.0364734836
  - # 6
    frequency:    3.9550967110
  - # 7
    frequency:    4.1988209876
  - # 8
    frequency:    5.4177372447
  - # 9
    frequency:    5.8076492890
  - # 10
    frequency:    5.9603721410
  - # 11
    frequency:    7.4578679133
  - # 12
    frequency:    7.4930856871
  - # 13
    frequency:    9.6246581954
  - # 14
    frequency:   10.2446358903
  - # 15
    frequency:   10.3690997393
  - # 16
    frequency:   11.2965863868
  - # 17
    frequency:   11.5634482540
  - # 18
    frequency:   11.8342240558
  - # 19
    frequency:   13.8492236515
  - # 20
    frequency:   20.5676084348
  - # 21
    frequency:   65.0399677243

- q-position: [    0.0909091,    0.0000000,    0.0000000 ]
  distance:    0.0308372
  band:
  - # 1
    frequency:    0.4519105314
  - # 2
    frequency:    0.5530105083
  - # 3
    frequency:    1.1328374993
  - # 4
    frequency:    1.3672328923
  - # 5
    frequency:    2.1430036001
  - # 6
    frequency:    3.9684956234
  - # 7
    frequency:    4.2332243011
  - # 8
    frequency:    5.4047497007
  - # 9
    frequency:    5.8081392094
  - # 10
    frequency:    5.9827152952
  - # 11
    frequency:    7.4572357343
  - # 12
    frequency:    7.4936377894
  - # 13
    frequency:    9.6074718796
  - # 14
    frequency:   10.2350489677
  - # 15
    frequency:   10.3737690085
  - # 16
    frequency:   11.2495575183
  - # 17
    frequency:   11.5235477840
  - # 18
    frequency:   11.8260908903
  - # 19
    frequency:   13.8172793029
  - # 20
    frequency:   20.5636503487
  - # 21
    frequency:   65.0364783754

- q-position: [    0.0959596,    0.0000000,    0.0000000 ]
  distance:    0.0325504
  band:
  - # 1
    frequency:    0.5179393722
  - # 2
    frequency:    0.5949119620
  - # 3
    frequency:    1.1975948766
  - # 4
    frequency:    1.4379182264
  - # 5
    frequency:    2.2474752590
  - # 6
    frequency:    3.9826894612
  - # 7
    frequency:    4.2679463208
  - # 8
    frequency:    5.3921808326
  - # 9
    frequency:    5.8070572646
  - # 10
    frequency:    6.0049975794
  - # 11
    frequency:    7.4568915816
  - # 12
    frequency:    7.4939388675
  - # 13
    frequency:    9.5898867514
  - # 14
    frequency:   10.2250642067
  - # 15
    frequency:   10.3785406961
  - # 16
    frequency:   11.2014644220
  - # 17
    frequency:   11.4819008802
  - # 18
    frequency:   11.8176952017
  - # 19
    frequency:   13.7845900611
  - # 20
    frequency:   20.5595558378
  - # 21
    frequency:   65.0328493869

- q-position: [    0.1010101,    0.0000000,    0.0000000 ]
  distance:    0.0342636
  band:
  - # 1
    frequency:    0.5849429033
  - # 2
    frequency:    0.6352294950
  - # 3
    frequency:    1.2614646877
  - # 4
    frequency:    1.5079148097
  - # 5
    frequency:    2.3497998335
  - # 6
    frequency:    3.9976736334
  - # 7
    frequency:    4.3027781893
  - # 8
    frequency:    5.3801489918
  - # 9
    frequency:    5.8042297204
  - # 10
    frequency:    6.0270653072
  - # 11
    frequency:    7.4568737635
  - # 12
    frequency:    7.4939655402
  - # 13
    frequency:    9.5719594499
  - # 14
    frequency:   10.2147189567
  - # 15
    frequency:   10.3833923719
  - # 16
    frequency:   11.1525659028
  - # 17
    frequency:   11.4386490107
  - # 18
    frequency:   11.8090629920
  - # 19
    frequency:   13.7512698461
  - # 20
    frequency:   20.5553367697
  - # 21
    frequency:   65.0290892257

- q-position: [    0.1060606,    0.0000000,    0.0000000 ]
  distance:    0.0359768
  band:
  - # 1
    frequency:    0.6530158540
  - # 2
    frequency:    0.6741464862
  - # 3
    frequency:    1.3244954259
  - # 4
    frequency:    1.5771792790
  - # 5
    frequency:    2.4498887841
  - # 6
    frequency:    4.0134411607
  - # 7
    frequency:    4.3375074437
  - # 8
    frequency:    5.3687725156
  - # 9
    frequency:    5.7994848822
  - # 10
    frequency:    6.0487708600
  - # 11
    frequency:    7.4572185955
  - # 12
    frequency:    7.4936993780
  - # 13
    frequency:    9.5537481478
  - # 14
    frequency:   10.2040440710
  - # 15
    frequency:   10.3883012869
  - # 16
    frequency:   11.1031249236
  - # 17
    frequency:   11.3939553365
  - # 18
    frequency:   11.8002204416
  - # 19
    frequency:   13.7174286688
  - # 20
    frequency:   20.5510049684
  - # 21
    frequency:   65.0252064543

- q-position: [    0.1111111,    0.0000000,    0.0000000 ]
  distance:    0.0376900
  band:
  - # 1
    frequency:    0.7118001261
  - # 2
    frequency:    0.7221789685
  - # 3
    frequency:    1.3867277970
  - # 4
    frequency:    1.6456689946
  - # 5
    frequency:    2.5476518950
  - # 6
    frequency:    4.0299824664
  - # 7
    frequency:    4.3719172158
  - # 8
    frequency:    5.3581674723
  - # 9
    frequency:    5.7926566003
  - # 10
    frequency:    6.0699738040
  - # 11
    frequency:    7.4579598705
  - # 12
    frequency:    7.4931277292
  - # 13
    frequency:    9.5353138790
  - # 14
    frequency:   10.1930595132
  - # 15
    frequency:   10.3932443828
  - # 16
    frequency:   11.0534083267
  - # 17
    frequency:   11.3480047196
  - # 18
    frequency:   11.7911939327
  - # 19
    frequency:   13.6831730712
  - # 20
    frequency:   20.5465721484
  - # 21
    frequency:   65.0212096882

- q-position: [    0.1161616,    0.0000000,    0.0000000 ]
  distance:    0.0394031
  band:
  - # 1
    frequency:    0.7482960863
  - # 2
    frequency:    0.7924096247
  - # 3
    frequency:    1.4481966504
  - # 4
    frequency:    1.7133422521
  - # 5
    frequency:    2.6429951440
  - # 6
    frequency:    4.0472851881
  - # 7
    frequency:    4.4057852630
  - # 8
    frequency:    5.3484444472
  - # 9
    frequency:    5.7835891305
  - # 10
    frequency:    6.0905419087
  - # 11
    frequency:    7.4591283501
  - # 12
    frequency:    7.4922444849
  - # 13
    frequency:    9.5167217321
  - # 14
    frequency:   10.1817693939
  - # 15
    frequency:   10.3981982845
  - # 16
    frequency:   11.0036873744
  - # 17
    frequency:   11.3010032463
  - # 18
    frequency:   11.7820100911
  - # 19
    frequency:   13.6486067499
  - # 20
    frequency:   20.5420498513
  - # 21
    frequency:   65.0171075534

- q-position: [    0.1212121,    0.0000000,    0.0000000 ]
  distance:    0.0411163
  band:
  - # 1
    frequency:    0.7837178916
  - # 2
    frequency:    0.8636588476
  - # 3
    frequency:    1.5089322809
  - # 4
    frequency:    1.7801584562
  - # 5
    frequency:    2.7358181169
  - # 6
    frequency:    4.0653340190
  - # 7
    frequency:    4.4388828122
  - # 8
    frequency:    5.3397039679
  - # 9
    frequency:    5.7721439192
  - # 10
    frequency:    6.1103520669
  - # 11
    frequency:    7.4607512863
  - # 12
    frequency:    7.4910507413
  - # 13
    frequency:    9.4980417575
  - # 14
    frequency:   10.1701565740
  - # 15
    frequency:   10.4031392771
  - # 16
    frequency:   10.9542391993
  - # 17
    frequency:   11.2531772684
  - # 18
    frequency:   11.7726958374
  - # 19
    frequency:   13.6138312944
  - # 20
    frequency:   20.5374493851
  - # 21
    frequency:   65.0129086456

- q-position: [    0.1262626,    0.0000000,    0.0000000 ]
  distance:    0.0428295
  band:
  - # 1
    frequency:    0.8181331299
  - # 2
    frequency:    0.9358612709
  - # 3
    frequency:    1.5689612944
  - # 4
    frequency:    1.8460782634
  - # 5
    frequency:    2.8260108456
  - # 6
    frequency:    4.0841105851
  - # 7
    frequency:    4.4709731562
  - # 8
    frequency:    5.3320299937
  - # 9
    frequency:    5.7582091350
  - # 10
    frequency:    6.1292911177
  - # 11
    frequency:    7.4628519869
  - # 12
    frequency:    7.4895553136
  - # 13
    frequency:    9.4793494252
  - # 14
    frequency:   10.1581770974
  - # 15
    frequency:   10.4080432732
  - # 16
    frequency:   10.9053491426
  - # 17
    frequency:   11.2047719676
  - # 18
    frequency:   11.7632784384
  - # 19
    frequency:   13.5789469753
  - # 20
    frequency:   20.5327817662
  - # 21
    frequency:   65.0086214901

- q-position: [    0.1313131,    0.0000000,    0.0000000 ]
  distance:    0.0445427
  band:
  - # 1
    frequency:    0.8515976904
  - # 2
    frequency:    1.0089411782
  - # 3
    frequency:    1.6283071696
  - # 4
    frequency:    1.9110637015
  - # 5
    frequency:    2.9134499115
  - # 6
    frequency:    4.1035933652
  - # 7
    frequency:    4.5018098514
  - # 8
    frequency:    5.3254806481
  - # 9
    frequency:    5.7417131489
  - # 10
    frequency:    6.1472565711
  - # 11
    frequency:    7.4654494361
  - # 12
    frequency:    7.4877750578
  - # 13
    frequency:    9.4607254888
  - # 14
    frequency:   10.1457549180
  - # 15
    frequency:   10.4128857747
  - # 16
    frequency:   10.8573137435
  - # 17
    frequency:   11.1560494543
  - # 18
    frequency:   11.7537855489
  - # 19
    frequency:   13.5440535113
  - # 20
    frequency:   20.5280576629
  - # 21
    frequency:   65.0042545047

- q-position: [    0.1363636,    0.0000000,    0.0000000 ]
  distance:    0.0462559
  band:
  - # 1
    frequency:    0.8841587292
  - # 2
    frequency:    1.0828162354
  - # 3
    frequency:    1.6869906042
  - # 4
    frequency:    1.9750782699
  - # 5
    frequency:    2.9979935863
  - # 6
    frequency:    4.1237576591
  - # 7
    frequency:    4.5311342193
  - # 8
    frequency:    5.3200750235
  - # 9
    frequency:    5.7226437189
  - # 10
    frequency:    6.1641572359
  - # 11
    frequency:    7.4685579815
  - # 12
    frequency:    7.4857349560
  - # 13
    frequency:    9.4422551371
  - # 14
    frequency:   10.1327776944
  - # 15
    frequency:   10.4176418376
  - # 16
    frequency:   10.8104437637
  - # 17
    frequency:   11.1072864463
  - # 18
    frequency:   11.7442452318
  - # 19
    frequency:   13.5092507527
  - # 20
    frequency:   20.5232873412
  - # 21
    frequency:   64.9998159627

- q-position: [    0.1414141,    0.0000000,    0.0000000 ]
  distance:    0.0479690
  band:
  - # 1
    frequency:    0.9158567886
  - # 2
    frequency:    1.1573997907
  - # 3
    frequency:    1.7450297085
  - # 4
    frequency:    2.0380870295
  - # 5
    frequency:    3.0794756835
  - # 6
    frequency:    4.1445756110
  - # 7
    frequency:    4.5586716402
  - # 8
    frequency:    5.3157743971
  - # 9
    frequency:    5.7010754336
  - # 10
    frequency:    6.1799137479
  - # 11
    frequency:    7.4721870976
  - # 12
    frequency:    7.4834679368
  - # 13
    frequency:    9.4240263612
  - # 14
    frequency:   10.1190948729
  - # 15
    frequency:   10.4222860459
  - # 16
    frequency:   10.7650660809
  - # 17
    frequency:   11.0587716337
  - # 18
    frequency:   11.7346859437
  - # 19
    frequency:   13.4746392251
  - # 20
    frequency:   20.5184806122
  - # 21
    frequency:   64.9953139599

- q-position: [    0.1464646,    0.0000000,    0.0000000 ]
  distance:    0.0496822
  band:
  - # 1
    frequency:    0.9467273372
  - # 2
    frequency:    1.2326022417
  - # 3
    frequency:    1.8024400919
  - # 4
    frequency:    2.1000566879
  - # 5
    frequency:    3.1576976417
  - # 6
    frequency:    4.1660162882
  - # 7
    frequency:    4.5841258467
  - # 8
    frequency:    5.3124555697
  - # 9
    frequency:    5.6772090128
  - # 10
    frequency:    6.1944589993
  - # 11
    frequency:    7.4763412320
  - # 12
    frequency:    7.4810144123
  - # 13
    frequency:    9.4061275283
  - # 14
    frequency:   10.1045198377
  - # 15
    frequency:   10.4267925070
  - # 16
    frequency:   10.7215225554
  - # 17
    frequency:   11.0108029314
  - # 18
    frequency:   11.7251364746
  - # 19
    frequency:   13.4403204890
  - # 20
    frequency:   20.5136467807
  - # 21
    frequency:   64.9907563833

- q-position: [    0.1515152,    0.0000000,    0.0000000 ]
  distance:    0.0513954
  band:
  - # 1
    frequency:    0.9768019063
  - # 2
    frequency:    1.3083317587
  - # 3
    frequency:    1.8592348726
  - # 4
    frequency:    2.1609556910
  - # 5
    frequency:    3.2324181280
  - # 6
    frequency:    4.1880458196
  - # 7
    frequency:    4.6071701546
  - # 8
    frequency:    5.3098735442
  - # 9
    frequency:    5.6514270310
  - # 10
    frequency:    6.2077384670
  - # 11
    frequency:    7.4784215395
  - # 12
    frequency:    7.4810197406
  - # 13
    frequency:    9.3886442160
  - # 14
    frequency:   10.0888384285
  - # 15
    frequency:   10.4311348768
  - # 16
    frequency:   10.6801632457
  - # 17
    frequency:   10.9636849566
  - # 18
    frequency:   11.7156258298
  - # 19
    frequency:   13.4063972814
  - # 20
    frequency:   20.5087945960
  - # 21
    frequency:   64.9861508815