nqpoint: 300    
npath: 3      
segment_nqpoint:
- 100
- 100
- 100
labels:
- [ 'G', 'M' ]
- [ 'M', 'K' ]
- [ 'K', 'G' ]
reciprocal_lattice:
- [   0.30290056,   0.17487972,   0.00000000 ] # a*
- [   0.00000000,   0.34975943,   0.00000000 ] # b*
- [   0.00000000,   0.00000000,   0.03742480 ] # c*
natom: 7      
lattice:
- [     3.301413552165338,     0.000000000000000,     0.000000000000000 ] # a
- [    -1.650706776082669,     2.859108004570302,     0.000000000000000 ] # b
- [     0.000000000000000,     0.000000000000000,    26.720250283574856 ] # c
points:
- symbol: C # 1
  coordinates: [  0.333332985432215,  0.666666983183674,  0.617971880548929 ]
  mass: 12.010700
- symbol: N # 2
  coordinates: [  0.000000000000000,  0.000000000000000,  0.514275968252033 ]
  mass: 14.006700
- symbol: N # 3
  coordinates: [  0.333332985432215,  0.666666983183674,  0.663176807683857 ]
  mass: 14.006700
- symbol: O # 4
  coordinates: [  0.666666984744047,  0.333332985985144,  0.336823192316143 ]
  mass: 15.999400
- symbol: P # 5
  coordinates: [  0.666666984744047,  0.333332985985144,  0.392692801505089 ]
  mass: 30.973762
- symbol: Zr # 6
  coordinates: [  0.333332985432215,  0.666666983183674,  0.466276444221935 ]
  mass: 91.224000
- symbol: Zr # 7
  coordinates: [  0.666666984744047,  0.333332985985144,  0.561677296072572 ]
  mass: 91.224000

phonon:
- q-position: [    0.0000000,    0.0000000,    0.0000000 ]
  distance:    0.0000000
  band:
  - # 1
    frequency:   -2.3622829532
  - # 2
    frequency:   -2.3622829532
  - # 3
    frequency:   -0.0000105923
  - # 4
    frequency:    0.0000001911
  - # 5
    frequency:    0.0000076600
  - # 6
    frequency:    1.1513353004
  - # 7
    frequency:    1.1513353005
  - # 8
    frequency:    3.6591258514
  - # 9
    frequency:    3.6591258514
  - # 10
    frequency:    4.6236127749
  - # 11
    frequency:    4.6236127749
  - # 12
    frequency:    5.1418650887
  - # 13
    frequency:    7.8523962748
  - # 14
    frequency:    7.8523962748
  - # 15
    frequency:    8.7505886448
  - # 16
    frequency:    9.3194385092
  - # 17
    frequency:   12.7469676372
  - # 18
    frequency:   15.1594073480
  - # 19
    frequency:   15.1594073480
  - # 20
    frequency:   34.1692736623
  - # 21
    frequency:   59.6782818027

- q-position: [    0.0050505,    0.0000000,    0.0000000 ]
  distance:    0.0017665
  band:
  - # 1
    frequency:   -2.3631796594
  - # 2
    frequency:   -2.3591219521
  - # 3
    frequency:    0.0018999080
  - # 4
    frequency:    0.0550660697
  - # 5
    frequency:    0.1027275348
  - # 6
    frequency:    1.1516362573
  - # 7
    frequency:    1.1530028719
  - # 8
    frequency:    3.6594810965
  - # 9
    frequency:    3.6600156207
  - # 10
    frequency:    4.6228288315
  - # 11
    frequency:    4.6237252650
  - # 12
    frequency:    5.1427556079
  - # 13
    frequency:    7.8523206599
  - # 14
    frequency:    7.8531220294
  - # 15
    frequency:    8.7503802688
  - # 16
    frequency:    9.3192953788
  - # 17
    frequency:   12.7468623419
  - # 18
    frequency:   15.1592474824
  - # 19
    frequency:   15.1592933092
  - # 20
    frequency:   34.1691161591
  - # 21
    frequency:   59.6782120299

- q-position: [    0.0101010,    0.0000000,    0.0000000 ]
  distance:    0.0035329
  band:
  - # 1
    frequency:   -2.3658698366
  - # 2
    frequency:   -2.3496336802
  - # 3
    frequency:    0.0075830478
  - # 4
    frequency:    0.1101612802
  - # 5
    frequency:    0.2054193671
  - # 6
    frequency:    1.1525448914
  - # 7
    frequency:    1.1579965363
  - # 8
    frequency:    3.6605452274
  - # 9
    frequency:    3.6626812406
  - # 10
    frequency:    4.6204966743
  - # 11
    frequency:    4.6240631206
  - # 12
    frequency:    5.1454124912
  - # 13
    frequency:    7.8520945323
  - # 14
    frequency:    7.8552957187
  - # 15
    frequency:    8.7497546445
  - # 16
    frequency:    9.3188660530
  - # 17
    frequency:   12.7465473671
  - # 18
    frequency:   15.1587675981
  - # 19
    frequency:   15.1589517962
  - # 20
    frequency:   34.1686438911
  - # 21
    frequency:   59.6780028389

- q-position: [    0.0151515,    0.0000000,    0.0000000 ]
  distance:    0.0052994
  band:
  - # 1
    frequency:   -2.3703533371
  - # 2
    frequency:   -2.3338021157
  - # 3
    frequency:    0.0170000839
  - # 4
    frequency:    0.1653063195
  - # 5
    frequency:    0.3080314224
  - # 6
    frequency:    1.1540790136
  - # 7
    frequency:    1.1662922118
  - # 8
    frequency:    3.6623134433
  - # 9
    frequency:    3.6671117790
  - # 10
    frequency:    4.6166737749
  - # 11
    frequency:    4.6246274906
  - # 12
    frequency:    5.1497932185
  - # 13
    frequency:    7.8517200353
  - # 14
    frequency:    7.8589066556
  - # 15
    frequency:    8.7487102982
  - # 16
    frequency:    9.3181507379
  - # 17
    frequency:   12.7460254343
  - # 18
    frequency:   15.1579668361
  - # 19
    frequency:   15.1583846168
  - # 20
    frequency:   34.1678575823
  - # 21
    frequency:   59.6776546125

- q-position: [    0.0202020,    0.0000000,    0.0000000 ]
  distance:    0.0070658
  band:
  - # 1
    frequency:   -2.3766288713
  - # 2
    frequency:   -2.3115998083
  - # 3
    frequency:    0.0300730343
  - # 4
    frequency:    0.2205050253
  - # 5
    frequency:    0.4105010163
  - # 6
    frequency:    1.1562700806
  - # 7
    frequency:    1.1778602485
  - # 8
    frequency:    3.6647777835
  - # 9
    frequency:    3.6732894505
  - # 10
    frequency:    4.6114510908
  - # 11
    frequency:    4.6254202668
  - # 12
    frequency:    5.1558316031
  - # 13
    frequency:    7.8512007171
  - # 14
    frequency:    7.8639371496
  - # 15
    frequency:    8.7472448238
  - # 16
    frequency:    9.3171498131
  - # 17
    frequency:   12.7453010409
  - # 18
    frequency:   15.1568437722
  - # 19
    frequency:   15.1575947745
  - # 20
    frequency:   34.1667584379
  - # 21
    frequency:   59.6771679870

- q-position: [    0.0252525,    0.0000000,    0.0000000 ]
  distance:    0.0088323
  band:
  - # 1
    frequency:   -2.3846925521
  - # 2
    frequency:   -2.2829866572
  - # 3
    frequency:    0.0467006441
  - # 4
    frequency:    0.2757360489
  - # 5
    frequency:    0.5127322097
  - # 6
    frequency:    1.1591659808
  - # 7
    frequency:    1.1926823662
  - # 8
    frequency:    3.6679271888
  - # 9
    frequency:    3.6811902412
  - # 10
    frequency:    4.6049468583
  - # 11
    frequency:    4.6264440496
  - # 12
    frequency:    5.1634437881
  - # 13
    frequency:    7.8505414936
  - # 14
    frequency:    7.8703626838
  - # 15
    frequency:    8.7453549598
  - # 16
    frequency:    9.3158638843
  - # 17
    frequency:   12.7443804028
  - # 18
    frequency:   15.1553964295
  - # 19
    frequency:   15.1565864550
  - # 20
    frequency:   34.1653481411
  - # 21
    frequency:   59.6765438514

- q-position: [    0.0303030,    0.0000000,    0.0000000 ]
  distance:    0.0105988
  band:
  - # 1
    frequency:   -2.3945360670
  - # 2
    frequency:   -2.2479079820
  - # 3
    frequency:    0.0667648760
  - # 4
    frequency:    0.3309444878
  - # 5
    frequency:    0.6145725429
  - # 6
    frequency:    1.1628351959
  - # 7
    frequency:    1.2107789067
  - # 8
    frequency:    3.6717475872
  - # 9
    frequency:    3.6907847306
  - # 10
    frequency:    4.5972996082
  - # 11
    frequency:    4.6277021008
  - # 12
    frequency:    5.1725349561
  - # 13
    frequency:    7.8497485982
  - # 14
    frequency:    7.8781521507
  - # 15
    frequency:    8.7430366963
  - # 16
    frequency:    9.3142938562
  - # 17
    frequency:   12.7432713757
  - # 18
    frequency:   15.1536222955
  - # 19
    frequency:   15.1553650064
  - # 20
    frequency:   34.1636288494
  - # 21
    frequency:   59.6757833441

- q-position: [    0.0353535,    0.0000000,    0.0000000 ]
  distance:    0.0123652
  band:
  - # 1
    frequency:   -2.4061446589
  - # 2
    frequency:   -2.2062916361
  - # 3
    frequency:    0.0901376931
  - # 4
    frequency:    0.3860332722
  - # 5
    frequency:    0.7157733804
  - # 6
    frequency:    1.1673725951
  - # 7
    frequency:    1.2322529632
  - # 8
    frequency:    3.6762220041
  - # 9
    frequency:    3.7020390629
  - # 10
    frequency:    4.5886614463
  - # 11
    frequency:    4.6291982843
  - # 12
    frequency:    5.1830057341
  - # 13
    frequency:    7.8488295170
  - # 14
    frequency:    7.8872681374
  - # 15
    frequency:    8.7402854154
  - # 16
    frequency:    9.3124410249
  - # 17
    frequency:   12.7419833553
  - # 18
    frequency:   15.1515183430
  - # 19
    frequency:   15.1539369148
  - # 20
    frequency:   34.1616031896
  - # 21
    frequency:   59.6748878508

- q-position: [    0.0404040,    0.0000000,    0.0000000 ]
  distance:    0.0141317
  band:
  - # 1
    frequency:   -2.4194951115
  - # 2
    frequency:   -2.1580437831
  - # 3
    frequency:    0.1166875920
  - # 4
    frequency:    0.4408539765
  - # 5
    frequency:    0.8159189575
  - # 6
    frequency:    1.1729071653
  - # 7
    frequency:    1.2573653676
  - # 8
    frequency:    3.6813306972
  - # 9
    frequency:    3.7149160066
  - # 10
    frequency:    4.5791923431
  - # 11
    frequency:    4.6309369950
  - # 12
    frequency:    5.1947575732
  - # 13
    frequency:    7.8477929110
  - # 14
    frequency:    7.8976672464
  - # 15
    frequency:    8.7370960654
  - # 16
    frequency:    9.3103071866
  - # 17
    frequency:   12.7405271585
  - # 18
    frequency:   15.1490810573
  - # 19
    frequency:   15.1523097745
  - # 20
    frequency:   34.1592742516
  - # 21
    frequency:   59.6738590000

- q-position: [    0.0454545,    0.0000000,    0.0000000 ]
  distance:    0.0158982
  band:
  - # 1
    frequency:   -2.4345539294
  - # 2
    frequency:   -2.1030427804
  - # 3
    frequency:    0.1462856353
  - # 4
    frequency:    0.4951967030
  - # 5
    frequency:    0.9142962530
  - # 6
    frequency:    1.1796119282
  - # 7
    frequency:    1.2866678018
  - # 8
    frequency:    3.6870513150
  - # 9
    frequency:    3.7293760354
  - # 10
    frequency:    4.5690558212
  - # 11
    frequency:    4.6329230788
  - # 12
    frequency:    5.2076967536
  - # 13
    frequency:    7.8466485256
  - # 14
    frequency:    7.9093004376
  - # 15
    frequency:    8.7334633704
  - # 16
    frequency:    9.3078947627
  - # 17
    frequency:   12.7389148873
  - # 18
    frequency:   15.1463064665
  - # 19
    frequency:   15.1504922527
  - # 20
    frequency:   34.1566455817
  - # 21
    frequency:   59.6726986592

- q-position: [    0.0505051,    0.0000000,    0.0000000 ]
  distance:    0.0176646
  band:
  - # 1
    frequency:   -2.4512758756
  - # 2
    frequency:   -2.0411303580
  - # 3
    frequency:    0.1788110507
  - # 4
    frequency:    0.5487788897
  - # 5
    frequency:    1.0096630957
  - # 6
    frequency:    1.1877160227
  - # 7
    frequency:    1.3212363411
  - # 8
    frequency:    3.6933590802
  - # 9
    frequency:    3.7453783547
  - # 10
    frequency:    4.5584161151
  - # 11
    frequency:    4.6351617420
  - # 12
    frequency:    5.2217369765
  - # 13
    frequency:    7.8454070877
  - # 14
    frequency:    7.9221133733
  - # 15
    frequency:    8.7293820808
  - # 16
    frequency:    9.3052069397
  - # 17
    frequency:   12.7371597772
  - # 18
    frequency:   15.1431901777
  - # 19
    frequency:   15.1484940504
  - # 20
    frequency:   34.1537211738
  - # 21
    frequency:   59.6714089301

- q-position: [    0.0555556,    0.0000000,    0.0000000 ]
  distance:    0.0194311
  band:
  - # 1
    frequency:   -2.4696029851
  - # 2
    frequency:   -1.9720989027
  - # 3
    frequency:    0.2141567686
  - # 4
    frequency:    0.6012336116
  - # 5
    frequency:    1.0999079570
  - # 6
    frequency:    1.1975181617
  - # 7
    frequency:    1.3630119561
  - # 8
    frequency:    3.7002269952
  - # 9
    frequency:    3.7628817911
  - # 10
    frequency:    4.5474366855
  - # 11
    frequency:    4.6376584540
  - # 12
    frequency:    5.2368007149
  - # 13
    frequency:    7.8440801925
  - # 14
    frequency:    7.9360467493
  - # 15
    frequency:    8.7248472650
  - # 16
    frequency:    9.3022478201
  - # 17
    frequency:   12.7352760317
  - # 18
    frequency:   15.1397274169
  - # 19
    frequency:   15.1463258578
  - # 20
    frequency:   34.1505054610
  - # 21
    frequency:   59.6699921425

- q-position: [    0.0606061,    0.0000000,    0.0000000 ]
  distance:    0.0211975
  band:
  - # 1
    frequency:   -2.4894641203
  - # 2
    frequency:   -1.8956730861
  - # 3
    frequency:    0.2522355926
  - # 4
    frequency:    0.6520995979
  - # 5
    frequency:    1.1819119800
  - # 6
    frequency:    1.2093989935
  - # 7
    frequency:    1.4149376210
  - # 8
    frequency:    3.7076260706
  - # 9
    frequency:    3.7818454539
  - # 10
    frequency:    4.5362798818
  - # 11
    frequency:    4.6404188439
  - # 12
    frequency:    5.2528195876
  - # 13
    frequency:    7.8426801791
  - # 14
    frequency:    7.9510365903
  - # 15
    frequency:    8.7198546530
  - # 16
    frequency:    9.2990225850
  - # 17
    frequency:   12.7332786467
  - # 18
    frequency:   15.1359130740
  - # 19
    frequency:   15.1439993057
  - # 20
    frequency:   34.1470033045
  - # 21
    frequency:   59.6684508486

- q-position: [    0.0656566,    0.0000000,    0.0000000 ]
  distance:    0.0229640
  band:
  - # 1
    frequency:   -2.5107750795
  - # 2
    frequency:   -1.8114831589
  - # 3
    frequency:    0.2929881026
  - # 4
    frequency:    0.7008182458
  - # 5
    frequency:    1.2238268328
  - # 6
    frequency:    1.2526825060
  - # 7
    frequency:    1.4798231325
  - # 8
    frequency:    3.7155255739
  - # 9
    frequency:    3.8022290635
  - # 10
    frequency:    4.5251075457
  - # 11
    frequency:    4.6434485911
  - # 12
    frequency:    5.2697340384
  - # 13
    frequency:    7.8412199974
  - # 14
    frequency:    7.9670144883
  - # 15
    frequency:    8.7144010355
  - # 16
    frequency:    9.2955376652
  - # 17
    frequency:   12.7311832262
  - # 18
    frequency:   15.1317417511
  - # 19
    frequency:   15.1415269129
  - # 20
    frequency:   34.1432199833
  - # 21
    frequency:   59.6667878163

- q-position: [    0.0707071,    0.0000000,    0.0000000 ]
  distance:    0.0247305
  band:
  - # 1
    frequency:   -2.5334392198
  - # 2
    frequency:   -1.7190257074
  - # 3
    frequency:    0.3363940427
  - # 4
    frequency:    0.7467472539
  - # 5
    frequency:    1.2413469054
  - # 6
    frequency:    1.3119324092
  - # 7
    frequency:    1.5577638414
  - # 8
    frequency:    3.7238932988
  - # 9
    frequency:    3.8239928239
  - # 10
    frequency:    4.5140824016
  - # 11
    frequency:    4.6467533143
  - # 12
    frequency:    5.2874925718
  - # 13
    frequency:    7.8397130669
  - # 14
    frequency:    7.9839077591
  - # 15
    frequency:    8.7084847338
  - # 16
    frequency:    9.2918009203
  - # 17
    frequency:   12.7290057928
  - # 18
    frequency:   15.1272078162
  - # 19
    frequency:   15.1389220298
  - # 20
    frequency:   34.1391611817
  - # 21
    frequency:   59.6650060217

- q-position: [    0.0757576,    0.0000000,    0.0000000 ]
  distance:    0.0264969
  band:
  - # 1
    frequency:   -2.5573485171
  - # 2
    frequency:   -1.6176049407
  - # 3
    frequency:    0.3824901242
  - # 4
    frequency:    0.7892038574
  - # 5
    frequency:    1.2625409263
  - # 6
    frequency:    1.3625365626
  - # 7
    frequency:    1.6456826138
  - # 8
    frequency:    3.7326958507
  - # 9
    frequency:    3.8470966875
  - # 10
    frequency:    4.5033701553
  - # 11
    frequency:    4.6503384572
  - # 12
    frequency:    5.3060507433
  - # 13
    frequency:    7.8381731285
  - # 14
    frequency:    8.0016394898
  - # 15
    frequency:    8.7021061531
  - # 16
    frequency:    9.2878218238
  - # 17
    frequency:   12.7267625949
  - # 18
    frequency:   15.1223054600
  - # 19
    frequency:   15.1361987787
  - # 20
    frequency:   34.1348329760
  - # 21
    frequency:   59.6631086419

- q-position: [    0.0808081,    0.0000000,    0.0000000 ]
  distance:    0.0282634
  band:
  - # 1
    frequency:   -2.5823849622
  - # 2
    frequency:   -1.5062423875
  - # 3
    frequency:    0.4313994425
  - # 4
    frequency:    0.8275469397
  - # 5
    frequency:    1.2879475864
  - # 6
    frequency:    1.4079955738
  - # 7
    frequency:    1.7398656334
  - # 8
    frequency:    3.7418989483
  - # 9
    frequency:    3.8714988166
  - # 10
    frequency:    4.4931423174
  - # 11
    frequency:    4.6542091750
  - # 12
    frequency:    5.3253700534
  - # 13
    frequency:    7.8366140907
  - # 14
    frequency:    8.0201284424
  - # 15
    frequency:    8.6952684442
  - # 16
    frequency:    9.2836116554
  - # 17
    frequency:   12.7244699142
  - # 18
    frequency:   15.1170287562
  - # 19
    frequency:   15.1333719905
  - # 20
    frequency:   34.1302418212
  - # 21
    frequency:   59.6610990461

- q-position: [    0.0858586,    0.0000000,    0.0000000 ]
  distance:    0.0300299
  band:
  - # 1
    frequency:   -2.6084221825
  - # 2
    frequency:   -1.3835321857
  - # 3
    frequency:    0.4833821746
  - # 4
    frequency:    0.8612891984
  - # 5
    frequency:    1.3179526642
  - # 6
    frequency:    1.4508094847
  - # 7
    frequency:    1.8375901819
  - # 8
    frequency:    3.7514677368
  - # 9
    frequency:    3.8971529862
  - # 10
    frequency:    4.4835798682
  - # 11
    frequency:    4.6583702222
  - # 12
    frequency:    5.3454168450
  - # 13
    frequency:    7.8350498716
  - # 14
    frequency:    8.0392887740
  - # 15
    frequency:    8.6879783021
  - # 16
    frequency:    9.2791836979
  - # 17
    frequency:   12.7221438768
  - # 18
    frequency:   15.1113717261
  - # 19
    frequency:   15.1304571391
  - # 20
    frequency:   34.1253945358
  - # 21
    frequency:   59.6589807873

- q-position: [    0.0909091,    0.0000000,    0.0000000 ]
  distance:    0.0317963
  band:
  - # 1
    frequency:   -2.6353271793
  - # 2
    frequency:   -1.2473947934
  - # 3
    frequency:    0.5389260146
  - # 4
    frequency:    0.8902017629
  - # 5
    frequency:    1.3526863111
  - # 6
    frequency:    1.4924738703
  - # 7
    frequency:    1.9371328302
  - # 8
    frequency:    3.7613671112
  - # 9
    frequency:    3.9240045870
  - # 10
    frequency:    4.4748779944
  - # 11
    frequency:    4.6628258435
  - # 12
    frequency:    5.3661612696
  - # 13
    frequency:    7.8334942386
  - # 14
    frequency:    8.0590295203
  - # 15
    frequency:    8.6802469459
  - # 16
    frequency:    9.2745534421
  - # 17
    frequency:   12.7198002695
  - # 18
    frequency:   15.1053284055
  - # 19
    frequency:   15.1274702733
  - # 20
    frequency:   34.1202982867
  - # 21
    frequency:   59.6567575933

- q-position: [    0.0959596,    0.0000000,    0.0000000 ]
  distance:    0.0335628
  band:
  - # 1
    frequency:   -2.6629620866
  - # 2
    frequency:   -1.0946175855
  - # 3
    frequency:    0.5989111139
  - # 4
    frequency:    0.9143595800
  - # 5
    frequency:    1.3919791750
  - # 6
    frequency:    1.5338726680
  - # 7
    frequency:    2.0373845543
  - # 8
    frequency:    3.7715620448
  - # 9
    frequency:    3.9519847854
  - # 10
    frequency:    4.4672522482
  - # 11
    frequency:    4.6675796694
  - # 12
    frequency:    5.3875763601
  - # 13
    frequency:    7.8319606459
  - # 14
    frequency:    8.0792537752
  - # 15
    frequency:    8.6720913405
  - # 16
    frequency:    9.2697387984
  - # 17
    frequency:   12.7174543643
  - # 18
    frequency:   15.0988929146
  - # 19
    frequency:   15.1244279463
  - # 20
    frequency:   34.1149605724
  - # 21
    frequency:   59.6544333566

- q-position: [    0.1010101,    0.0000000,    0.0000000 ]
  distance:    0.0353292
  band:
  - # 1
    frequency:   -2.6911858718
  - # 2
    frequency:   -0.9198563331
  - # 3
    frequency:    0.6649064812
  - # 4
    frequency:    0.9341020024
  - # 5
    frequency:    1.4354029379
  - # 6
    frequency:    1.5755731307
  - # 7
    frequency:    2.1375681651
  - # 8
    frequency:    3.7820179214
  - # 9
    frequency:    3.9810022826
  - # 10
    frequency:    4.4609465987
  - # 11
    frequency:    4.6726346185
  - # 12
    frequency:    5.4096372288
  - # 13
    frequency:    7.8304620736
  - # 14
    frequency:    8.0998574721
  - # 15
    frequency:    8.6635357461
  - # 16
    frequency:    9.2647603178
  - # 17
    frequency:   12.7151207552
  - # 18
    frequency:   15.0920595300
  - # 19
    frequency:   15.1213471436
  - # 20
    frequency:   34.1093892065
  - # 21
    frequency:   59.6520121250

- q-position: [    0.1060606,    0.0000000,    0.0000000 ]
  distance:    0.0370957
  band:
  - # 1
    frequency:   -2.7198559216
  - # 2
    frequency:   -0.7127532675
  - # 3
    frequency:    0.7396316736
  - # 4
    frequency:    0.9499329623
  - # 5
    frequency:    1.4823709183
  - # 6
    frequency:    1.6179991344
  - # 7
    frequency:    2.2370824505
  - # 8
    frequency:    3.7927008647
  - # 9
    frequency:    4.0109320662
  - # 10
    frequency:    4.4562439026
  - # 11
    frequency:    4.6779928079
  - # 12
    frequency:    5.4323203937
  - # 13
    frequency:    7.8290108676
  - # 14
    frequency:    8.1207276429
  - # 15
    frequency:    8.6546137149
  - # 16
    frequency:    9.2596414255
  - # 17
    frequency:   12.7128132071
  - # 18
    frequency:   15.0848227592
  - # 19
    frequency:   15.1182452096
  - # 20
    frequency:   34.1035922999
  - # 21
    frequency:   59.6494980912

- q-position: [    0.1111111,    0.0000000,    0.0000000 ]
  distance:    0.0388622
  band:
  - # 1
    frequency:   -2.7488294735
  - # 2
    frequency:   -0.4433266668
  - # 3
    frequency:    0.8272407891
  - # 4
    frequency:    0.9624119366
  - # 5
    frequency:    1.5322475750
  - # 6
    frequency:    1.6615332680
  - # 7
    frequency:    2.3354228857
  - # 8
    frequency:    3.8035780642
  - # 9
    frequency:    4.0416007038
  - # 10
    frequency:    4.4534791575
  - # 11
    frequency:    4.6836554739
  - # 12
    frequency:    5.4556032331
  - # 13
    frequency:    7.8276185838
  - # 14
    frequency:    8.1417399811
  - # 15
    frequency:    8.6453707017
  - # 16
    frequency:    9.2544086666
  - # 17
    frequency:   12.7105445214
  - # 18
    frequency:   15.0771774154
  - # 19
    frequency:   15.1151397730
  - # 20
    frequency:   34.0975782424
  - # 21
    frequency:   59.6468955819

- q-position: [    0.1161616,    0.0000000,    0.0000000 ]
  distance:    0.0406286
  band:
  - # 1
    frequency:   -2.7779648739
  - # 2
    frequency:    0.2684949765
  - # 3
    frequency:    0.9316260153
  - # 4
    frequency:    0.9720736326
  - # 5
    frequency:    1.5844290317
  - # 6
    frequency:    1.7065829414
  - # 7
    frequency:    2.4321429878
  - # 8
    frequency:    3.8146180912
  - # 9
    frequency:    4.0727684994
  - # 10
    frequency:    4.4530551438
  - # 11
    frequency:    4.6896229033
  - # 12
    frequency:    5.4794635560
  - # 13
    frequency:    7.8262958372
  - # 14
    frequency:    8.1627554794
  - # 15
    frequency:    8.6358675183
  - # 16
    frequency:    9.2490919699
  - # 17
    frequency:   12.7083264183
  - # 18
    frequency:   15.0691186939
  - # 19
    frequency:   15.1120486714
  - # 20
    frequency:   34.0913556845
  - # 21
    frequency:   59.6442090472

- q-position: [    0.1212121,    0.0000000,    0.0000000 ]
  distance:    0.0423951
  band:
  - # 1
    frequency:   -2.8071226544
  - # 2
    frequency:    0.5373474559
  - # 3
    frequency:    0.9793858732
  - # 4
    frequency:    1.0508923956
  - # 5
    frequency:    1.6383851902
  - # 6
    frequency:    1.7536267421
  - # 7
    frequency:    2.5268368276
  - # 8
    frequency:    3.8257912029
  - # 9
    frequency:    4.1041109797
  - # 10
    frequency:    4.4554579215
  - # 11
    frequency:    4.6958943783
  - # 12
    frequency:    5.5038792777
  - # 13
    frequency:    7.8250521581
  - # 14
    frequency:    8.1836158366
  - # 15
    frequency:    8.6261849316
  - # 16
    frequency:    9.2437249289
  - # 17
    frequency:   12.7061694388
  - # 18
    frequency:   15.0606422483
  - # 19
    frequency:   15.1089898757
  - # 20
    frequency:   34.0849335174
  - # 21
    frequency:   59.6414430494

- q-position: [    0.1262626,    0.0000000,    0.0000000 ]
  distance:    0.0441615
  band:
  - # 1
    frequency:   -2.8361664322
  - # 2
    frequency:    0.6799220730
  - # 3
    frequency:    0.9847369251
  - # 4
    frequency:    1.1754387676
  - # 5
    frequency:    1.6936722336
  - # 6
    frequency:    1.8032419280
  - # 7
    frequency:    2.6191326244
  - # 8
    frequency:    3.8370696301
  - # 9
    frequency:    4.1352068837
  - # 10
    frequency:    4.4612649777
  - # 11
    frequency:    4.7024681354
  - # 12
    frequency:    5.5288281866
  - # 13
    frequency:    7.8238958564
  - # 14
    frequency:    8.2041372669
  - # 15
    frequency:    8.6164297734
  - # 16
    frequency:    9.2383451016
  - # 17
    frequency:   12.7040828667
  - # 18
    frequency:   15.0517442664
  - # 19
    frequency:   15.1059814140
  - # 20
    frequency:   34.0783208541
  - # 21
    frequency:   59.6386022515

- q-position: [    0.1313131,    0.0000000,    0.0000000 ]
  distance:    0.0459280
  band:
  - # 1
    frequency:   -2.8649636444
  - # 2
    frequency:    0.7813140969
  - # 3
    frequency:    0.9884394722
  - # 4
    frequency:    1.2955063772
  - # 5
    frequency:    1.7499283560
  - # 6
    frequency:    1.8560981951
  - # 7
    frequency:    2.7086921728
  - # 8
    frequency:    3.8484278466
  - # 9
    frequency:    4.1655476386
  - # 10
    frequency:    4.4711310576
  - # 11
    frequency:    4.7093413398
  - # 12
    frequency:    5.5542877858
  - # 13
    frequency:    7.8228338965
  - # 14
    frequency:    8.2241023402
  - # 15
    frequency:    8.6067429378
  - # 16
    frequency:    9.2329943281
  - # 17
    frequency:   12.7020746720
  - # 18
    frequency:   15.0424215449
  - # 19
    frequency:   15.1030412961
  - # 20
    frequency:   34.0715270088
  - # 21
    frequency:   59.6356914057

- q-position: [    0.1363636,    0.0000000,    0.0000000 ]
  distance:    0.0476945
  band:
  - # 1
    frequency:   -2.8933861341
  - # 2
    frequency:    0.8642683085
  - # 3
    frequency:    0.9907415198
  - # 4
    frequency:    1.4058909893
  - # 5
    frequency:    1.8068624650
  - # 6
    frequency:    1.9128877592
  - # 7
    frequency:    2.7952132984
  - # 8
    frequency:    3.8598428165
  - # 9
    frequency:    4.1945903653
  - # 10
    frequency:    4.4857297220
  - # 11
    frequency:    4.7165100756
  - # 12
    frequency:    5.5802351973
  - # 13
    frequency:    7.8218717829
  - # 14
    frequency:    8.2432496766
  - # 15
    frequency:    8.5973094488
  - # 16
    frequency:    9.2277190603
  - # 17
    frequency:   12.7001514759
  - # 18
    frequency:   15.0326715624
  - # 19
    frequency:   15.1001874382
  - # 20
    frequency:   34.0645614771
  - # 21
    frequency:   59.6327153416

- q-position: [    0.1414141,    0.0000000,    0.0000000 ]
  distance:    0.0494609
  band:
  - # 1
    frequency:   -2.9213106038
  - # 2
    frequency:    0.9379201381
  - # 3
    frequency:    0.9918387093
  - # 4
    frequency:    1.5047797286
  - # 5
    frequency:    1.8642414046
  - # 6
    frequency:    1.9741647019
  - # 7
    frequency:    2.8784337957
  - # 8
    frequency:    3.8712942178
  - # 9
    frequency:    4.2218691177
  - # 10
    frequency:    4.5056360982
  - # 11
    frequency:    4.7239693532
  - # 12
    frequency:    5.6066471119
  - # 13
    frequency:    7.8210134601
  - # 14
    frequency:    8.2612620233
  - # 15
    frequency:    8.5883700836
  - # 16
    frequency:    9.2225706951
  - # 17
    frequency:   12.6983185382
  - # 18
    frequency:   15.0224925495
  - # 19
    frequency:   15.0974375880
  - # 20
    frequency:   34.0574339151
  - # 21
    frequency:   59.6296789544

- q-position: [    0.1464646,    0.0000000,    0.0000000 ]
  distance:    0.0512274
  band:
  - # 1
    frequency:   -2.9486189571
  - # 2
    frequency:    0.9918855402
  - # 3
    frequency:    1.0063903074
  - # 4
    frequency:    1.5920925262
  - # 5
    frequency:    1.9218782200
  - # 6
    frequency:    2.0401197647
  - # 7
    frequency:    2.9581359423
  - # 8
    frequency:    3.8827646415
  - # 9
    frequency:    4.2471406910
  - # 10
    frequency:    4.5311747517
  - # 11
    frequency:    4.7317131331
  - # 12
    frequency:    5.6334997735
  - # 13
    frequency:    7.8202612254
  - # 14
    frequency:    8.2777550423
  - # 15
    frequency:    8.5802322419
  - # 16
    frequency:    9.2176058924
  - # 17
    frequency:   12.6965797664
  - # 18
    frequency:   15.0118835565
  - # 19
    frequency:   15.0948092513
  - # 20
    frequency:   34.0501541189
  - # 21
    frequency:   59.6265871928

- q-position: [    0.1515152,    0.0000000,    0.0000000 ]
  distance:    0.0529939
  band:
  - # 1
    frequency:   -2.9751985452
  - # 2
    frequency:    0.9910046802
  - # 3
    frequency:    1.0716915447
  - # 4
    frequency:    1.6687188632
  - # 5
    frequency:    1.9796223035
  - # 6
    frequency:    2.1104119424
  - # 7
    frequency:    3.0341510016
  - # 8
    frequency:    3.8942397641
  - # 9
    frequency:    4.2704890445
  - # 10
    frequency:    4.5623089778
  - # 11
    frequency:    4.7397343660
  - # 12
    frequency:    5.6607689855
  - # 13
    frequency:    7.8196156587
  - # 14
    frequency:    8.2922728108
  - # 15
    frequency:    8.5732740923
  - # 16
    frequency:    9.2128868530
  - # 17
    frequency:   12.6949377461
  - # 18
    frequency:   15.0008445161
  - # 19
    frequency:   15.0923196193
  - # 20
    frequency:   34.0427320039
  - # 21
    frequency:   59.6234450470