nqpoint: 300    
npath: 3      
segment_nqpoint:
- 100
- 100
- 100
labels:
- [ 'G', 'M' ]
- [ 'M', 'K' ]
- [ 'K', 'G' ]
reciprocal_lattice:
- [   0.29407083,   0.16978187,   0.00000000 ] # a*
- [   0.00000000,   0.33956375,   0.00000000 ] # b*
- [   0.00000000,   0.00000000,   0.03897515 ] # c*
natom: 7      
lattice:
- [     3.400541265628502,     0.000000000000000,     0.000000000000000 ] # a
- [    -1.700270632814251,     2.944955122642273,     0.000000000000000 ] # b
- [     0.000000000000000,     0.000000000000000,    25.657371740904566 ] # c
points:
- symbol: C # 1
  coordinates: [  0.000000000000000,  0.000000000000000,  0.498768268971002 ]
  mass: 12.010700
- symbol: C # 2
  coordinates: [  0.333332985432215,  0.666666983183674,  0.602498479259674 ]
  mass: 12.010700
- symbol: N # 3
  coordinates: [  0.333332985432215,  0.666666983183674,  0.649223619204470 ]
  mass: 14.006700
- symbol: N # 4
  coordinates: [  0.666666984744047,  0.333332985985145,  0.400986548883869 ]
  mass: 14.006700
- symbol: O # 5
  coordinates: [  0.666666984744047,  0.333332985985145,  0.350776380795530 ]
  mass: 15.999400
- symbol: Sc # 6
  coordinates: [  0.333332985432215,  0.666666983183674,  0.449291368761421 ]
  mass: 44.955912
- symbol: Sc # 7
  coordinates: [  0.666666984744047,  0.333332985985145,  0.546874904454763 ]
  mass: 44.955912

phonon:
- q-position: [    0.0000000,    0.0000000,    0.0000000 ]
  distance:    0.0000000
  band:
  - # 1
    frequency:   -2.8966111835
  - # 2
    frequency:   -2.8966111835
  - # 3
    frequency:   -0.0000017609
  - # 4
    frequency:    0.0000006504
  - # 5
    frequency:    0.0000018897
  - # 6
    frequency:    3.7029805106
  - # 7
    frequency:    3.7029805106
  - # 8
    frequency:    5.6074792395
  - # 9
    frequency:    5.6074792395
  - # 10
    frequency:    5.7845291513
  - # 11
    frequency:    7.5713613166
  - # 12
    frequency:    7.6449451597
  - # 13
    frequency:    7.6449451597
  - # 14
    frequency:    9.1395924073
  - # 15
    frequency:    9.1395924073
  - # 16
    frequency:   10.2502240745
  - # 17
    frequency:   12.2317375457
  - # 18
    frequency:   12.2317375457
  - # 19
    frequency:   17.2876762017
  - # 20
    frequency:   44.3354364650
  - # 21
    frequency:   62.7065490425

- q-position: [    0.0050505,    0.0000000,    0.0000000 ]
  distance:    0.0017150
  band:
  - # 1
    frequency:   -2.8964160130
  - # 2
    frequency:   -2.8963450399
  - # 3
    frequency:   -0.1920907250
  - # 4
    frequency:    0.0739547245
  - # 5
    frequency:    0.2279122931
  - # 6
    frequency:    3.7030480171
  - # 7
    frequency:    3.7036313980
  - # 8
    frequency:    5.6040372192
  - # 9
    frequency:    5.6077069014
  - # 10
    frequency:    5.7876955059
  - # 11
    frequency:    7.5678207510
  - # 12
    frequency:    7.6450913487
  - # 13
    frequency:    7.6490727646
  - # 14
    frequency:    9.1393678449
  - # 15
    frequency:    9.1394012494
  - # 16
    frequency:   10.2496611708
  - # 17
    frequency:   12.2319283994
  - # 18
    frequency:   12.2334671702
  - # 19
    frequency:   17.2867122990
  - # 20
    frequency:   44.3346881799
  - # 21
    frequency:   62.7064592426

- q-position: [    0.0101010,    0.0000000,    0.0000000 ]
  distance:    0.0034299
  band:
  - # 1
    frequency:   -2.8958318469
  - # 2
    frequency:   -2.8955488644
  - # 3
    frequency:   -0.2466781222
  - # 4
    frequency:    0.1478628499
  - # 5
    frequency:    0.3478411238
  - # 6
    frequency:    3.7032513604
  - # 7
    frequency:    3.7055776523
  - # 8
    frequency:    5.5943659016
  - # 9
    frequency:    5.6083886592
  - # 10
    frequency:    5.7965434772
  - # 11
    frequency:    7.5588987245
  - # 12
    frequency:    7.6455287114
  - # 13
    frequency:    7.6597508349
  - # 14
    frequency:    9.1386880444
  - # 15
    frequency:    9.1388227635
  - # 16
    frequency:   10.2479726434
  - # 17
    frequency:   12.2325011999
  - # 18
    frequency:   12.2386481375
  - # 19
    frequency:   17.2838233198
  - # 20
    frequency:   44.3324442666
  - # 21
    frequency:   62.7061901229

- q-position: [    0.0151515,    0.0000000,    0.0000000 ]
  distance:    0.0051449
  band:
  - # 1
    frequency:   -2.8948626959
  - # 2
    frequency:   -2.8942293525
  - # 3
    frequency:   -0.2716903398
  - # 4
    frequency:    0.2216774332
  - # 5
    frequency:    0.4571631215
  - # 6
    frequency:    3.7035930181
  - # 7
    frequency:    3.7088000790
  - # 8
    frequency:    5.5799206465
  - # 9
    frequency:    5.6095208365
  - # 10
    frequency:    5.8096286506
  - # 11
    frequency:    7.5472499409
  - # 12
    frequency:    7.6462536476
  - # 13
    frequency:    7.6743094985
  - # 14
    frequency:    9.1375347428
  - # 15
    frequency:    9.1378419258
  - # 16
    frequency:   10.2451590165
  - # 17
    frequency:   12.2334566452
  - # 18
    frequency:   12.2472568780
  - # 19
    frequency:   17.2790174383
  - # 20
    frequency:   44.3287075491
  - # 21
    frequency:   62.7057425219

- q-position: [    0.0202020,    0.0000000,    0.0000000 ]
  distance:    0.0068599
  band:
  - # 1
    frequency:   -2.8935151594
  - # 2
    frequency:   -2.8923974321
  - # 3
    frequency:   -0.2783841118
  - # 4
    frequency:    0.2953508507
  - # 5
    frequency:    0.5634474744
  - # 6
    frequency:    3.7040771377
  - # 7
    frequency:    3.7132667833
  - # 8
    frequency:    5.5621429678
  - # 9
    frequency:    5.6110973326
  - # 10
    frequency:    5.8255277343
  - # 11
    frequency:    7.5344466699
  - # 12
    frequency:    7.6472601983
  - # 13
    frequency:    7.6911513867
  - # 14
    frequency:    9.1358777551
  - # 15
    frequency:    9.1364337417
  - # 16
    frequency:   10.2412210831
  - # 17
    frequency:   12.2347958297
  - # 18
    frequency:   12.2592545958
  - # 19
    frequency:   17.2723082399
  - # 20
    frequency:   44.3234827291
  - # 21
    frequency:   62.7051178322

- q-position: [    0.0252525,    0.0000000,    0.0000000 ]
  distance:    0.0085748
  band:
  - # 1
    frequency:   -2.8917983016
  - # 2
    frequency:   -2.8900679347
  - # 3
    frequency:   -0.2707127764
  - # 4
    frequency:    0.3688344726
  - # 5
    frequency:    0.6689876219
  - # 6
    frequency:    3.7047095642
  - # 7
    frequency:    3.7189333097
  - # 8
    frequency:    5.5421070593
  - # 9
    frequency:    5.6131096617
  - # 10
    frequency:    5.8431920048
  - # 11
    frequency:    7.5212164406
  - # 12
    frequency:    7.6485401069
  - # 13
    frequency:    7.7095142050
  - # 14
    frequency:    9.1336753535
  - # 15
    frequency:    9.1345633161
  - # 16
    frequency:   10.2361598151
  - # 17
    frequency:   12.2365201417
  - # 18
    frequency:   12.2745879650
  - # 19
    frequency:   17.2637146638
  - # 20
    frequency:   44.3167763780
  - # 21
    frequency:   62.7043179930

- q-position: [    0.0303030,    0.0000000,    0.0000000 ]
  distance:    0.0102898
  band:
  - # 1
    frequency:   -2.8897234842
  - # 2
    frequency:   -2.8872591660
  - # 3
    frequency:   -0.2495232869
  - # 4
    frequency:    0.4420783555
  - # 5
    frequency:    0.7745683170
  - # 6
    frequency:    3.7054978795
  - # 7
    frequency:    3.7257428316
  - # 8
    frequency:    5.5205335324
  - # 9
    frequency:    5.6155470056
  - # 10
    frequency:    5.8619335301
  - # 11
    frequency:    7.5078869426
  - # 12
    frequency:    7.6500829022
  - # 13
    frequency:    7.7290261915
  - # 14
    frequency:    9.1308747914
  - # 15
    frequency:    9.1321859554
  - # 16
    frequency:   10.2299762927
  - # 17
    frequency:   12.2386311220
  - # 18
    frequency:   12.2931900406
  - # 19
    frequency:   17.2532609247
  - # 20
    frequency:   44.3085969259
  - # 21
    frequency:   62.7033454796

- q-position: [    0.0353535,    0.0000000,    0.0000000 ]
  distance:    0.0120048
  band:
  - # 1
    frequency:   -2.8873041612
  - # 2
    frequency:   -2.8839924043
  - # 3
    frequency:   -0.2127134580
  - # 4
    frequency:    0.5150309577
  - # 5
    frequency:    0.8804040674
  - # 6
    frequency:    3.7064514531
  - # 7
    frequency:    3.7336263801
  - # 8
    frequency:    5.4978979339
  - # 9
    frequency:    5.6183962789
  - # 10
    frequency:    5.8813166082
  - # 11
    frequency:    7.4946053189
  - # 12
    frequency:    7.6518760018
  - # 13
    frequency:    7.7494872633
  - # 14
    frequency:    9.1274129701
  - # 15
    frequency:    9.1292473097
  - # 16
    frequency:   10.2226717026
  - # 17
    frequency:   12.2411302855
  - # 18
    frequency:   12.3149813297
  - # 19
    frequency:   17.2409764148
  - # 20
    frequency:   44.2989546477
  - # 21
    frequency:   62.7022032908

- q-position: [    0.0404040,    0.0000000,    0.0000000 ]
  distance:    0.0137197
  band:
  - # 1
    frequency:   -2.8845556434
  - # 2
    frequency:   -2.8802913553
  - # 3
    frequency:   -0.1511693521
  - # 4
    frequency:    0.5876388775
  - # 5
    frequency:    0.9864719342
  - # 6
    frequency:    3.7075815059
  - # 7
    frequency:    3.7425031052
  - # 8
    frequency:    5.4745230270
  - # 9
    frequency:    5.6216422042
  - # 10
    frequency:    5.9010654349
  - # 11
    frequency:    7.4814324764
  - # 12
    frequency:    7.6539048339
  - # 13
    frequency:    7.7707752095
  - # 14
    frequency:    9.1232172398
  - # 15
    frequency:    9.1256835597
  - # 16
    frequency:   10.2142474544
  - # 17
    frequency:   12.2440189082
  - # 18
    frequency:   12.3398709601
  - # 19
    frequency:   17.2268955881
  - # 20
    frequency:   44.2878616459
  - # 21
    frequency:   62.7008949324

- q-position: [    0.0454545,    0.0000000,    0.0000000 ]
  distance:    0.0154347
  band:
  - # 1
    frequency:   -2.8814948407
  - # 2
    frequency:   -2.8761815927
  - # 3
    frequency:    0.0668420717
  - # 4
    frequency:    0.6598466194
  - # 5
    frequency:    1.0926499955
  - # 6
    frequency:    3.7089011859
  - # 7
    frequency:    3.7522805558
  - # 8
    frequency:    5.4506392388
  - # 9
    frequency:    5.6252673947
  - # 10
    frequency:    5.9210036054
  - # 11
    frequency:    7.4683850398
  - # 12
    frequency:    7.6561529726
  - # 13
    frequency:    7.7928042874
  - # 14
    frequency:    9.1182063276
  - # 15
    frequency:    9.1214216637
  - # 16
    frequency:   10.2047054647
  - # 17
    frequency:   12.2472977844
  - # 18
    frequency:   12.3677578886
  - # 19
    frequency:   17.2110578304
  - # 20
    frequency:   44.2753318304
  - # 21
    frequency:   62.6994243991

- q-position: [    0.0505051,    0.0000000,    0.0000000 ]
  distance:    0.0171497
  band:
  - # 1
    frequency:   -2.8781399893
  - # 2
    frequency:   -2.8716900083
  - # 3
    frequency:    0.1907132956
  - # 4
    frequency:    0.7315963859
  - # 5
    frequency:    1.1987789633
  - # 6
    frequency:    3.7104256574
  - # 7
    frequency:    3.7628549630
  - # 8
    frequency:    5.4264214661
  - # 9
    frequency:    5.6292524418
  - # 10
    frequency:    5.9410172544
  - # 11
    frequency:    7.4554553078
  - # 12
    frequency:    7.6586022865
  - # 13
    frequency:    7.8155058357
  - # 14
    frequency:    9.1122913820
  - # 15
    frequency:    9.1163796813
  - # 16
    frequency:   10.1940486457
  - # 17
    frequency:   12.2509669578
  - # 18
    frequency:   12.3985320910
  - # 19
    frequency:   17.1935073158
  - # 20
    frequency:   44.2613808951
  - # 21
    frequency:   62.6977961535

- q-position: [    0.0555556,    0.0000000,    0.0000000 ]
  distance:    0.0188647
  band:
  - # 1
    frequency:   -2.8745103726
  - # 2
    frequency:   -2.8668442937
  - # 3
    frequency:    0.2694385491
  - # 4
    frequency:    0.8028278950
  - # 5
    frequency:    1.3046899149
  - # 6
    frequency:    3.7121722031
  - # 7
    frequency:    3.7741115124
  - # 8
    frequency:    5.4020112373
  - # 9
    frequency:    5.6335760047
  - # 10
    frequency:    5.9610328424
  - # 11
    frequency:    7.4426213802
  - # 12
    frequency:    7.6612330943
  - # 13
    frequency:    7.8388187126
  - # 14
    frequency:    9.1053771233
  - # 15
    frequency:    9.1104671971
  - # 16
    frequency:   10.1822816255
  - # 17
    frequency:   12.2550254327
  - # 18
    frequency:   12.4320756878
  - # 19
    frequency:   17.1742928548
  - # 20
    frequency:   44.2460262916
  - # 21
    frequency:   62.6960151030

- q-position: [    0.0606061,    0.0000000,    0.0000000 ]
  distance:    0.0205796
  band:
  - # 1
    frequency:   -2.8706260441
  - # 2
    frequency:   -2.8616724676
  - # 3
    frequency:    0.3360616585
  - # 4
    frequency:    0.8734782197
  - # 5
    frequency:    1.4102163002
  - # 6
    frequency:    3.7141603400
  - # 7
    frequency:    3.7859245856
  - # 8
    frequency:    5.3775302351
  - # 9
    frequency:    5.6382148981
  - # 10
    frequency:    5.9810035804
  - # 11
    frequency:    7.4298525590
  - # 12
    frequency:    7.6640243258
  - # 13
    frequency:    7.8626844259
  - # 14
    frequency:    9.0973630868
  - # 15
    frequency:    9.1035858817
  - # 16
    frequency:   10.1694117055
  - # 17
    frequency:   12.2594708729
  - # 18
    frequency:   12.4682639690
  - # 19
    frequency:   17.1534677365
  - # 20
    frequency:   44.2292871998
  - # 21
    frequency:   62.6940865746

- q-position: [    0.0656566,    0.0000000,    0.0000000 ]
  distance:    0.0222946
  band:
  - # 1
    frequency:   -2.8665075583
  - # 2
    frequency:   -2.8562024586
  - # 3
    frequency:    0.3965115552
  - # 4
    frequency:    0.9434816482
  - # 5
    frequency:    1.5151985251
  - # 6
    frequency:    3.7164119464
  - # 7
    frequency:    3.7981579521
  - # 8
    frequency:    5.3530887442
  - # 9
    frequency:    5.6431441755
  - # 10
    frequency:    6.0009009275
  - # 11
    frequency:    7.4171123027
  - # 12
    frequency:    7.6669536844
  - # 13
    frequency:    7.8870446406
  - # 14
    frequency:    9.0881449434
  - # 15
    frequency:    9.0956302353
  - # 16
    frequency:   10.1554500421
  - # 17
    frequency:   12.2642992945
  - # 18
    frequency:   12.5069662946
  - # 19
    frequency:   17.1310895689
  - # 20
    frequency:   44.2111844957
  - # 21
    frequency:   62.6920162871

- q-position: [    0.0707071,    0.0000000,    0.0000000 ]
  distance:    0.0240096
  band:
  - # 1
    frequency:   -2.8621757170
  - # 2
    frequency:   -2.8504617480
  - # 3
    frequency:    0.4531005990
  - # 4
    frequency:    1.0127695591
  - # 5
    frequency:    1.6194850601
  - # 6
    frequency:    3.7189514015
  - # 7
    frequency:    3.8106648922
  - # 8
    frequency:    5.3287910724
  - # 9
    frequency:    5.6483372041
  - # 10
    frequency:    6.0207091069
  - # 11
    frequency:    7.4043598203
  - # 12
    frequency:    7.6699978068
  - # 13
    frequency:    7.9118399448
  - # 14
    frequency:    9.0776158844
  - # 15
    frequency:    9.0864885800
  - # 16
    frequency:   10.1404130134
  - # 17
    frequency:   12.2695047645
  - # 18
    frequency:   12.5480468574
  - # 19
    frequency:   17.1072201202
  - # 20
    frequency:   44.1917407156
  - # 21
    frequency:   62.6898103229

- q-position: [    0.0757576,    0.0000000,    0.0000000 ]
  distance:    0.0257245
  band:
  - # 1
    frequency:   -2.8576513346
  - # 2
    frequency:   -2.8444770748
  - # 3
    frequency:    0.5069874088
  - # 4
    frequency:    1.0812703081
  - # 5
    frequency:    1.7229319733
  - # 6
    frequency:    3.7218057334
  - # 7
    frequency:    3.8232882324
  - # 8
    frequency:    5.3047391235
  - # 9
    frequency:    5.6537657279
  - # 10
    frequency:    6.0404214534
  - # 11
    frequency:    7.3915508559
  - # 12
    frequency:    7.6731324160
  - # 13
    frequency:    7.9370092841
  - # 14
    frequency:    9.0656680523
  - # 15
    frequency:    9.0760443826
  - # 16
    frequency:   10.1243237083
  - # 17
    frequency:   12.2750791116
  - # 18
    frequency:   12.5913653064
  - # 19
    frequency:   17.0819251665
  - # 20
    frequency:   44.1709800185
  - # 21
    frequency:   62.6874750965

- q-position: [    0.0808081,    0.0000000,    0.0000000 ]
  distance:    0.0274395
  band:
  - # 1
    frequency:   -2.8529550277
  - # 2
    frequency:   -2.8382742003
  - # 3
    frequency:    0.5588337507
  - # 4
    frequency:    1.1489091247
  - # 5
    frequency:    1.8254018026
  - # 6
    frequency:    3.7250047743
  - # 7
    frequency:    3.8358602755
  - # 8
    frequency:    5.2810348054
  - # 9
    frequency:    5.6593999150
  - # 10
    frequency:    6.0600378960
  - # 11
    frequency:    7.3786379574
  - # 12
    frequency:    7.6763324658
  - # 13
    frequency:    7.9624897292
  - # 14
    frequency:    9.0521940034
  - # 15
    frequency:    9.0641780177
  - # 16
    frequency:   10.1072134494
  - # 17
    frequency:   12.2810116631
  - # 18
    frequency:   12.6367772388
  - # 19
    frequency:   17.0552743476
  - # 20
    frequency:   44.1489281447
  - # 21
    frequency:   62.6850173236

- q-position: [    0.0858586,    0.0000000,    0.0000000 ]
  distance:    0.0291545
  band:
  - # 1
    frequency:   -2.8481070300
  - # 2
    frequency:   -2.8318777317
  - # 3
    frequency:    0.6090469419
  - # 4
    frequency:    1.2156080143
  - # 5
    frequency:    1.9267621940
  - # 6
    frequency:    3.7285813169
  - # 7
    frequency:    3.8482026123
  - # 8
    frequency:    5.2577816695
  - # 9
    frequency:    5.6652083858
  - # 10
    frequency:    6.0795631573
  - # 11
    frequency:    7.3655704020
  - # 12
    frequency:    7.6795722693
  - # 13
    frequency:    7.9882163591
  - # 14
    frequency:    9.0370881846
  - # 15
    frequency:    9.0507691034
  - # 16
    frequency:   10.0891232351
  - # 17
    frequency:   12.2872890143
  - # 18
    frequency:   12.6841345735
  - # 19
    frequency:   17.0273410367
  - # 20
    frequency:   44.1256123719
  - # 21
    frequency:   62.6824439875

- q-position: [    0.0909091,    0.0000000,    0.0000000 ]
  distance:    0.0308694
  band:
  - # 1
    frequency:   -2.8431270353
  - # 2
    frequency:   -2.8253110013
  - # 3
    frequency:    0.6578874057
  - # 4
    frequency:    1.2812856658
  - # 5
    frequency:    2.0268845011
  - # 6
    frequency:    3.7325712681
  - # 7
    frequency:    3.8601258058
  - # 8
    frequency:    5.2350860129
  - # 9
    frequency:    5.6711582179
  - # 10
    frequency:    6.0990054119
  - # 11
    frequency:    7.3522938849
  - # 12
    frequency:    7.6828256111
  - # 13
    frequency:    8.0141221048
  - # 14
    frequency:    9.0202484125
  - # 15
    frequency:    9.0356995705
  - # 16
    frequency:   10.0701049673
  - # 17
    frequency:   12.2938948451
  - # 18
    frequency:   12.7332858253
  - # 19
    frequency:   16.9982022253
  - # 20
    frequency:   44.1010614693
  - # 21
    frequency:   62.6797623054

- q-position: [    0.0959596,    0.0000000,    0.0000000 ]
  distance:    0.0325844
  band:
  - # 1
    frequency:   -2.8380340668
  - # 2
    frequency:   -2.8185959993
  - # 3
    frequency:    0.7055224830
  - # 4
    frequency:    1.3458573675
  - # 5
    frequency:    2.1256424214
  - # 6
    frequency:    3.7370137902
  - # 7
    frequency:    3.8714289462
  - # 8
    frequency:    5.2130575689
  - # 9
    frequency:    5.6772149235
  - # 10
    frequency:    6.1183752401
  - # 11
    frequency:    7.3387500472
  - # 12
    frequency:    7.6860658350
  - # 13
    frequency:    8.0401374144
  - # 14
    frequency:    9.0015773396
  - # 15
    frequency:    9.0188576542
  - # 16
    frequency:   10.0502223190
  - # 17
    frequency:   12.3008097888
  - # 18
    frequency:   12.7840763014
  - # 19
    frequency:   16.9679384274
  - # 20
    frequency:   44.0753056477
  - # 21
    frequency:   62.6769796941

- q-position: [    0.1010101,    0.0000000,    0.0000000 ]
  distance:    0.0342994
  band:
  - # 1
    frequency:   -2.8328463736
  - # 2
    frequency:   -2.8117533607
  - # 3
    frequency:    0.7520556487
  - # 4
    frequency:    1.4092349335
  - # 5
    frequency:    2.2229106971
  - # 6
    frequency:    3.7419514214
  - # 7
    frequency:    3.8818990822
  - # 8
    frequency:    5.1918098472
  - # 9
    frequency:    5.6833423962
  - # 10
    frequency:    6.1376847694
  - # 11
    frequency:    7.3248759112
  - # 12
    frequency:    7.6892659039
  - # 13
    frequency:    8.0661895988
  - # 14
    frequency:    8.9809839003
  - # 15
    frequency:    9.0001430167
  - # 16
    frequency:   10.0295510917
  - # 17
    frequency:   12.3080113646
  - # 18
    frequency:   12.8363482428
  - # 19
    frequency:   16.9366336063
  - # 20
    frequency:   44.0483765086
  - # 21
    frequency:   62.6741037346

- q-position: [    0.1060606,    0.0000000,    0.0000000 ]
  distance:    0.0360143
  band:
  - # 1
    frequency:   -2.8275813521
  - # 2
    frequency:   -2.8048024063
  - # 3
    frequency:    0.7975432367
  - # 4
    frequency:    1.4713266494
  - # 5
    frequency:    2.3185638778
  - # 6
    frequency:    3.7474301622
  - # 7
    frequency:    3.8913105465
  - # 8
    frequency:    5.1714601385
  - # 9
    frequency:    5.6895028208
  - # 10
    frequency:    6.1569469285
  - # 11
    frequency:    7.3106032893
  - # 12
    frequency:    7.6923984248
  - # 13
    frequency:    8.0922016894
  - # 14
    frequency:    8.9583847305
  - # 15
    frequency:    8.9794732347
  - # 16
    frequency:   10.0081789320
  - # 17
    frequency:   12.3154739777
  - # 18
    frequency:   12.8899409311
  - # 19
    frequency:   16.9043751232
  - # 20
    frequency:   44.0203069902
  - # 21
    frequency:   62.6711421375

- q-position: [    0.1111111,    0.0000000,    0.0000000 ]
  distance:    0.0377293
  band:
  - # 1
    frequency:   -2.8222554888
  - # 2
    frequency:   -2.7977612395
  - # 3
    frequency:    0.8420042482
  - # 4
    frequency:    1.5320372468
  - # 5
    frequency:    2.4124751337
  - # 6
    frequency:    3.7534995114
  - # 7
    frequency:    3.8994242050
  - # 8
    frequency:    5.1521291712
  - # 9
    frequency:    5.6956565438
  - # 10
    frequency:    6.1761747576
  - # 11
    frequency:    7.2958582503
  - # 12
    frequency:    7.6954356311
  - # 13
    frequency:    8.1180905746
  - # 14
    frequency:    8.9337055594
  - # 15
    frequency:    8.9567919023
  - # 16
    frequency:    9.9862043119
  - # 17
    frequency:   12.3231689934
  - # 18
    frequency:   12.9446907811
  - # 19
    frequency:   16.8712537121
  - # 20
    frequency:   43.9911313111
  - # 21
    frequency:   62.6681027077

- q-position: [    0.1161616,    0.0000000,    0.0000000 ]
  distance:    0.0394443
  band:
  - # 1
    frequency:   -2.8168843249
  - # 2
    frequency:   -2.7906469050
  - # 3
    frequency:    0.8854260028
  - # 4
    frequency:    1.5912679220
  - # 5
    frequency:    2.5045150949
  - # 6
    frequency:    3.7602124361
  - # 7
    frequency:    3.9059866771
  - # 8
    frequency:    5.1339403890
  - # 9
    frequency:    5.7017618978
  - # 10
    frequency:    6.1953807291
  - # 11
    frequency:    7.2805607503
  - # 12
    frequency:    7.6983493115
  - # 13
    frequency:    8.1437640796
  - # 14
    frequency:    8.9068825794
  - # 15
    frequency:    8.9320786366
  - # 16
    frequency:    9.9637347368
  - # 17
    frequency:   12.3310648856
  - # 18
    frequency:   13.0004314343
  - # 19
    frequency:   16.8373634789
  - # 20
    frequency:   43.9608849124
  - # 21
    frequency:   62.6649933090

- q-position: [    0.1212121,    0.0000000,    0.0000000 ]
  distance:    0.0411592
  band:
  - # 1
    frequency:   -2.8114824360
  - # 2
    frequency:   -2.7834756133
  - # 3
    frequency:    0.9277670625
  - # 4
    frequency:    1.6489164157
  - # 5
    frequency:    2.5945506785
  - # 6
    frequency:    3.7676252511
  - # 7
    frequency:    3.9107295980
  - # 8
    frequency:    5.1170188101
  - # 9
    frequency:    5.7077749751
  - # 10
    frequency:    6.2145760347
  - # 11
    frequency:    7.2646245762
  - # 12
    frequency:    7.7011106735
  - # 13
    frequency:    8.1691164687
  - # 14
    frequency:    8.8778638055
  - # 15
    frequency:    8.9053613489
  - # 16
    frequency:    9.9408842266
  - # 17
    frequency:   12.3391274592
  - # 18
    frequency:   13.0569938671
  - # 19
    frequency:   16.8028019260
  - # 20
    frequency:   43.9296043973
  - # 21
    frequency:   62.6618218306

- q-position: [    0.1262626,    0.0000000,    0.0000000 ]
  distance:    0.0428742
  band:
  - # 1
    frequency:   -2.8060634279
  - # 2
    frequency:   -2.7762630400
  - # 3
    frequency:    0.9689581657
  - # 4
    frequency:    1.7048771745
  - # 5
    frequency:    2.6824438308
  - # 6
    frequency:    3.7757973866
  - # 7
    frequency:    3.9133690305
  - # 8
    frequency:    5.1014894362
  - # 9
    frequency:    5.7136493454
  - # 10
    frequency:    6.2337697938
  - # 11
    frequency:    7.2479578008
  - # 12
    frequency:    7.7036901231
  - # 13
    frequency:    8.1940215455
  - # 14
    frequency:    8.8466104456
  - # 15
    frequency:    8.8767313129
  - # 16
    frequency:    9.9177702090
  - # 17
    frequency:   12.3473201442
  - # 18
    frequency:   13.1142065213
  - # 19
    frequency:   16.7676700000
  - # 20
    frequency:   43.8973274693
  - # 21
    frequency:   62.6585961524

- q-position: [    0.1313131,    0.0000000,    0.0000000 ]
  distance:    0.0445892
  band:
  - # 1
    frequency:   -2.8006399421
  - # 2
    frequency:   -2.7690247102
  - # 3
    frequency:    1.0089015133
  - # 4
    frequency:    1.7590416156
  - # 5
    frequency:    2.7680500520
  - # 6
    frequency:    3.7847910188
  - # 7
    frequency:    3.9136052022
  - # 8
    frequency:    5.0874752002
  - # 9
    frequency:    5.7193357099
  - # 10
    frequency:    6.2529681250
  - # 11
    frequency:    7.2304640209
  - # 12
    frequency:    7.7060569381
  - # 13
    frequency:    8.2183220188
  - # 14
    frequency:    8.8130983113
  - # 15
    frequency:    8.8463619227
  - # 16
    frequency:    9.8945100509
  - # 17
    frequency:   12.3556043546
  - # 18
    frequency:   13.1718954629
  - # 19
    frequency:   16.7320721605
  - # 20
    frequency:   43.8640928692
  - # 21
    frequency:   62.6553241124

- q-position: [    0.1363636,    0.0000000,    0.0000000 ]
  distance:    0.0463041
  band:
  - # 1
    frequency:   -2.7952236715
  - # 2
    frequency:   -2.7617764818
  - # 3
    frequency:    1.0474684886
  - # 4
    frequency:    1.8112985188
  - # 5
    frequency:    2.8512164439
  - # 6
    frequency:    3.7946705373
  - # 7
    frequency:    3.9111228773
  - # 8
    frequency:    5.0750944732
  - # 9
    frequency:    5.7247814865
  - # 10
    frequency:    6.2721730112
  - # 11
    frequency:    7.2120447359
  - # 12
    frequency:    7.7081788028
  - # 13
    frequency:    8.2418129663
  - # 14
    frequency:    8.7773193125
  - # 15
    frequency:    8.8145327126
  - # 16
    frequency:    9.8712175294
  - # 17
    frequency:   12.3639399044
  - # 18
    frequency:   13.2298845700
  - # 19
    frequency:   16.6961164665
  - # 20
    frequency:   43.8299403097
  - # 21
    frequency:   62.6520134747

- q-position: [    0.1414141,    0.0000000,    0.0000000 ]
  distance:    0.0480191
  band:
  - # 1
    frequency:   -2.7898253817
  - # 2
    frequency:   -2.7545351463
  - # 3
    frequency:    1.0844956869
  - # 4
    frequency:    1.8615345644
  - # 5
    frequency:    2.9317787765
  - # 6
    frequency:    3.8055018272
  - # 7
    frequency:    3.9055929384
  - # 8
    frequency:    5.0644582013
  - # 9
    frequency:    5.7299303187
  - # 10
    frequency:    6.2913808609
  - # 11
    frequency:    7.1926033191
  - # 12
    frequency:    7.7100211600
  - # 13
    frequency:    8.2642159418
  - # 14
    frequency:    8.7392830943
  - # 15
    frequency:    8.7816613708
  - # 16
    frequency:    9.8479995720
  - # 17
    frequency:   12.3722854715
  - # 18
    frequency:   13.2879957507
  - # 19
    frequency:   16.6599146749
  - # 20
    frequency:   43.7949104094
  - # 21
    frequency:   62.6486718986

- q-position: [    0.1464646,    0.0000000,    0.0000000 ]
  distance:    0.0497341
  band:
  - # 1
    frequency:   -2.7844549376
  - # 2
    frequency:   -2.7473191721
  - # 3
    frequency:    1.1197789288
  - # 4
    frequency:    1.9096350312
  - # 5
    frequency:    3.0095565680
  - # 6
    frequency:    3.8173513488
  - # 7
    frequency:    3.8966763102
  - # 8
    frequency:    5.0556667889
  - # 9
    frequency:    5.7347215007
  - # 10
    frequency:    6.3105806319
  - # 11
    frequency:    7.1720511380
  - # 12
    frequency:    7.7115463175
  - # 13
    frequency:    8.2851385774
  - # 14
    frequency:    8.6990188953
  - # 15
    frequency:    8.7483480815
  - # 16
    frequency:    9.8249535827
  - # 17
    frequency:   12.3805990974
  - # 18
    frequency:   13.3460491868
  - # 19
    frequency:   16.6235823454
  - # 20
    frequency:   43.7590446263
  - # 21
    frequency:   62.6453069090

- q-position: [    0.1515152,    0.0000000,    0.0000000 ]
  distance:    0.0514491
  band:
  - # 1
    frequency:   -2.7791213322
  - # 2
    frequency:   -2.7401496241
  - # 3
    frequency:    1.1530646910
  - # 4
    frequency:    1.9554846630
  - # 5
    frequency:    3.0843441233
  - # 6
    frequency:    3.8302850043
  - # 7
    frequency:    3.8840325165
  - # 8
    frequency:    5.0488068923
  - # 9
    frequency:    5.7390893118
  - # 10
    frequency:    6.3297513299
  - # 11
    frequency:    7.1503164559
  - # 12
    frequency:    7.7127122231
  - # 13
    frequency:    8.3040135129
  - # 14
    frequency:    8.6565777344
  - # 15
    frequency:    8.7154375172
  - # 16
    frequency:    9.8021656028
  - # 17
    frequency:   12.3888387114
  - # 18
    frequency:   13.4038636026
  - # 19
    frequency:   16.5872389424
  - # 20
    frequency:   43.7223851894
  - # 21
    frequency:   62.6419258687