nqpoint: 300    
npath: 3      
segment_nqpoint:
- 100
- 100
- 100
labels:
- [ 'G', 'M' ]
- [ 'M', 'K' ]
- [ 'K', 'G' ]
reciprocal_lattice:
- [   0.29407083,   0.16978187,   0.00000000 ] # a*
- [   0.00000000,   0.33956375,   0.00000000 ] # b*
- [   0.00000000,   0.00000000,   0.03897515 ] # c*
natom: 7      
lattice:
- [     3.400541265628502,     0.000000000000000,     0.000000000000000 ] # a
- [    -1.700270632814251,     2.944955122642273,     0.000000000000000 ] # b
- [     0.000000000000000,     0.000000000000000,    25.657371740904566 ] # c
points:
- symbol: C # 1
  coordinates: [  0.000000000000000,  0.000000000000000,  0.498768268971002 ]
  mass: 12.010700
- symbol: C # 2
  coordinates: [  0.333332985432215,  0.666666983183674,  0.602498479259674 ]
  mass: 12.010700
- symbol: N # 3
  coordinates: [  0.333332985432215,  0.666666983183674,  0.649223619204470 ]
  mass: 14.006700
- symbol: N # 4
  coordinates: [  0.666666984744047,  0.333332985985145,  0.400986548883869 ]
  mass: 14.006700
- symbol: O # 5
  coordinates: [  0.666666984744047,  0.333332985985145,  0.350776380795530 ]
  mass: 15.999400
- symbol: Sc # 6
  coordinates: [  0.333332985432215,  0.666666983183674,  0.449291368761421 ]
  mass: 44.955912
- symbol: Sc # 7
  coordinates: [  0.666666984744047,  0.333332985985145,  0.546874904454763 ]
  mass: 44.955912

phonon:
- q-position: [    0.0000000,    0.0000000,    0.0000000 ]
  distance:    0.0000000
  band:
  - # 1
    frequency:   -3.0441298679
  - # 2
    frequency:   -3.0441298679
  - # 3
    frequency:   -0.0000200460
  - # 4
    frequency:    0.0000005968
  - # 5
    frequency:    0.0000164820
  - # 6
    frequency:    3.6922336499
  - # 7
    frequency:    3.6922336499
  - # 8
    frequency:    5.7964620634
  - # 9
    frequency:    5.8151751021
  - # 10
    frequency:    5.8151751021
  - # 11
    frequency:    7.6197503624
  - # 12
    frequency:    7.6431924772
  - # 13
    frequency:    7.6431924772
  - # 14
    frequency:    9.6443157774
  - # 15
    frequency:    9.6443157774
  - # 16
    frequency:   10.2696074138
  - # 17
    frequency:   12.4265107503
  - # 18
    frequency:   12.4265107504
  - # 19
    frequency:   17.2452056423
  - # 20
    frequency:   44.3392407983
  - # 21
    frequency:   62.7001916255

- q-position: [    0.0050505,    0.0000000,    0.0000000 ]
  distance:    0.0017150
  band:
  - # 1
    frequency:   -3.0439907742
  - # 2
    frequency:   -3.0438239725
  - # 3
    frequency:    0.0009867112
  - # 4
    frequency:    0.0596069807
  - # 5
    frequency:    0.0985538556
  - # 6
    frequency:    3.6924990739
  - # 7
    frequency:    3.6929969127
  - # 8
    frequency:    5.7809253474
  - # 9
    frequency:    5.8151491637
  - # 10
    frequency:    5.8301591739
  - # 11
    frequency:    7.6111914858
  - # 12
    frequency:    7.6432425049
  - # 13
    frequency:    7.6522455749
  - # 14
    frequency:    9.6423651825
  - # 15
    frequency:    9.6435507068
  - # 16
    frequency:   10.2689443031
  - # 17
    frequency:   12.4263734077
  - # 18
    frequency:   12.4278343523
  - # 19
    frequency:   17.2443389357
  - # 20
    frequency:   44.3384833241
  - # 21
    frequency:   62.7001171479

- q-position: [    0.0101010,    0.0000000,    0.0000000 ]
  distance:    0.0034299
  band:
  - # 1
    frequency:   -3.0435731935
  - # 2
    frequency:   -3.0429063769
  - # 3
    frequency:    0.0039394728
  - # 4
    frequency:    0.1191777885
  - # 5
    frequency:    0.1970614958
  - # 6
    frequency:    3.6932953429
  - # 7
    frequency:    3.6952800868
  - # 8
    frequency:    5.7582081794
  - # 9
    frequency:    5.8150712451
  - # 10
    frequency:    5.8512199628
  - # 11
    frequency:    7.5967755178
  - # 12
    frequency:    7.6433920964
  - # 13
    frequency:    7.6681411271
  - # 14
    frequency:    9.6365183962
  - # 15
    frequency:    9.6412515169
  - # 16
    frequency:   10.2669562852
  - # 17
    frequency:   12.4259648845
  - # 18
    frequency:   12.4318029750
  - # 19
    frequency:   17.2417405881
  - # 20
    frequency:   44.3362119048
  - # 21
    frequency:   62.6998938848

- q-position: [    0.0151515,    0.0000000,    0.0000000 ]
  distance:    0.0051449
  band:
  - # 1
    frequency:   -3.0428762395
  - # 2
    frequency:   -3.0413773745
  - # 3
    frequency:    0.0088441127
  - # 4
    frequency:    0.1786763659
  - # 5
    frequency:    0.2954770351
  - # 6
    frequency:    3.6946224539
  - # 7
    frequency:    3.6990633272
  - # 8
    frequency:    5.7343267702
  - # 9
    frequency:    5.8149410335
  - # 10
    frequency:    5.8723459512
  - # 11
    frequency:    7.5817918089
  - # 12
    frequency:    7.6436397779
  - # 13
    frequency:    7.6855805191
  - # 14
    frequency:    9.6267904439
  - # 15
    frequency:    9.6374063587
  - # 16
    frequency:   10.2636473534
  - # 17
    frequency:   12.4252956256
  - # 18
    frequency:   12.4384100400
  - # 19
    frequency:   17.2374159178
  - # 20
    frequency:   44.3324295484
  - # 21
    frequency:   62.6995223449

- q-position: [    0.0202020,    0.0000000,    0.0000000 ]
  distance:    0.0068599
  band:
  - # 1
    frequency:   -3.0418984760
  - # 2
    frequency:   -3.0392375267
  - # 3
    frequency:    0.0156757585
  - # 4
    frequency:    0.2380668718
  - # 5
    frequency:    0.3937552412
  - # 6
    frequency:    3.6964804182
  - # 7
    frequency:    3.7043135465
  - # 8
    frequency:    5.7096974301
  - # 9
    frequency:    5.8147579973
  - # 10
    frequency:    5.8931287612
  - # 11
    frequency:    7.5669796319
  - # 12
    frequency:    7.6439830960
  - # 13
    frequency:    7.7038089481
  - # 14
    frequency:    9.6132064728
  - # 15
    frequency:    9.6319957670
  - # 16
    frequency:   10.2590243315
  - # 17
    frequency:   12.4243828045
  - # 18
    frequency:   12.4476444888
  - # 19
    frequency:   17.2313737948
  - # 20
    frequency:   44.3271412611
  - # 21
    frequency:   62.6990033740

- q-position: [    0.0252525,    0.0000000,    0.0000000 ]
  distance:    0.0085748
  band:
  - # 1
    frequency:   -3.0406379781
  - # 2
    frequency:   -3.0364877685
  - # 3
    frequency:    0.0243997204
  - # 4
    frequency:    0.2973137762
  - # 5
    frequency:    0.4918518148
  - # 6
    frequency:    3.6988692868
  - # 7
    frequency:    3.7109843817
  - # 8
    frequency:    5.6844029238
  - # 9
    frequency:    5.8145213704
  - # 10
    frequency:    5.9134969717
  - # 11
    frequency:    7.5525079348
  - # 12
    frequency:    7.6444186211
  - # 13
    frequency:    7.7226355302
  - # 14
    frequency:    9.5958019304
  - # 15
    frequency:    9.6249930812
  - # 16
    frequency:   10.2530971110
  - # 17
    frequency:   12.4232499757
  - # 18
    frequency:   12.4594906445
  - # 19
    frequency:   17.2236266495
  - # 20
    frequency:   44.3203540377
  - # 21
    frequency:   62.6983381525

- q-position: [    0.0303030,    0.0000000,    0.0000000 ]
  distance:    0.0102898
  band:
  - # 1
    frequency:   -3.0390924154
  - # 2
    frequency:   -3.0331295486
  - # 3
    frequency:    0.0349716013
  - # 4
    frequency:    0.3563819346
  - # 5
    frequency:    0.5897236249
  - # 6
    frequency:    3.7017891854
  - # 7
    frequency:    3.7190161195
  - # 8
    frequency:    5.6584679723
  - # 9
    frequency:    5.8142301308
  - # 10
    frequency:    5.9334408712
  - # 11
    frequency:    7.5384252567
  - # 12
    frequency:    7.6449419534
  - # 13
    frequency:    7.7419831739
  - # 14
    frequency:    9.5746228517
  - # 15
    frequency:    9.6163650272
  - # 16
    frequency:   10.2458789555
  - # 17
    frequency:   12.4219265955
  - # 18
    frequency:   12.4739280263
  - # 19
    frequency:   17.2141904859
  - # 20
    frequency:   44.3120768470
  - # 21
    frequency:   62.6975281916

- q-position: [    0.0353535,    0.0000000,    0.0000000 ]
  distance:    0.0120048
  band:
  - # 1
    frequency:   -3.0372591550
  - # 2
    frequency:   -3.0291649990
  - # 3
    frequency:    0.0473374062
  - # 4
    frequency:    0.4152366371
  - # 5
    frequency:    0.6873288817
  - # 6
    frequency:    3.7052403586
  - # 7
    frequency:    3.7283355499
  - # 8
    frequency:    5.6319026633
  - # 9
    frequency:    5.8138829710
  - # 10
    frequency:    5.9529693979
  - # 11
    frequency:    7.5247405536
  - # 12
    frequency:    7.6455477291
  - # 13
    frequency:    7.7618074611
  - # 14
    frequency:    9.5497262934
  - # 15
    frequency:    9.6060724529
  - # 16
    frequency:   10.2373868478
  - # 17
    frequency:   12.4204474170
  - # 18
    frequency:   12.4909311220
  - # 19
    frequency:   17.2030848973
  - # 20
    frequency:   44.3023206134
  - # 21
    frequency:   62.6965753282

- q-position: [    0.0404040,    0.0000000,    0.0000000 ]
  distance:    0.0137197
  band:
  - # 1
    frequency:   -3.0351353835
  - # 2
    frequency:   -3.0245971263
  - # 3
    frequency:    0.0614336314
  - # 4
    frequency:    0.4738436287
  - # 5
    frequency:    0.7846272371
  - # 6
    frequency:    3.7092232235
  - # 7
    frequency:    3.7388557123
  - # 8
    frequency:    5.6047140572
  - # 9
    frequency:    5.8134782614
  - # 10
    frequency:    5.9720990014
  - # 11
    frequency:    7.5114447222
  - # 12
    frequency:    7.6462296266
  - # 13
    frequency:    7.7820747277
  - # 14
    frequency:    9.5211809586
  - # 15
    frequency:    9.5940712067
  - # 16
    frequency:   10.2276418514
  - # 17
    frequency:   12.4188517718
  - # 18
    frequency:   12.5104691304
  - # 19
    frequency:   17.1903330865
  - # 20
    frequency:   44.2910981954
  - # 21
    frequency:   62.6954817190

- q-position: [    0.0454545,    0.0000000,    0.0000000 ]
  distance:    0.0154347
  band:
  - # 1
    frequency:   -3.0327182429
  - # 2
    frequency:   -3.0194300180
  - # 3
    frequency:    0.0771873057
  - # 4
    frequency:    0.5321690953
  - # 5
    frequency:    0.8815798059
  - # 6
    frequency:    3.7137384329
  - # 7
    frequency:    3.7504754896
  - # 8
    frequency:    5.5769106328
  - # 9
    frequency:    5.8130140060
  - # 10
    frequency:    5.9908498077
  - # 11
    frequency:    7.4985177529
  - # 12
    frequency:    7.6469803745
  - # 13
    frequency:    7.8027543848
  - # 14
    frequency:    9.4890680629
  - # 15
    frequency:    9.5803131458
  - # 16
    frequency:   10.2166694589
  - # 17
    frequency:   12.4171827498
  - # 18
    frequency:   12.5325056822
  - # 19
    frequency:   17.1759618886
  - # 20
    frequency:   44.2784243589
  - # 21
    frequency:   62.6942498337

- q-position: [    0.0505051,    0.0000000,    0.0000000 ]
  distance:    0.0171497
  band:
  - # 1
    frequency:   -3.0300049798
  - # 2
    frequency:   -3.0136690567
  - # 3
    frequency:    0.0945159556
  - # 4
    frequency:    0.5901796133
  - # 5
    frequency:    0.9781491005
  - # 6
    frequency:    3.7187869458
  - # 7
    frequency:    3.7630789961
  - # 8
    frequency:    5.5485046922
  - # 9
    frequency:    5.8124877881
  - # 10
    frequency:    6.0092440011
  - # 11
    frequency:    7.4859313368
  - # 12
    frequency:    7.6477917570
  - # 13
    frequency:    7.8238156238
  - # 14
    frequency:    9.4534824999
  - # 15
    frequency:    9.5647472592
  - # 16
    frequency:   10.2044998988
  - # 17
    frequency:   12.4154862937
  - # 18
    frequency:   12.5569985527
  - # 19
    frequency:   17.1600017984
  - # 20
    frequency:   44.2643157476
  - # 21
    frequency:   62.6928824471

- q-position: [    0.0555556,    0.0000000,    0.0000000 ]
  distance:    0.0188647
  band:
  - # 1
    frequency:   -3.0269931023
  - # 2
    frequency:   -3.0073211360
  - # 3
    frequency:    0.1133274629
  - # 4
    frequency:    0.6478420587
  - # 5
    frequency:    1.0742988760
  - # 6
    frequency:    3.7243701076
  - # 7
    frequency:    3.7765346990
  - # 8
    frequency:    5.5195141805
  - # 9
    frequency:    5.8118967066
  - # 10
    frequency:    6.0273050141
  - # 11
    frequency:    7.4736497105
  - # 12
    frequency:    7.6486546189
  - # 13
    frequency:    7.8452256744
  - # 14
    frequency:    9.4145343714
  - # 15
    frequency:    9.5473208851
  - # 16
    frequency:   10.1911683777
  - # 17
    frequency:   12.4138102264
  - # 18
    frequency:   12.5838993779
  - # 19
    frequency:   17.1424870007
  - # 20
    frequency:   44.2487908497
  - # 21
    frequency:   62.6913826297

- q-position: [    0.0606061,    0.0000000,    0.0000000 ]
  distance:    0.0205796
  band:
  - # 1
    frequency:   -3.0236805433
  - # 2
    frequency:   -3.0003948719
  - # 3
    frequency:    0.1335197770
  - # 4
    frequency:    0.7051234751
  - # 5
    frequency:    1.1699938851
  - # 6
    frequency:    3.7304897359
  - # 7
    frequency:    3.7906942029
  - # 8
    frequency:    5.4899644462
  - # 9
    frequency:    5.8112373013
  - # 10
    frequency:    6.0450570465
  - # 11
    frequency:    7.4616296780
  - # 12
    frequency:    7.6495588675
  - # 13
    frequency:    7.8669486184
  - # 14
    frequency:    9.3723509590
  - # 15
    frequency:    9.5279810026
  - # 16
    frequency:   10.1767152391
  - # 17
    frequency:   12.4122032342
  - # 18
    frequency:   12.6131533870
  - # 19
    frequency:   17.1234554045
  - # 20
    frequency:   44.2318699602
  - # 21
    frequency:   62.6897537383

- q-position: [    0.0656566,    0.0000000,    0.0000000 ]
  distance:    0.0222946
  band:
  - # 1
    frequency:   -3.0200658253
  - # 2
    frequency:   -2.9929008077
  - # 3
    frequency:    0.1549804434
  - # 4
    frequency:    0.7619908986
  - # 5
    frequency:    1.2651995397
  - # 6
    frequency:    3.7371482153
  - # 7
    frequency:    3.8053906209
  - # 8
    frequency:    5.4598901933
  - # 9
    frequency:    5.8105054651
  - # 10
    frequency:    6.0625247334
  - # 11
    frequency:    7.4498201627
  - # 12
    frequency:    7.6504934703
  - # 13
    frequency:    7.8889443259
  - # 14
    frequency:    9.3270792253
  - # 15
    frequency:    9.5066755732
  - # 16
    frequency:   10.1611860239
  - # 17
    frequency:   12.4107138294
  - # 18
    frequency:   12.6446991625
  - # 19
    frequency:   17.1029486815
  - # 20
    frequency:   44.2135751404
  - # 21
    frequency:   62.6879994050

- q-position: [    0.0707071,    0.0000000,    0.0000000 ]
  distance:    0.0240096
  band:
  - # 1
    frequency:   -3.0161482245
  - # 2
    frequency:   -2.9848516073
  - # 3
    frequency:    0.1775858993
  - # 4
    frequency:    0.8184111406
  - # 5
    frequency:    1.3598814819
  - # 6
    frequency:    3.7443485963
  - # 7
    frequency:    3.8204364488
  - # 8
    frequency:    5.4293377764
  - # 9
    frequency:    5.8096963431
  - # 10
    frequency:    6.0797328780
  - # 11
    frequency:    7.4381614298
  - # 12
    frequency:    7.6514464470
  - # 13
    frequency:    7.9111672709
  - # 14
    frequency:    9.2788889603
  - # 15
    frequency:    9.4833549065
  - # 16
    frequency:   10.1446314271
  - # 17
    frequency:   12.4093893185
  - # 18
    frequency:   12.6784684371
  - # 19
    frequency:   17.0810123080
  - # 20
    frequency:   44.1939301737
  - # 21
    frequency:   62.6861235258

- q-position: [    0.0757576,    0.0000000,    0.0000000 ]
  distance:    0.0257245
  band:
  - # 1
    frequency:   -3.0119279296
  - # 2
    frequency:   -2.9762622371
  - # 3
    frequency:    0.2012004836
  - # 4
    frequency:    0.8743505290
  - # 5
    frequency:    1.4540050611
  - # 6
    frequency:    3.7520947011
  - # 7
    frequency:    3.8356208578
  - # 8
    frequency:    5.3983679563
  - # 9
    frequency:    5.8088042152
  - # 10
    frequency:    6.0967062139
  - # 11
    frequency:    7.4265840328
  - # 12
    frequency:    7.6524048533
  - # 13
    frequency:    7.9335650276
  - # 14
    frequency:    9.2279767180
  - # 15
    frequency:    9.4579730259
  - # 16
    frequency:   10.1271071481
  - # 17
    frequency:   12.4082748035
  - # 18
    frequency:   12.7143859362
  - # 19
    frequency:   17.0576956125
  - # 20
    frequency:   44.1729605183
  - # 21
    frequency:   62.6841302478

- q-position: [    0.0808081,    0.0000000,    0.0000000 ]
  distance:    0.0274395
  band:
  - # 1
    frequency:   -3.0074061935
  - # 2
    frequency:   -2.9671501367
  - # 3
    frequency:    0.2256750897
  - # 4
    frequency:    0.9297746092
  - # 5
    frequency:    1.5475347183
  - # 6
    frequency:    3.7603912325
  - # 7
    frequency:    3.8507063311
  - # 8
    frequency:    5.3670592144
  - # 9
    frequency:    5.8078223614
  - # 10
    frequency:    6.1134691756
  - # 11
    frequency:    7.4150075079
  - # 12
    frequency:    7.6533547543
  - # 13
    frequency:    7.9560762257
  - # 14
    frequency:    9.1745707435
  - # 15
    frequency:    9.4304890067
  - # 16
    frequency:   10.1086736384
  - # 17
    frequency:   12.4074122440
  - # 18
    frequency:   12.7523692704
  - # 19
    frequency:   17.0330518275
  - # 20
    frequency:   44.1506932565
  - # 21
    frequency:   62.6820239562

- q-position: [    0.0858586,    0.0000000,    0.0000000 ]
  distance:    0.0291545
  band:
  - # 1
    frequency:   -3.0025854737
  - # 2
    frequency:   -2.9575353793
  - # 3
    frequency:    0.2508453789
  - # 4
    frequency:    0.9846478073
  - # 5
    frequency:    1.6404332697
  - # 6
    frequency:    3.7692438857
  - # 7
    frequency:    3.8654245944
  - # 8
    frequency:    5.3355116979
  - # 9
    frequency:    5.8067429065
  - # 10
    frequency:    6.1300456658
  - # 11
    frequency:    7.4033388306
  - # 12
    frequency:    7.6542811837
  - # 13
    frequency:    7.9786276666
  - # 14
    frequency:    9.1189371704
  - # 15
    frequency:    9.4008682665
  - # 16
    frequency:   10.0893957580
  - # 17
    frequency:   12.4068396051
  - # 18
    frequency:   12.7923288804
  - # 19
    frequency:   17.0071381471
  - # 20
    frequency:   44.1271570411
  - # 21
    frequency:   62.6798092601

- q-position: [    0.0909091,    0.0000000,    0.0000000 ]
  distance:    0.0308694
  band:
  - # 1
    frequency:   -2.9974695597
  - # 2
    frequency:   -2.9474408253
  - # 3
    frequency:    0.2765294384
  - # 4
    frequency:    1.0389330600
  - # 5
    frequency:    1.7326610847
  - # 6
    frequency:    3.7786594619
  - # 7
    frequency:    3.8794718485
  - # 8
    frequency:    5.3038518187
  - # 9
    frequency:    5.8055566427
  - # 10
    frequency:    6.1464588104
  - # 11
    frequency:    7.3914706622
  - # 12
    frequency:    7.6551680851
  - # 13
    frequency:    8.0011301582
  - # 14
    frequency:    9.0613878979
  - # 15
    frequency:    9.3690837864
  - # 16
    frequency:   10.0693423499
  - # 17
    frequency:   12.4065901154
  - # 18
    frequency:   12.8341680343
  - # 19
    frequency:   16.9800157919
  - # 20
    frequency:   44.1023820391
  - # 21
    frequency:   62.6774909785

- q-position: [    0.0959596,    0.0000000,    0.0000000 ]
  distance:    0.0325844
  band:
  - # 1
    frequency:   -2.9920636840
  - # 2
    frequency:   -2.9368922745
  - # 3
    frequency:    0.3025247365
  - # 4
    frequency:    1.0925914142
  - # 5
    frequency:    1.8241751394
  - # 6
    frequency:    3.7886459801
  - # 7
    frequency:    3.8925034225
  - # 8
    frequency:    5.2722374392
  - # 9
    frequency:    5.8042528261
  - # 10
    frequency:    6.1627306945
  - # 11
    frequency:    7.3792794466
  - # 12
    frequency:    7.6559982316
  - # 13
    frequency:    8.0234723834
  - # 14
    frequency:    9.0022907644
  - # 15
    frequency:    9.3351172488
  - # 16
    frequency:   10.0485857520
  - # 17
    frequency:   12.4066916544
  - # 18
    frequency:   12.8777828757
  - # 19
    frequency:   16.9517500801
  - # 20
    frequency:   44.0763998724
  - # 21
    frequency:   62.6750741244

- q-position: [    0.1010101,    0.0000000,    0.0000000 ]
  distance:    0.0342994
  band:
  - # 1
    frequency:   -2.9863746138
  - # 2
    frequency:   -2.9259186241
  - # 3
    frequency:    0.3286041670
  - # 4
    frequency:    1.1455816016
  - # 5
    frequency:    1.9149279216
  - # 6
    frequency:    3.7992127864
  - # 7
    frequency:    3.9041281516
  - # 8
    frequency:    5.2408634120
  - # 9
    frequency:    5.8028189441
  - # 10
    frequency:    6.1788820685
  - # 11
    frequency:    7.3666234736
  - # 12
    frequency:    7.6567531150
  - # 13
    frequency:    8.0455117212
  - # 14
    frequency:    8.9420829673
  - # 15
    frequency:    9.2989600849
  - # 16
    frequency:   10.0272012593
  - # 17
    frequency:   12.4071662859
  - # 18
    frequency:   12.9230625159
  - # 19
    frequency:   16.9224105086
  - # 20
    frequency:   44.0492435567
  - # 21
    frequency:   62.6725638891

- q-position: [    0.1060606,    0.0000000,    0.0000000 ]
  distance:    0.0360143
  band:
  - # 1
    frequency:   -2.9804107238
  - # 2
    frequency:   -2.9145520409
  - # 3
    frequency:    0.3545108983
  - # 4
    frequency:    1.1978595951
  - # 5
    frequency:    2.0048661426
  - # 6
    frequency:    3.8103706553
  - # 7
    frequency:    3.9139030846
  - # 8
    frequency:    5.2099669854
  - # 9
    frequency:    5.8012404497
  - # 10
    frequency:    6.1949320147
  - # 11
    frequency:    7.3533411229
  - # 12
    frequency:    7.6574127999
  - # 13
    frequency:    8.0670602916
  - # 14
    frequency:    8.8812892278
  - # 15
    frequency:    9.2606144303
  - # 16
    frequency:   10.0052665582
  - # 17
    frequency:   12.4080299451
  - # 18
    frequency:   12.9698891662
  - # 19
    frequency:   16.8920708429
  - # 20
    frequency:   44.0209474371
  - # 21
    frequency:   62.6699656264

- q-position: [    0.1111111,    0.0000000,    0.0000000 ]
  distance:    0.0377293
  band:
  - # 1
    frequency:   -2.9741820448
  - # 2
    frequency:   -2.9028281627
  - # 3
    frequency:    0.3799516176
  - # 4
    frequency:    1.2493781527
  - # 5
    frequency:    2.0939291869
  - # 6
    frequency:    3.8221318827
  - # 7
    frequency:    3.9213295636
  - # 8
    frequency:    5.1798321991
  - # 9
    frequency:    5.7995004593
  - # 10
    frequency:    6.2108975570
  - # 11
    frequency:    7.3392496425
  - # 12
    frequency:    7.6579557316
  - # 13
    frequency:    8.0878634928
  - # 14
    frequency:    8.8205470526
  - # 15
    frequency:    9.2200939966
  - # 16
    frequency:    9.9828611472
  - # 17
    frequency:   12.4092922849
  - # 18
    frequency:   13.0181382998
  - # 19
    frequency:   16.8608092187
  - # 20
    frequency:   43.9915471226
  - # 21
    frequency:   62.6672848352

- q-position: [    0.1161616,    0.0000000,    0.0000000 ]
  distance:    0.0394443
  band:
  - # 1
    frequency:   -2.9677002903
  - # 2
    frequency:   -2.8907863447
  - # 3
    frequency:    0.4045875774
  - # 4
    frequency:    1.3000863567
  - # 5
    frequency:    2.1820471843
  - # 6
    frequency:    3.8345103617
  - # 7
    frequency:    3.9258522960
  - # 8
    frequency:    5.1507919049
  - # 9
    frequency:    5.7975794076
  - # 10
    frequency:    6.2267931933
  - # 11
    frequency:    7.3241450161
  - # 12
    frequency:    7.6583584860
  - # 13
    frequency:    8.1075668835
  - # 14
    frequency:    8.7606426480
  - # 15
    frequency:    9.1774248771
  - # 16
    frequency:    9.9600657621
  - # 17
    frequency:   12.4109566784
  - # 18
    frequency:   13.0676788381
  - # 19
    frequency:   16.8287082566
  - # 20
    frequency:   43.9610794177
  - # 21
    frequency:   62.6645271429

- q-position: [    0.1212121,    0.0000000,    0.0000000 ]
  distance:    0.0411592
  band:
  - # 1
    frequency:   -2.9609788571
  - # 2
    frequency:   -2.8784699744
  - # 3
    frequency:    0.4280225644
  - # 4
    frequency:    1.3499291571
  - # 5
    frequency:    2.2691385201
  - # 6
    frequency:    3.8475216399
  - # 7
    frequency:    3.9268636889
  - # 8
    frequency:    5.1232255229
  - # 9
    frequency:    5.7954546560
  - # 10
    frequency:    6.2426303192
  - # 11
    frequency:    7.3078037399
  - # 12
    frequency:    7.6585954474
  - # 13
    frequency:    8.1256658897
  - # 14
    frequency:    8.7025621441
  - # 15
    frequency:    9.1326463125
  - # 16
    frequency:    9.9369618202
  - # 17
    frequency:   12.4130203709
  - # 18
    frequency:   13.1183733489
  - # 19
    frequency:   16.7958551910
  - # 20
    frequency:   43.9295822537
  - # 21
    frequency:   62.6616982878

- q-position: [    0.1262626,    0.0000000,    0.0000000 ]
  distance:    0.0428742
  band:
  - # 1
    frequency:   -2.9540328015
  - # 2
    frequency:   -2.8659268854
  - # 3
    frequency:    0.4497864470
  - # 4
    frequency:    1.3988469269
  - # 5
    frequency:    2.3551064698
  - # 6
    frequency:    3.8611829487
  - # 7
    frequency:    3.9237162471
  - # 8
    frequency:    5.0975503067
  - # 9
    frequency:    5.7931000484
  - # 10
    frequency:    6.2584165024
  - # 11
    frequency:    7.2899876227
  - # 12
    frequency:    7.6586383925
  - # 13
    frequency:    8.1414339139
  - # 14
    frequency:    8.6475613689
  - # 15
    frequency:    9.0858114537
  - # 16
    frequency:    9.9136308973
  - # 17
    frequency:   12.4154747675
  - # 18
    frequency:   13.1700782506
  - # 19
    frequency:   16.7623420143
  - # 20
    frequency:   43.8970946169
  - # 21
    frequency:   62.6588041013

- q-position: [    0.1313131,    0.0000000,    0.0000000 ]
  distance:    0.0445892
  band:
  - # 1
    frequency:   -2.9468787901
  - # 2
    frequency:   -2.8532099104
  - # 3
    frequency:    0.4693121895
  - # 4
    frequency:    1.4467750402
  - # 5
    frequency:    2.4398344324
  - # 6
    frequency:    3.8755131988
  - # 7
    frequency:    3.9157459348
  - # 8
    frequency:    5.0742041025
  - # 9
    frequency:    5.7904854073
  - # 10
    frequency:    6.2741545496
  - # 11
    frequency:    7.2704529950
  - # 12
    frequency:    7.6584559590
  - # 13
    frequency:    8.1538367484
  - # 14
    frequency:    8.5972448135
  - # 15
    frequency:    9.0369881699
  - # 16
    frequency:    9.8901542480
  - # 17
    frequency:   12.4183058408
  - # 18
    frequency:   13.2226440117
  - # 19
    frequency:   16.7282656389
  - # 20
    frequency:   43.8636564768
  - # 21
    frequency:   62.6558504902

- q-position: [    0.1363636,    0.0000000,    0.0000000 ]
  distance:    0.0463041
  band:
  - # 1
    frequency:   -2.9395350254
  - # 2
    frequency:   -2.8403776283
  - # 3
    frequency:    0.4859028813
  - # 4
    frequency:    1.4936434811
  - # 5
    frequency:    2.5231788384
  - # 6
    frequency:    3.8905329341
  - # 7
    frequency:    3.9023087137
  - # 8
    frequency:    5.0536187863
  - # 9
    frequency:    5.7875759656
  - # 10
    frequency:    6.2898412867
  - # 11
    frequency:    7.2489657973
  - # 12
    frequency:    7.6580129639
  - # 13
    frequency:    8.1614870665
  - # 14
    frequency:    8.5535984479
  - # 15
    frequency:    8.9862599592
  - # 16
    frequency:    9.8666123808
  - # 17
    frequency:   12.4214946381
  - # 18
    frequency:   13.2759153392
  - # 19
    frequency:   16.6937280763
  - # 20
    frequency:   43.8293087126
  - # 21
    frequency:   62.6528434184

- q-position: [    0.1414141,    0.0000000,    0.0000000 ]
  distance:    0.0480191
  band:
  - # 1
    frequency:   -2.9320211481
  - # 2
    frequency:   -2.8274953786
  - # 3
    frequency:    0.4986828853
  - # 4
    frequency:    1.5393764931
  - # 5
    frequency:    2.6049580682
  - # 6
    frequency:    3.8828309578
  - # 7
    frequency:    3.9062642338
  - # 8
    frequency:    5.0361859646
  - # 9
    frequency:    5.7843317262
  - # 10
    frequency:    6.3054659451
  - # 11
    frequency:    7.2253236993
  - # 12
    frequency:    7.6572695312
  - # 13
    frequency:    8.1627958100
  - # 14
    frequency:    8.5188183193
  - # 15
    frequency:    8.9337270326
  - # 16
    frequency:    9.8430846936
  - # 17
    frequency:   12.4250178676
  - # 18
    frequency:   13.3297313496
  - # 19
    frequency:   16.6588366343
  - # 20
    frequency:   43.7940930396
  - # 21
    frequency:   62.6497888895

- q-position: [    0.1464646,    0.0000000,    0.0000000 ]
  distance:    0.0497341
  band:
  - # 1
    frequency:   -2.9243581164
  - # 2
    frequency:   -2.8146366446
  - # 3
    frequency:    0.5065224222
  - # 4
    frequency:    1.5838922778
  - # 5
    frequency:    2.6849342731
  - # 6
    frequency:    3.8568729013
  - # 7
    frequency:    3.9227305540
  - # 8
    frequency:    5.0222196906
  - # 9
    frequency:    5.7807067444
  - # 10
    frequency:    6.3210080087
  - # 11
    frequency:    7.1993854277
  - # 12
    frequency:    7.6561799774
  - # 13
    frequency:    8.1565425074
  - # 14
    frequency:    8.4947126233
  - # 15
    frequency:    8.8795076554
  - # 16
    frequency:    9.8196491785
  - # 17
    frequency:   12.4288485404
  - # 18
    frequency:   13.3839257177
  - # 19
    frequency:   16.6237041290
  - # 20
    frequency:   43.7580519342
  - # 21
    frequency:   62.6466929279

- q-position: [    0.1515152,    0.0000000,    0.0000000 ]
  distance:    0.0514491
  band:
  - # 1
    frequency:   -2.9165680656
  - # 2
    frequency:   -2.8018849436
  - # 3
    frequency:    0.5079148166
  - # 4
    frequency:    1.6271027493
  - # 5
    frequency:    2.7627820344
  - # 6
    frequency:    3.8242048190
  - # 7
    frequency:    3.9399565006
  - # 8
    frequency:    5.0119235694
  - # 9
    frequency:    5.7766483268
  - # 10
    frequency:    6.3364343297
  - # 11
    frequency:    7.1711057181
  - # 12
    frequency:    7.6546913840
  - # 13
    frequency:    8.1427455782
  - # 14
    frequency:    8.4817977035
  - # 15
    frequency:    8.8237398428
  - # 16
    frequency:    9.7963821981
  - # 17
    frequency:   12.4329566477
  - # 18
    frequency:   13.4383268017
  - # 19
    frequency:   16.5884491107
  - # 20
    frequency:   43.7212285591
  - # 21
    frequency:   62.6435615618