nqpoint: 300    
npath: 3      
segment_nqpoint:
- 100
- 100
- 100
labels:
- [ 'G', 'M' ]
- [ 'M', 'K' ]
- [ 'K', 'G' ]
reciprocal_lattice:
- [   0.27072706,   0.15630434,   0.00000000 ] # a*
- [   0.00000000,   0.31260869,   0.00000000 ] # b*
- [   0.00000000,   0.00000000,   0.03851801 ] # c*
natom: 7      
lattice:
- [     3.693757034222310,     0.000000000000000,     0.000000000000000 ] # a
- [    -1.846878517111155,     3.198887427068446,     0.000000000000000 ] # b
- [     0.000000000000000,     0.000000000000000,    25.961879410089857 ] # c
points:
- symbol: C # 1
  coordinates: [  0.000000000000000,  0.000000000000000,  0.498616877281431 ]
  mass: 12.010700
- symbol: C # 2
  coordinates: [  0.333332985432215,  0.666666983183674,  0.607125625868812 ]
  mass: 12.010700
- symbol: N # 3
  coordinates: [  0.333332985432215,  0.666666983183674,  0.653337885989016 ]
  mass: 14.006700
- symbol: N # 4
  coordinates: [  0.666666984744047,  0.333332985985145,  0.396563622096598 ]
  mass: 14.006700
- symbol: O # 5
  coordinates: [  0.666666984744047,  0.333332985985145,  0.346662114010985 ]
  mass: 15.999400
- symbol: Y # 6
  coordinates: [  0.333332985432215,  0.666666983183674,  0.444799103577239 ]
  mass: 88.905850
- symbol: Y # 7
  coordinates: [  0.666666984744047,  0.333332985985145,  0.550397980960112 ]
  mass: 88.905850

phonon:
- q-position: [    0.0000000,    0.0000000,    0.0000000 ]
  distance:    0.0000000
  band:
  - # 1
    frequency:   -3.3275831932
  - # 2
    frequency:   -3.3275831932
  - # 3
    frequency:   -0.0000196221
  - # 4
    frequency:   -0.0000003695
  - # 5
    frequency:    0.0000227479
  - # 6
    frequency:    2.9124920674
  - # 7
    frequency:    2.9124920675
  - # 8
    frequency:    4.0505283218
  - # 9
    frequency:    4.0505283218
  - # 10
    frequency:    4.9320482325
  - # 11
    frequency:    6.2123636227
  - # 12
    frequency:    6.4897327865
  - # 13
    frequency:    6.4897327865
  - # 14
    frequency:    7.4100362115
  - # 15
    frequency:    7.4100362115
  - # 16
    frequency:    7.6757595243
  - # 17
    frequency:    9.8667940001
  - # 18
    frequency:    9.8667940002
  - # 19
    frequency:   14.7441635561
  - # 20
    frequency:   43.2846220301
  - # 21
    frequency:   62.4757021314

- q-position: [    0.0050505,    0.0000000,    0.0000000 ]
  distance:    0.0015788
  band:
  - # 1
    frequency:   -3.3275376621
  - # 2
    frequency:   -3.3274492914
  - # 3
    frequency:    0.0009187858
  - # 4
    frequency:    0.0419616222
  - # 5
    frequency:    0.0769441376
  - # 6
    frequency:    2.9124776168
  - # 7
    frequency:    2.9131368327
  - # 8
    frequency:    4.0499205235
  - # 9
    frequency:    4.0502501939
  - # 10
    frequency:    4.9322113221
  - # 11
    frequency:    6.2108617636
  - # 12
    frequency:    6.4897127156
  - # 13
    frequency:    6.4912576448
  - # 14
    frequency:    7.4090762001
  - # 15
    frequency:    7.4094551924
  - # 16
    frequency:    7.6754248345
  - # 17
    frequency:    9.8667761219
  - # 18
    frequency:    9.8680409290
  - # 19
    frequency:   14.7434138432
  - # 20
    frequency:   43.2839129300
  - # 21
    frequency:   62.4756607289

- q-position: [    0.0101010,    0.0000000,    0.0000000 ]
  distance:    0.0031577
  band:
  - # 1
    frequency:   -3.3274008349
  - # 2
    frequency:   -3.3270474270
  - # 3
    frequency:    0.0036734428
  - # 4
    frequency:    0.0839485391
  - # 5
    frequency:    0.1538857128
  - # 6
    frequency:    2.9124345471
  - # 7
    frequency:    2.9150664291
  - # 8
    frequency:    4.0481008572
  - # 9
    frequency:    4.0494159606
  - # 10
    frequency:    4.9326995182
  - # 11
    frequency:    6.2064565180
  - # 12
    frequency:    6.4896509430
  - # 13
    frequency:    6.4957295122
  - # 14
    frequency:    7.4061984207
  - # 15
    frequency:    7.4077176089
  - # 16
    frequency:    7.6744207048
  - # 17
    frequency:    9.8667228309
  - # 18
    frequency:    9.8717788501
  - # 19
    frequency:   14.7411664569
  - # 20
    frequency:   43.2817866428
  - # 21
    frequency:   62.4755366079

- q-position: [    0.0151515,    0.0000000,    0.0000000 ]
  distance:    0.0047365
  band:
  - # 1
    frequency:   -3.3271720131
  - # 2
    frequency:   -3.3263771290
  - # 3
    frequency:    0.0082585590
  - # 4
    frequency:    0.1259858648
  - # 5
    frequency:    0.2308222093
  - # 6
    frequency:    2.9123636952
  - # 7
    frequency:    2.9182667324
  - # 8
    frequency:    4.0450805544
  - # 9
    frequency:    4.0480260708
  - # 10
    frequency:    4.9335096254
  - # 11
    frequency:    6.1994195418
  - # 12
    frequency:    6.4895427477
  - # 13
    frequency:    6.5028696176
  - # 14
    frequency:    7.4014096889
  - # 15
    frequency:    7.4048398284
  - # 16
    frequency:    7.6727469964
  - # 17
    frequency:    9.8666351523
  - # 18
    frequency:    9.8779991769
  - # 19
    frequency:   14.7374266508
  - # 20
    frequency:   43.2782462065
  - # 21
    frequency:   62.4753300269

- q-position: [    0.0202020,    0.0000000,    0.0000000 ]
  distance:    0.0063153
  band:
  - # 1
    frequency:   -3.3268500447
  - # 2
    frequency:   -3.3254376306
  - # 3
    frequency:    0.0146652546
  - # 4
    frequency:    0.1680983682
  - # 5
    frequency:    0.3077511823
  - # 6
    frequency:    2.9122664245
  - # 7
    frequency:    2.9227141118
  - # 8
    frequency:    4.0408784890
  - # 9
    frequency:    4.0460812648
  - # 10
    frequency:    4.9346363957
  - # 11
    frequency:    6.1901237930
  - # 12
    frequency:    6.4893801240
  - # 13
    frequency:    6.5122931828
  - # 14
    frequency:    7.3947215369
  - # 15
    frequency:    7.4008489559
  - # 16
    frequency:    7.6704036120
  - # 17
    frequency:    9.8665147772
  - # 18
    frequency:    9.8866876292
  - # 19
    frequency:   14.7322031705
  - # 20
    frequency:   43.2732966769
  - # 21
    frequency:   62.4750414165

- q-position: [    0.0252525,    0.0000000,    0.0000000 ]
  distance:    0.0078942
  band:
  - # 1
    frequency:   -3.3264333423
  - # 2
    frequency:   -3.3242278968
  - # 3
    frequency:    0.0228812630
  - # 4
    frequency:    0.2103102972
  - # 5
    frequency:    0.3846702926
  - # 6
    frequency:    2.9121445777
  - # 7
    frequency:    2.9283752828
  - # 8
    frequency:    4.0355214222
  - # 9
    frequency:    4.0435825618
  - # 10
    frequency:    4.9360726395
  - # 11
    frequency:    6.1789693384
  - # 12
    frequency:    6.4891515698
  - # 13
    frequency:    6.5235836719
  - # 14
    frequency:    7.3861504780
  - # 15
    frequency:    7.3957825902
  - # 16
    frequency:    7.6673906852
  - # 17
    frequency:    9.8663640359
  - # 18
    frequency:    9.8978242772
  - # 19
    frequency:   14.7255082390
  - # 20
    frequency:   43.2669451170
  - # 21
    frequency:   62.4746713773

- q-position: [    0.0303030,    0.0000000,    0.0000000 ]
  distance:    0.0094730
  band:
  - # 1
    frequency:   -3.3259199078
  - # 2
    frequency:   -3.3227466604
  - # 3
    frequency:    0.0328910901
  - # 4
    frequency:    0.2526452089
  - # 5
    frequency:    0.4615773255
  - # 6
    frequency:    2.9120004104
  - # 7
    frequency:    2.9352070792
  - # 8
    frequency:    4.0290443685
  - # 9
    frequency:    4.0405312439
  - # 10
    frequency:    4.9378093710
  - # 11
    frequency:    6.1663307539
  - # 12
    frequency:    6.4888417765
  - # 13
    frequency:    6.5363454598
  - # 14
    frequency:    7.3757183891
  - # 15
    frequency:    7.3896885158
  - # 16
    frequency:    7.6637088194
  - # 17
    frequency:    9.8661858624
  - # 18
    frequency:    9.9113836003
  - # 19
    frequency:   14.7173575352
  - # 20
    frequency:   43.2592005819
  - # 21
    frequency:   62.4742206784

- q-position: [    0.0353535,    0.0000000,    0.0000000 ]
  distance:    0.0110518
  band:
  - # 1
    frequency:   -3.3253073650
  - # 2
    frequency:   -3.3209924685
  - # 3
    frequency:    0.0446762079
  - # 4
    frequency:    0.2951258023
  - # 5
    frequency:    0.5384701971
  - # 6
    frequency:    2.9118365057
  - # 7
    frequency:    2.9431561218
  - # 8
    frequency:    4.0214911081
  - # 9
    frequency:    4.0369288346
  - # 10
    frequency:    4.9398359806
  - # 11
    frequency:    6.1525312825
  - # 12
    frequency:    6.4884312107
  - # 13
    frequency:    6.5502297537
  - # 14
    frequency:    7.3634530231
  - # 15
    frequency:    7.3826243576
  - # 16
    frequency:    7.6593593582
  - # 17
    frequency:    9.8659837492
  - # 18
    frequency:    9.9273345585
  - # 19
    frequency:   14.7077701680
  - # 20
    frequency:   43.2500740991
  - # 21
    frequency:   62.4736902550

- q-position: [    0.0404040,    0.0000000,    0.0000000 ]
  distance:    0.0126307
  band:
  - # 1
    frequency:   -3.3245929988
  - # 2
    frequency:   -3.3189637359
  - # 3
    frequency:    0.0582152760
  - # 4
    frequency:    0.3377737550
  - # 5
    frequency:    0.6153469453
  - # 6
    frequency:    2.9116556693
  - # 7
    frequency:    2.9521583561
  - # 8
    frequency:    4.0129148721
  - # 9
    frequency:    4.0327770736
  - # 10
    frequency:    4.9421404231
  - # 11
    frequency:    6.1378366574
  - # 12
    frequency:    6.4878955656
  - # 13
    frequency:    6.5649408497
  - # 14
    frequency:    7.3493886695
  - # 15
    frequency:    7.3746572263
  - # 16
    frequency:    7.6543446669
  - # 17
    frequency:    9.8657616961
  - # 18
    frequency:    9.9456406721
  - # 19
    frequency:   14.6967686443
  - # 20
    frequency:   43.2395786451
  - # 21
    frequency:   62.4730812057

- q-position: [    0.0454545,    0.0000000,    0.0000000 ]
  distance:    0.0142095
  band:
  - # 1
    frequency:   -3.3237738016
  - # 2
    frequency:   -3.3166588043
  - # 3
    frequency:    0.0734843840
  - # 4
    frequency:    0.3806095625
  - # 5
    frequency:    0.6922057019
  - # 6
    frequency:    2.9114608043
  - # 7
    frequency:    2.9621384270
  - # 8
    frequency:    4.0033792352
  - # 9
    frequency:    4.0280778877
  - # 10
    frequency:    4.9447094131
  - # 11
    frequency:    6.1224594624
  - # 12
    frequency:    6.4872050634
  - # 13
    frequency:    6.5802318446
  - # 14
    frequency:    7.3335669830
  - # 15
    frequency:    7.3658633815
  - # 16
    frequency:    7.6486684061
  - # 17
    frequency:    9.8655241516
  - # 18
    frequency:    9.9662601098
  - # 19
    frequency:   14.6843788335
  - # 20
    frequency:   43.2277291180
  - # 21
    frequency:   62.4723947887

- q-position: [    0.0505051,    0.0000000,    0.0000000 ]
  distance:    0.0157883
  band:
  - # 1
    frequency:   -3.3228465257
  - # 2
    frequency:   -3.3140760074
  - # 3
    frequency:    0.0904573060
  - # 4
    frequency:    0.4236523816
  - # 5
    frequency:    0.7690446452
  - # 6
    frequency:    2.9112547668
  - # 7
    frequency:    2.9730088529
  - # 8
    frequency:    3.9929592511
  - # 9
    frequency:    4.0228333578
  - # 10
    frequency:    4.9475286187
  - # 11
    frequency:    6.1065674998
  - # 12
    frequency:    6.4863235765
  - # 13
    frequency:    6.5958963254
  - # 14
    frequency:    7.3160380116
  - # 15
    frequency:    7.3563279327
  - # 16
    frequency:    7.6423357851
  - # 17
    frequency:    9.8652759500
  - # 18
    frequency:    9.9891457804
  - # 19
    frequency:   14.6706299263
  - # 20
    frequency:   43.2145423051
  - # 21
    frequency:   62.4716324185

- q-position: [    0.0555556,    0.0000000,    0.0000000 ]
  distance:    0.0173671
  band:
  - # 1
    frequency:   -3.3218077436
  - # 2
    frequency:   -3.3112137388
  - # 3
    frequency:    0.1091057620
  - # 4
    frequency:    0.4669198772
  - # 5
    frequency:    0.8458619294
  - # 6
    frequency:    2.9110401998
  - # 7
    frequency:    2.9846689622
  - # 8
    frequency:    3.9817428664
  - # 9
    frequency:    4.0170456842
  - # 10
    frequency:    4.9505828435
  - # 11
    frequency:    6.0902926491
  - # 12
    frequency:    6.4852075338
  - # 13
    frequency:    6.6117595472
  - # 14
    frequency:    7.2968614560
  - # 15
    frequency:    7.3461445924
  - # 16
    frequency:    7.6353537837
  - # 17
    frequency:    9.8650222454
  - # 18
    frequency:   10.0142454297
  - # 19
    frequency:   14.6555543915
  - # 20
    frequency:   43.2000368479
  - # 21
    frequency:   62.4707956610

- q-position: [    0.0606061,    0.0000000,    0.0000000 ]
  distance:    0.0189460
  band:
  - # 1
    frequency:   -3.3206539124
  - # 2
    frequency:   -3.3080705215
  - # 3
    frequency:    0.1293996765
  - # 4
    frequency:    0.5104280709
  - # 5
    frequency:    0.9226555905
  - # 6
    frequency:    2.9108193467
  - # 7
    frequency:    2.9970035563
  - # 8
    frequency:    3.9698326458
  - # 9
    frequency:    4.0107171482
  - # 10
    frequency:    4.9538561928
  - # 11
    frequency:    6.0737387322
  - # 12
    frequency:    6.4838045692
  - # 13
    frequency:    6.6276705803
  - # 14
    frequency:    7.2761082030
  - # 15
    frequency:    7.3354154858
  - # 16
    frequency:    7.6277313391
  - # 17
    frequency:    9.8647684444
  - # 18
    frequency:   10.0415017396
  - # 19
    frequency:   14.6391879283
  - # 20
    frequency:   43.1842332023
  - # 21
    frequency:   62.4698862296

- q-position: [    0.0656566,    0.0000000,    0.0000000 ]
  distance:    0.0205248
  band:
  - # 1
    frequency:   -3.3193814456
  - # 2
    frequency:   -3.3046450775
  - # 3
    frequency:    0.1513074309
  - # 4
    frequency:    0.5541911925
  - # 5
    frequency:    0.9994234268
  - # 6
    frequency:    2.9105938427
  - # 7
    frequency:    3.0098812744
  - # 8
    frequency:    3.9573478306
  - # 9
    frequency:    4.0038500742
  - # 10
    frequency:    4.9573322172
  - # 11
    frequency:    6.0569879741
  - # 12
    frequency:    6.4820518665
  - # 13
    frequency:    6.6434958441
  - # 14
    frequency:    7.2538621788
  - # 15
    frequency:    7.3242510083
  - # 16
    frequency:    7.6194794965
  - # 17
    frequency:    9.8645201383
  - # 18
    frequency:   10.0708524323
  - # 19
    frequency:   14.6215694173
  - # 20
    frequency:   43.1671535956
  - # 21
    frequency:   62.4689059788

- q-position: [    0.0707071,    0.0000000,    0.0000000 ]
  distance:    0.0221036
  band:
  - # 1
    frequency:   -3.3179867884
  - # 2
    frequency:   -3.3009363965
  - # 3
    frequency:    0.1747961023
  - # 4
    frequency:    0.5982215320
  - # 5
    frequency:    1.0761628512
  - # 6
    frequency:    2.9103644835
  - # 7
    frequency:    3.0231526582
  - # 8
    frequency:    3.9444267274
  - # 9
    frequency:    3.9964467905
  - # 10
    frequency:    4.9609940314
  - # 11
    frequency:    6.0401061143
  - # 12
    frequency:    6.4798741509
  - # 13
    frequency:    6.6591139845
  - # 14
    frequency:    7.2302225691
  - # 15
    frequency:    7.3127697092
  - # 16
    frequency:    7.6106115272
  - # 17
    frequency:    9.8642830376
  - # 18
    frequency:   10.1022303784
  - # 19
    frequency:   14.6027408692
  - # 20
    frequency:   43.1488219796
  - # 21
    frequency:   62.4678568998

- q-position: [    0.0757576,    0.0000000,    0.0000000 ]
  distance:    0.0236825
  band:
  - # 1
    frequency:   -3.3164664983
  - # 2
    frequency:   -3.2969438008
  - # 3
    frequency:    0.1998316861
  - # 4
    frequency:    0.6425292914
  - # 5
    frequency:    1.1528707160
  - # 6
    frequency:    2.9101309698
  - # 7
    frequency:    3.0366479533
  - # 8
    frequency:    3.9312293844
  - # 9
    frequency:    3.9885095928
  - # 10
    frequency:    4.9648244068
  - # 11
    frequency:    6.0231463870
  - # 12
    frequency:    6.4771812868
  - # 13
    frequency:    6.6744119119
  - # 14
    frequency:    7.2053064476
  - # 15
    frequency:    7.3010981585
  - # 16
    frequency:    7.6011430184
  - # 17
    frequency:    9.8640629093
  - # 18
    frequency:   10.1355637126
  - # 19
    frequency:   14.5827473732
  - # 20
    frequency:   43.1292639805
  - # 21
    frequency:   62.4667411137

- q-position: [    0.0808081,    0.0000000,    0.0000000 ]
  distance:    0.0252613
  band:
  - # 1
    frequency:   -3.3148173280
  - # 2
    frequency:   -3.2926670066
  - # 3
    frequency:    0.2263792986
  - # 4
    frequency:    0.6871224339
  - # 5
    frequency:    1.2295431057
  - # 6
    frequency:    2.9098916274
  - # 7
    frequency:    3.0501747621
  - # 8
    frequency:    3.9179404377
  - # 9
    frequency:    3.9800407108
  - # 10
    frequency:    4.9688058379
  - # 11
    frequency:    6.0061526068
  - # 12
    frequency:    6.4738654617
  - # 13
    frequency:    6.6892818156
  - # 14
    frequency:    7.1792518325
  - # 15
    frequency:    7.2893707298
  - # 16
    frequency:    7.5910919442
  - # 17
    frequency:    9.8638655192
  - # 18
    frequency:   10.1707759573
  - # 19
    frequency:   14.5616370447
  - # 20
    frequency:   43.1085068457
  - # 21
    frequency:   62.4655608651

- q-position: [    0.0858586,    0.0000000,    0.0000000 ]
  distance:    0.0268401
  band:
  - # 1
    frequency:   -3.3130363111
  - # 2
    frequency:   -3.2881061797
  - # 3
    frequency:    0.2544033571
  - # 4
    frequency:    0.7320065303
  - # 5
    frequency:    1.3061750964
  - # 6
    frequency:    2.9096431003
  - # 7
    frequency:    3.0635157745
  - # 8
    frequency:    3.9047718962
  - # 9
    frequency:    3.9710422810
  - # 10
    frequency:    4.9729205838
  - # 11
    frequency:    5.9891615689
  - # 12
    frequency:    6.4697979875
  - # 13
    frequency:    6.7036190340
  - # 14
    frequency:    7.1522211374
  - # 15
    frequency:    7.2777291962
  - # 16
    frequency:    7.5804787246
  - # 17
    frequency:    9.8636965792
  - # 18
    frequency:   10.2077861567
  - # 19
    frequency:   14.5394609742
  - # 20
    frequency:   43.0865793870
  - # 21
    frequency:   62.4643185161

- q-position: [    0.0909091,    0.0000000,    0.0000000 ]
  distance:    0.0284190
  band:
  - # 1
    frequency:   -3.3111208485
  - # 2
    frequency:   -3.2832619842
  - # 3
    frequency:    0.2838677371
  - # 4
    frequency:    0.7771845985
  - # 5
    frequency:    1.3827604781
  - # 6
    frequency:    2.9093800157
  - # 7
    frequency:    3.0764269794
  - # 8
    frequency:    3.8919654589
  - # 9
    frequency:    3.9615163291
  - # 10
    frequency:    4.9771506880
  - # 11
    frequency:    5.9722049318
  - # 12
    frequency:    6.4648258467
  - # 13
    frequency:    6.7173207424
  - # 14
    frequency:    7.1244048909
  - # 15
    frequency:    7.2663219963
  - # 16
    frequency:    7.5693262841
  - # 17
    frequency:    9.8635617026
  - # 18
    frequency:   10.2465090231
  - # 19
    frequency:   14.5162731772
  - # 20
    frequency:   43.0635119215
  - # 21
    frequency:   62.4630165384

- q-position: [    0.0959596,    0.0000000,    0.0000000 ]
  distance:    0.0299978
  band:
  - # 1
    frequency:   -3.3090687946
  - # 2
    frequency:   -3.2781356242
  - # 3
    frequency:    0.3147359049
  - # 4
    frequency:    0.8226569350
  - # 5
    frequency:    1.4592914335
  - # 6
    frequency:    2.9090946180
  - # 7
    frequency:    3.0886369908
  - # 8
    frequency:    3.8797937290
  - # 9
    frequency:    3.9514647646
  - # 10
    frequency:    4.9814779792
  - # 11
    frequency:    5.9553107086
  - # 12
    frequency:    6.4587682816
  - # 13
    frequency:    6.7302855067
  - # 14
    frequency:    7.0960254253
  - # 15
    frequency:    7.2553029778
  - # 16
    frequency:    7.5576601226
  - # 17
    frequency:    9.8634663666
  - # 18
    frequency:   10.2868550961
  - # 19
    frequency:   14.4921305468
  - # 20
    frequency:   43.0393362089
  - # 21
    frequency:   62.4616575062

- q-position: [    0.1010101,    0.0000000,    0.0000000 ]
  distance:    0.0315766
  band:
  - # 1
    frequency:   -3.3068785415
  - # 2
    frequency:   -3.2727288771
  - # 3
    frequency:    0.3469710260
  - # 4
    frequency:    0.8684209350
  - # 5
    frequency:    1.5357581658
  - # 6
    frequency:    2.9087763692
  - # 7
    frequency:    3.0998484071
  - # 8
    frequency:    3.8685594110
  - # 9
    frequency:    3.9408893945
  - # 10
    frequency:    4.9858840567
  - # 11
    frequency:    5.9385044633
  - # 12
    frequency:    6.4514139874
  - # 13
    frequency:    6.7424138287
  - # 14
    frequency:    7.0673399735
  - # 15
    frequency:    7.2448293800
  - # 16
    frequency:    7.5455084103
  - # 17
    frequency:    9.8634158838
  - # 18
    frequency:   10.3287309155
  - # 19
    frequency:   14.4670928097
  - # 20
    frequency:   43.0140853872
  - # 21
    frequency:   62.4602440888

- q-position: [    0.1060606,    0.0000000,    0.0000000 ]
  distance:    0.0331555
  band:
  - # 1
    frequency:   -3.3045491000
  - # 2
    frequency:   -3.2670441182
  - # 3
    frequency:    0.3805360496
  - # 4
    frequency:    0.9144708981
  - # 5
    frequency:    1.6121484626
  - # 6
    frequency:    2.9084115135
  - # 7
    frequency:    3.1097423698
  - # 8
    frequency:    3.8585913252
  - # 9
    frequency:    3.9297919596
  - # 10
    frequency:    4.9903502664
  - # 11
    frequency:    5.9218102790
  - # 12
    frequency:    6.4425198521
  - # 13
    frequency:    6.7536098603
  - # 14
    frequency:    7.0386422305
  - # 15
    frequency:    7.2350587903
  - # 16
    frequency:    7.5329021278
  - # 17
    frequency:    9.8634153820
  - # 18
    frequency:   10.3720392077
  - # 19
    frequency:   14.4412224857
  - # 20
    frequency:   42.9877939054
  - # 21
    frequency:   62.4587790423

- q-position: [    0.1111111,    0.0000000,    0.0000000 ]
  distance:    0.0347343
  band:
  - # 1
    frequency:   -3.3020801761
  - # 2
    frequency:   -3.2610843368
  - # 3
    frequency:    0.4153937690
  - # 4
    frequency:    0.9607978152
  - # 5
    frequency:    1.6884471782
  - # 6
    frequency:    2.9079826014
  - # 7
    frequency:    3.1179875842
  - # 8
    frequency:    3.8502359965
  - # 9
    frequency:    3.9181742032
  - # 10
    frequency:    4.9948576711
  - # 11
    frequency:    5.9052515510
  - # 12
    frequency:    6.4318126362
  - # 13
    frequency:    6.7637844555
  - # 14
    frequency:    7.0102609866
  - # 15
    frequency:    7.2261448282
  - # 16
    frequency:    7.5198752730
  - # 17
    frequency:    9.8634697943
  - # 18
    frequency:   10.4166790849
  - # 19
    frequency:   14.4145848524
  - # 20
    frequency:   42.9604974540
  - # 21
    frequency:   62.4572652020

- q-position: [    0.1161616,    0.0000000,    0.0000000 ]
  distance:    0.0363131
  band:
  - # 1
    frequency:   -3.2994722401
  - # 2
    frequency:   -3.2548531429
  - # 3
    frequency:    0.4515068585
  - # 4
    frequency:    1.0073891331
  - # 5
    frequency:    1.7646356043
  - # 6
    frequency:    2.9074679690
  - # 7
    frequency:    3.1242547679
  - # 8
    frequency:    3.8438438684
  - # 9
    frequency:    3.9060379790
  - # 10
    frequency:    4.9993870204
  - # 11
    frequency:    5.8888516363
  - # 12
    frequency:    6.4189953683
  - # 13
    frequency:    6.7728596366
  - # 14
    frequency:    6.9825540556
  - # 15
    frequency:    7.2182314134
  - # 16
    frequency:    7.5064651679
  - # 17
    frequency:    9.8635838585
  - # 18
    frequency:   10.4625462537
  - # 19
    frequency:   14.3872479156
  - # 20
    frequency:   42.9322328936
  - # 21
    frequency:   62.4557054735

- q-position: [    0.1212121,    0.0000000,    0.0000000 ]
  distance:    0.0378920
  band:
  - # 1
    frequency:   -3.2967265890
  - # 2
    frequency:   -3.2483547658
  - # 3
    frequency:    0.4888378870
  - # 4
    frequency:    1.0542284898
  - # 5
    frequency:    1.8406906856
  - # 6
    frequency:    2.9068411703
  - # 7
    frequency:    3.1282365995
  - # 8
    frequency:    3.8397501154
  - # 9
    frequency:    3.8933854103
  - # 10
    frequency:    5.0039187268
  - # 11
    frequency:    5.8726343870
  - # 12
    frequency:    6.4037602436
  - # 13
    frequency:    6.7807743293
  - # 14
    frequency:    6.9558957079
  - # 15
    frequency:    7.2114456912
  - # 16
    frequency:    7.4927129141
  - # 17
    frequency:    9.8637621252
  - # 18
    frequency:   10.5095332337
  - # 19
    frequency:   14.3592823858
  - # 20
    frequency:   42.9030381822
  - # 21
    frequency:   62.4541028246

- q-position: [    0.1262626,    0.0000000,    0.0000000 ]
  distance:    0.0394708
  band:
  - # 1
    frequency:   -3.2938453979
  - # 2
    frequency:   -3.2415940439
  - # 3
    frequency:    0.5273493090
  - # 4
    frequency:    1.1012954149
  - # 5
    frequency:    1.9165840078
  - # 6
    frequency:    2.9060703550
  - # 7
    frequency:    3.1296716961
  - # 8
    frequency:    3.8382515891
  - # 9
    frequency:    3.8802191139
  - # 10
    frequency:    5.0084328534
  - # 11
    frequency:    5.8566245816
  - # 12
    frequency:    6.3858090015
  - # 13
    frequency:    6.7874908837
  - # 14
    frequency:    6.9306566327
  - # 15
    frequency:    7.2058900108
  - # 16
    frequency:    7.4786640645
  - # 17
    frequency:    9.8640089759
  - # 18
    frequency:   10.5575295797
  - # 19
    frequency:   14.3307616619
  - # 20
    frequency:   42.8729523003
  - # 21
    frequency:   62.4524602768

- q-position: [    0.1313131,    0.0000000,    0.0000000 ]
  distance:    0.0410496
  band:
  - # 1
    frequency:   -3.2908317621
  - # 2
    frequency:   -3.2345764084
  - # 3
    frequency:    0.5670034308
  - # 4
    frequency:    1.1485649849
  - # 5
    frequency:    1.9922804423
  - # 6
    frequency:    2.9051175911
  - # 7
    frequency:    3.1283693320
  - # 8
    frequency:    3.8395832995
  - # 9
    frequency:    3.8665425022
  - # 10
    frequency:    5.0129091205
  - # 11
    frequency:    5.8408482663
  - # 12
    frequency:    6.3648797906
  - # 13
    frequency:    6.7930015044
  - # 14
    frequency:    6.9071774167
  - # 15
    frequency:    7.2016337197
  - # 16
    frequency:    7.4643696209
  - # 17
    frequency:    9.8643286494
  - # 18
    frequency:   10.6064221069
  - # 19
    frequency:   14.3017618227
  - # 20
    frequency:   42.8420151746
  - # 21
    frequency:   62.4507808962

- q-position: [    0.1363636,    0.0000000,    0.0000000 ]
  distance:    0.0426285
  band:
  - # 1
    frequency:   -3.2876897266
  - # 2
    frequency:   -3.2273078592
  - # 3
    frequency:    0.6077623533
  - # 4
    frequency:    1.1960074231
  - # 5
    frequency:    2.0677362508
  - # 6
    frequency:    2.9039381277
  - # 7
    frequency:    3.1242303809
  - # 8
    frequency:    3.8438991449
  - # 9
    frequency:    3.8523601842
  - # 10
    frequency:    5.0173269381
  - # 11
    frequency:    5.8253330087
  - # 12
    frequency:    6.3407766476
  - # 13
    frequency:    6.7973334068
  - # 14
    frequency:    6.8857394091
  - # 15
    frequency:    7.1987057841
  - # 16
    frequency:    7.4498875181
  - # 17
    frequency:    9.8647252764
  - # 18
    frequency:   10.6560951135
  - # 19
    frequency:   14.2723616260
  - # 20
    frequency:   42.8102676010
  - # 21
    frequency:   62.4490677851

- q-position: [    0.1414141,    0.0000000,    0.0000000 ]
  distance:    0.0442073
  band:
  - # 1
    frequency:   -3.2844243022
  - # 2
    frequency:   -3.2197949377
  - # 3
    frequency:    0.6495878887
  - # 4
    frequency:    1.2435876280
  - # 5
    frequency:    2.1428963077
  - # 6
    frequency:    2.9024796002
  - # 7
    frequency:    3.1172603022
  - # 8
    frequency:    3.8376784821
  - # 9
    frequency:    3.8512614093
  - # 10
    frequency:    5.0216654716
  - # 11
    frequency:    5.8101080682
  - # 12
    frequency:    6.3133951600
  - # 13
    frequency:    6.8005514863
  - # 14
    frequency:    6.8665393966
  - # 15
    frequency:    7.1970891894
  - # 16
    frequency:    7.4352848592
  - # 17
    frequency:    9.8652029211
  - # 18
    frequency:   10.7064305981
  - # 19
    frequency:   14.2426425160
  - # 20
    frequency:   42.7777511667
  - # 21
    frequency:   62.4473240731

- q-position: [    0.1464646,    0.0000000,    0.0000000 ]
  distance:    0.0457861
  band:
  - # 1
    frequency:   -3.2810414692
  - # 2
    frequency:   -3.2120446943
  - # 3
    frequency:    0.6924414499
  - # 4
    frequency:    1.2912646103
  - # 5
    frequency:    2.2176898248
  - # 6
    frequency:    2.9006811820
  - # 7
    frequency:    3.1075723047
  - # 8
    frequency:    3.8225060890
  - # 9
    frequency:    3.8616415114
  - # 10
    frequency:    5.0259037501
  - # 11
    frequency:    5.7952044818
  - # 12
    frequency:    6.2827374875
  - # 13
    frequency:    6.8027576446
  - # 14
    frequency:    6.8496749063
  - # 15
    frequency:    7.1967175581
  - # 16
    frequency:    7.4206413128
  - # 17
    frequency:    9.8657656300
  - # 18
    frequency:   10.7573084685
  - # 19
    frequency:   14.2126886389
  - # 20
    frequency:   42.7445081709
  - # 21
    frequency:   62.4455529084

- q-position: [    0.1515152,    0.0000000,    0.0000000 ]
  distance:    0.0473650
  band:
  - # 1
    frequency:   -3.2775481668
  - # 2
    frequency:   -3.2040646563
  - # 3
    frequency:    0.7362839102
  - # 4
    frequency:    1.3389908112
  - # 5
    frequency:    2.2920234068
  - # 6
    frequency:    2.8984726984
  - # 7
    frequency:    3.0953824964
  - # 8
    frequency:    3.8068548872
  - # 9
    frequency:    3.8749313710
  - # 10
    frequency:    5.0300208256
  - # 11
    frequency:    5.7806550605
  - # 12
    frequency:    6.2489126904
  - # 13
    frequency:    6.8040866152
  - # 14
    frequency:    6.8351441774
  - # 15
    frequency:    7.1974734816
  - # 16
    frequency:    7.4060543405
  - # 17
    frequency:    9.8664174854
  - # 18
    frequency:   10.8086067378
  - # 19
    frequency:   14.1825868659
  - # 20
    frequency:   42.7105815456
  - # 21
    frequency:   62.4437574487
