nqpoint: 300    
npath: 3      
segment_nqpoint:
- 100
- 100
- 100
labels:
- [ 'G', 'M' ]
- [ 'M', 'K' ]
- [ 'K', 'G' ]
reciprocal_lattice:
- [   0.30689599,   0.17718648,   0.00000000 ] # a*
- [   0.00000000,   0.35437297,   0.00000000 ] # b*
- [   0.00000000,   0.00000000,   0.03339894 ] # c*
natom: 7      
lattice:
- [     3.258432890412887,     0.000000000000000,     0.000000000000000 ] # a
- [    -1.629216445206443,     2.821885659605535,     0.000000000000000 ] # b
- [     0.000000000000000,     0.000000000000000,    29.941074345321951 ] # c
points:
- symbol: C # 1
  coordinates: [  0.000000000000000,  0.000000000000000,  0.500000029385868 ]
  mass: 12.010700
- symbol: Cl # 2
  coordinates: [  0.333332985432215,  0.666666983183674,  0.699409583764446 ]
  mass: 35.453000
- symbol: Cl # 3
  coordinates: [  0.666666984744047,  0.333332985985145,  0.300590416235554 ]
  mass: 35.453000
- symbol: Hf # 4
  coordinates: [  0.333332985432215,  0.666666983183674,  0.453244538263409 ]
  mass: 178.490000
- symbol: Hf # 5
  coordinates: [  0.666666984744047,  0.333332985985145,  0.546755461297996 ]
  mass: 178.490000
- symbol: O # 6
  coordinates: [  0.333332985432215,  0.666666983183674,  0.576495631345606 ]
  mass: 15.999400
- symbol: O # 7
  coordinates: [  0.666666984744047,  0.333332985985145,  0.423504368654401 ]
  mass: 15.999400

phonon:
- q-position: [    0.0000000,    0.0000000,    0.0000000 ]
  distance:    0.0000000
  band:
  - # 1
    frequency:   -0.7063498069
  - # 2
    frequency:   -0.7063498068
  - # 3
    frequency:   -0.6757991450
  - # 4
    frequency:   -0.6757991448
  - # 5
    frequency:   -0.0000263329
  - # 6
    frequency:    0.0000001555
  - # 7
    frequency:    0.0000194216
  - # 8
    frequency:    0.8025114021
  - # 9
    frequency:    0.8641820133
  - # 10
    frequency:    2.3500022043
  - # 11
    frequency:    2.3500022045
  - # 12
    frequency:    4.8785914168
  - # 13
    frequency:   10.4054714794
  - # 14
    frequency:   10.4054714795
  - # 15
    frequency:   13.1715164210
  - # 16
    frequency:   13.1715164210
  - # 17
    frequency:   14.4253302900
  - # 18
    frequency:   14.5165956507
  - # 19
    frequency:   15.9205811313
  - # 20
    frequency:   15.9205811314
  - # 21
    frequency:   21.0246369021

- q-position: [    0.0050505,    0.0000000,    0.0000000 ]
  distance:    0.0017898
  band:
  - # 1
    frequency:   -0.7160572852
  - # 2
    frequency:   -0.7109574007
  - # 3
    frequency:   -0.6889188106
  - # 4
    frequency:   -0.6819106538
  - # 5
    frequency:   -0.0031084586
  - # 6
    frequency:    0.0527502362
  - # 7
    frequency:    0.0900906476
  - # 8
    frequency:    0.8033792309
  - # 9
    frequency:    0.8646773245
  - # 10
    frequency:    2.3505291815
  - # 11
    frequency:    2.3521211653
  - # 12
    frequency:    4.8779880230
  - # 13
    frequency:   10.4057550406
  - # 14
    frequency:   10.4125918687
  - # 15
    frequency:   13.1692524129
  - # 16
    frequency:   13.1713712299
  - # 17
    frequency:   14.4263693287
  - # 18
    frequency:   14.5159453525
  - # 19
    frequency:   15.9206578902
  - # 20
    frequency:   15.9207715098
  - # 21
    frequency:   21.0244935792

- q-position: [    0.0101010,    0.0000000,    0.0000000 ]
  distance:    0.0035795
  band:
  - # 1
    frequency:   -0.7459100289
  - # 2
    frequency:   -0.7267219645
  - # 3
    frequency:   -0.7249433384
  - # 4
    frequency:   -0.6999033556
  - # 5
    frequency:   -0.0115615459
  - # 6
    frequency:    0.1078727300
  - # 7
    frequency:    0.1862531615
  - # 8
    frequency:    0.8059839317
  - # 9
    frequency:    0.8661757838
  - # 10
    frequency:    2.3521098158
  - # 11
    frequency:    2.3584607538
  - # 12
    frequency:    4.8761873815
  - # 13
    frequency:   10.4066074935
  - # 14
    frequency:   10.4338958732
  - # 15
    frequency:   13.1624950090
  - # 16
    frequency:   13.1709362321
  - # 17
    frequency:   14.4294556932
  - # 18
    frequency:   14.5139958488
  - # 19
    frequency:   15.9208874147
  - # 20
    frequency:   15.9213453779
  - # 21
    frequency:   21.0240628931

- q-position: [    0.0151515,    0.0000000,    0.0000000 ]
  distance:    0.0053693
  band:
  - # 1
    frequency:   -0.7963951117
  - # 2
    frequency:   -0.7853350451
  - # 3
    frequency:   -0.7485898143
  - # 4
    frequency:   -0.7288348718
  - # 5
    frequency:   -0.0232542864
  - # 6
    frequency:    0.1667792907
  - # 7
    frequency:    0.2899845308
  - # 8
    frequency:    0.8103358413
  - # 9
    frequency:    0.8687135762
  - # 10
    frequency:    2.3547431407
  - # 11
    frequency:    2.3689693928
  - # 12
    frequency:    4.8732175556
  - # 13
    frequency:   10.4080341301
  - # 14
    frequency:   10.4692133994
  - # 15
    frequency:   13.1513455539
  - # 16
    frequency:   13.1702131527
  - # 17
    frequency:   14.4344995354
  - # 18
    frequency:   14.5107514323
  - # 19
    frequency:   15.9212674542
  - # 20
    frequency:   15.9223109658
  - # 21
    frequency:   21.0233426949

- q-position: [    0.0202020,    0.0000000,    0.0000000 ]
  distance:    0.0071590
  band:
  - # 1
    frequency:   -0.8656717607
  - # 2
    frequency:   -0.8600947057
  - # 3
    frequency:   -0.7818697479
  - # 4
    frequency:   -0.7673681052
  - # 5
    frequency:   -0.0358026252
  - # 6
    frequency:    0.2296073267
  - # 7
    frequency:    0.3989959417
  - # 8
    frequency:    0.8164781943
  - # 9
    frequency:    0.8723463513
  - # 10
    frequency:    2.3584273045
  - # 11
    frequency:    2.3835622406
  - # 12
    frequency:    4.8691235266
  - # 13
    frequency:   10.4100437194
  - # 14
    frequency:   10.5182655046
  - # 15
    frequency:   13.1359650206
  - # 16
    frequency:   13.1692048614
  - # 17
    frequency:   14.4413585357
  - # 18
    frequency:   14.5062197986
  - # 19
    frequency:   15.9217942746
  - # 20
    frequency:   15.9236820977
  - # 21
    frequency:   21.0223294178

- q-position: [    0.0252525,    0.0000000,    0.0000000 ]
  distance:    0.0089488
  band:
  - # 1
    frequency:   -0.9501464420
  - # 2
    frequency:   -0.9466705713
  - # 3
    frequency:   -0.8241770960
  - # 4
    frequency:   -0.8140072846
  - # 5
    frequency:   -0.0470622713
  - # 6
    frequency:    0.2955927868
  - # 7
    frequency:    0.5103275318
  - # 8
    frequency:    0.8245521291
  - # 9
    frequency:    0.8771425800
  - # 10
    frequency:    2.3631592404
  - # 11
    frequency:    2.4021231659
  - # 12
    frequency:    4.8639647137
  - # 13
    frequency:   10.4126484304
  - # 14
    frequency:   10.5806708596
  - # 15
    frequency:   13.1165635646
  - # 16
    frequency:   13.1679153642
  - # 17
    frequency:   14.4498467168
  - # 18
    frequency:   14.5004137296
  - # 19
    frequency:   15.9224626840
  - # 20
    frequency:   15.9254783611
  - # 21
    frequency:   21.0210180980

- q-position: [    0.0303030,    0.0000000,    0.0000000 ]
  distance:    0.0107386
  band:
  - # 1
    frequency:   -1.0454818476
  - # 2
    frequency:   -1.0421406162
  - # 3
    frequency:   -0.8743886583
  - # 4
    frequency:   -0.8672922475
  - # 5
    frequency:   -0.0550881852
  - # 6
    frequency:    0.3636665950
  - # 7
    frequency:    0.6216155639
  - # 8
    frequency:    0.8350304772
  - # 9
    frequency:    0.8831760046
  - # 10
    frequency:    2.3689342621
  - # 11
    frequency:    2.4245078819
  - # 12
    frequency:    4.8578118751
  - # 13
    frequency:   10.4158637254
  - # 14
    frequency:   10.6559541292
  - # 15
    frequency:   13.0933883547
  - # 16
    frequency:   13.1663497915
  - # 17
    frequency:   14.4597390577
  - # 18
    frequency:   14.4933587229
  - # 19
    frequency:   15.9232660684
  - # 20
    frequency:   15.9277253586
  - # 21
    frequency:   21.0194024054

- q-position: [    0.0353535,    0.0000000,    0.0000000 ]
  distance:    0.0125283
  band:
  - # 1
    frequency:   -1.1478845509
  - # 2
    frequency:   -1.1445719038
  - # 3
    frequency:   -0.9311120634
  - # 4
    frequency:   -0.9259287466
  - # 5
    frequency:   -0.0576861547
  - # 6
    frequency:    0.4328651944
  - # 7
    frequency:    0.7297349182
  - # 8
    frequency:    0.8500312270
  - # 9
    frequency:    0.8905228437
  - # 10
    frequency:    2.3757456293
  - # 11
    frequency:    2.4505482548
  - # 12
    frequency:    4.8507436892
  - # 13
    frequency:   10.4197082237
  - # 14
    frequency:   10.7435557076
  - # 15
    frequency:   13.0667112940
  - # 16
    frequency:   13.1645143835
  - # 17
    frequency:   14.4707095483
  - # 18
    frequency:   14.4851673138
  - # 19
    frequency:   15.9241964367
  - # 20
    frequency:   15.9304550585
  - # 21
    frequency:   21.0174746814

- q-position: [    0.0404040,    0.0000000,    0.0000000 ]
  distance:    0.0143181
  band:
  - # 1
    frequency:   -1.2550503626
  - # 2
    frequency:   -1.2520229193
  - # 3
    frequency:   -0.9929242601
  - # 4
    frequency:   -0.9888452841
  - # 5
    frequency:   -0.0511294368
  - # 6
    frequency:    0.5024750711
  - # 7
    frequency:    0.8182543660
  - # 8
    frequency:    0.8853295955
  - # 9
    frequency:    0.8994122523
  - # 10
    frequency:    2.3835841293
  - # 11
    frequency:    2.4800575445
  - # 12
    frequency:    4.8428433086
  - # 13
    frequency:   10.4242035360
  - # 14
    frequency:   10.8428422042
  - # 15
    frequency:   13.0368178967
  - # 16
    frequency:   13.1624164714
  - # 17
    frequency:   14.4748192836
  - # 18
    frequency:   14.4835622343
  - # 19
    frequency:   15.9252444753
  - # 20
    frequency:   15.9337062646
  - # 21
    frequency:   21.0152259866

- q-position: [    0.0454545,    0.0000000,    0.0000000 ]
  distance:    0.0161079
  band:
  - # 1
    frequency:   -1.3654847071
  - # 2
    frequency:   -1.3628845082
  - # 3
    frequency:   -1.0585512202
  - # 4
    frequency:   -1.0551560118
  - # 5
    frequency:   -0.0194158573
  - # 6
    frequency:    0.5720192952
  - # 7
    frequency:    0.8541012639
  - # 8
    frequency:    0.9091585444
  - # 9
    frequency:    0.9744905130
  - # 10
    frequency:    2.3924377125
  - # 11
    frequency:    2.5128361481
  - # 12
    frequency:    4.8341951413
  - # 13
    frequency:   10.4293740708
  - # 14
    frequency:   10.9531170904
  - # 15
    frequency:   13.0039980922
  - # 16
    frequency:   13.1600644559
  - # 17
    frequency:   14.4643589992
  - # 18
    frequency:   14.4960432413
  - # 19
    frequency:   15.9263996116
  - # 20
    frequency:   15.9375252327
  - # 21
    frequency:   21.0126461564

- q-position: [    0.0505051,    0.0000000,    0.0000000 ]
  distance:    0.0178976
  band:
  - # 1
    frequency:   -1.4781095444
  - # 2
    frequency:   -1.4759445280
  - # 3
    frequency:   -1.1269682275
  - # 4
    frequency:   -1.1240858417
  - # 5
    frequency:    0.0626079314
  - # 6
    frequency:    0.6411942871
  - # 7
    frequency:    0.8731452085
  - # 8
    frequency:    0.9206903289
  - # 9
    frequency:    1.0806157023
  - # 10
    frequency:    2.4022912111
  - # 11
    frequency:    2.5486773482
  - # 12
    frequency:    4.8248820474
  - # 13
    frequency:   10.4352468146
  - # 14
    frequency:   11.0736309733
  - # 15
    frequency:   12.9685392503
  - # 16
    frequency:   13.1574677818
  - # 17
    frequency:   14.4524049209
  - # 18
    frequency:   14.5093384672
  - # 19
    frequency:   15.9276500854
  - # 20
    frequency:   15.9419664646
  - # 21
    frequency:   21.0097238654

- q-position: [    0.0555556,    0.0000000,    0.0000000 ]
  distance:    0.0196874
  band:
  - # 1
    frequency:   -1.5921095932
  - # 2
    frequency:   -1.5902943292
  - # 3
    frequency:   -1.1973933919
  - # 4
    frequency:   -1.1949424298
  - # 5
    frequency:    0.1039976366
  - # 6
    frequency:    0.7098092764
  - # 7
    frequency:    0.8905775727
  - # 8
    frequency:    0.9336096033
  - # 9
    frequency:    1.1888408964
  - # 10
    frequency:    2.4131261569
  - # 11
    frequency:    2.5873726294
  - # 12
    frequency:    4.8149830695
  - # 13
    frequency:   10.4418510850
  - # 14
    frequency:   11.2035910366
  - # 15
    frequency:   12.9307213588
  - # 16
    frequency:   13.1546369096
  - # 17
    frequency:   14.4392473659
  - # 18
    frequency:   14.5229809482
  - # 19
    frequency:   15.9289830289
  - # 20
    frequency:   15.9470937210
  - # 21
    frequency:   21.0064467000

- q-position: [    0.0606061,    0.0000000,    0.0000000 ]
  distance:    0.0214771
  band:
  - # 1
    frequency:   -1.7068451904
  - # 2
    frequency:   -1.7052441781
  - # 3
    frequency:   -1.2692299174
  - # 4
    frequency:   -1.2671195424
  - # 5
    frequency:    0.1443675634
  - # 6
    frequency:    0.7777425512
  - # 7
    frequency:    0.9084138656
  - # 8
    frequency:    0.9479261409
  - # 9
    frequency:    1.2970721707
  - # 10
    frequency:    2.4249207032
  - # 11
    frequency:    2.6287162586
  - # 12
    frequency:    4.8045717393
  - # 13
    frequency:   10.4492182606
  - # 14
    frequency:   11.3421692648
  - # 15
    frequency:   12.8908140763
  - # 16
    frequency:   13.1515832828
  - # 17
    frequency:   14.4249403893
  - # 18
    frequency:   14.5367623656
  - # 19
    frequency:   15.9303845535
  - # 20
    frequency:   15.9529812991
  - # 21
    frequency:   21.0028012401

- q-position: [    0.0656566,    0.0000000,    0.0000000 ]
  distance:    0.0232669
  band:
  - # 1
    frequency:   -1.8217913302
  - # 2
    frequency:   -1.8202678427
  - # 3
    frequency:   -1.3420102292
  - # 4
    frequency:   -1.3400987161
  - # 5
    frequency:    0.1857785923
  - # 6
    frequency:    0.8449133597
  - # 7
    frequency:    0.9271010342
  - # 8
    frequency:    0.9636162541
  - # 9
    frequency:    1.4048100408
  - # 10
    frequency:    2.4376496465
  - # 11
    frequency:    2.6725089861
  - # 12
    frequency:    4.7937149502
  - # 13
    frequency:   10.4573814871
  - # 14
    frequency:   11.4885091203
  - # 15
    frequency:   12.8490753074
  - # 16
    frequency:   13.1483192930
  - # 17
    frequency:   14.4095255068
  - # 18
    frequency:   14.5505114065
  - # 19
    frequency:   15.9318398429
  - # 20
    frequency:   15.9597156323
  - # 21
    frequency:   20.9987731492

- q-position: [    0.0707071,    0.0000000,    0.0000000 ]
  distance:    0.0250567
  band:
  - # 1
    frequency:   -1.9365017931
  - # 2
    frequency:   -1.9349596708
  - # 3
    frequency:   -1.4153458412
  - # 4
    frequency:   -1.4134528527
  - # 5
    frequency:    0.2287367820
  - # 6
    frequency:    0.9112649016
  - # 7
    frequency:    0.9467644576
  - # 8
    frequency:    0.9806429164
  - # 9
    frequency:    1.5118799804
  - # 10
    frequency:    2.4512845349
  - # 11
    frequency:    2.7185608547
  - # 12
    frequency:    4.7824723390
  - # 13
    frequency:   10.4663753641
  - # 14
    frequency:   11.6417303384
  - # 15
    frequency:   12.8057509954
  - # 16
    frequency:   13.1448582400
  - # 17
    frequency:   14.3930459718
  - # 18
    frequency:   14.5640807375
  - # 19
    frequency:   15.9333332529
  - # 20
    frequency:   15.9673972762
  - # 21
    frequency:   20.9943472723

- q-position: [    0.0757576,    0.0000000,    0.0000000 ]
  distance:    0.0268464
  band:
  - # 1
    frequency:   -2.0505978535
  - # 2
    frequency:   -2.0489920381
  - # 3
    frequency:   -1.4888868480
  - # 4
    frequency:   -1.4868493738
  - # 5
    frequency:    0.2733540490
  - # 6
    frequency:    0.9674317134
  - # 7
    frequency:    0.9767543726
  - # 8
    frequency:    0.9989606469
  - # 9
    frequency:    1.6182043977
  - # 10
    frequency:    2.4657938487
  - # 11
    frequency:    2.7666932017
  - # 12
    frequency:    4.7708960981
  - # 13
    frequency:   10.4762356109
  - # 14
    frequency:   11.8009313678
  - # 15
    frequency:   12.7610760270
  - # 16
    frequency:   13.1412142899
  - # 17
    frequency:   14.3755503950
  - # 18
    frequency:   14.5773442813
  - # 19
    frequency:   15.9348484155
  - # 20
    frequency:   15.9761433563
  - # 21
    frequency:   20.9895077436

- q-position: [    0.0808081,    0.0000000,    0.0000000 ]
  distance:    0.0286362
  band:
  - # 1
    frequency:   -2.1637619310
  - # 2
    frequency:   -2.1620843990
  - # 3
    frequency:   -1.5623139437
  - # 4
    frequency:   -1.5600291717
  - # 5
    frequency:    0.3196023027
  - # 6
    frequency:    0.9890930831
  - # 7
    frequency:    1.0185185495
  - # 8
    frequency:    1.0413472755
  - # 9
    frequency:    1.7237406594
  - # 10
    frequency:    2.4811432342
  - # 11
    frequency:    2.8167399857
  - # 12
    frequency:    4.7590311258
  - # 13
    frequency:   10.4869987181
  - # 14
    frequency:   11.9651883894
  - # 15
    frequency:   12.7152767604
  - # 16
    frequency:   13.1374024286
  - # 17
    frequency:   14.3570950938
  - # 18
    frequency:   14.5901959008
  - # 19
    frequency:   15.9363683484
  - # 20
    frequency:   15.9860905629
  - # 21
    frequency:   20.9842381018

- q-position: [    0.0858586,    0.0000000,    0.0000000 ]
  distance:    0.0304260
  band:
  - # 1
    frequency:   -2.2757260740
  - # 2
    frequency:   -2.2739885778
  - # 3
    frequency:   -1.6353493495
  - # 4
    frequency:   -1.6327734547
  - # 5
    frequency:    0.3673963349
  - # 6
    frequency:    1.0117226107
  - # 7
    frequency:    1.0392626120
  - # 8
    frequency:    1.1050142487
  - # 9
    frequency:    1.8284593345
  - # 10
    frequency:    2.4972957750
  - # 11
    frequency:    2.8685485908
  - # 12
    frequency:    4.7469154260
  - # 13
    frequency:   10.4987015836
  - # 14
    frequency:   12.1335471387
  - # 15
    frequency:   12.6685783527
  - # 16
    frequency:   13.1334384122
  - # 17
    frequency:   14.3377468374
  - # 18
    frequency:   14.6025483992
  - # 19
    frequency:   15.9378755670
  - # 20
    frequency:   15.9973987801
  - # 21
    frequency:   20.9785214147

- q-position: [    0.0909091,    0.0000000,    0.0000000 ]
  distance:    0.0322157
  band:
  - # 1
    frequency:   -2.3862597730
  - # 2
    frequency:   -2.3844822395
  - # 3
    frequency:   -1.7077576779
  - # 4
    frequency:   -1.7048859535
  - # 5
    frequency:    0.4166269799
  - # 6
    frequency:    1.0352867946
  - # 7
    frequency:    1.0611374656
  - # 8
    frequency:    1.1677293608
  - # 9
    frequency:    1.9323350205
  - # 10
    frequency:    2.5142122852
  - # 11
    frequency:    2.9219802494
  - # 12
    frequency:    4.7345806744
  - # 13
    frequency:   10.5113811379
  - # 14
    frequency:   12.3049845380
  - # 15
    frequency:   12.6212390993
  - # 16
    frequency:   13.1293387146
  - # 17
    frequency:   14.3175868540
  - # 18
    frequency:   14.6143327455
  - # 19
    frequency:   15.9393522002
  - # 20
    frequency:   16.0102554384
  - # 21
    frequency:   20.9723404116

- q-position: [    0.0959596,    0.0000000,    0.0000000 ]
  distance:    0.0340055
  band:
  - # 1
    frequency:   -2.4951605409
  - # 2
    frequency:   -2.4933647665
  - # 3
    frequency:   -1.7793380978
  - # 4
    frequency:   -1.7761878638
  - # 5
    frequency:    0.4671760278
  - # 6
    frequency:    1.0597486355
  - # 7
    frequency:    1.0840876944
  - # 8
    frequency:    1.2294692512
  - # 9
    frequency:    2.0353418341
  - # 10
    frequency:    2.5318516125
  - # 11
    frequency:    2.9769102085
  - # 12
    frequency:    4.7220528826
  - # 13
    frequency:   10.5250739611
  - # 14
    frequency:   12.4779015760
  - # 15
    frequency:   12.5740491529
  - # 16
    frequency:   13.1251204709
  - # 17
    frequency:   14.2967172126
  - # 18
    frequency:   14.6254976403
  - # 19
    frequency:   15.9407801083
  - # 20
    frequency:   16.0248806609
  - # 21
    frequency:   20.9656776256

- q-position: [    0.1010101,    0.0000000,    0.0000000 ]
  distance:    0.0357952
  band:
  - # 1
    frequency:   -2.6022473273
  - # 2
    frequency:   -2.6004539172
  - # 3
    frequency:   -1.8499162170
  - # 4
    frequency:   -1.8465161111
  - # 5
    frequency:    0.5189233356
  - # 6
    frequency:    1.0850696909
  - # 7
    frequency:    1.1080587753
  - # 8
    frequency:    1.2902127538
  - # 9
    frequency:    2.1374508570
  - # 10
    frequency:    2.5501709412
  - # 11
    frequency:    3.0332277381
  - # 12
    frequency:    4.7093531039
  - # 13
    frequency:   10.5398158951
  - # 14
    frequency:   12.5236261728
  - # 15
    frequency:   12.6548127836
  - # 16
    frequency:   13.1208014180
  - # 17
    frequency:   14.2752715507
  - # 18
    frequency:   14.6360096215
  - # 19
    frequency:   15.9421410019
  - # 20
    frequency:   16.0415332281
  - # 21
    frequency:   20.9585155445

- q-position: [    0.1060606,    0.0000000,    0.0000000 ]
  distance:    0.0375850
  band:
  - # 1
    frequency:   -2.7073559646
  - # 2
    frequency:   -2.7055830207
  - # 3
    frequency:   -1.9193380402
  - # 4
    frequency:   -1.9157218283
  - # 5
    frequency:    0.5717502300
  - # 6
    frequency:    1.1112111773
  - # 7
    frequency:    1.1329977210
  - # 8
    frequency:    1.3499407888
  - # 9
    frequency:    2.2386284859
  - # 10
    frequency:    2.5691260896
  - # 11
    frequency:    3.0908360518
  - # 12
    frequency:    4.6964981401
  - # 13
    frequency:   10.5556416530
  - # 14
    frequency:   12.4756272160
  - # 15
    frequency:   12.8291089667
  - # 16
    frequency:   13.1163998321
  - # 17
    frequency:   14.2534340507
  - # 18
    frequency:   14.6458540092
  - # 19
    frequency:   15.9434165611
  - # 20
    frequency:   16.0605172933
  - # 21
    frequency:   20.9508367704

- q-position: [    0.1111111,    0.0000000,    0.0000000 ]
  distance:    0.0393748
  band:
  - # 1
    frequency:   -2.8103359635
  - # 2
    frequency:   -2.8085986708
  - # 3
    frequency:   -1.9874657182
  - # 4
    frequency:   -1.9836687632
  - # 5
    frequency:    0.6255410118
  - # 6
    frequency:    1.1381345780
  - # 7
    frequency:    1.1588534968
  - # 8
    frequency:    1.4086363995
  - # 9
    frequency:    2.3388352447
  - # 10
    frequency:    2.5886717970
  - # 11
    frequency:    3.1496521860
  - # 12
    frequency:    4.6835012195
  - # 13
    frequency:   10.5725844309
  - # 14
    frequency:   12.4272030952
  - # 15
    frequency:   13.0025585326
  - # 16
    frequency:   13.1119344632
  - # 17
    frequency:   14.2314749630
  - # 18
    frequency:   14.6550371652
  - # 19
    frequency:   15.9445885559
  - # 20
    frequency:   16.0821896078
  - # 21
    frequency:   20.9426241902

- q-position: [    0.1161616,    0.0000000,    0.0000000 ]
  distance:    0.0411645
  band:
  - # 1
    frequency:   -2.9110482116
  - # 2
    frequency:   -2.9093588659
  - # 3
    frequency:   -2.0541745184
  - # 4
    frequency:   -2.0502317680
  - # 5
    frequency:    0.6801834432
  - # 6
    frequency:    1.1658019743
  - # 7
    frequency:    1.1855772699
  - # 8
    frequency:    1.4662848565
  - # 9
    frequency:    2.4380248697
  - # 10
    frequency:    2.6087619983
  - # 11
    frequency:    3.2096068542
  - # 12
    frequency:    4.6703726267
  - # 13
    frequency:   10.5906755245
  - # 14
    frequency:   12.3788729603
  - # 15
    frequency:   13.1074244664
  - # 16
    frequency:   13.1733504927
  - # 17
    frequency:   14.2098216599
  - # 18
    frequency:   14.6635908690
  - # 19
    frequency:   15.9456389638
  - # 20
    frequency:   16.1069667166
  - # 21
    frequency:   20.9338611555

- q-position: [    0.1212121,    0.0000000,    0.0000000 ]
  distance:    0.0429543
  band:
  - # 1
    frequency:   -3.0093632880
  - # 2
    frequency:   -3.0077315287
  - # 3
    frequency:   -2.1193506096
  - # 4
    frequency:   -2.1152954637
  - # 5
    frequency:    0.7355686763
  - # 6
    frequency:    1.1941762158
  - # 7
    frequency:    1.2131225444
  - # 8
    frequency:    1.5228737871
  - # 9
    frequency:    2.5361435982
  - # 10
    frequency:    2.6293500859
  - # 11
    frequency:    3.2706442684
  - # 12
    frequency:    4.6571202753
  - # 13
    frequency:   10.6099439549
  - # 14
    frequency:   12.3308427803
  - # 15
    frequency:   13.1028893314
  - # 16
    frequency:   13.3396080704
  - # 17
    frequency:   14.1892122758
  - # 18
    frequency:   14.6715802397
  - # 19
    frequency:   15.9465500874
  - # 20
    frequency:   16.1353311145
  - # 21
    frequency:   20.9245316738

- q-position: [    0.1262626,    0.0000000,    0.0000000 ]
  distance:    0.0447441
  band:
  - # 1
    frequency:   -3.1051602125
  - # 2
    frequency:   -3.1035933340
  - # 3
    frequency:   -2.1828894036
  - # 4
    frequency:   -2.1787531053
  - # 5
    frequency:    0.7915908788
  - # 6
    frequency:    1.2232209919
  - # 7
    frequency:    1.2414452217
  - # 8
    frequency:    1.5783933023
  - # 9
    frequency:    2.6331296561
  - # 10
    frequency:    2.6503891591
  - # 11
    frequency:    3.3327218895
  - # 12
    frequency:    4.6437502195
  - # 13
    frequency:   10.6304161057
  - # 14
    frequency:   12.2832815782
  - # 15
    frequency:   13.0983488083
  - # 16
    frequency:   13.4987316693
  - # 17
    frequency:   14.1710584396
  - # 18
    frequency:   14.6791178666
  - # 19
    frequency:   15.9473046691
  - # 20
    frequency:   16.1678346554
  - # 21
    frequency:   20.9146206113

- q-position: [    0.1313131,    0.0000000,    0.0000000 ]
  distance:    0.0465338
  band:
  - # 1
    frequency:   -3.1983255068
  - # 2
    frequency:   -3.1968287865
  - # 3
    frequency:   -2.2446942939
  - # 4
    frequency:   -2.2405056352
  - # 5
    frequency:    0.8481466965
  - # 6
    frequency:    1.2529008413
  - # 7
    frequency:    1.2705036243
  - # 8
    frequency:    1.6328361043
  - # 9
    frequency:    2.6718322616
  - # 10
    frequency:    2.7289129922
  - # 11
    frequency:    3.3958100345
  - # 12
    frequency:    4.6302671057
  - # 13
    frequency:   10.6521153776
  - # 14
    frequency:   12.2363462991
  - # 15
    frequency:   13.0938228326
  - # 16
    frequency:   13.6464213588
  - # 17
    frequency:   14.1583735728
  - # 18
    frequency:   14.6863893208
  - # 19
    frequency:   15.9478860024
  - # 20
    frequency:   16.2050965929
  - # 21
    frequency:   20.9041139098

- q-position: [    0.1363636,    0.0000000,    0.0000000 ]
  distance:    0.0483236
  band:
  - # 1
    frequency:   -3.2887524843
  - # 2
    frequency:   -3.2873294947
  - # 3
    frequency:   -2.3046756811
  - # 4
    frequency:   -2.3004609021
  - # 5
    frequency:    0.9051346365
  - # 6
    frequency:    1.2831811236
  - # 7
    frequency:    1.3002585131
  - # 8
    frequency:    1.6861975661
  - # 9
    frequency:    2.6936326099
  - # 10
    frequency:    2.8234153441
  - # 11
    frequency:    3.4598912333
  - # 12
    frequency:    4.6166745734
  - # 13
    frequency:   10.6750618613
  - # 14
    frequency:   12.1901871095
  - # 15
    frequency:   13.0893314468
  - # 16
    frequency:   13.7742939053
  - # 17
    frequency:   14.1581131582
  - # 18
    frequency:   14.6937004884
  - # 19
    frequency:   15.9482780406
  - # 20
    frequency:   16.2477926282
  - # 21
    frequency:   20.8929988171

- q-position: [    0.1414141,    0.0000000,    0.0000000 ]
  distance:    0.0501133
  band:
  - # 1
    frequency:   -3.3763407106
  - # 2
    frequency:   -3.3749936031
  - # 3
    frequency:   -2.3627502140
  - # 4
    frequency:   -2.3585330191
  - # 5
    frequency:    0.9624544123
  - # 6
    frequency:    1.3140279672
  - # 7
    frequency:    1.3306731268
  - # 8
    frequency:    1.7384757767
  - # 9
    frequency:    2.7157438110
  - # 10
    frequency:    2.9165507629
  - # 11
    frequency:    3.5249591917
  - # 12
    frequency:    4.6029756134
  - # 13
    frequency:   10.6992720342
  - # 14
    frequency:   12.1449490091
  - # 15
    frequency:   13.0848947214
  - # 16
    frequency:   13.8666726382
  - # 17
    frequency:   14.1843154943
  - # 18
    frequency:   14.7015684083
  - # 19
    frequency:   15.9484655005
  - # 20
    frequency:   16.2966306445
  - # 21
    frequency:   20.8812641352

- q-position: [    0.1464646,    0.0000000,    0.0000000 ]
  distance:    0.0519031
  band:
  - # 1
    frequency:   -3.4609955937
  - # 2
    frequency:   -3.4597253470
  - # 3
    frequency:   -2.4188401937
  - # 4
    frequency:   -2.4146418372
  - # 5
    frequency:    1.0200062647
  - # 6
    frequency:    1.3454082033
  - # 7
    frequency:    1.3617132752
  - # 8
    frequency:    1.7896715493
  - # 9
    frequency:    2.7381200735
  - # 10
    frequency:    3.0082267494
  - # 11
    frequency:    3.5910171814
  - # 12
    frequency:    4.5891729033
  - # 13
    frequency:   10.7247584820
  - # 14
    frequency:   12.1007723879
  - # 15
    frequency:   13.0805326742
  - # 16
    frequency:   13.9106163569
  - # 17
    frequency:   14.2479335627
  - # 18
    frequency:   14.7109001316
  - # 19
    frequency:   15.9484339618
  - # 20
    frequency:   16.3523091762
  - # 21
    frequency:   20.8689004872

- q-position: [    0.1515152,    0.0000000,    0.0000000 ]
  distance:    0.0536929
  band:
  - # 1
    frequency:   -3.5426280712
  - # 2
    frequency:   -3.5414347072
  - # 3
    frequency:   -2.4728731034
  - # 4
    frequency:   -2.4687125151
  - # 5
    frequency:    1.0776902557
  - # 6
    frequency:    1.3772892930
  - # 7
    frequency:    1.3933475198
  - # 8
    frequency:    1.8397883920
  - # 9
    frequency:    2.7607164093
  - # 10
    frequency:    3.0983461665
  - # 11
    frequency:    3.6580756634
  - # 12
    frequency:    4.5752691462
  - # 13
    frequency:   10.7515296507
  - # 14
    frequency:   12.0577931759
  - # 15
    frequency:   13.0762651878
  - # 16
    frequency:   13.9175215496
  - # 17
    frequency:   14.3349459887
  - # 18
    frequency:   14.7233382385
  - # 19
    frequency:   15.9481699610
  - # 20
    frequency:   16.4154571088
  - # 21