nqpoint: 300    
npath: 3      
segment_nqpoint:
- 100
- 100
- 100
labels:
- [ 'G', 'M' ]
- [ 'M', 'K' ]
- [ 'K', 'G' ]
reciprocal_lattice:
- [   0.31002350,   0.17899215,   0.00000000 ] # a*
- [   0.00000000,   0.35798431,   0.00000000 ] # b*
- [   0.00000000,   0.00000000,   0.03857977 ] # c*
natom: 6      
lattice:
- [     3.225561882848837,     0.000000000000000,     0.000000000000000 ] # a
- [    -1.612780941424419,     2.793418532034785,     0.000000000000000 ] # b
- [     0.000000000000000,     0.000000000000000,    25.920320083969273 ] # c
points:
- symbol: Cl # 1
  coordinates: [  0.333332985432215,  0.666666983183674,  0.652782065543776 ]
  mass: 35.453000
- symbol: Hf # 2
  coordinates: [  0.333332985432215,  0.666666983183674,  0.384640679497606 ]
  mass: 178.490000
- symbol: Hf # 3
  coordinates: [  0.666666984744047,  0.333332985985145,  0.488527292930800 ]
  mass: 178.490000
- symbol: N # 4
  coordinates: [  0.000000000000000,  0.000000000000000,  0.436228637213063 ]
  mass: 14.006700
- symbol: O # 5
  coordinates: [  0.333332985432215,  0.666666983183674,  0.523672000415762 ]
  mass: 15.999400
- symbol: O # 6
  coordinates: [  0.666666984744047,  0.333332985985145,  0.347217934456224 ]
  mass: 15.999400

phonon:
- q-position: [    0.0000000,    0.0000000,    0.0000000 ]
  distance:    0.0000000
  band:
  - # 1
    frequency:   -2.3470724676
  - # 2
    frequency:   -2.3470724676
  - # 3
    frequency:   -0.0000140994
  - # 4
    frequency:   -0.0000001624
  - # 5
    frequency:    0.0000158219
  - # 6
    frequency:    1.1897924684
  - # 7
    frequency:    1.1897924685
  - # 8
    frequency:    1.3646927704
  - # 9
    frequency:    5.1818188189
  - # 10
    frequency:    9.7704616116
  - # 11
    frequency:    9.7704616116
  - # 12
    frequency:   11.0469355753
  - # 13
    frequency:   11.0469355753
  - # 14
    frequency:   14.4592809955
  - # 15
    frequency:   14.4592809955
  - # 16
    frequency:   14.5626107819
  - # 17
    frequency:   15.5044235937
  - # 18
    frequency:   17.9125196548

- q-position: [    0.0050505,    0.0000000,    0.0000000 ]
  distance:    0.0018080
  band:
  - # 1
    frequency:   -2.3505703568
  - # 2
    frequency:   -2.3480108783
  - # 3
    frequency:   -0.0146548739
  - # 4
    frequency:    0.0116853077
  - # 5
    frequency:    0.0537546454
  - # 6
    frequency:    1.1905552185
  - # 7
    frequency:    1.1911887317
  - # 8
    frequency:    1.3662807044
  - # 9
    frequency:    5.1811840672
  - # 10
    frequency:    9.7690310697
  - # 11
    frequency:    9.7709449871
  - # 12
    frequency:   11.0455979790
  - # 13
    frequency:   11.0485088017
  - # 14
    frequency:   14.4454167517
  - # 15
    frequency:   14.4587810611
  - # 16
    frequency:   14.5751174634
  - # 17
    frequency:   15.5041234353
  - # 18
    frequency:   17.9119167174

- q-position: [    0.0101010,    0.0000000,    0.0000000 ]
  distance:    0.0036160
  band:
  - # 1
    frequency:   -2.3610266949
  - # 2
    frequency:   -2.3508262374
  - # 3
    frequency:   -0.0376919781
  - # 4
    frequency:    0.0358952122
  - # 5
    frequency:    0.1074064874
  - # 6
    frequency:    1.1928791834
  - # 7
    frequency:    1.1953371295
  - # 8
    frequency:    1.3710155836
  - # 9
    frequency:    5.1792785878
  - # 10
    frequency:    9.7647875164
  - # 11
    frequency:    9.7723799087
  - # 12
    frequency:   11.0416071990
  - # 13
    frequency:   11.0531855948
  - # 14
    frequency:   14.4144746999
  - # 15
    frequency:   14.4572824919
  - # 16
    frequency:   14.6019834660
  - # 17
    frequency:   15.5032270842
  - # 18
    frequency:   17.9101124246

- q-position: [    0.0151515,    0.0000000,    0.0000000 ]
  distance:    0.0054240
  band:
  - # 1
    frequency:   -2.3783298104
  - # 2
    frequency:   -2.3555185512
  - # 3
    frequency:   -0.0655469469
  - # 4
    frequency:    0.0682398062
  - # 5
    frequency:    0.1608474504
  - # 6
    frequency:    1.1968702015
  - # 7
    frequency:    1.2021209926
  - # 8
    frequency:    1.3788133471
  - # 9
    frequency:    5.1760986672
  - # 10
    frequency:    9.7578717068
  - # 11
    frequency:    9.7747203524
  - # 12
    frequency:   11.0350298770
  - # 13
    frequency:   11.0608407517
  - # 14
    frequency:   14.3769630491
  - # 15
    frequency:   14.4547889829
  - # 16
    frequency:   14.6326906679
  - # 17
    frequency:   15.5017466264
  - # 18
    frequency:   17.9071202954

- q-position: [    0.0202020,    0.0000000,    0.0000000 ]
  distance:    0.0072320
  band:
  - # 1
    frequency:   -2.4022949303
  - # 2
    frequency:   -2.3620866235
  - # 3
    frequency:   -0.0962241857
  - # 4
    frequency:    0.1070850705
  - # 5
    frequency:    0.2139600998
  - # 6
    frequency:    1.2027001506
  - # 7
    frequency:    1.2113599981
  - # 8
    frequency:    1.3895423121
  - # 9
    frequency:    5.1716379837
  - # 10
    frequency:    9.7485073307
  - # 11
    frequency:    9.7778882640
  - # 12
    frequency:   11.0259791088
  - # 13
    frequency:   11.0712764807
  - # 14
    frequency:   14.3364549154
  - # 15
    frequency:   14.4513066693
  - # 16
    frequency:   14.6636500302
  - # 17
    frequency:   15.4997012506
  - # 18
    frequency:   17.9029627336

- q-position: [    0.0252525,    0.0000000,    0.0000000 ]
  distance:    0.0090400
  band:
  - # 1
    frequency:   -2.4326670419
  - # 2
    frequency:   -2.3705263859
  - # 3
    frequency:   -0.1283050529
  - # 4
    frequency:    0.1512932392
  - # 5
    frequency:    0.2666159008
  - # 6
    frequency:    1.2105996095
  - # 7
    frequency:    1.2228285185
  - # 8
    frequency:    1.4030338898
  - # 9
    frequency:    5.1658874116
  - # 10
    frequency:    9.7369866785
  - # 11
    frequency:    9.7817715889
  - # 12
    frequency:   11.0146173870
  - # 13
    frequency:   11.0842366975
  - # 14
    frequency:   14.2942124295
  - # 15
    frequency:   14.4468440947
  - # 16
    frequency:   14.6935784372
  - # 17
    frequency:   15.4971158013
  - # 18
    frequency:   17.8976708324

- q-position: [    0.0303030,    0.0000000,    0.0000000 ]
  distance:    0.0108480
  band:
  - # 1
    frequency:   -2.4691261166
  - # 2
    frequency:   -2.3808288267
  - # 3
    frequency:   -0.1606691949
  - # 4
    frequency:    0.1999172942
  - # 5
    frequency:    0.3186769465
  - # 6
    frequency:    1.2208465755
  - # 7
    frequency:    1.2362765772
  - # 8
    frequency:    1.4190944219
  - # 9
    frequency:    5.1588347547
  - # 10
    frequency:    9.7236539649
  - # 11
    frequency:    9.7862216496
  - # 12
    frequency:   11.0011605068
  - # 13
    frequency:   11.0994236379
  - # 14
    frequency:   14.2508061906
  - # 15
    frequency:   14.4414121665
  - # 16
    frequency:   14.7218806561
  - # 17
    frequency:   15.4940187398
  - # 18
    frequency:   17.8912841007

- q-position: [    0.0353535,    0.0000000,    0.0000000 ]
  distance:    0.0126560
  band:
  - # 1
    frequency:   -2.5112950668
  - # 2
    frequency:   -2.3929777403
  - # 3
    frequency:   -0.1923899437
  - # 4
    frequency:    0.2521168189
  - # 5
    frequency:    0.3700020854
  - # 6
    frequency:    1.2337505168
  - # 7
    frequency:    1.2514504157
  - # 8
    frequency:    1.4375162356
  - # 9
    frequency:    5.1504644183
  - # 10
    frequency:    9.7088884986
  - # 11
    frequency:    9.7910500660
  - # 12
    frequency:   10.9858821590
  - # 13
    frequency:   11.1165145911
  - # 14
    frequency:   14.2065545903
  - # 15
    frequency:   14.4350241037
  - # 16
    frequency:   14.7482119465
  - # 17
    frequency:   15.4904395245
  - # 18
    frequency:   17.8838501049

- q-position: [    0.0404040,    0.0000000,    0.0000000 ]
  distance:    0.0144640
  band:
  - # 1
    frequency:   -2.5587502065
  - # 2
    frequency:   -2.4069475361
  - # 3
    frequency:   -0.2226791441
  - # 4
    frequency:    0.3071309348
  - # 5
    frequency:    0.4204579234
  - # 6
    frequency:    1.2496313497
  - # 7
    frequency:    1.2681104159
  - # 8
    frequency:    1.4580866922
  - # 9
    frequency:    5.1407570323
  - # 10
    frequency:    9.6930893816
  - # 11
    frequency:    9.7960255780
  - # 12
    frequency:   10.9691187609
  - # 13
    frequency:   11.1351770581
  - # 14
    frequency:   14.1616629176
  - # 15
    frequency:   14.4276953786
  - # 16
    frequency:   14.7723414282
  - # 17
    frequency:   15.4864054653
  - # 18
    frequency:   17.8754240265

- q-position: [    0.0454545,    0.0000000,    0.0000000 ]
  distance:    0.0162720
  band:
  - # 1
    frequency:   -2.6110334154
  - # 2
    frequency:   -2.4227013271
  - # 3
    frequency:   -0.2508492656
  - # 4
    frequency:    0.3642685087
  - # 5
    frequency:    0.4699343398
  - # 6
    frequency:    1.2687937022
  - # 7
    frequency:    1.2860450546
  - # 8
    frequency:    1.4805948797
  - # 9
    frequency:    5.1296890447
  - # 10
    frequency:    9.6766627313
  - # 11
    frequency:    9.8008713711
  - # 12
    frequency:   10.9512738241
  - # 13
    frequency:   11.1550813269
  - # 14
    frequency:   14.1162751050
  - # 15
    frequency:   14.4194436549
  - # 16
    frequency:   14.7941033081
  - # 17
    frequency:   15.4819381714
  - # 18
    frequency:   17.8660681327

- q-position: [    0.0505051,    0.0000000,    0.0000000 ]
  distance:    0.0180800
  band:
  - # 1
    frequency:   -2.6676648760
  - # 2
    frequency:   -2.4401894775
  - # 3
    frequency:   -0.2762824484
  - # 4
    frequency:    0.4229025470
  - # 5
    frequency:    0.5183628891
  - # 6
    frequency:    1.2914981138
  - # 7
    frequency:    1.3050803898
  - # 8
    frequency:    1.5048363504
  - # 9
    frequency:    5.1172323106
  - # 10
    frequency:    9.6600117679
  - # 11
    frequency:    9.8052638546
  - # 12
    frequency:   10.9328208019
  - # 13
    frequency:   11.1759101103
  - # 14
    frequency:   14.0704956854
  - # 15
    frequency:   14.4102887268
  - # 16
    frequency:   14.8133782670
  - # 17
    frequency:   15.4770497987
  - # 18
    frequency:   17.8558511582

- q-position: [    0.0555556,    0.0000000,    0.0000000 ]
  distance:    0.0198880
  band:
  - # 1
    frequency:   -2.7281552363
  - # 2
    frequency:   -2.4593487274
  - # 3
    frequency:   -0.2984024176
  - # 4
    frequency:    0.4824642176
  - # 5
    frequency:    0.5657350061
  - # 6
    frequency:    1.3179323794
  - # 7
    frequency:    1.3250851454
  - # 8
    frequency:    1.5306167228
  - # 9
    frequency:    5.1033537121
  - # 10
    frequency:    9.6435296278
  - # 11
    frequency:    9.8088342768
  - # 12
    frequency:   10.9143029270
  - # 13
    frequency:   11.1973653671
  - # 14
    frequency:   14.0244002735
  - # 15
    frequency:   14.4002524626
  - # 16
    frequency:   14.8300864627
  - # 17
    frequency:   15.4717393970
  - # 18
    frequency:   17.8448476000

- q-position: [    0.0606061,    0.0000000,    0.0000000 ]
  distance:    0.0216960
  band:
  - # 1
    frequency:   -2.7920162937
  - # 2
    frequency:   -2.4801019475
  - # 3
    frequency:   -0.3166467494
  - # 4
    frequency:    0.5424353345
  - # 5
    frequency:    0.6121158216
  - # 6
    frequency:    1.3459717920
  - # 7
    frequency:    1.3481875068
  - # 8
    frequency:    1.5577550182
  - # 9
    frequency:    5.0880148532
  - # 10
    frequency:    9.6275944905
  - # 11
    frequency:    9.8111750160
  - # 12
    frequency:   10.8963280980
  - # 13
    frequency:   11.2191727042
  - # 14
    frequency:   13.9780412571
  - # 15
    frequency:   14.3893587555
  - # 16
    frequency:   14.8441851358
  - # 17
    frequency:   15.4659897349
  - # 18
    frequency:   17.8331369267

- q-position: [    0.0656566,    0.0000000,    0.0000000 ]
  distance:    0.0235040
  band:
  - # 1
    frequency:   -2.8587696626
  - # 2
    frequency:   -2.5023585068
  - # 3
    frequency:   -0.3304366238
  - # 4
    frequency:    0.6023396072
  - # 5
    frequency:    0.6576494014
  - # 6
    frequency:    1.3676941363
  - # 7
    frequency:    1.3822429247
  - # 8
    frequency:    1.5860873954
  - # 9
    frequency:    5.0711718863
  - # 10
    frequency:    9.6125665014
  - # 11
    frequency:    9.8118526647
  - # 12
    frequency:   10.8795566039
  - # 13
    frequency:   11.2410838627
  - # 14
    frequency:   13.9314514288
  - # 15
    frequency:   14.3776334875
  - # 16
    frequency:   14.8556677102
  - # 17
    frequency:   15.4597650196
  - # 18
    frequency:   17.8208027083

- q-position: [    0.0707071,    0.0000000,    0.0000000 ]
  distance:    0.0253120
  band:
  - # 1
    frequency:   -2.9279532565
  - # 2
    frequency:   -2.5260151853
  - # 3
    frequency:   -0.3391395622
  - # 4
    frequency:    0.6617335905
  - # 5
    frequency:    0.7025527891
  - # 6
    frequency:    1.3902418848
  - # 7
    frequency:    1.4199641299
  - # 8
    frequency:    1.6154716402
  - # 9
    frequency:    5.0527755402
  - # 10
    frequency:    9.5987859788
  - # 11
    frequency:    9.8104298064
  - # 12
    frequency:   10.8646796981
  - # 13
    frequency:   11.2628777835
  - # 14
    frequency:   13.8846467581
  - # 15
    frequency:   14.3651045080
  - # 16
    frequency:   14.8645628163
  - # 17
    frequency:   15.4530098916
  - # 18
    frequency:   17.8079316745

- q-position: [    0.0757576,    0.0000000,    0.0000000 ]
  distance:    0.0271200
  band:
  - # 1
    frequency:   -2.9991257025
  - # 2
    frequency:   -2.5509575229
  - # 3
    frequency:   -0.3420170348
  - # 4
    frequency:    0.7201985104
  - # 5
    frequency:    0.7470990829
  - # 6
    frequency:    1.4136324493
  - # 7
    frequency:    1.4611131505
  - # 8
    frequency:    1.6457924892
  - # 9
    frequency:    5.0327714324
  - # 10
    frequency:    9.5865724683
  - # 11
    frequency:    9.8064962693
  - # 12
    frequency:   10.8523881661
  - # 13
    frequency:   11.2843606804
  - # 14
    frequency:   13.8376288621
  - # 15
    frequency:   14.3518016318
  - # 16
    frequency:   14.8709324097
  - # 17
    frequency:   15.4456499570
  - # 18
    frequency:   17.7946127141

- q-position: [    0.0808081,    0.0000000,    0.0000000 ]
  distance:    0.0289280
  band:
  - # 1
    frequency:   -3.0718689774
  - # 2
    frequency:   -2.5770614771
  - # 3
    frequency:   -0.3381406954
  - # 4
    frequency:    0.7773342186
  - # 5
    frequency:    0.7915927601
  - # 6
    frequency:    1.4379000034
  - # 7
    frequency:    1.5053691335
  - # 8
    frequency:    1.6769676571
  - # 9
    frequency:    5.0111007595
  - # 10
    frequency:    9.5762242943
  - # 11
    frequency:    9.7997083676
  - # 12
    frequency:   10.8433323067
  - # 13
    frequency:   11.3053654591
  - # 14
    frequency:   13.7903874241
  - # 15
    frequency:   14.3377566587
  - # 16
    frequency:   14.8748686289
  - # 17
    frequency:   15.4375939303
  - # 18
    frequency:   17.7809358320

- q-position: [    0.0858586,    0.0000000,    0.0000000 ]
  distance:    0.0307360
  band:
  - # 1
    frequency:   -3.1457896326
  - # 2
    frequency:   -2.6041952597
  - # 3
    frequency:   -0.3262406093
  - # 4
    frequency:    0.8327564969
  - # 5
    frequency:    0.8363422826
  - # 6
    frequency:    1.4630816102
  - # 7
    frequency:    1.5523543460
  - # 8
    frequency:    1.7089542664
  - # 9
    frequency:    4.9877014737
  - # 10
    frequency:    9.5680183555
  - # 11
    frequency:    9.7898315178
  - # 12
    frequency:   10.8380778806
  - # 13
    frequency:   11.3257507344
  - # 14
    frequency:   13.7429026614
  - # 15
    frequency:   14.3230034163
  - # 16
    frequency:   14.8764893945
  - # 17
    frequency:   15.4287372355
  - # 18
    frequency:   17.7669910816

- q-position: [    0.0909091,    0.0000000,    0.0000000 ]
  distance:    0.0325440
  band:
  - # 1
    frequency:   -3.2205189710
  - # 2
    frequency:   -2.6322212324
  - # 3
    frequency:   -0.3043895780
  - # 4
    frequency:    0.8816350175
  - # 5
    frequency:    0.8860987451
  - # 6
    frequency:    1.4892003342
  - # 7
    frequency:    1.6016606116
  - # 8
    frequency:    1.7417551610
  - # 9
    frequency:    4.9625100549
  - # 10
    frequency:    9.5622099855
  - # 11
    frequency:    9.7767787630
  - # 12
    frequency:   10.8370654449
  - # 13
    frequency:   11.3453996236
  - # 14
    frequency:   13.6951478568
  - # 15
    frequency:   14.3075778277
  - # 16
    frequency:   14.8759330193
  - # 17
    frequency:   15.4189667129
  - # 18
    frequency:   17.7528674989

- q-position: [    0.0959596,    0.0000000,    0.0000000 ]
  distance:    0.0343520
  band:
  - # 1
    frequency:   -3.2957125006
  - # 2
    frequency:   -2.6609977640
  - # 3
    frequency:   -0.2692149602
  - # 4
    frequency:    0.9277180165
  - # 5
    frequency:    0.9370186046
  - # 6
    frequency:    1.5162458757
  - # 7
    frequency:    1.6528724070
  - # 8
    frequency:    1.7754242379
  - # 9
    frequency:    4.9354639903
  - # 10
    frequency:    9.5590327660
  - # 11
    frequency:    9.7606368305
  - # 12
    frequency:   10.8405814065
  - # 13
    frequency:   11.3642184359
  - # 14
    frequency:   13.6470919285
  - # 15
    frequency:   14.2915180039
  - # 16
    frequency:   14.8733522718
  - # 17
    frequency:   15.4081659434
  - # 18
    frequency:   17.7386520604

- q-position: [    0.1010101,    0.0000000,    0.0000000 ]
  distance:    0.0361600
  band:
  - # 1
    frequency:   -3.3710489254
  - # 2
    frequency:   -2.6903809728
  - # 3
    frequency:   -0.2132480317
  - # 4
    frequency:    0.9747861415
  - # 5
    frequency:    0.9852091574
  - # 6
    frequency:    1.5441545911
  - # 7
    frequency:    1.7055846659
  - # 8
    frequency:    1.8100694163
  - # 9
    frequency:    4.9065050596
  - # 10
    frequency:    9.5586982305
  - # 11
    frequency:    9.7416735330
  - # 12
    frequency:   10.8487469528
  - # 13
    frequency:   11.3821353365
  - # 14
    frequency:   13.5987019876
  - # 15
    frequency:   14.2748643594
  - # 16
    frequency:   14.8689083831
  - # 17
    frequency:   15.3962206705
  - # 18
    frequency:   17.7244286929

- q-position: [    0.1060606,    0.0000000,    0.0000000 ]
  distance:    0.0379680
  band:
  - # 1
    frequency:   -3.4462288757
  - # 2
    frequency:   -2.7202263035
  - # 3
    frequency:   -0.1064127176
  - # 4
    frequency:    1.0229772320
  - # 5
    frequency:    1.0304130432
  - # 6
    frequency:    1.5727926533
  - # 7
    frequency:    1.7594149808
  - # 8
    frequency:    1.8458512549
  - # 9
    frequency:    4.8755835019
  - # 10
    frequency:    9.5613954285
  - # 11
    frequency:    9.7203250952
  - # 12
    frequency:   10.8615262660
  - # 13
    frequency:   11.3990990322
  - # 14
    frequency:   13.5499458235
  - # 15
    frequency:   14.2576597486
  - # 16
    frequency:   14.8627654478
  - # 17
    frequency:   15.3830238529
  - # 18
    frequency:   17.7102773623

- q-position: [    0.1111111,    0.0000000,    0.0000000 ]
  distance:    0.0397760
  band:
  - # 1
    frequency:   -3.5209735188
  - # 2
    frequency:   -2.7503899109
  - # 3
    frequency:    0.1737253636
  - # 4
    frequency:    1.0723729277
  - # 5
    frequency:    1.0724365564
  - # 6
    frequency:    1.6019478680
  - # 7
    frequency:    1.8140109327
  - # 8
    frequency:    1.8829748331
  - # 9
    frequency:    4.8426630969
  - # 10
    frequency:    9.5672903505
  - # 11
    frequency:    9.6971671892
  - # 12
    frequency:   10.8787502497
  - # 13
    frequency:   11.4150775116
  - # 14
    frequency:   13.5007942601
  - # 15
    frequency:   14.2399496191
  - # 16
    frequency:   14.8550855474
  - # 17
    frequency:   15.3684800072
  - # 18
    frequency:   17.6962732635

- q-position: [    0.1161616,    0.0000000,    0.0000000 ]
  distance:    0.0415840
  band:
  - # 1
    frequency:   -3.5950231501
  - # 2
    frequency:   -2.7807298388
  - # 3
    frequency:    0.2812585143
  - # 4
    frequency:    1.1111602679
  - # 5
    frequency:    1.1230033715
  - # 6
    frequency:    1.6313359452
  - # 7
    frequency:    1.8690537142
  - # 8
    frequency:    1.9216729093
  - # 9
    frequency:    4.8077271328
  - # 10
    frequency:    9.5765252297
  - # 11
    frequency:    9.6728767174
  - # 12
    frequency:   10.9001487723
  - # 13
    frequency:   11.4300568545
  - # 14
    frequency:   13.4512233286
  - # 15
    frequency:   14.2217821765
  - # 16
    frequency:   14.8460247876
  - # 17
    frequency:   15.3525086433
  - # 18
    frequency:   17.6824861338

- q-position: [    0.1212121,    0.0000000,    0.0000000 ]
  distance:    0.0433920
  band:
  - # 1
    frequency:   -3.6681358253
  - # 2
    frequency:   -2.8111069978
  - # 3
    frequency:    0.3679219639
  - # 4
    frequency:    1.1465437006
  - # 5
    frequency:    1.1748541139
  - # 6
    frequency:    1.6606244929
  - # 7
    frequency:    1.9242592209
  - # 8
    frequency:    1.9621802140
  - # 9
    frequency:    4.7707851539
  - # 10
    frequency:    9.5892177506
  - # 11
    frequency:    9.6481917086
  - # 12
    frequency:   10.9253841494
  - # 13
    frequency:   11.4440401253
  - # 14
    frequency:   13.4012162181
  - # 15
    frequency:   14.2032085546
  - # 16
    frequency:   14.8357302993
  - # 17
    frequency:   15.3350467398
  - # 18
    frequency:   17.6689797041

- q-position: [    0.1262626,    0.0000000,    0.0000000 ]
  distance:    0.0452000
  band:
  - # 1
    frequency:   -3.7400860733
  - # 2
    frequency:   -2.8413859545
  - # 3
    frequency:    0.4457468801
  - # 4
    frequency:    1.1786241858
  - # 5
    frequency:    1.2278738844
  - # 6
    frequency:    1.6894724669
  - # 7
    frequency:    1.9793775814
  - # 8
    frequency:    2.0047021089
  - # 9
    frequency:    4.7318802784
  - # 10
    frequency:    9.6054602002
  - # 11
    frequency:    9.6238747914
  - # 12
    frequency:   10.9540805412
  - # 13
    frequency:   11.4570463586
  - # 14
    frequency:   13.3507649723
  - # 15
    frequency:   14.1842829818
  - # 16
    frequency:   14.8243381505
  - # 17
    frequency:   15.3160503117
  - # 18
    frequency:   17.6558112974

- q-position: [    0.1313131,    0.0000000,    0.0000000 ]
  distance:    0.0470080
  band:
  - # 1
    frequency:   -3.8106637068
  - # 2
    frequency:   -2.8714355510
  - # 3
    frequency:    0.5182506416
  - # 4
    frequency:    1.2075134458
  - # 5
    frequency:    1.2819822923
  - # 6
    frequency:    1.7175764127
  - # 7
    frequency:    2.0341918308
  - # 8
    frequency:    2.0493844672
  - # 9
    frequency:    4.6910967605
  - # 10
    frequency:    9.6006830615
  - # 11
    frequency:    9.6253186004
  - # 12
    frequency:   10.9858466386
  - # 13
    frequency:   11.4691096471
  - # 14
    frequency:   13.2998719206
  - # 15
    frequency:   14.1650629368
  - # 16
    frequency:   14.8119720409
  - # 17
    frequency:   15.2954952013
  - # 18
    frequency:   17.6430315756

- q-position: [    0.1363636,    0.0000000,    0.0000000 ]
  distance:    0.0488160
  band:
  - # 1
    frequency:   -3.8796727392
  - # 2
    frequency:   -2.9011293750
  - # 3
    frequency:    0.5867477649
  - # 4
    frequency:    1.2333984422
  - # 5
    frequency:    1.3370768805
  - # 6
    frequency:    1.7447113085
  - # 7
    frequency:    2.0885161918
  - # 8
    frequency:    2.0962930488
  - # 9
    frequency:    4.6485673469
  - # 10
    frequency:    9.5793449537
  - # 11
    frequency:    9.6488318632
  - # 12
    frequency:   11.0202912724
  - # 13
    frequency:   11.4802783417
  - # 14
    frequency:   13.2485508425
  - # 15
    frequency:   14.1456092820
  - # 16
    frequency:   14.7987426160
  - # 17
    frequency:   15.2733772600
  - # 18
    frequency:   17.6306844303

- q-position: [    0.1414141,    0.0000000,    0.0000000 ]
  distance:    0.0506240
  band:
  - # 1
    frequency:   -3.9469304068
  - # 2
    frequency:   -2.9303461041
  - # 3
    frequency:    0.6516282519
  - # 4
    frequency:    1.2565546789
  - # 5
    frequency:    1.3930392345
  - # 6
    frequency:    1.7707557746
  - # 7
    frequency:    2.1421942378
  - # 8
    frequency:    2.1454080765
  - # 9
    frequency:    4.6044798538
  - # 10
    frequency:    9.5605434311
  - # 11
    frequency:    9.6760110013
  - # 12
    frequency:   11.0570329131
  - # 13
    frequency:   11.4906143777
  - # 14
    frequency:   13.1968278794
  - # 15
    frequency:   14.1259863657
  - # 16
    frequency:   14.7847472211
  - # 17
    frequency:   15.2497121070
  - # 18
    frequency:   17.6188070054

- q-position: [    0.1464646,    0.0000000,    0.0000000 ]
  distance:    0.0524320
  band:
  - # 1
    frequency:   -4.0122662935
  - # 2
    frequency:   -2.9589697447
  - # 3
    frequency:    0.7127396282
  - # 4
    frequency:    1.2773800232
  - # 5
    frequency:    1.4497400398
  - # 6
    frequency:    1.7956977700
  - # 7
    frequency:    2.1950970809
  - # 8
    frequency:    2.1966341703
  - # 9
    frequency:    4.5590822848
  - # 10
    frequency:    9.5449043187
  - # 11
    frequency:    9.7068384245
  - # 12
    frequency:   11.0957045376
  - # 13
    frequency:   11.5001927430
  - # 14
    frequency:   13.1447422227
  - # 15
    frequency:   14.1062620815
  - # 16
    frequency:   14.7700699183
  - # 17
    frequency:   15.2245346490
  - # 18
    frequency:   17.6074298333

- q-position: [    0.1515152,    0.0000000,    0.0000000 ]
  distance:    0.0542400
  band:
  - # 1
    frequency:   -4.0755215471
  - # 2
    frequency:   -2.9868897857
  - # 3
    frequency:    0.7694988235
  - # 4
    frequency:    1.2964541551
  - # 5
    frequency:    1.5070431090
  - # 6
    frequency:    1.8196235862
  - # 7
    frequency:    2.2471216454
  - # 8
    frequency:    2.2498206240
  - # 9
    frequency:    4.5126857421
  - # 10
    frequency:    9.5329886298
  - # 11
    frequency:    9.7412673407
  - # 12
    frequency:   11.1359553030
  - # 13
    frequency:   11.5091011062
  - # 14
    frequency:   13.0923466201
  - # 15
    frequency:   14.0865078757
  - # 16
    frequency:   14.7547815989
  - # 17
    frequency:   15.1978985364
  - # 18
    frequency:   17.5965770659

- q-position: [    0.1565657,    0.0000000,    0.0000000 ]
  distance:    0.0560480
  band:
  - # 1
    frequency:   -4.1365481828
  - # 2
    frequency:   -3.0140012841
  - # 3
    frequency:    0.8208994475
  - # 4
    frequency:    1.3146190348
  - # 5
    frequency:    1.5648084632
  - # 6
    frequency:    1.8426964759
  - # 7
    frequency:    2.2981890363
  - # 8
    frequency:    2.3047850001
  - # 9
    frequency:    4.4656643732
  - # 10
    frequency:    9.5252879681
  - # 11
    frequency:    9.7792212701
  - # 12
    frequency:   11.1774501950
  - # 13
    frequency:   11.5174396285
  - # 14
    frequency:   13.0397077556
  - # 15
    frequency:   14.0667986909
  - # 16
    frequency:   14.7389400303
  - # 17
    frequency:   15.1698757201
  - # 18
    frequency:   17.5862667762

- q-position: [    0.1616162,    0.0000000,    0.0000000 ]
  distance:    0.0578560
  band:
  - # 1
    frequency:   -4.1952084628
  - # 2
    frequency:   -3.0402048980
  - # 3
    frequency:    0.8654970731
  - # 4
    frequency:    1.3330508603
  - # 5
    frequency:    1.6228945918
  - # 6
    frequency:    1.8651311811
  - # 7
    frequency:    2.3482429897
  - # 8
    frequency:    2.3613342906
  - # 9
    frequency:    4.4184516713
  - # 10
    frequency:    9.5222223469
  - # 11
    frequency:    9.8205936693
  - # 12
    frequency:   11.2198684807
  - # 13
    frequency:   11.5253209815
  - # 14
    frequency:   12.9869065760
  - # 15
    frequency:   14.0472128389
  - # 16
    frequency:   14.7225896890
  - # 17
    frequency:   15.1405562657
  - # 18
    frequency:   17.5765113071

- q-position: [    0.1666667,    0.0000000,    0.0000000 ]
  distance:    0.0596641
  band:
  - # 1
    frequency:   -4.2513743445
  - # 2
    frequency:   -3.0654068803
  - # 3
    frequency:    0.9014679917
  - # 4
    frequency:    1.3532482097
  - # 5
    frequency:    1.6811600228
  - # 6
    frequency:    1.8871687199
  - # 7
    frequency:    2.3972483817
  - # 8
    frequency:    2.4192806505
  - # 9
    frequency:    4.3715326330
  - # 10
    frequency:    9.5241399674
  - # 11
    frequency:    9.8652476471
  - # 12
    frequency:   11.2629014927
  - # 13
    frequency:   11.5328705995
  - # 14
    frequency:   12.9340386552
  - # 15
    frequency:   14.0278317927
  - # 16
    frequency:   14.7057612344
  - # 17
    frequency:   15.1100485681
  - # 18
    frequency:   17.5673176482

- q-position: [    0.1717172,    0.0000000,    0.0000000 ]
  distance:    0.0614721
  band:
  - # 1
    frequency:   -4.3049269899
  - # 2
    frequency:   -3.0895190428
  - # 3
    frequency:    0.9268602827
  - # 4
    frequency:    1.3768255163
  - # 5
    frequency:    1.7394643331
  - # 6
    frequency:    1.9090538996
  - # 7
    frequency:    2.4451897711
  - # 8
    frequency:    2.4784511685
  - # 9
    frequency:    4.3254315898
  - # 10
    frequency:    9.5313186143
  - # 11
    frequency:    9.9130157455
  - # 12
    frequency:   11.3062500247
  - # 13
    frequency:   11.5402271908
  - # 14
    frequency:   12.8812147147
  - # 15
    frequency:   14.0087398923
  - # 16
    frequency:   14.6884704864
  - # 17
    frequency:   15.0784801030
  - # 18
    frequency:   17.5586878203

- q-position: [    0.1767677,    0.0000000,    0.0000000 ]
  distance:    0.0632801
  band:
  - # 1
    frequency:   -4.3557563285
  - # 2
    frequency:   -3.1124586999
  - # 3
    frequency:    0.9400711218
  - # 4
    frequency:    1.4050808724
  - # 5
    frequency:    1.7976687255
  - # 6
    frequency:    1.9310168803
  - # 7
    frequency:    2.4920699535
  - # 8
    frequency:    2.5386925621
  - # 9
    frequency:    4.2806959727
  - # 10
    frequency:    9.5439683787
  - # 11
    frequency:    9.9636997483
  - # 12
    frequency:   11.3496214322
  - # 13
    frequency:   11.5475435331
  - # 14