nqpoint: 300    
npath: 3      
segment_nqpoint:
- 100
- 100
- 100
labels:
- [ 'G', 'M' ]
- [ 'M', 'K' ]
- [ 'K', 'G' ]
reciprocal_lattice:
- [   0.30216723,   0.17445633,   0.00000000 ] # a*
- [   0.00000000,   0.34891266,   0.00000000 ] # b*
- [   0.00000000,   0.00000000,   0.03935692 ] # c*
natom: 7      
lattice:
- [     3.309425755375341,     0.000000000000000,     0.000000000000000 ] # a
- [    -1.654712877687671,     2.866046776094287,     0.000000000000000 ] # b
- [     0.000000000000000,     0.000000000000000,    25.408490720237975 ] # c
points:
- symbol: C # 1
  coordinates: [  0.000000000000000,  0.000000000000000,  0.448460042763115 ]
  mass: 12.010700
- symbol: C # 2
  coordinates: [  0.333332985432215,  0.666666983183674,  0.598383162186792 ]
  mass: 12.010700
- symbol: N # 3
  coordinates: [  0.333332985432215,  0.666666983183674,  0.549378875694893 ]
  mass: 14.006700
- symbol: O # 4
  coordinates: [  0.333332985432215,  0.666666983183674,  0.645787697541930 ]
  mass: 15.999400
- symbol: O # 5
  coordinates: [  0.666666984744047,  0.333332985985145,  0.354212302458070 ]
  mass: 15.999400
- symbol: Sc # 6
  coordinates: [  0.333332985432215,  0.666666983183674,  0.381737320951521 ]
  mass: 44.955912
- symbol: Sc # 7
  coordinates: [  0.666666984744047,  0.333332985985145,  0.495737686638269 ]
  mass: 44.955912

phonon:
- q-position: [    0.0000000,    0.0000000,    0.0000000 ]
  distance:    0.0000000
  band:
  - # 1
    frequency:   -1.0593689017
  - # 2
    frequency:   -1.0593689017
  - # 3
    frequency:   -0.0000008908
  - # 4
    frequency:   -0.0000005231
  - # 5
    frequency:    0.0000008915
  - # 6
    frequency:    2.5604993363
  - # 7
    frequency:    2.5604993363
  - # 8
    frequency:    4.4553732302
  - # 9
    frequency:    6.4507177055
  - # 10
    frequency:    6.4507177055
  - # 11
    frequency:    9.2951521982
  - # 12
    frequency:    9.2951521982
  - # 13
    frequency:    9.9262324847
  - # 14
    frequency:   13.3103013370
  - # 15
    frequency:   13.3103013370
  - # 16
    frequency:   14.3164341443
  - # 17
    frequency:   17.3373030176
  - # 18
    frequency:   17.7026310844
  - # 19
    frequency:   17.7026310844
  - # 20
    frequency:   38.8473846449
  - # 21
    frequency:   69.2635071771

- q-position: [    0.0050505,    0.0000000,    0.0000000 ]
  distance:    0.0017622
  band:
  - # 1
    frequency:   -1.0596520956
  - # 2
    frequency:   -1.0578856626
  - # 3
    frequency:   -0.0938524732
  - # 4
    frequency:   -0.0764220874
  - # 5
    frequency:    0.1070027662
  - # 6
    frequency:    2.5625028082
  - # 7
    frequency:    2.5648615272
  - # 8
    frequency:    4.4552344545
  - # 9
    frequency:    6.4510242532
  - # 10
    frequency:    6.4512940830
  - # 11
    frequency:    9.2930553330
  - # 12
    frequency:    9.2951138881
  - # 13
    frequency:    9.9285455457
  - # 14
    frequency:   13.3093565648
  - # 15
    frequency:   13.3101841424
  - # 16
    frequency:   14.3170027000
  - # 17
    frequency:   17.3360628825
  - # 18
    frequency:   17.7026762748
  - # 19
    frequency:   17.7033236978
  - # 20
    frequency:   38.8473211397
  - # 21
    frequency:   69.2620112139

- q-position: [    0.0101010,    0.0000000,    0.0000000 ]
  distance:    0.0035244
  band:
  - # 1
    frequency:   -1.0605427534
  - # 2
    frequency:   -1.0534244808
  - # 3
    frequency:   -0.1521771681
  - # 4
    frequency:   -0.1228256573
  - # 5
    frequency:    0.1606296107
  - # 6
    frequency:    2.5684754891
  - # 7
    frequency:    2.5778695749
  - # 8
    frequency:    4.4548225556
  - # 9
    frequency:    6.4519428668
  - # 10
    frequency:    6.4530227462
  - # 11
    frequency:    9.2868449186
  - # 12
    frequency:    9.2950020073
  - # 13
    frequency:    9.9353979178
  - # 14
    frequency:   13.3065268808
  - # 15
    frequency:   13.3098321614
  - # 16
    frequency:   14.3187071435
  - # 17
    frequency:   17.3323669634
  - # 18
    frequency:   17.7028117716
  - # 19
    frequency:   17.7053816208
  - # 20
    frequency:   38.8471308317
  - # 21
    frequency:   69.2575279238

- q-position: [    0.0151515,    0.0000000,    0.0000000 ]
  distance:    0.0052866
  band:
  - # 1
    frequency:   -1.0621679695
  - # 2
    frequency:   -1.0459509512
  - # 3
    frequency:   -0.2265888925
  - # 4
    frequency:   -0.1372459238
  - # 5
    frequency:    0.2085630580
  - # 6
    frequency:    2.5783069899
  - # 7
    frequency:    2.5992943952
  - # 8
    frequency:    4.4541508644
  - # 9
    frequency:    6.4534704615
  - # 10
    frequency:    6.4559022403
  - # 11
    frequency:    9.2767456685
  - # 12
    frequency:    9.2948256615
  - # 13
    frequency:    9.9465451312
  - # 14
    frequency:   13.3018262270
  - # 15
    frequency:   13.3092442154
  - # 16
    frequency:   14.3215437060
  - # 17
    frequency:   17.3262857013
  - # 18
    frequency:   17.7030373521
  - # 19
    frequency:   17.7087481094
  - # 20
    frequency:   38.8468143431
  - # 21
    frequency:   69.2500710812

- q-position: [    0.0202020,    0.0000000,    0.0000000 ]
  distance:    0.0070487
  band:
  - # 1
    frequency:   -1.0647524397
  - # 2
    frequency:   -1.0354076866
  - # 3
    frequency:   -0.2989582660
  - # 4
    frequency:   -0.1414048416
  - # 5
    frequency:    0.2552790494
  - # 6
    frequency:    2.5918222378
  - # 7
    frequency:    2.6287745882
  - # 8
    frequency:    4.4532417526
  - # 9
    frequency:    6.4556019111
  - # 10
    frequency:    6.4599299864
  - # 11
    frequency:    9.2630859448
  - # 12
    frequency:    9.2945998834
  - # 13
    frequency:    9.9616263342
  - # 14
    frequency:   13.2952779820
  - # 15
    frequency:   13.3084183802
  - # 16
    frequency:   14.3255057880
  - # 17
    frequency:   17.3179273962
  - # 18
    frequency:   17.7033526450
  - # 19
    frequency:   17.7133376553
  - # 20
    frequency:   38.8463727078
  - # 21
    frequency:   69.2396635631

- q-position: [    0.0252525,    0.0000000,    0.0000000 ]
  distance:    0.0088109
  band:
  - # 1
    frequency:   -1.0686372892
  - # 2
    frequency:   -1.0217142200
  - # 3
    frequency:   -0.3685437039
  - # 4
    frequency:   -0.1358644405
  - # 5
    frequency:    0.3026510348
  - # 6
    frequency:    2.6087933131
  - # 7
    frequency:    2.6658431413
  - # 8
    frequency:    4.4521268593
  - # 9
    frequency:    6.4583300695
  - # 10
    frequency:    6.4651020553
  - # 11
    frequency:    9.2462471424
  - # 12
    frequency:    9.2943454207
  - # 13
    frequency:    9.9802155553
  - # 14
    frequency:   13.2869151546
  - # 15
    frequency:   13.3073520462
  - # 16
    frequency:   14.3305835057
  - # 17
    frequency:   17.3074274029
  - # 18
    frequency:   17.7037571311
  - # 19
    frequency:   17.7190467362
  - # 20
    frequency:   38.8458073673
  - # 21
    frequency:   69.2263372299

- q-position: [    0.0303030,    0.0000000,    0.0000000 ]
  distance:    0.0105731
  band:
  - # 1
    frequency:   -1.0743036401
  - # 2
    frequency:   -1.0047667587
  - # 3
    frequency:   -0.4345349322
  - # 4
    frequency:   -0.1186996870
  - # 5
    frequency:    0.3516910667
  - # 6
    frequency:    2.6289534121
  - # 7
    frequency:    2.7099582509
  - # 8
    frequency:    4.4508474012
  - # 9
    frequency:    6.4616458028
  - # 10
    frequency:    6.4714128606
  - # 11
    frequency:    9.2266182322
  - # 12
    frequency:    9.2940884441
  - # 13
    frequency:   10.0018680471
  - # 14
    frequency:   13.2767806185
  - # 15
    frequency:   13.3060419998
  - # 16
    frequency:   14.3367631015
  - # 17
    frequency:   17.2949372792
  - # 18
    frequency:   17.7042501432
  - # 19
    frequency:   17.7257645889
  - # 20
    frequency:   38.8451201649
  - # 21
    frequency:   69.2101327587

- q-position: [    0.0353535,    0.0000000,    0.0000000 ]
  distance:    0.0123353
  band:
  - # 1
    frequency:   -1.0823929973
  - # 2
    frequency:   -0.9844375762
  - # 3
    frequency:   -0.4960277838
  - # 4
    frequency:   -0.0818470428
  - # 5
    frequency:    0.4029486611
  - # 6
    frequency:    2.6520111747
  - # 7
    frequency:    2.7605340235
  - # 8
    frequency:    4.4494545602
  - # 9
    frequency:    6.4655380292
  - # 10
    frequency:    6.4788547814
  - # 11
    frequency:    9.2045637094
  - # 12
    frequency:    9.2938601797
  - # 13
    frequency:   10.0261534461
  - # 14
    frequency:   13.2649273586
  - # 15
    frequency:   13.3044845240
  - # 16
    frequency:   14.3440262566
  - # 17
    frequency:   17.2806158455
  - # 18
    frequency:   17.7048308672
  - # 19
    frequency:   17.7333820448
  - # 20
    frequency:   38.8443133384
  - # 21
    frequency:   69.1910994314

- q-position: [    0.0404040,    0.0000000,    0.0000000 ]
  distance:    0.0140975
  band:
  - # 1
    frequency:   -1.0937057800
  - # 2
    frequency:   -0.9605736086
  - # 3
    frequency:   -0.5520185780
  - # 4
    frequency:    0.0630492771
  - # 5
    frequency:    0.4566572849
  - # 6
    frequency:    2.6776639381
  - # 7
    frequency:    2.8169677903
  - # 8
    frequency:    4.4480099453
  - # 9
    frequency:    6.4699937707
  - # 10
    frequency:    6.4874177238
  - # 11
    frequency:    9.1804061278
  - # 12
    frequency:    9.2936964739
  - # 13
    frequency:   10.0526745459
  - # 14
    frequency:   13.2514186980
  - # 15
    frequency:   13.3026755163
  - # 16
    frequency:   14.3523493486
  - # 17
    frequency:   17.2646230266
  - # 18
    frequency:   17.7054983426
  - # 19
    frequency:   17.7417975563
  - # 20
    frequency:   38.8433895101
  - # 21
    frequency:   69.1692948787

- q-position: [    0.0454545,    0.0000000,    0.0000000 ]
  distance:    0.0158597
  band:
  - # 1
    frequency:   -1.1091450732
  - # 2
    frequency:   -0.9329934725
  - # 3
    frequency:   -0.6014515597
  - # 4
    frequency:    0.1352497826
  - # 5
    frequency:    0.5128229100
  - # 6
    frequency:    2.7056089829
  - # 7
    frequency:    2.8786621174
  - # 8
    frequency:    4.4465861249
  - # 9
    frequency:    6.4749982134
  - # 10
    frequency:    6.4970886346
  - # 11
    frequency:    9.1544202483
  - # 12
    frequency:    9.2936372959
  - # 13
    frequency:   10.0810746333
  - # 14
    frequency:   13.2363284759
  - # 15
    frequency:   13.3006106203
  - # 16
    frequency:   14.3617026959
  - # 17
    frequency:   17.2471164212
  - # 18
    frequency:   17.7062514637
  - # 19
    frequency:   17.7509204623
  - # 20
    frequency:   38.8423516771
  - # 21
    frequency:   69.1447847808

- q-position: [    0.0505051,    0.0000000,    0.0000000 ]
  distance:    0.0176219
  band:
  - # 1
    frequency:   -1.1295700454
  - # 2
    frequency:   -0.9014815441
  - # 3
    frequency:   -0.6433557218
  - # 4
    frequency:    0.1916304531
  - # 5
    frequency:    0.5712963449
  - # 6
    frequency:    2.7355523512
  - # 7
    frequency:    2.9450408573
  - # 8
    frequency:    4.4452672349
  - # 9
    frequency:    6.4805347792
  - # 10
    frequency:    6.5078509783
  - # 11
    frequency:    9.1268347086
  - # 12
    frequency:    9.2937261888
  - # 13
    frequency:   10.1110374506
  - # 14
    frequency:   13.2197411537
  - # 15
    frequency:   13.2982853672
  - # 16
    frequency:   14.3720498278
  - # 17
    frequency:   17.2282500301
  - # 18
    frequency:   17.7070889811
  - # 19
    frequency:   17.7606720593
  - # 20
    frequency:   38.8412031982
  - # 21
    frequency:   69.1176425284

- q-position: [    0.0555556,    0.0000000,    0.0000000 ]
  distance:    0.0193840
  band:
  - # 1
    frequency:   -1.1555639089
  - # 2
    frequency:   -0.8657767650
  - # 3
    frequency:   -0.6770668671
  - # 4
    frequency:    0.2446276503
  - # 5
    frequency:    0.6318338804
  - # 6
    frequency:    2.7672152291
  - # 7
    frequency:    3.0155595174
  - # 8
    frequency:    4.4441496746
  - # 9
    frequency:    6.4865852084
  - # 10
    frequency:    6.5196841882
  - # 11
    frequency:    9.0978377095
  - # 12
    frequency:    9.2940096774
  - # 13
    frequency:   10.1422832636
  - # 14
    frequency:   13.2017518300
  - # 15
    frequency:   13.2956953248
  - # 16
    frequency:   14.3833468153
  - # 17
    frequency:   17.2081744276
  - # 18
    frequency:   17.7080095035
  - # 19
    frequency:   17.7709851874
  - # 20
    frequency:   38.8399477806
  - # 21
    frequency:   69.0879488447

- q-position: [    0.0606061,    0.0000000,    0.0000000 ]
  distance:    0.0211462
  band:
  - # 1
    frequency:   -1.1872114041
  - # 2
    frequency:   -0.8255520538
  - # 3
    frequency:   -0.7024405057
  - # 4
    frequency:    0.2972018896
  - # 5
    frequency:    0.6941440729
  - # 6
    frequency:    2.8003381531
  - # 7
    frequency:    3.0897107422
  - # 8
    frequency:    4.4433429194
  - # 9
    frequency:    6.4931296541
  - # 10
    frequency:    6.5325631040
  - # 11
    frequency:    9.0675843150
  - # 12
    frequency:    9.2945366450
  - # 13
    frequency:   10.1745634119
  - # 14
    frequency:   13.1824661531
  - # 15
    frequency:   13.2928362494
  - # 16
    frequency:   14.3955416922
  - # 17
    frequency:   17.1870377306
  - # 18
    frequency:   17.7090115001
  - # 19
    frequency:   17.7818029695
  - # 20
    frequency:   38.8385894644
  - # 21
    frequency:   69.0557913717

- q-position: [    0.0656566,    0.0000000,    0.0000000 ]
  distance:    0.0229084
  band:
  - # 1
    frequency:   -1.2240328993
  - # 2
    frequency:   -0.7803767859
  - # 3
    frequency:   -0.7199088677
  - # 4
    frequency:    0.3506145562
  - # 5
    frequency:    0.7579203454
  - # 6
    frequency:    2.8346834303
  - # 7
    frequency:    3.1670258822
  - # 8
    frequency:    4.4429705034
  - # 9
    frequency:    6.5001467874
  - # 10
    frequency:    6.5464574014
  - # 11
    frequency:    9.0362039557
  - # 12
    frequency:    9.2953576887
  - # 13
    frequency:   10.2076547238
  - # 14
    frequency:   13.1620001255
  - # 15
    frequency:   13.2897042368
  - # 16
    frequency:   14.4085739904
  - # 17
    frequency:   17.1649868847
  - # 18
    frequency:   17.7100933035
  - # 19
    frequency:   17.7930771767
  - # 20
    frequency:   38.8371326061
  - # 21
    frequency:   69.0212642231

- q-position: [    0.0707071,    0.0000000,    0.0000000 ]
  distance:    0.0246706
  band:
  - # 1
    frequency:   -1.2651288965
  - # 2
    frequency:   -0.7303284238
  - # 3
    frequency:   -0.7296478751
  - # 4
    frequency:    0.4055100369
  - # 5
    frequency:    0.8228616577
  - # 6
    frequency:    2.8700361878
  - # 7
    frequency:    3.2470735613
  - # 8
    frequency:    4.4431712607
  - # 9
    frequency:    6.5076139153
  - # 10
    frequency:    6.5613310227
  - # 11
    frequency:    9.0038074255
  - # 12
    frequency:    9.2965244674
  - # 13
    frequency:   10.2413544892
  - # 14
    frequency:   13.1404797960
  - # 15
    frequency:   13.2862958703
  - # 16
    frequency:   14.4223744112
  - # 17
    frequency:   17.1421689449
  - # 18
    frequency:   17.7112531135
  - # 19
    frequency:   17.8047665319
  - # 20
    frequency:   38.8355818603
  - # 21
    frequency:   68.9844675076

- q-position: [    0.0757576,    0.0000000,    0.0000000 ]
  distance:    0.0264328
  band:
  - # 1
    frequency:   -1.3094295960
  - # 2
    frequency:   -0.7347232930
  - # 3
    frequency:   -0.6724598897
  - # 4
    frequency:    0.4622108417
  - # 5
    frequency:    0.8886845944
  - # 6
    frequency:    2.9062044341
  - # 7
    frequency:    3.3294559462
  - # 8
    frequency:    4.4441009802
  - # 9
    frequency:    6.5155071094
  - # 10
    frequency:    6.5771416116
  - # 11
    frequency:    8.9704930827
  - # 12
    frequency:    9.2980890538
  - # 13
    frequency:   10.2754762546
  - # 14
    frequency:   13.1180408414
  - # 15
    frequency:   13.2826083599
  - # 16
    frequency:   14.4368646513
  - # 17
    frequency:   17.1187321610
  - # 18
    frequency:   17.7124890008
  - # 19
    frequency:   17.8168351291
  - # 20
    frequency:   38.8339421611
  - # 21
    frequency:   68.9455068242

- q-position: [    0.0808081,    0.0000000,    0.0000000 ]
  distance:    0.0281950
  band:
  - # 1
    frequency:   -1.3559040827
  - # 2
    frequency:   -0.7340698949
  - # 3
    frequency:   -0.6073474189
  - # 4
    frequency:    0.5208205073
  - # 5
    frequency:    0.9551300649
  - # 6
    frequency:    2.9430184470
  - # 7
    frequency:    3.4138031384
  - # 8
    frequency:    4.4459347217
  - # 9
    frequency:    6.5238013460
  - # 10
    frequency:    6.5938399537
  - # 11
    frequency:    8.9363522013
  - # 12
    frequency:    9.3001033020
  - # 13
    frequency:   10.3098464850
  - # 14
    frequency:   13.0948280344
  - # 15
    frequency:   13.2786396724
  - # 16
    frequency:   14.4519574007
  - # 17
    frequency:   17.0948267662
  - # 18
    frequency:   17.7137989124
  - # 19
    frequency:   17.8292510573
  - # 20
    frequency:   38.8322187013
  - # 21
    frequency:   68.9044927343

- q-position: [    0.0858586,    0.0000000,    0.0000000 ]
  distance:    0.0299571
  band:
  - # 1
    frequency:   -1.4036673451
  - # 2
    frequency:   -0.7291844859
  - # 3
    frequency:   -0.5317225869
  - # 4
    frequency:    0.5812666796
  - # 5
    frequency:    1.0219670548
  - # 6
    frequency:    2.9803297335
  - # 7
    frequency:    3.4997657618
  - # 8
    frequency:    4.4488702087
  - # 9
    frequency:    6.5324706574
  - # 10
    frequency:    6.6113694242
  - # 11
    frequency:    8.9014735263
  - # 12
    frequency:    9.3026182455
  - # 13
    frequency:   10.3443020293
  - # 14
    frequency:   13.0709945990
  - # 15
    frequency:   13.2743886473
  - # 16
    frequency:   14.4675565303
  - # 17
    frequency:   17.0706054239
  - # 18
    frequency:   17.7151806773
  - # 19
    frequency:   17.8419852584
  - # 20
    frequency:   38.8304169106
  - # 21
    frequency:   68.8615402133

- q-position: [    0.0909091,    0.0000000,    0.0000000 ]
  distance:    0.0317193
  band:
  - # 1
    frequency:   -1.4520036059
  - # 2
    frequency:   -0.7206948923
  - # 3
    frequency:   -0.4404080956
  - # 4
    frequency:    0.6433296733
  - # 5
    frequency:    1.0889950406
  - # 6
    frequency:    3.0180097383
  - # 7
    frequency:    3.5870053930
  - # 8
    frequency:    4.4531329885
  - # 9
    frequency:    6.5414882916
  - # 10
    frequency:    6.6296654391
  - # 11
    frequency:    8.8659471300
  - # 12
    frequency:    9.3056835340
  - # 13
    frequency:   10.3786882878
  - # 14
    frequency:   13.0467014454
  - # 15
    frequency:   13.2698550982
  - # 16
    frequency:   14.4835574874
  - # 17
    frequency:   17.0462233198
  - # 18
    frequency:   17.7166320128
  - # 19
    frequency:   17.8550106132
  - # 20
    frequency:   38.8285424335
  - # 21
    frequency:   68.8167680849

- q-position: [    0.0959596,    0.0000000,    0.0000000 ]
  distance:    0.0334815
  band:
  - # 1
    frequency:   -1.5003465953
  - # 2
    frequency:   -0.7090555560
  - # 3
    frequency:   -0.3202434906
  - # 4
    frequency:    0.7066767225
  - # 5
    frequency:    1.1560459741
  - # 6
    frequency:    3.0559484256
  - # 7
    frequency:    3.6751818821
  - # 8
    frequency:    4.4589845237
  - # 9
    frequency:    6.5508268811
  - # 10
    frequency:    6.6486549101
  - # 11
    frequency:    8.8298676750
  - # 12
    frequency:    9.3093469227
  - # 13
    frequency:   10.4128579793
  - # 14
    frequency:   13.0221162791
  - # 15
    frequency:   13.2650398963
  - # 16
    frequency:   14.4998479163
  - # 17
    frequency:   17.0218379024
  - # 18
    frequency:   17.7181505319
  - # 19
    frequency:   17.8683012367
  - # 20
    frequency:   38.8266011057
  - # 21
    frequency:   68.7702984434

- q-position: [    0.1010101,    0.0000000,    0.0000000 ]
  distance:    0.0352437
  band:
  - # 1
    frequency:   -1.5482463532
  - # 2
    frequency:   -0.6945759963
  - # 3
    frequency:   -0.0912697062
  - # 4
    frequency:    0.7709081759
  - # 5
    frequency:    1.2229862383
  - # 6
    frequency:    3.0940528131
  - # 7
    frequency:    3.7639357124
  - # 8
    frequency:    4.4667351963
  - # 9
    frequency:    6.5604586178
  - # 10
    frequency:    6.6682556994
  - # 11
    frequency:    8.7933371802
  - # 12
    frequency:    9.3136538216
  - # 13
    frequency:   10.4466704184
  - # 14
    frequency:   12.9974125700
  - # 15
    frequency:   13.2599450356
  - # 16
    frequency:   14.5163085219
  - # 17
    frequency:   16.9976082821
  - # 18
    frequency:   17.7197337520
  - # 19
    frequency:   17.8818319536
  - # 20
    frequency:   38.8245989294
  - # 21
    frequency:   68.7222560657

- q-position: [    0.1060606,    0.0000000,    0.0000000 ]
  distance:    0.0370059
  band:
  - # 1
    frequency:   -1.5953369756
  - # 2
    frequency:   -0.6774478737
  - # 3
    frequency:    0.2983866550
  - # 4
    frequency:    0.8356104335
  - # 5
    frequency:    1.2897186378
  - # 6
    frequency:    3.1322455114
  - # 7
    frequency:    3.8528620879
  - # 8
    frequency:    4.4767656062
  - # 9
    frequency:    6.5703554319
  - # 10
    frequency:    6.6883760762
  - # 11
    frequency:    8.7564673705
  - # 12
    frequency:    9.3186469141
  - # 13
    frequency:   10.4799912300
  - # 14
    frequency:   12.9727683677
  - # 15
    frequency:   13.2545736788
  - # 16
    frequency:   14.5328141927
  - # 17
    frequency:   16.9736943012
  - # 18
    frequency:   17.7213791029
  - # 19
    frequency:   17.8955779236
  - # 20
    frequency:   38.8225420487
  - # 21
    frequency:   68.6727678178

- q-position: [    0.1111111,    0.0000000,    0.0000000 ]
  distance:    0.0387681
  band:
  - # 1
    frequency:   -1.6413101895
  - # 2
    frequency:   -0.6577652334
  - # 3
    frequency:    0.4357671814
  - # 4
    frequency:    0.9004042252
  - # 5
    frequency:    1.3561842711
  - # 6
    frequency:    3.1704632964
  - # 7
    frequency:    3.9414711143
  - # 8
    frequency:    4.4895618311
  - # 9
    frequency:    6.5804891738
  - # 10
    frequency:    6.7089141795
  - # 11
    frequency:    8.7193816722
  - # 12
    frequency:    9.3243658511
  - # 13
    frequency:   10.5126924495
  - # 14
    frequency:   12.9483649460
  - # 15
    frequency:   13.2489301829
  - # 16
    frequency:   14.5492353927
  - # 17
    frequency:   16.9502552890
  - # 18
    frequency:   17.7230839377
  - # 19
    frequency:   17.9095143915
  - # 20
    frequency:   38.8204367232
  - # 21
    frequency:   68.6219620604

- q-position: [    0.1161616,    0.0000000,    0.0000000 ]
  distance:    0.0405303
  band:
  - # 1
    frequency:   -1.6858952855
  - # 2
    frequency:   -0.6355366094
  - # 3
    frequency:    0.5427106241
  - # 4
    frequency:    0.9649784445
  - # 5
    frequency:    1.4223639989
  - # 6
    frequency:    3.2086557323
  - # 7
    frequency:    4.0291252813
  - # 8
    frequency:    4.5057734566
  - # 9
    frequency:    6.5908317947
  - # 10
    frequency:    6.7297574985
  - # 11
    frequency:    8.6822168960
  - # 12
    frequency:    9.3308470238
  - # 13
    frequency:   10.5446529688
  - # 14
    frequency:   12.9243852570
  - # 15
    frequency:   13.2430201063
  - # 16
    frequency:   14.5654398301
  - # 17
    frequency:   16.9274485195
  - # 18
    frequency:   17.7248455425
  - # 19
    frequency:   17.9236165339
  - # 20
    frequency:   38.8182893023
  - # 21
    frequency:   68.5699680555

- q-position: [    0.1212121,    0.0000000,    0.0000000 ]
  distance:    0.0422924
  band:
  - # 1
    frequency:   -1.7288444314
  - # 2
    frequency:   -0.6106887398
  - # 3
    frequency:    0.6348943156
  - # 4
    frequency:    1.0291063044
  - # 5
    frequency:    1.4882791283
  - # 6
    frequency:    3.2467838527
  - # 7
    frequency:    4.1149437458
  - # 8
    frequency:    4.5263048876
  - # 9
    frequency:    6.6013555242
  - # 10
    frequency:    6.7507823957
  - # 11
    frequency:    8.6451246291
  - # 12
    frequency:    9.3381234188
  - # 13
    frequency:   10.5757593029
  - # 14
    frequency:   12.9010121827
  - # 15
    frequency:   13.2368501958
  - # 16
    frequency:   14.5812943961
  - # 17
    frequency:   16.9054273931
  - # 18
    frequency:   17.7266611480
  - # 19
    frequency:   17.9378593853
  - # 20
    frequency:   38.8161061982
  - # 21
    frequency:   68.5169153797

- q-position: [    0.1262626,    0.0000000,    0.0000000 ]
  distance:    0.0440546
  band:
  - # 1
    frequency:   -1.7699221103
  - # 2
    frequency:   -0.5830611088
  - # 3
    frequency:    0.7179566885
  - # 4
    frequency:    1.0926465741
  - # 5
    frequency:    1.5539908712
  - # 6
    frequency:    3.2848189033
  - # 7
    frequency:    4.1976745767
  - # 8
    frequency:    4.5524387911
  - # 9
    frequency:    6.6120330428
  - # 10
    frequency:    6.7718537114
  - # 11
    frequency:    8.6082723317
  - # 12
    frequency:    9.3462245554
  - # 13
    frequency:   10.6059066524
  - # 14
    frequency:   12.8784265722
  - # 15
    frequency:   13.2304283564
  - # 16
    frequency:   14.5966673560
  - # 17
    frequency:   16.8843393728
  - # 18
    frequency:   17.7285279412
  - # 19
    frequency:   17.9522178224
  - # 20
    frequency:   38.8138938586
  - # 21
    frequency:   68.4629333466

- q-position: [    0.1313131,    0.0000000,    0.0000000 ]
  distance:    0.0458168
  band:
  - # 1
    frequency:   -1.8088975727
  - # 2
    frequency:   -0.5523888183
  - # 3
    frequency:    0.7945285648
  - # 4
    frequency:    1.1555349482
  - # 5
    frequency:    1.6195981123
  - # 6
    frequency:    3.3227411467
  - # 7
    frequency:    4.2756004064
  - # 8
    frequency:    4.5859262515
  - # 9
    frequency:    6.6228376451
  - # 10
    frequency:    6.7928245120
  - # 11
    frequency:    8.5718441094
  - # 12
    frequency:    9.3551765004
  - # 13
    frequency:   10.6350002404
  - # 14
    frequency:   12.8568050661
  - # 15
    frequency:   13.2237636041
  - # 16
    frequency:   14.6114307596
  - # 17
    frequency:   16.8643237199
  - # 18
    frequency:   17.7304430775
  - # 19
    frequency:   17.9666665949
  - # 20
    frequency:   38.8116587400
  - # 21
    frequency:   68.4081504429

- q-position: [    0.1363636,    0.0000000,    0.0000000 ]
  distance:    0.0475790
  band:
  - # 1
    frequency:   -1.8455394310
  - # 2
    frequency:   -0.5182678076
  - # 3
    frequency:    0.8659524812
  - # 4
    frequency:    1.2177697565
  - # 5
    frequency:    1.6852330477
  - # 6
    frequency:    3.3605387289
  - # 7
    frequency:    4.3467178700
  - # 8
    frequency:    4.6288032873
  - # 9
    frequency:    6.6337433920
  - # 10
    frequency:    6.8135360756
  - # 11
    frequency:    8.5360410959
  - # 12
    frequency:    9.3650019595
  - # 13
    frequency:   10.6629568918
  - # 14
    frequency:   12.8363177226
  - # 15
    frequency:   13.2168660049
  - # 16
    frequency:   14.6254630159
  - # 17
    frequency:   16.8455090864
  - # 18
    frequency:   17.7324036939
  - # 19
    frequency:   17.9811803884
  - # 20
    frequency:   38.8094072801
  - # 21
    frequency:   68.3526937803

- q-position: [    0.1414141,    0.0000000,    0.0000000 ]
  distance:    0.0493412
  band:
  - # 1
    frequency:   -1.8796117414
  - # 2
    frequency:   -0.4800889807
  - # 3
    frequency:    0.9329143036
  - # 4
    frequency:    1.2793943145
  - # 5
    frequency:    1.7510543817
  - # 6
    frequency:    3.3982066086
  - # 7
    frequency:    4.4095492139
  - # 8
    frequency:    4.6825753941
  - # 9
    frequency:    6.6447252507
  - # 10
    frequency:    6.8338182429
  - # 11
    frequency:    8.5010813469
  - # 12
    frequency:    9.3757204359
  - # 13
    frequency:   10.6897068112
  - # 14
    frequency:   12.8171254788
  - # 15
    frequency:   13.2097465997
  - # 16
    frequency:   14.6386515571
  - # 17
    frequency:   16.8280110421
  - # 18
    frequency:   17.7344069211
  - # 19
    frequency:   17.9957339116
  - # 20
    frequency:   38.8071458707
  - # 21
    frequency:   68.2966885683

- q-position: [    0.1464646,    0.0000000,    0.0000000 ]
  distance:    0.0511034
  band:
  - # 1
    frequency:   -1.9108710901
  - # 2
    frequency:   -0.4369096387
  - # 3
    frequency:    0.9957397352
  - # 4
    frequency:    1.3404769754
  - # 5
    frequency:    1.8172379963
  - # 6
    frequency:    3.4357455464
  - # 7
    frequency:    4.4642826172
  - # 8
    frequency:    4.7470736194
  - # 9
    frequency:    6.6557592192
  - # 10
    frequency:    6.8534903074
  - # 11
    frequency:    8.4671990990
  - # 12
    frequency:    9.3873484483
  - # 13
    frequency:   10.7151954970
  - # 14
    frequency:   12.7993775031
  - # 15
    frequency:   13.2024173198
  - # 16
    frequency:   14.6508954974
  - # 17
    frequency:   16.8119296308
  - # 18
    frequency:   17.7364498971
  - # 19
    frequency:   18.0103019992
  - # 20
    frequency:   38.8048808309
  - # 21
    frequency:   68.2402576096

- q-position: [    0.1515152,    0.0000000,    0.0000000 ]
  distance:    0.0528656
  band:
  - # 1
    frequency:   -1.9390643193
  - # 2
    frequency:   -0.3871790809
  - # 3
    frequency:    1.0545617228
  - # 4
    frequency:    1.4010900550
  - # 5
    frequency:    1.8839653559
  - # 6
    frequency:    3.4731611565
  - # 7
    frequency:    4.5128946768
  - # 8
    frequency:    4.8203287662
  - # 9
    frequency:    6.6668224341
  - # 10
    frequency:    6.8723626639
  - # 11
    frequency:    8.4346432071
  - # 12
    frequency:    9.3998998001
  - # 13
    frequency:   10.7393857069
  - # 14
    frequency:   12.7832085193
  - # 15
    frequency:   13.1948908943
  - # 16
    frequency:   14.6621081728
  - # 17
    frequency:   16.7973470669
  - # 18
    frequency:   17.7385297803
  - # 19
    frequency:   18.0248597237
  - # 20
    frequency:   38.8026183803
  - # 21
    frequency:   68.1835208220