nqpoint: 300    
npath: 3      
segment_nqpoint:
- 100
- 100
- 100
labels:
- [ 'G', 'M' ]
- [ 'M', 'K' ]
- [ 'K', 'G' ]
reciprocal_lattice:
- [   0.28443751,   0.16422007,   0.00000000 ] # a*
- [   0.00000000,   0.32844015,   0.00000000 ] # b*
- [   0.00000000,   0.00000000,   0.03743577 ] # c*
natom: 7      
lattice:
- [     3.515710705640279,     0.000000000000000,     0.000000000000000 ] # a
- [    -1.757855352820139,     3.044694783437093,     0.000000000000000 ] # b
- [     0.000000000000000,     0.000000000000000,    26.712423103200784 ] # c
points:
- symbol: C # 1
  coordinates: [  0.000000000000000,  0.000000000000000,  0.446338756579392 ]
  mass: 12.010700
- symbol: C # 2
  coordinates: [  0.333332985432215,  0.666666983183674,  0.618505714629435 ]
  mass: 12.010700
- symbol: Cl # 3
  coordinates: [  0.666666984744047,  0.333332985985145,  0.336921887064659 ]
  mass: 35.453000
- symbol: N # 4
  coordinates: [  0.333332985432215,  0.666666983183674,  0.663078112935341 ]
  mass: 14.006700
- symbol: S # 5
  coordinates: [  0.333332985432215,  0.666666983183674,  0.555524235943635 ]
  mass: 32.065000
- symbol: Zr # 6
  coordinates: [  0.333332985432215,  0.666666983183674,  0.403426051101922 ]
  mass: 91.224000
- symbol: Zr # 7
  coordinates: [  0.666666984744047,  0.333332985985145,  0.492464379339065 ]
  mass: 91.224000

phonon:
- q-position: [    0.0000000,    0.0000000,    0.0000000 ]
  distance:    0.0000000
  band:
  - # 1
    frequency:   -0.0000107640
  - # 2
    frequency:    0.0000002350
  - # 3
    frequency:    0.0000107219
  - # 4
    frequency:    0.7606005178
  - # 5
    frequency:    0.7606005179
  - # 6
    frequency:    3.7896044029
  - # 7
    frequency:    3.7896044029
  - # 8
    frequency:    5.0873458483
  - # 9
    frequency:    5.3373580394
  - # 10
    frequency:    5.3373580394
  - # 11
    frequency:    6.7355224793
  - # 12
    frequency:    6.7355224793
  - # 13
    frequency:    7.7015418850
  - # 14
    frequency:    9.5311636802
  - # 15
    frequency:   10.8208719567
  - # 16
    frequency:   10.8208719567
  - # 17
    frequency:   14.5043450132
  - # 18
    frequency:   16.2141624304
  - # 19
    frequency:   16.2141624305
  - # 20
    frequency:   20.0945054218
  - # 21
    frequency:   64.8538414227

- q-position: [    0.0050505,    0.0000000,    0.0000000 ]
  distance:    0.0016588
  band:
  - # 1
    frequency:    0.0018879278
  - # 2
    frequency:    0.0599940524
  - # 3
    frequency:    0.0945097624
  - # 4
    frequency:    0.7614185386
  - # 5
    frequency:    0.7634234270
  - # 6
    frequency:    3.7899441248
  - # 7
    frequency:    3.7907096426
  - # 8
    frequency:    5.0861327407
  - # 9
    frequency:    5.3373834346
  - # 10
    frequency:    5.3389133757
  - # 11
    frequency:    6.7356592186
  - # 12
    frequency:    6.7359522461
  - # 13
    frequency:    7.7013951645
  - # 14
    frequency:    9.5304274308
  - # 15
    frequency:   10.8209245891
  - # 16
    frequency:   10.8210400656
  - # 17
    frequency:   14.5041731825
  - # 18
    frequency:   16.2141759746
  - # 19
    frequency:   16.2147218929
  - # 20
    frequency:   20.0944414911
  - # 21
    frequency:   64.8537801219

- q-position: [    0.0101010,    0.0000000,    0.0000000 ]
  distance:    0.0033176
  band:
  - # 1
    frequency:    0.0075518637
  - # 2
    frequency:    0.1198760845
  - # 3
    frequency:    0.1887454230
  - # 4
    frequency:    0.7638791048
  - # 5
    frequency:    0.7718836519
  - # 6
    frequency:    3.7909622195
  - # 7
    frequency:    3.7940156875
  - # 8
    frequency:    5.0825916942
  - # 9
    frequency:    5.3374594857
  - # 10
    frequency:    5.3434833232
  - # 11
    frequency:    6.7360687576
  - # 12
    frequency:    6.7372393544
  - # 13
    frequency:    7.7009556191
  - # 14
    frequency:    9.5282198964
  - # 15
    frequency:   10.8210823081
  - # 16
    frequency:   10.8215441312
  - # 17
    frequency:   14.5036584646
  - # 18
    frequency:   16.2142173140
  - # 19
    frequency:   16.2163967384
  - # 20
    frequency:   20.0942498317
  - # 21
    frequency:   64.8535963197

- q-position: [    0.0151515,    0.0000000,    0.0000000 ]
  distance:    0.0049764
  band:
  - # 1
    frequency:    0.0169225892
  - # 2
    frequency:    0.1795272857
  - # 3
    frequency:    0.2823890447
  - # 4
    frequency:    0.7680030692
  - # 5
    frequency:    0.7859727098
  - # 6
    frequency:    3.7926554799
  - # 7
    frequency:    3.7994937157
  - # 8
    frequency:    5.0769891119
  - # 9
    frequency:    5.3375857895
  - # 10
    frequency:    5.3508081100
  - # 11
    frequency:    6.7367490653
  - # 12
    frequency:    6.7393772510
  - # 13
    frequency:    7.7002250966
  - # 14
    frequency:    9.5245447163
  - # 15
    frequency:   10.8213445798
  - # 16
    frequency:   10.8223833708
  - # 17
    frequency:   14.5028031746
  - # 18
    frequency:   16.2142885632
  - # 19
    frequency:   16.2191763672
  - # 20
    frequency:   20.0939308409
  - # 21
    frequency:   64.8532903159

- q-position: [    0.0202020,    0.0000000,    0.0000000 ]
  distance:    0.0066352
  band:
  - # 1
    frequency:    0.0299052622
  - # 2
    frequency:    0.2388142685
  - # 3
    frequency:    0.3750225301
  - # 4
    frequency:    0.7738298492
  - # 5
    frequency:    0.8057349033
  - # 6
    frequency:    3.7950185826
  - # 7
    frequency:    3.8070963484
  - # 8
    frequency:    5.0696919688
  - # 9
    frequency:    5.3377616746
  - # 10
    frequency:    5.3605317689
  - # 11
    frequency:    6.7376967771
  - # 12
    frequency:    6.7423550909
  - # 13
    frequency:    7.6992066759
  - # 14
    frequency:    9.5194079491
  - # 15
    frequency:   10.8217105177
  - # 16
    frequency:   10.8235564795
  - # 17
    frequency:   14.5016111443
  - # 18
    frequency:   16.2143932259
  - # 19
    frequency:   16.2230432017
  - # 20
    frequency:   20.0934851783
  - # 21
    frequency:   64.8528626093

- q-position: [    0.0252525,    0.0000000,    0.0000000 ]
  distance:    0.0082939
  band:
  - # 1
    frequency:    0.0463818499
  - # 2
    frequency:    0.2975791479
  - # 3
    frequency:    0.4660438346
  - # 4
    frequency:    0.7814251168
  - # 5
    frequency:    0.8313614520
  - # 6
    frequency:    3.7980441192
  - # 7
    frequency:    3.8167585995
  - # 8
    frequency:    5.0610968146
  - # 9
    frequency:    5.3379862030
  - # 10
    frequency:    5.3722730696
  - # 11
    frequency:    6.7389072242
  - # 12
    frequency:    6.7461578499
  - # 13
    frequency:    7.6979046652
  - # 14
    frequency:    9.5128180619
  - # 15
    frequency:   10.8221788874
  - # 16
    frequency:   10.8250616304
  - # 17
    frequency:   14.5000876832
  - # 18
    frequency:   16.2145361635
  - # 19
    frequency:   16.2279728167
  - # 20
    frequency:   20.0929137636
  - # 21
    frequency:   64.8523138967

- q-position: [    0.0303030,    0.0000000,    0.0000000 ]
  distance:    0.0099527
  band:
  - # 1
    frequency:    0.0662205062
  - # 2
    frequency:    0.3556260580
  - # 3
    frequency:    0.5545416127
  - # 4
    frequency:    0.7908930044
  - # 5
    frequency:    0.8633322606
  - # 6
    frequency:    3.8017226411
  - # 7
    frequency:    3.8283991300
  - # 8
    frequency:    5.0515800500
  - # 9
    frequency:    5.3382581719
  - # 10
    frequency:    5.3856751536
  - # 11
    frequency:    6.7403744757
  - # 12
    frequency:    6.7507664798
  - # 13
    frequency:    7.6963246000
  - # 14
    frequency:    9.5047859152
  - # 15
    frequency:   10.8227481129
  - # 16
    frequency:   10.8268964746
  - # 17
    frequency:   14.4982395254
  - # 18
    frequency:   16.2147235518
  - # 19
    frequency:   16.2339341195
  - # 20
    frequency:   20.0922177714
  - # 21
    frequency:   64.8516450708

- q-position: [    0.0353535,    0.0000000,    0.0000000 ]
  distance:    0.0116115
  band:
  - # 1
    frequency:    0.0892828914
  - # 2
    frequency:    0.4127024135
  - # 3
    frequency:    0.6391455332
  - # 4
    frequency:    0.8023942427
  - # 5
    frequency:    0.9025824264
  - # 6
    frequency:    3.8060427151
  - # 7
    frequency:    3.8419217471
  - # 8
    frequency:    5.0414739519
  - # 9
    frequency:    5.3385761162
  - # 10
    frequency:    5.4004293994
  - # 11
    frequency:    6.7420913898
  - # 12
    frequency:    6.7561581005
  - # 13
    frequency:    7.6944732391
  - # 14
    frequency:    9.4953247451
  - # 15
    frequency:   10.8234162852
  - # 16
    frequency:   10.8290581417
  - # 17
    frequency:   14.4960747636
  - # 18
    frequency:   16.2149628268
  - # 19
    frequency:   16.2408895771
  - # 20
    frequency:   20.0913986261
  - # 21
    frequency:   64.8508572181

- q-position: [    0.0404040,    0.0000000,    0.0000000 ]
  distance:    0.0132703
  band:
  - # 1
    frequency:    0.1154289048
  - # 2
    frequency:    0.4684734794
  - # 3
    frequency:    0.7180077817
  - # 4
    frequency:    0.8161714657
  - # 5
    frequency:    0.9505347244
  - # 6
    frequency:    3.8109909916
  - # 7
    frequency:    3.8572170747
  - # 8
    frequency:    5.0310612670
  - # 9
    frequency:    5.3389383130
  - # 10
    frequency:    5.4162806992
  - # 11
    frequency:    6.7440496774
  - # 12
    frequency:    6.7623062270
  - # 13
    frequency:    7.6923585591
  - # 14
    frequency:    9.4844501400
  - # 15
    frequency:   10.8241811720
  - # 16
    frequency:   10.8315432412
  - # 17
    frequency:   14.4936027720
  - # 18
    frequency:   16.2152626178
  - # 19
    frequency:   16.2487954861
  - # 20
    frequency:   20.0904579948
  - # 21
    frequency:   64.8499516159

- q-position: [    0.0454545,    0.0000000,    0.0000000 ]
  distance:    0.0149291
  band:
  - # 1
    frequency:    0.1445191760
  - # 2
    frequency:    0.5224910999
  - # 3
    frequency:    0.7893256697
  - # 4
    frequency:    0.8325806741
  - # 5
    frequency:    1.0085869274
  - # 6
    frequency:    3.8165522830
  - # 7
    frequency:    3.8741643259
  - # 8
    frequency:    5.0205795289
  - # 9
    frequency:    5.3393427860
  - # 10
    frequency:    5.4330229931
  - # 11
    frequency:    6.7462399736
  - # 12
    frequency:    6.7691810243
  - # 13
    frequency:    7.6899897472
  - # 14
    frequency:    9.4721800153
  - # 15
    frequency:   10.8250402295
  - # 16
    frequency:   10.8343478633
  - # 17
    frequency:   14.4908341198
  - # 18
    frequency:   16.2156326715
  - # 19
    frequency:   16.2576022828
  - # 20
    frequency:   20.0893977800
  - # 21
    frequency:   64.8489297297

- q-position: [    0.0505051,    0.0000000,    0.0000000 ]
  distance:    0.0165879
  band:
  - # 1
    frequency:    0.1764160398
  - # 2
    frequency:    0.5741653476
  - # 3
    frequency:    0.8521199794
  - # 4
    frequency:    0.8525377599
  - # 5
    frequency:    1.0769216330
  - # 6
    frequency:    3.8227096525
  - # 7
    frequency:    3.8926331118
  - # 8
    frequency:    5.0102289183
  - # 9
    frequency:    5.3397873126
  - # 10
    frequency:    5.4504912415
  - # 11
    frequency:    6.7486519186
  - # 12
    frequency:    6.7767495862
  - # 13
    frequency:    7.6873771908
  - # 14
    frequency:    9.4585345840
  - # 15
    frequency:   10.8259906150
  - # 16
    frequency:   10.8374675830
  - # 17
    frequency:   14.4877804770
  - # 18
    frequency:   16.2160837644
  - # 19
    frequency:   16.2672548879
  - # 20
    frequency:   20.0882201103
  - # 21
    frequency:   64.8477932087

- q-position: [    0.0555556,    0.0000000,    0.0000000 ]
  distance:    0.0182467
  band:
  - # 1
    frequency:    0.2109837070
  - # 2
    frequency:    0.6227666422
  - # 3
    frequency:    0.8754279906
  - # 4
    frequency:    0.9089439465
  - # 5
    frequency:    1.1538888679
  - # 6
    frequency:    3.8294445123
  - # 7
    frequency:    3.9124852324
  - # 8
    frequency:    5.0001804044
  - # 9
    frequency:    5.3402694325
  - # 10
    frequency:    5.4685530934
  - # 11
    frequency:    6.7512742461
  - # 12
    frequency:    6.7849762329
  - # 13
    frequency:    7.6845324636
  - # 14
    frequency:    9.4435363244
  - # 15
    frequency:   10.8270292014
  - # 16
    frequency:   10.8408974631
  - # 17
    frequency:   14.4844545152
  - # 18
    frequency:   16.2166276080
  - # 19
    frequency:   16.2776930834
  - # 20
    frequency:   20.0869273305
  - # 21
    frequency:   64.8465438824

- q-position: [    0.0606061,    0.0000000,    0.0000000 ]
  distance:    0.0199055
  band:
  - # 1
    frequency:    0.2480881484
  - # 2
    frequency:    0.6675121368
  - # 3
    frequency:    0.9031979752
  - # 4
    frequency:    0.9607544685
  - # 5
    frequency:    1.2369573785
  - # 6
    frequency:    3.8367367306
  - # 7
    frequency:    3.9335764100
  - # 8
    frequency:    4.9905828289
  - # 9
    frequency:    5.3407864576
  - # 10
    frequency:    5.4871015834
  - # 11
    frequency:    6.7540948787
  - # 12
    frequency:    6.7938228207
  - # 13
    frequency:    7.6814683080
  - # 14
    frequency:    9.4272099456
  - # 15
    frequency:   10.8281525926
  - # 16
    frequency:   10.8446320605
  - # 17
    frequency:   14.4808698034
  - # 18
    frequency:   16.2172767434
  - # 19
    frequency:   16.2888519158
  - # 20
    frequency:   20.0855219908
  - # 21
    frequency:   64.8451837554

- q-position: [    0.0656566,    0.0000000,    0.0000000 ]
  distance:    0.0215643
  band:
  - # 1
    frequency:    0.2875969832
  - # 2
    frequency:    0.7077821864
  - # 3
    frequency:    0.9359619345
  - # 4
    frequency:    1.0098948454
  - # 5
    frequency:    1.3239084232
  - # 6
    frequency:    3.8445647460
  - # 7
    frequency:    3.9557579411
  - # 8
    frequency:    4.9815685743
  - # 9
    frequency:    5.3413354854
  - # 10
    frequency:    5.5060492038
  - # 11
    frequency:    6.7571010288
  - # 12
    frequency:    6.8032490594
  - # 13
    frequency:    7.6781986125
  - # 14
    frequency:    9.4095823499
  - # 15
    frequency:   10.8293571398
  - # 16
    frequency:   10.8486654332
  - # 17
    frequency:   14.4770407024
  - # 18
    frequency:   16.2180444303
  - # 19
    frequency:   16.3006621211
  - # 20
    frequency:   20.0840068351
  - # 21
    frequency:   64.8437150028

- q-position: [    0.0707071,    0.0000000,    0.0000000 ]
  distance:    0.0232230
  band:
  - # 1
    frequency:    0.3293794985
  - # 2
    frequency:    0.7433981225
  - # 3
    frequency:    0.9738133344
  - # 4
    frequency:    1.0576329202
  - # 5
    frequency:    1.4132065229
  - # 6
    frequency:    3.8529056889
  - # 7
    frequency:    3.9788782643
  - # 8
    frequency:    4.9732578787
  - # 9
    frequency:    5.3419134140
  - # 10
    frequency:    5.5253232731
  - # 11
    frequency:    6.7602793036
  - # 12
    frequency:    6.8132128329
  - # 13
    frequency:    7.6747383838
  - # 14
    frequency:    9.3906825941
  - # 15
    frequency:   10.8306389586
  - # 16
    frequency:   10.8529911500
  - # 17
    frequency:   14.4729822574
  - # 18
    frequency:   16.2189445287
  - # 19
    frequency:   16.3130505686
  - # 20
    frequency:   20.0823847884
  - # 21
    frequency:   64.8421399645

- q-position: [    0.0757576,    0.0000000,    0.0000000 ]
  distance:    0.0248818
  band:
  - # 1
    frequency:    0.3733068126
  - # 2
    frequency:    0.7747426478
  - # 3
    frequency:    1.0162871548
  - # 4
    frequency:    1.1047038162
  - # 5
    frequency:    1.5038718293
  - # 6
    frequency:    3.8617355085
  - # 7
    frequency:    4.0027844564
  - # 8
    frequency:    4.9657619880
  - # 9
    frequency:    5.3425169605
  - # 10
    frequency:    5.5448623859
  - # 11
    frequency:    6.7636158143
  - # 12
    frequency:    6.8236705165
  - # 13
    frequency:    7.6711037118
  - # 14
    frequency:    9.3705418484
  - # 15
    frequency:   10.8319939472
  - # 16
    frequency:   10.8576023010
  - # 17
    frequency:   14.4687100916
  - # 18
    frequency:   16.2199913749
  - # 19
    frequency:   16.3259407184
  - # 20
    frequency:   20.0806589434
  - # 21
    frequency:   64.8404611399

- q-position: [    0.0808081,    0.0000000,    0.0000000 ]
  distance:    0.0265406
  band:
  - # 1
    frequency:    0.4192521508
  - # 2
    frequency:    0.8025935520
  - # 3
    frequency:    1.0625265475
  - # 4
    frequency:    1.1515068995
  - # 5
    frequency:    1.5952803289
  - # 6
    frequency:    3.8710291043
  - # 7
    frequency:    4.0273236891
  - # 8
    frequency:    4.9591853408
  - # 9
    frequency:    5.3431426815
  - # 10
    frequency:    5.5646137171
  - # 11
    frequency:    6.7670962870
  - # 12
    frequency:    6.8345772897
  - # 13
    frequency:    7.6673117280
  - # 14
    frequency:    9.3491933542
  - # 15
    frequency:   10.8334178046
  - # 16
    frequency:   10.8624915123
  - # 17
    frequency:   14.4642403004
  - # 18
    frequency:   16.2211996535
  - # 19
    frequency:   16.3392530887
  - # 20
    frequency:   20.0788325471
  - # 21
    frequency:   64.8386811811

- q-position: [    0.0858586,    0.0000000,    0.0000000 ]
  distance:    0.0281994
  band:
  - # 1
    frequency:    0.4670911805
  - # 2
    frequency:    0.8278257451
  - # 3
    frequency:    1.1115810986
  - # 4
    frequency:    1.1982466588
  - # 5
    frequency:    1.6870201684
  - # 6
    frequency:    3.8807604611
  - # 7
    frequency:    4.0523446940
  - # 8
    frequency:    4.9536269451
  - # 9
    frequency:    5.3437869975
  - # 10
    frequency:    5.5845309829
  - # 11
    frequency:    6.7707061752
  - # 12
    frequency:    6.8458874377
  - # 13
    frequency:    7.6633805554
  - # 14
    frequency:    9.3266723811
  - # 15
    frequency:   10.8349060492
  - # 16
    frequency:   10.8676509604
  - # 17
    frequency:   14.4595893480
  - # 18
    frequency:   16.2225842666
  - # 19
    frequency:   16.3529057294
  - # 20
    frequency:   20.0769089861
  - # 21
    frequency:   64.8368028865

- q-position: [    0.0909091,    0.0000000,    0.0000000 ]
  distance:    0.0298582
  band:
  - # 1
    frequency:    0.5167023594
  - # 2
    frequency:    0.8512005871
  - # 3
    frequency:    1.1626177194
  - # 4
    frequency:    1.2450170720
  - # 5
    frequency:    1.7788046460
  - # 6
    frequency:    3.8909027871
  - # 7
    frequency:    4.0776992940
  - # 8
    frequency:    4.9491810584
  - # 9
    frequency:    5.3444462196
  - # 10
    frequency:    5.6045729013
  - # 11
    frequency:    6.7744307716
  - # 12
    frequency:    6.8575546415
  - # 13
    frequency:    7.6593292500
  - # 14
    frequency:    9.3030161832
  - # 15
    frequency:   10.8364540378
  - # 16
    frequency:   10.8730723914
  - # 17
    frequency:   14.4547739665
  - # 18
    frequency:   16.2241601999
  - # 19
    frequency:   16.3668146986
  - # 20
    frequency:   20.0748917725
  - # 21
    frequency:   64.8348291945

- q-position: [    0.0959596,    0.0000000,    0.0000000 ]
  distance:    0.0315170
  band:
  - # 1
    frequency:    0.5679672586
  - # 2
    frequency:    0.8732960281
  - # 3
    frequency:    1.2149906524
  - # 4
    frequency:    1.2918497396
  - # 5
    frequency:    1.8704216464
  - # 6
    frequency:    3.9014286521
  - # 7
    frequency:    4.1032440675
  - # 8
    frequency:    4.9459372423
  - # 9
    frequency:    5.3451165799
  - # 10
    frequency:    5.6247020334
  - # 11
    frequency:    6.7782553196
  - # 12
    frequency:    6.8695322520
  - # 13
    frequency:    7.6551777318
  - # 14
    frequency:    9.2782639551
  - # 15
    frequency:   10.8380569841
  - # 16
    frequency:   10.8787471399
  - # 17
    frequency:   14.4498110578
  - # 18
    frequency:   16.2259423885
  - # 19
    frequency:   16.3808945393
  - # 20
    frequency:   20.0727845285
  - # 21
    frequency:   64.8327631757

- q-position: [    0.1010101,    0.0000000,    0.0000000 ]
  distance:    0.0331758
  band:
  - # 1
    frequency:    0.6207708344
  - # 2
    frequency:    0.8945200591
  - # 3
    frequency:    1.2682281021
  - # 4
    frequency:    1.3387412229
  - # 5
    frequency:    1.9617041021
  - # 6
    frequency:    3.9123101275
  - # 7
    frequency:    4.1288422114
  - # 8
    frequency:    4.9439798369
  - # 9
    frequency:    5.3457942641
  - # 10
    frequency:    5.6448839162
  - # 11
    frequency:    6.7821651222
  - # 12
    frequency:    6.8817735476
  - # 13
    frequency:    7.6509467057
  - # 14
    frequency:    9.2524567879
  - # 15
    frequency:   10.8397099780
  - # 16
    frequency:   10.8846661522
  - # 17
    frequency:   14.4447175995
  - # 18
    frequency:   16.2279455833
  - # 19
    frequency:   16.3950587517
  - # 20
    frequency:   20.0705909717
  - # 21
    frequency:   64.8306080258

- q-position: [    0.1060606,    0.0000000,    0.0000000 ]
  distance:    0.0348346
  band:
  - # 1
    frequency:    0.6750016359
  - # 2
    frequency:    0.9151499571
  - # 3
    frequency:    1.3219930101
  - # 4
    frequency:    1.3856687420
  - # 5
    frequency:    2.0525123294
  - # 6
    frequency:    3.9235189242
  - # 7
    frequency:    4.1543656537
  - # 8
    frequency:    4.9433868890
  - # 9
    frequency:    5.3464754479
  - # 10
    frequency:    5.6650864195
  - # 11
    frequency:    6.7861456484
  - # 12
    frequency:    6.8942319722
  - # 13
    frequency:    7.6466575711
  - # 14
    frequency:    9.2256376264
  - # 15
    frequency:   10.8414080032
  - # 16
    frequency:   10.8908200098
  - # 17
    frequency:   14.4395105532
  - # 18
    frequency:   16.2301842180
  - # 19
    frequency:   16.4092202608
  - # 20
    frequency:   20.0683149007
  - # 21
    frequency:   64.8283670577

- q-position: [    0.1111111,    0.0000000,    0.0000000 ]
  distance:    0.0364933
  band:
  - # 1
    frequency:    0.7305519399
  - # 2
    frequency:    0.9353701758
  - # 3
    frequency:    1.3760451342
  - # 4
    frequency:    1.4325993227
  - # 5
    frequency:    2.1427231346
  - # 6
    frequency:    3.9350265293
  - # 7
    frequency:    4.1796974436
  - # 8
    frequency:    4.9442285769
  - # 9
    frequency:    5.3471563352
  - # 10
    frequency:    5.6852792787
  - # 11
    frequency:    6.7901826342
  - # 12
    frequency:    6.9068613542
  - # 13
    frequency:    7.6423323192
  - # 14
    frequency:    9.1978512259
  - # 15
    frequency:   10.8431459559
  - # 16
    frequency:   10.8971989553
  - # 17
    frequency:   14.4342067780
  - # 18
    frequency:   16.2326722792
  - # 19
    frequency:   16.4232918751
  - # 20
    frequency:   20.0659601797
  - # 21
    frequency:   64.8260436939

- q-position: [    0.1161616,    0.0000000,    0.0000000 ]
  distance:    0.0381521
  band:
  - # 1
    frequency:    0.7873178145
  - # 2
    frequency:    0.9553014242
  - # 3
    frequency:    1.4302118948
  - # 4
    frequency:    1.4794952011
  - # 5
    frequency:    2.2322228669
  - # 6
    frequency:    3.9468043400
  - # 7
    frequency:    4.2047344040
  - # 8
    frequency:    4.9465652022
  - # 9
    frequency:    5.3478331989
  - # 10
    frequency:    5.7054337669
  - # 11
    frequency:    6.7942621806
  - # 12
    frequency:    6.9196161041
  - # 13
    frequency:    7.6379934191
  - # 14
    frequency:    9.1691441118
  - # 15
    frequency:   10.8449186616
  - # 16
    frequency:   10.9037929198
  - # 17
    frequency:   14.4288229464
  - # 18
    frequency:   16.2354231799
  - # 19
    frequency:   16.4371867348
  - # 20
    frequency:   20.0635307250
  - # 21
    frequency:   64.8236414580

- q-position: [    0.1212121,    0.0000000,    0.0000000 ]
  distance:    0.0398109
  band:
  - # 1
    frequency:    0.8451991120
  - # 2
    frequency:    0.9750211348
  - # 3
    frequency:    1.4843677951
  - # 4
    frequency:    1.5263170531
  - # 5
    frequency:    2.3209028318
  - # 6
    frequency:    3.9588237942
  - # 7
    frequency:    4.2293899731
  - # 8
    frequency:    4.9504448645
  - # 9
    frequency:    5.3485024241
  - # 10
    frequency:    5.7255224770
  - # 11
    frequency:    6.7983708438
  - # 12
    frequency:    6.9324513909
  - # 13
    frequency:    7.6336636895
  - # 14
    frequency:    9.1395645398
  - # 15
    frequency:   10.8467208926
  - # 16
    frequency:   10.9105915517
  - # 17
    frequency:   14.4233754652
  - # 18
    frequency:   16.2384496383
  - # 19
    frequency:   16.4508187470
  - # 20
    frequency:   20.0610304907
  - # 21
    frequency:   64.8211639667

- q-position: [    0.1262626,    0.0000000,    0.0000000 ]
  distance:    0.0414697
  band:
  - # 1
    frequency:    0.9040993979
  - # 2
    frequency:    0.9945773947
  - # 3
    frequency:    1.5384203475
  - # 4
    frequency:    1.5730259396
  - # 5
    frequency:    2.4086561583
  - # 6
    frequency:    3.9710564961
  - # 7
    frequency:    4.2535970949
  - # 8
    frequency:    4.9559009911
  - # 9
    frequency:    5.3491605520
  - # 10
    frequency:    5.7455191948
  - # 11
    frequency:    6.8024957204
  - # 12
    frequency:    6.9453232958
  - # 13
    frequency:    7.6293661595
  - # 14
    frequency:    9.1091624587
  - # 15
    frequency:   10.8485473837
  - # 16
    frequency:   10.9175842462
  - # 17
    frequency:   14.4178803993
  - # 18
    frequency:   16.2417635614
  - # 19
    frequency:   16.4641030076
  - # 20
    frequency:   20.0584634562
  - # 21
    frequency:   64.8186149213

- q-position: [    0.1313131,    0.0000000,    0.0000000 ]
  distance:    0.0431285
  band:
  - # 1
    frequency:    0.9639258173
  - # 2
    frequency:    1.0139983369
  - # 3
    frequency:    1.5923005160
  - # 4
    frequency:    1.6195844881
  - # 5
    frequency:    2.4953755862
  - # 6
    frequency:    3.9834743371
  - # 7
    frequency:    4.2773109539
  - # 8
    frequency:    4.9629499522
  - # 9
    frequency:    5.3498043255
  - # 10
    frequency:    5.7653988449
  - # 11
    frequency:    6.8066245246
  - # 12
    frequency:    6.9581889441
  - # 13
    frequency:    7.6251239157
  - # 14
    frequency:    9.0779894758
  - # 15
    frequency:   10.8503928482
  - # 16
    frequency:   10.9247601756
  - # 17
    frequency:   14.4123534004
  - # 18
    frequency:   16.2453759360
  - # 19
    frequency:   16.4769562056
  - # 20
    frequency:   20.0558336134
  - # 21
    frequency:   64.8159980989

- q-position: [    0.1363636,    0.0000000,    0.0000000 ]
  distance:    0.0447873
  band:
  - # 1
    frequency:    1.0245889059
  - # 2
    frequency:    1.0332984827
  - # 3
    frequency:    1.6459561881
  - # 4
    frequency:    1.6659576197
  - # 5
    frequency:    2.5809518613
  - # 6
    frequency:    3.9960496111
  - # 7
    frequency:    4.3005112943
  - # 8
    frequency:    4.9715890329
  - # 9
    frequency:    5.3504307351
  - # 10
    frequency:    5.7851374958
  - # 11
    frequency:    6.8107456574
  - # 12
    frequency:    6.9710066125
  - # 13
    frequency:    7.6209599387
  - # 14
    frequency:    9.0460988255
  - # 15
    frequency:   10.8522519926
  - # 16
    frequency:   10.9321083201
  - # 17
    frequency:   14.4068096390
  - # 18
    frequency:   16.2492967272
  - # 19
    frequency:   16.4892970111
  - # 20
    frequency:   20.0531449558
  - # 21
    frequency:   64.8133173440

- q-position: [    0.1414141,    0.0000000,    0.0000000 ]
  distance:    0.0464461
  band:
  - # 1
    frequency:    1.0524830569
  - # 2
    frequency:    1.0860023447
  - # 3
    frequency:    1.6993476591
  - # 4
    frequency:    1.7121130112
  - # 5
    frequency:    2.6652725509
  - # 6
    frequency:    4.0087551238
  - # 7
    frequency:    4.3232040517
  - # 8
    frequency:    4.9817950405
  - # 9
    frequency:    5.3510370641
  - # 10
    frequency:    5.8047124150
  - # 11
    frequency:    6.8148482686
  - # 12
    frequency:    6.9837358128
  - # 13
    frequency:    7.6168969279
  - # 14
    frequency:    9.0135453416
  - # 15
    frequency:   10.8541195312
  - # 16
    frequency:   10.9396174992
  - # 17
    frequency:   14.4012637410
  - # 18
    frequency:   16.2535347851
  - # 19
    frequency:   16.5010464438
  - # 20
    frequency:   20.0504014680
  - # 21
    frequency:   64.8105765598

- q-position: [    0.1464646,    0.0000000,    0.0000000 ]
  distance:    0.0481049
  band:
  - # 1
    frequency:    1.0715509521
  - # 2
    frequency:    1.1480826607
  - # 3
    frequency:    1.7524444576
  - # 4
    frequency:    1.7580214111
  - # 5
    frequency:    2.7482211741
  - # 6
    frequency:    4.0215642951
  - # 7
    frequency:    4.3454220495
  - # 8
    frequency:    4.9935237869
  - # 9
    frequency:    5.3516209338
  - # 10
    frequency:    5.8241021619
  - # 11
    frequency:    6.8189223086
  - # 12
    frequency:    6.9963373495
  - # 13
    frequency:    7.6129571189
  - # 14
    frequency:    8.9803854339
  - # 15
    frequency:   10.8559901992
  - # 16
    frequency:   10.9472764021
  - # 17
    frequency:   14.3957297288
  - # 18
    frequency:   16.2580977602
  - # 19
    frequency:   16.5121282213
  - # 20
    frequency:   20.0476071169
  - # 21
    frequency:   64.8077796990

- q-position: [    0.1515152,    0.0000000,    0.0000000 ]
  distance:    0.0497637
  band:
  - # 1
    frequency:    1.0904967851
  - # 2
    frequency:    1.2107488691
  - # 3
    frequency:    1.8036568885
  - # 4
    frequency:    1.8052230706
  - # 5
    frequency:    2.8296765974
  - # 6
    frequency:    4.0344512554
  - # 7
    frequency:    4.3672245909
  - # 8
    frequency:    5.0067105970
  - # 9
    frequency:    5.3521803461
  - # 10
    frequency:    5.8432867119
  - # 11
    frequency:    6.8229585720
  - # 12
    frequency:    7.0087733507
  - # 13
    frequency:    7.6091620932
  - # 14
    frequency:    8.9466770694
  - # 15
    frequency:   10.8578587666
  - # 16
    frequency:   10.9550736186
  - # 17
    frequency:   14.3902209658
  - # 18
    frequency:   16.2629920288
  - # 19
    frequency:   16.5224690870
  - # 20
    frequency:   20.0447658434
  - # 21