nqpoint: 300    
npath: 3      
segment_nqpoint:
- 100
- 100
- 100
labels:
- [ 'G', 'M' ]
- [ 'M', 'K' ]
- [ 'K', 'G' ]
reciprocal_lattice:
- [   0.28930564,   0.16703069,   0.00000000 ] # a*
- [   0.00000000,   0.33406138,   0.00000000 ] # b*
- [   0.00000000,   0.00000000,   0.04025431 ] # c*
natom: 6      
lattice:
- [     3.456552026832306,     0.000000000000000,     0.000000000000000 ] # a
- [    -1.728276013416153,     2.993461864738450,     0.000000000000000 ] # b
- [     0.000000000000000,     0.000000000000000,    24.842061506597812 ] # c
points:
- symbol: Br # 1
  coordinates: [  0.666666984744047,  0.333332985985145,  0.362288773723939 ]
  mass: 79.904000
- symbol: C # 2
  coordinates: [  0.000000000000000,  0.000000000000000,  0.486085595902740 ]
  mass: 12.010700
- symbol: N # 3
  coordinates: [  0.333332985432215,  0.666666983183674,  0.585756644192138 ]
  mass: 14.006700
- symbol: O # 4
  coordinates: [  0.333332985432215,  0.666666983183674,  0.637711226276061 ]
  mass: 15.999400
- symbol: Sc # 5
  coordinates: [  0.333332985432215,  0.666666983183674,  0.437315558154174 ]
  mass: 44.955912
- symbol: Sc # 6
  coordinates: [  0.666666984744047,  0.333332985985145,  0.537139422611182 ]
  mass: 44.955912

phonon:
- q-position: [    0.0000000,    0.0000000,    0.0000000 ]
  distance:    0.0000000
  band:
  - # 1
    frequency:   -0.0000051258
  - # 2
    frequency:    0.0000000885
  - # 3
    frequency:    0.0000045415
  - # 4
    frequency:    2.6234502436
  - # 5
    frequency:    2.6234502436
  - # 6
    frequency:    4.3313753704
  - # 7
    frequency:    4.3313753704
  - # 8
    frequency:    4.6890924832
  - # 9
    frequency:    6.0552283459
  - # 10
    frequency:    6.0552283459
  - # 11
    frequency:    7.1681430579
  - # 12
    frequency:    9.0973868847
  - # 13
    frequency:    9.0973868847
  - # 14
    frequency:   10.0955013128
  - # 15
    frequency:   11.9176728979
  - # 16
    frequency:   11.9176728979
  - # 17
    frequency:   16.5491397847
  - # 18
    frequency:   44.0275873367

- q-position: [    0.0050505,    0.0000000,    0.0000000 ]
  distance:    0.0016872
  band:
  - # 1
    frequency:    0.0011318565
  - # 2
    frequency:    0.0523299489
  - # 3
    frequency:    0.0888739269
  - # 4
    frequency:    2.6235744713
  - # 5
    frequency:    2.6246218544
  - # 6
    frequency:    4.3295924572
  - # 7
    frequency:    4.3314649385
  - # 8
    frequency:    4.6909937767
  - # 9
    frequency:    6.0547384018
  - # 10
    frequency:    6.0551783198
  - # 11
    frequency:    7.1682682514
  - # 12
    frequency:    9.0955201226
  - # 13
    frequency:    9.0965405019
  - # 14
    frequency:   10.0948967039
  - # 15
    frequency:   11.9174413080
  - # 16
    frequency:   11.9190583540
  - # 17
    frequency:   16.5481758507
  - # 18
    frequency:   44.0268385447

- q-position: [    0.0101010,    0.0000000,    0.0000000 ]
  distance:    0.0033744
  band:
  - # 1
    frequency:    0.0045220723
  - # 2
    frequency:    0.1046667162
  - # 3
    frequency:    0.1777235618
  - # 4
    frequency:    2.6239475101
  - # 5
    frequency:    2.6281301216
  - # 6
    frequency:    4.3243557419
  - # 7
    frequency:    4.3317335423
  - # 8
    frequency:    4.6965832459
  - # 9
    frequency:    6.0532704534
  - # 10
    frequency:    6.0550281825
  - # 11
    frequency:    7.1686435436
  - # 12
    frequency:    9.0899262714
  - # 13
    frequency:    9.0939996814
  - # 14
    frequency:   10.0930823810
  - # 15
    frequency:   11.9167487044
  - # 16
    frequency:   11.9232114018
  - # 17
    frequency:   16.5452864830
  - # 18
    frequency:   44.0245931709

- q-position: [    0.0151515,    0.0000000,    0.0000000 ]
  distance:    0.0050615
  band:
  - # 1
    frequency:    0.0101560371
  - # 2
    frequency:    0.1570169525
  - # 3
    frequency:    0.2665246519
  - # 4
    frequency:    2.6245704192
  - # 5
    frequency:    2.6339554602
  - # 6
    frequency:    4.3159703241
  - # 7
    frequency:    4.3321808854
  - # 8
    frequency:    4.7055485788
  - # 9
    frequency:    6.0508301671
  - # 10
    frequency:    6.0547777528
  - # 11
    frequency:    7.1692680885
  - # 12
    frequency:    9.0806246157
  - # 13
    frequency:    9.0897594432
  - # 14
    frequency:   10.0900569489
  - # 15
    frequency:   11.9156015559
  - # 16
    frequency:   11.9301220565
  - # 17
    frequency:   16.5404789810
  - # 18
    frequency:   44.0208542208

- q-position: [    0.0202020,    0.0000000,    0.0000000 ]
  distance:    0.0067487
  band:
  - # 1
    frequency:    0.0180095635
  - # 2
    frequency:    0.2093869702
  - # 3
    frequency:    0.3552530205
  - # 4
    frequency:    2.6254449354
  - # 5
    frequency:    2.6420655862
  - # 6
    frequency:    4.3048595155
  - # 7
    frequency:    4.3328064910
  - # 8
    frequency:    4.7174542653
  - # 9
    frequency:    6.0474270444
  - # 10
    frequency:    6.0544267152
  - # 11
    frequency:    7.1701405360
  - # 12
    frequency:    9.0676472298
  - # 13
    frequency:    9.0838116118
  - # 14
    frequency:   10.0858183870
  - # 15
    frequency:   11.9140105418
  - # 16
    frequency:   11.9397736017
  - # 17
    frequency:   16.5337654954
  - # 18
    frequency:   44.0156266962

- q-position: [    0.0252525,    0.0000000,    0.0000000 ]
  distance:    0.0084359
  band:
  - # 1
    frequency:    0.0280495720
  - # 2
    frequency:    0.2617825731
  - # 3
    frequency:    0.4438845967
  - # 4
    frequency:    2.6265734305
  - # 5
    frequency:    2.6524160258
  - # 6
    frequency:    4.2914835122
  - # 7
    frequency:    4.3336097272
  - # 8
    frequency:    4.7318226550
  - # 9
    frequency:    6.0430745212
  - # 10
    frequency:    6.0539746003
  - # 11
    frequency:    7.1712591183
  - # 12
    frequency:    9.0510388946
  - # 13
    frequency:    9.0761449997
  - # 14
    frequency:   10.0803644803
  - # 15
    frequency:   11.9119904022
  - # 16
    frequency:   11.9521424871
  - # 17
    frequency:   16.5251630073
  - # 18
    frequency:   44.0089175854

- q-position: [    0.0303030,    0.0000000,    0.0000000 ]
  distance:    0.0101231
  band:
  - # 1
    frequency:    0.0402348161
  - # 2
    frequency:    0.3142088824
  - # 3
    frequency:    0.5323954370
  - # 4
    frequency:    2.6279588534
  - # 5
    frequency:    2.6649507742
  - # 6
    frequency:    4.2762794767
  - # 7
    frequency:    4.3345898428
  - # 8
    frequency:    4.7481934805
  - # 9
    frequency:    6.0377901391
  - # 10
    frequency:    6.0534207558
  - # 11
    frequency:    7.1726217598
  - # 12
    frequency:    9.0308570075
  - # 13
    frequency:    9.0667456638
  - # 14
    frequency:   10.0736933717
  - # 15
    frequency:   11.9095597300
  - # 16
    frequency:   11.9671982045
  - # 17
    frequency:   16.5146932975
  - # 18
    frequency:   44.0007358486

- q-position: [    0.0353535,    0.0000000,    0.0000000 ]
  distance:    0.0118103
  band:
  - # 1
    frequency:    0.0545167375
  - # 2
    frequency:    0.3666701592
  - # 3
    frequency:    0.6207617342
  - # 4
    frequency:    2.6296046556
  - # 5
    frequency:    2.6796030558
  - # 6
    frequency:    4.2596301826
  - # 7
    frequency:    4.3357460113
  - # 8
    frequency:    4.7661546855
  - # 9
    frequency:    6.0315958163
  - # 10
    frequency:    6.0527643102
  - # 11
    frequency:    7.1742262044
  - # 12
    frequency:    9.0071715129
  - # 13
    frequency:    9.0555972289
  - # 14
    frequency:   10.0658041961
  - # 15
    frequency:   11.9067407086
  - # 16
    frequency:   11.9849031575
  - # 17
    frequency:   16.5023829094
  - # 18
    frequency:   43.9910923995

- q-position: [    0.0404040,    0.0000000,    0.0000000 ]
  distance:    0.0134974
  band:
  - # 1
    frequency:    0.0708404057
  - # 2
    frequency:    0.4191696234
  - # 3
    frequency:    0.7089598118
  - # 4
    frequency:    2.6315147024
  - # 5
    frequency:    2.6962961305
  - # 6
    frequency:    4.2418548580
  - # 7
    frequency:    4.3370773853
  - # 8
    frequency:    4.7853509001
  - # 9
    frequency:    6.0245182600
  - # 10
    frequency:    6.0520041258
  - # 11
    frequency:    7.1760701476
  - # 12
    frequency:    8.9800648739
  - # 13
    frequency:    9.0426812770
  - # 14
    frequency:   10.0566977475
  - # 15
    frequency:   11.9035587996
  - # 16
    frequency:   12.0052125437
  - # 17
    frequency:   16.4882631034
  - # 18
    frequency:   43.9800000830

- q-position: [    0.0454545,    0.0000000,    0.0000000 ]
  distance:    0.0151846
  band:
  - # 1
    frequency:    0.0891454935
  - # 2
    frequency:    0.4717092675
  - # 3
    frequency:    0.7969661016
  - # 4
    frequency:    2.6336931707
  - # 5
    frequency:    2.7149440876
  - # 6
    frequency:    4.2232127177
  - # 7
    frequency:    4.3385831583
  - # 8
    frequency:    4.8054790521
  - # 9
    frequency:    6.0165895691
  - # 10
    frequency:    6.0511387435
  - # 11
    frequency:    7.1781513618
  - # 12
    frequency:    8.9496321104
  - # 13
    frequency:    9.0279777972
  - # 14
    frequency:   10.0463771397
  - # 15
    frequency:   11.9000423845
  - # 16
    frequency:   12.0280742651
  - # 17
    frequency:   16.4723698051
  - # 18
    frequency:   43.9674736490

- q-position: [    0.0505051,    0.0000000,    0.0000000 ]
  distance:    0.0168718
  band:
  - # 1
    frequency:    0.1093672444
  - # 2
    frequency:    0.5242896656
  - # 3
    frequency:    0.8847571007
  - # 4
    frequency:    2.6361444341
  - # 5
    frequency:    2.7354525662
  - # 6
    frequency:    4.2039118762
  - # 7
    frequency:    4.3402626340
  - # 8
    frequency:    4.8262783962
  - # 9
    frequency:    6.0078480870
  - # 10
    frequency:    6.0501663162
  - # 11
    frequency:    7.1804678020
  - # 12
    frequency:    8.9159809218
  - # 13
    frequency:    9.0114656913
  - # 14
    frequency:   10.0348484191
  - # 15
    frequency:   11.8962223661
  - # 16
    frequency:   12.0534288818
  - # 17
    frequency:   16.4547435468
  - # 18
    frequency:   43.9535297221

- q-position: [    0.0555556,    0.0000000,    0.0000000 ]
  distance:    0.0185590
  band:
  - # 1
    frequency:    0.1314373934
  - # 2
    frequency:    0.5769097769
  - # 3
    frequency:    0.9723093084
  - # 4
    frequency:    2.6388729370
  - # 5
    frequency:    2.7577193449
  - # 6
    frequency:    4.1841194454
  - # 7
    frequency:    4.3421153026
  - # 8
    frequency:    4.8475191268
  - # 9
    frequency:    5.9983395756
  - # 10
    frequency:    6.0490845319
  - # 11
    frequency:    7.1830176759
  - # 12
    frequency:    8.8792319058
  - # 13
    frequency:    8.9931233289
  - # 14
    frequency:   10.0221211020
  - # 15
    frequency:   11.8921317376
  - # 16
    frequency:   12.0812096201
  - # 17
    frequency:   16.4354294044
  - # 18
    frequency:   43.9381867676

- q-position: [    0.0606061,    0.0000000,    0.0000000 ]
  distance:    0.0202461
  band:
  - # 1
    frequency:    0.1552850087
  - # 2
    frequency:    0.6295667441
  - # 3
    frequency:    1.0595991383
  - # 4
    frequency:    2.6418830600
  - # 5
    frequency:    2.7816347408
  - # 6
    frequency:    4.1639709075
  - # 7
    frequency:    4.3441409230
  - # 8
    frequency:    4.8689914519
  - # 9
    frequency:    5.9881187884
  - # 10
    frequency:    6.0478905241
  - # 11
    frequency:    7.1857994641
  - # 12
    frequency:    8.8395188823
  - # 13
    frequency:    8.9729291464
  - # 14
    frequency:   10.0082086148
  - # 15
    frequency:   11.8878051247
  - # 16
    frequency:   12.1113424413
  - # 17
    frequency:   16.4144769294
  - # 18
    frequency:   43.9214650544

- q-position: [    0.0656566,    0.0000000,    0.0000000 ]
  distance:    0.0219333
  band:
  - # 1
    frequency:    0.1808372339
  - # 2
    frequency:    0.6822556871
  - # 3
    frequency:    1.1466028060
  - # 4
    frequency:    2.6451789763
  - # 5
    frequency:    2.8070817626
  - # 6
    frequency:    4.1435781442
  - # 7
    frequency:    4.3463396091
  - # 8
    frequency:    4.8904957222
  - # 9
    frequency:    5.9772515297
  - # 10
    frequency:    6.0465807691
  - # 11
    frequency:    7.1888118728
  - # 12
    frequency:    8.7969893221
  - # 13
    frequency:    8.9508622822
  - # 14
    frequency:    9.9931286254
  - # 15
    frequency:   11.8832783105
  - # 16
    frequency:   12.1437461750
  - # 17
    frequency:   16.3919400776
  - # 18
    frequency:   43.9033866139

- q-position: [    0.0707071,    0.0000000,    0.0000000 ]
  distance:    0.0236205
  band:
  - # 1
    frequency:    0.2080199127
  - # 2
    frequency:    0.7349694910
  - # 3
    frequency:    1.2332961905
  - # 4
    frequency:    2.6487645033
  - # 5
    frequency:    2.8339359557
  - # 6
    frequency:    4.1230361236
  - # 7
    frequency:    4.3487119193
  - # 8
    frequency:    4.9118335997
  - # 9
    frequency:    5.9658172854
  - # 10
    frequency:    6.0451509690
  - # 11
    frequency:    7.1920536999
  - # 12
    frequency:    8.7518048780
  - # 13
    frequency:    8.9269032401
  - # 14
    frequency:    9.9769032628
  - # 15
    frequency:   11.8785877519
  - # 16
    frequency:   12.1783327134
  - # 17
    frequency:   16.3678771364
  - # 18
    frequency:   43.8839751953

- q-position: [    0.0757576,    0.0000000,    0.0000000 ]
  distance:    0.0253077
  band:
  - # 1
    frequency:    0.2367580928
  - # 2
    frequency:    0.7876985907
  - # 3
    frequency:    1.3196546677
  - # 4
    frequency:    2.6526429502
  - # 5
    frequency:    2.8620648749
  - # 6
    frequency:    4.1024284897
  - # 7
    frequency:    4.3512589480
  - # 8
    frequency:    4.9328000388
  - # 9
    frequency:    5.9539124967
  - # 10
    frequency:    6.0435959185
  - # 11
    frequency:    7.1955235930
  - # 12
    frequency:    8.7041420097
  - # 13
    frequency:    8.9010345751
  - # 14
    frequency:    9.9595592291
  - # 15
    frequency:   11.8737700964
  - # 16
    frequency:   12.2150072626
  - # 17
    frequency:   16.3423506500
  - # 18
    frequency:   43.8632562183

- q-position: [    0.0808081,    0.0000000,    0.0000000 ]
  distance:    0.0269949
  band:
  - # 1
    frequency:    0.2669764063
  - # 2
    frequency:    0.8404307519
  - # 3
    frequency:    1.4056529156
  - # 4
    frequency:    2.6568169631
  - # 5
    frequency:    2.8913271048
  - # 6
    frequency:    4.0818323773
  - # 7
    frequency:    4.3539824164
  - # 8
    frequency:    4.9531758368
  - # 9
    frequency:    5.9416545116
  - # 10
    frequency:    6.0419093545
  - # 11
    frequency:    7.1992196739
  - # 12
    frequency:    8.6541926938
  - # 13
    frequency:    8.8732415917
  - # 14
    frequency:    9.9411278105
  - # 15
    frequency:   11.8688617083
  - # 16
    frequency:   12.2536686422
  - # 17
    frequency:   16.3154273469
  - # 18
    frequency:   43.8412567222

- q-position: [    0.0858586,    0.0000000,    0.0000000 ]
  distance:    0.0286820
  band:
  - # 1
    frequency:    0.2985993319
  - # 2
    frequency:    0.8931508496
  - # 3
    frequency:    1.4912646899
  - # 4
    frequency:    2.6612883717
  - # 5
    frequency:    2.9215707332
  - # 6
    frequency:    4.0613227779
  - # 7
    frequency:    4.3568847617
  - # 8
    frequency:    4.9727206134
  - # 9
    frequency:    5.9291861691
  - # 10
    frequency:    6.0400837848
  - # 11
    frequency:    7.2031389956
  - # 12
    frequency:    8.6021652105
  - # 13
    frequency:    8.8435130504
  - # 14
    frequency:    9.9216448010
  - # 15
    frequency:   11.8638982146
  - # 16
    frequency:   12.2942096235
  - # 17
    frequency:   16.2871780685
  - # 18
    frequency:   43.8180053124

- q-position: [    0.0909091,    0.0000000,    0.0000000 ]
  distance:    0.0303692
  band:
  - # 1
    frequency:    0.3315513472
  - # 2
    frequency:    0.9458406451
  - # 3
    frequency:    1.5764625689
  - # 4
    frequency:    2.6660580376
  - # 5
    frequency:    2.9526311531
  - # 6
    frequency:    4.0409767737
  - # 7
    frequency:    4.3599692212
  - # 8
    frequency:    4.9911662701
  - # 9
    frequency:    5.9166808265
  - # 10
    frequency:    6.0381102968
  - # 11
    frequency:    7.2072767942
  - # 12
    frequency:    8.5482849986
  - # 13
    frequency:    8.8118418731
  - # 14
    frequency:    9.9011503506
  - # 15
    frequency:   11.8589140797
  - # 16
    frequency:   12.3365172944
  - # 17
    frequency:   16.2576777021
  - # 18
    frequency:   43.7935321034

- q-position: [    0.0959596,    0.0000000,    0.0000000 ]
  distance:    0.0320564
  band:
  - # 1
    frequency:    0.3657569822
  - # 2
    frequency:    0.9984785631
  - # 3
    frequency:    1.6612176650
  - # 4
    frequency:    2.6711257085
  - # 5
    frequency:    2.9843280395
  - # 6
    frequency:    4.0208779476
  - # 7
    frequency:    4.3632399087
  - # 8
    frequency:    5.0082112660
  - # 9
    frequency:    5.9043474047
  - # 10
    frequency:    6.0359783407
  - # 11
    frequency:    7.2116254788
  - # 12
    frequency:    8.4927955839
  - # 13
    frequency:    8.7782258454
  - # 14
    frequency:    9.8796887520
  - # 15
    frequency:   11.8539422156
  - # 16
    frequency:   12.3804734398
  - # 17
    frequency:   16.2270051203
  - # 18
    frequency:   43.7678686604

- q-position: [    0.1010101,    0.0000000,    0.0000000 ]
  distance:    0.0337436
  band:
  - # 1
    frequency:    0.4011407841
  - # 2
    frequency:    1.0510394699
  - # 3
    frequency:    1.7454993013
  - # 4
    frequency:    2.6764898803
  - # 5
    frequency:    3.0164613053
  - # 6
    frequency:    4.0011212791
  - # 7
    frequency:    4.3667018810
  - # 8
    frequency:    5.0235164441
  - # 9
    frequency:    5.8924346713
  - # 10
    frequency:    6.0336754869
  - # 11
    frequency:    7.2161732902
  - # 12
    frequency:    8.4359595917
  - # 13
    frequency:    8.7426683092
  - # 14
    frequency:    9.8573081786
  - # 15
    frequency:   11.8490136367
  - # 16
    frequency:   12.4259549263
  - # 17
    frequency:   16.1952431279
  - # 18
    frequency:   43.7410479373

- q-position: [    0.1060606,    0.0000000,    0.0000000 ]
  distance:    0.0354308
  band:
  - # 1
    frequency:    0.4376272050
  - # 2
    frequency:    1.1034944551
  - # 3
    frequency:    1.8292746466
  - # 4
    frequency:    2.6821476690
  - # 5
    frequency:    3.0488058078
  - # 6
    frequency:    3.9818188426
  - # 7
    frequency:    4.3703611887
  - # 8
    frequency:    5.0367036425
  - # 9
    frequency:    5.8812335240
  - # 10
    frequency:    6.0311871536
  - # 11
    frequency:    7.2209025321
  - # 12
    frequency:    8.3780598814
  - # 13
    frequency:    8.7051788462
  - # 14
    frequency:    9.8340603855
  - # 15
    frequency:   11.8441571645
  - # 16
    frequency:   12.4728340797
  - # 17
    frequency:   16.1624784197
  - # 18
    frequency:   43.7131042131

- q-position: [    0.1111111,    0.0000000,    0.0000000 ]
  distance:    0.0371179
  band:
  - # 1
    frequency:    0.4751404245
  - # 2
    frequency:    1.1558106161
  - # 3
    frequency:    1.9125083015
  - # 4
    frequency:    2.6880946969
  - # 5
    frequency:    3.0811045622
  - # 6
    frequency:    3.9631066136
  - # 7
    frequency:    4.3742249081
  - # 8
    frequency:    5.0473588453
  - # 9
    frequency:    5.8710755372
  - # 10
    frequency:    6.0284963023
  - # 11
    frequency:    7.2257872445
  - # 12
    frequency:    8.3194008718
  - # 13
    frequency:    8.6657739504
  - # 14
    frequency:    9.8100003836
  - # 15
    frequency:   11.8393991866
  - # 16
    frequency:   12.5209790460
  - # 17
    frequency:   16.1288015502
  - # 18
    frequency:   43.6840730261

- q-position: [    0.1161616,    0.0000000,    0.0000000 ]
  distance:    0.0388051
  band:
  - # 1
    frequency:    0.5136041133
  - # 2
    frequency:    1.2079508495
  - # 3
    frequency:    1.9951618210
  - # 4
    frequency:    2.6943249951
  - # 5
    frequency:    3.1130602700
  - # 6
    frequency:    3.9451526199
  - # 7
    frequency:    4.3783011487
  - # 8
    frequency:    5.0550419664
  - # 9
    frequency:    5.8623257242
  - # 10
    frequency:    6.0255830982
  - # 11
    frequency:    7.2307901452
  - # 12
    frequency:    8.2603101722
  - # 13
    frequency:    8.6244776924
  - # 14
    frequency:    9.7851860951
  - # 15
    frequency:   11.8347634735
  - # 16
    frequency:   12.5702541262
  - # 17
    frequency:   16.0943069195
  - # 18
    frequency:   43.6539911063

- q-position: [    0.1212121,    0.0000000,    0.0000000 ]
  distance:    0.0404923
  band:
  - # 1
    frequency:    0.5529411472
  - # 2
    frequency:    1.2598736489
  - # 3
    frequency:    2.0771931490
  - # 4
    frequency:    2.7008309258
  - # 5
    frequency:    3.1443251638
  - # 6
    frequency:    3.9281664697
  - # 7
    frequency:    4.3825990293
  - # 8
    frequency:    5.0593051497
  - # 9
    frequency:    5.8553676893
  - # 10
    frequency:    6.0224245325
  - # 11
    frequency:    7.2358586064
  - # 12
    frequency:    8.2011407035
  - # 13
    frequency:    8.5813223810
  - # 14
    frequency:    9.7596779973
  - # 15
    frequency:   11.8302710539
  - # 16
    frequency:   12.6205200785
  - # 17
    frequency:   16.0590927757
  - # 18
    frequency:   43.6228963061

- q-position: [    0.1262626,    0.0000000,    0.0000000 ]
  distance:    0.0421795
  band:
  - # 1
    frequency:    0.5930732746
  - # 2
    frequency:    1.3115329100
  - # 3
    frequency:    2.1585559273
  - # 4
    frequency:    2.7076031293
  - # 5
    frequency:    3.1744896635
  - # 6
    frequency:    3.9124097932
  - # 7
    frequency:    4.3871286155
  - # 8
    frequency:    5.0597202785
  - # 9
    frequency:    5.8505805352
  - # 10
    frequency:    6.0189940048
  - # 11
    frequency:    7.2409193643
  - # 12
    frequency:    8.1422735747
  - # 13
    frequency:    8.5363492262
  - # 14
    frequency:    9.7335387612
  - # 15
    frequency:   11.8259401491
  - # 16
    frequency:   12.6716343799
  - # 17
    frequency:   16.0232612386
  - # 18
    frequency:   43.5908275297

- q-position: [    0.1313131,    0.0000000,    0.0000000 ]
  distance:    0.0438666
  band:
  - # 1
    frequency:    0.6339207393
  - # 2
    frequency:    1.3628777451
  - # 3
    frequency:    2.2391986093
  - # 4
    frequency:    2.7146304989
  - # 5
    frequency:    3.2030713538
  - # 6
    frequency:    3.8982061255
  - # 7
    frequency:    4.3919008103
  - # 8
    frequency:    5.0559140474
  - # 9
    frequency:    5.8483092356
  - # 10
    frequency:    6.0152608632
  - # 11
    frequency:    7.2458715936
  - # 12
    frequency:    8.0841220721
  - # 13
    frequency:    8.4896090140
  - # 14
    frequency:    9.7068328872
  - # 15
    frequency:   11.8217861633
  - # 16
    frequency:   12.7234514425
  - # 17
    frequency:   15.9869183451
  - # 18
    frequency:   43.5578246612

- q-position: [    0.1363636,    0.0000000,    0.0000000 ]
  distance:    0.0455538
  band:
  - # 1
    frequency:    0.6754018590
  - # 2
    frequency:    1.4138523046
  - # 3
    frequency:    2.3190632645
  - # 4
    frequency:    2.7219001894
  - # 5
    frequency:    3.2295076172
  - # 6
    frequency:    3.8859469615
  - # 7
    frequency:    4.3969271868
  - # 8
    frequency:    5.0476059613
  - # 9
    frequency:    5.8488331519
  - # 10
    frequency:    6.0111899013
  - # 11
    frequency:    7.2505779477
  - # 12
    frequency:    8.0271371793
  - # 13
    frequency:    8.4411628015
  - # 14
    frequency:    9.6796263443
  - # 15
    frequency:   11.8178217274
  - # 16
    frequency:   12.7758227805
  - # 17
    frequency:   15.9501741197
  - # 18
    frequency:   43.5239284918

- q-position: [    0.1414141,    0.0000000,    0.0000000 ]
  distance:    0.0472410
  band:
  - # 1
    frequency:    0.7174325542
  - # 2
    frequency:    1.4643956075
  - # 3
    frequency:    2.3980838721
  - # 4
    frequency:    2.7293976654
  - # 5
    frequency:    3.2531579627
  - # 6
    frequency:    3.8760880776
  - # 7
    frequency:    4.4022197525
  - # 8
    frequency:    5.0346424072
  - # 9
    frequency:    5.8523395850
  - # 10
    frequency:    6.0067408153
  - # 11
    frequency:    7.2548532667
  - # 12
    frequency:    7.9718149854
  - # 13
    frequency:    8.3910826425
  - # 14
    frequency:    9.6519862122
  - # 15
    frequency:   11.8140567910
  - # 16
    frequency:   12.8285971242
  - # 17
    frequency:   15.9131426713
  - # 18
    frequency:   43.4891806461

- q-position: [    0.1464646,    0.0000000,    0.0000000 ]
  distance:    0.0489282
  band:
  - # 1
    frequency:    0.7599258211
  - # 2
    frequency:    1.5144413761
  - # 3
    frequency:    2.4761837337
  - # 4
    frequency:    2.7371067945
  - # 5
    frequency:    3.2733249650
  - # 6
    frequency:    3.8691274696
  - # 7
    frequency:    4.4077906291
  - # 8
    frequency:    5.0170201227
  - # 9
    frequency:    5.8589090504
  - # 10
    frequency:    6.0018676231
  - # 11
    frequency:    7.2584510904
  - # 12
    frequency:    7.9187059507
  - # 13
    frequency:    8.3394523542
  - # 14
    frequency:    9.6239803330
  - # 15
    frequency:   11.8104987574
  - # 16
    frequency:   12.8816204807
  - # 17
    frequency:   15.8759423166
  - # 18
    frequency:   43.4536235080

- q-position: [    0.1515152,    0.0000000,    0.0000000 ]
  distance:    0.0506154
  band:
  - # 1
    frequency:    0.8027911372
  - # 2
    frequency:    1.5639178743
  - # 3
    frequency:    2.5532713129
  - # 4
    frequency:    2.7450099948
  - # 5
    frequency:    3.2893033797
  - # 6
    frequency:    3.8655559112
  - # 7
    frequency:    4.4136516350
  - # 8
    frequency:    4.9948955264
  - # 9
    frequency:    5.8685158147
  - # 10
    frequency:    5.9965180562
  - # 11
    frequency:    7.2610492806
  - # 12
    frequency:    7.8684248751
  - # 13
    frequency:    8.2863683330
  - # 14
    frequency:    9.5956769705
  - # 15
    frequency:   11.8071526542
  - # 16
    frequency:   12.9347361419
  - # 17
    frequency:   15.8386957296
  - # 18
    frequency:   43.4173001464

- q-position: [    0.1565657,    0.0000000,    0.0000000 ]
  distance:    0.0523025
  band:
  - # 1
    frequency:    0.8459337864
  - # 2
    frequency:    1.6127477434
  - # 3
    frequency:    2.6292331217
  - # 4
    frequency:    2.7530884441
  - # 5
    frequency:    3.3004613996
  - # 6
    frequency:    3.8657773815
  - # 7
    frequency:    4.4198137491
  - # 8
    frequency:    4.9685811196
  - # 9
    frequency:    5.8810424827
  - # 10
    frequency:    5.9906329385
  - # 11
    frequency:    7.2622386112
  - # 12
    frequency:    7.8216579064
  - # 13
    frequency:    8.2319404241
  - # 14
    frequency:    9.5671444833
  - # 15
    frequency:   11.8040213341
  - # 16
    frequency:   12.9877846417
  - # 17
    frequency:   15.8015301144
  - # 18
    frequency:   43.3802542404

- q-position: [    0.1616162,    0.0000000,    0.0000000 ]
  distance:    0.0539897
  band:
  - # 1
    frequency:    0.8892540826
  - # 2
    frequency:    1.6608478290
  - # 3
    frequency:    2.7039207544
  - # 4
    frequency:    2.7613223606
  - # 5
    frequency:    3.3063442822
  - # 6
    frequency:    3.8700118347
  - # 7
    frequency:    4.4262864376
  - # 8
    frequency:    4.9385340519
  - # 9
    frequency:    5.8963035478
  - # 10
    frequency:    5.9841455772
  - # 11
    frequency:    7.2615227546
  - # 12
    frequency:    7.7791583834
  - # 13
    frequency:    8.1762928444
  - # 14
    frequency:    9.5384510113
  - # 15
    frequency:   11.8011056976
  - # 16
    frequency:   13.0406036707
  - # 17
    frequency:   15.7645773954
  - # 18
    frequency:   43.3425300053

- q-position: [    0.1666667,    0.0000000,    0.0000000 ]
  distance:    0.0556769
  band:
  - # 1
    frequency:    0.9326464708
  - # 2
    frequency:    1.7081289912
  - # 3
    frequency:    2.7696913659
  - # 4
    frequency:    2.7771254989
  - # 5
    frequency:    3.3067766111
  - # 6
    frequency:    3.8782103994
  - # 7
    frequency:    4.4330768178
  - # 8
    frequency:    4.9053432676
  - # 9
    frequency:    5.9140715141
  - # 10
    frequency:    5.9769812028
  - # 11
    frequency:    7.2583440767
  - # 12
    frequency:    7.7417173338
  - # 13
    frequency:    8.1195651480
  - # 14
    frequency:    9.5096641814
  - # 15
    frequency:   11.7984049308
  - # 16
    frequency:   13.0930279576
  - # 17
    frequency:   15.7279744148
  - # 18
    frequency:   43.3041721181

- q-position: [    0.1717172,    0.0000000,    0.0000000 ]
  distance:    0.0573641
  band:
  - # 1
    frequency:    0.9759984757
  - # 2
    frequency:    1.7544958863
  - # 3
    frequency:    2.7781749405
  - # 4
    frequency:    2.8485243270
  - # 5
    frequency:    3.3019456621
  - # 6
    frequency:    3.8900165588
  - # 7
    frequency:    4.4401886316
  - # 8
    frequency:    4.8697204404
  - # 9
    frequency:    5.9341003813
  - # 10
    frequency:    5.9690565132
  - # 11
    frequency:    7.2521523475
  - # 12
    frequency:    7.7100917452
  - # 13
    frequency:    8.0619132127
  - # 14
    frequency:    9.4808508327
  - # 15
    frequency:   11.7959167519
  - # 16
    frequency:   13.1448891354
  - # 17
    frequency:   15.6918631224
  - # 18
    frequency:   43.2652256441

- q-position: [    0.1767677,    0.0000000,    0.0000000 ]
  distance:    0.0590513
  band:
  - # 1
    frequency:    1.0191894640
  - # 2
    frequency:    1.7998467087
  - # 3
    frequency:    2.7867529813
  - # 4
    frequency:    2.9175530328
  - # 5
    frequency:    3.2924973766
  - # 6
    frequency:    3.9047860603
  - # 7
    frequency:    4.4476209984
  - # 8
    frequency:    4.8324973892
  - # 9
    frequency:    5.9561436477
  - # 10
    frequency:    5.9602794002
  - # 11
    frequency:    7.2425220161
  - # 12
    frequency:    7.6848851429
  - # 13
    frequency:    8.0035102047
  - # 14