nqpoint: 300    
npath: 3      
segment_nqpoint:
- 100
- 100
- 100
labels:
- [ 'G', 'M' ]
- [ 'M', 'K' ]
- [ 'K', 'G' ]
reciprocal_lattice:
- [   0.26818174,   0.15483480,   0.00000000 ] # a*
- [   0.00000000,   0.30966960,   0.00000000 ] # b*
- [   0.00000000,   0.00000000,   0.03850737 ] # c*
natom: 7      
lattice:
- [     3.728814628402523,     0.000000000000000,     0.000000000000000 ] # a
- [    -1.864407314201261,     3.229248194207669,     0.000000000000000 ] # b
- [     0.000000000000000,     0.000000000000000,    25.969055227788772 ] # c
points:
- symbol: Cl # 1
  coordinates: [  0.666666984744047,  0.333332985985145,  0.346566323690103 ]
  mass: 35.453000
- symbol: N # 2
  coordinates: [  0.000000000000000,  0.000000000000000,  0.522625883395616 ]
  mass: 14.006700
- symbol: N # 3
  coordinates: [  0.333332985432215,  0.666666983183674,  0.604955904889012 ]
  mass: 14.006700
- symbol: O # 4
  coordinates: [  0.333332985432215,  0.666666983183674,  0.653433676309897 ]
  mass: 15.999400
- symbol: O # 5
  coordinates: [  0.666666984744047,  0.333332985985145,  0.450556004674365 ]
  mass: 15.999400
- symbol: Y # 6
  coordinates: [  0.333332985432215,  0.666666983183674,  0.422735175449729 ]
  mass: 88.905850
- symbol: Y # 7
  coordinates: [  0.666666984744047,  0.333332985985145,  0.543231152727982 ]
  mass: 88.905850

phonon:
- q-position: [    0.0000000,    0.0000000,    0.0000000 ]
  distance:    0.0000000
  band:
  - # 1
    frequency:   -1.7304533300
  - # 2
    frequency:   -1.7304533300
  - # 3
    frequency:   -0.0000145675
  - # 4
    frequency:    0.0000002496
  - # 5
    frequency:    0.0000140146
  - # 6
    frequency:    0.6116033033
  - # 7
    frequency:    0.6116033034
  - # 8
    frequency:    2.1267013150
  - # 9
    frequency:    2.6055667877
  - # 10
    frequency:    2.6055667878
  - # 11
    frequency:    3.7392025783
  - # 12
    frequency:    4.8111474345
  - # 13
    frequency:    4.8111474345
  - # 14
    frequency:    7.8661407221
  - # 15
    frequency:    9.8798250602
  - # 16
    frequency:    9.8798250602
  - # 17
    frequency:   10.8075140433
  - # 18
    frequency:   14.5644222261
  - # 19
    frequency:   14.5644222261
  - # 20
    frequency:   14.8071678476
  - # 21
    frequency:   49.0203759132

- q-position: [    0.0050505,    0.0000000,    0.0000000 ]
  distance:    0.0015640
  band:
  - # 1
    frequency:   -1.7314313530
  - # 2
    frequency:   -1.7308553384
  - # 3
    frequency:    0.0009264254
  - # 4
    frequency:    0.0252567850
  - # 5
    frequency:    0.0674087402
  - # 6
    frequency:    0.6117859814
  - # 7
    frequency:    0.6131994957
  - # 8
    frequency:    2.1275743649
  - # 9
    frequency:    2.6062113393
  - # 10
    frequency:    2.6081171684
  - # 11
    frequency:    3.7386337238
  - # 12
    frequency:    4.8112021070
  - # 13
    frequency:    4.8114588930
  - # 14
    frequency:    7.8651502785
  - # 15
    frequency:    9.8771068088
  - # 16
    frequency:    9.8795155645
  - # 17
    frequency:   10.8103943361
  - # 18
    frequency:   14.5643572176
  - # 19
    frequency:   14.5645504281
  - # 20
    frequency:   14.8075097667
  - # 21
    frequency:   49.0196663976

- q-position: [    0.0101010,    0.0000000,    0.0000000 ]
  distance:    0.0031280
  band:
  - # 1
    frequency:   -1.7344043915
  - # 2
    frequency:   -1.7320599352
  - # 3
    frequency:    0.0037363315
  - # 4
    frequency:    0.0499581233
  - # 5
    frequency:    0.1344389628
  - # 6
    frequency:    0.6123858574
  - # 7
    frequency:    0.6182284052
  - # 8
    frequency:    2.1301784906
  - # 9
    frequency:    2.6081422677
  - # 10
    frequency:    2.6157314071
  - # 11
    frequency:    3.7369345123
  - # 12
    frequency:    4.8113651332
  - # 13
    frequency:    4.8123888655
  - # 14
    frequency:    7.8621787985
  - # 15
    frequency:    9.8690568980
  - # 16
    frequency:    9.8785874954
  - # 17
    frequency:   10.8189315610
  - # 18
    frequency:   14.5641621337
  - # 19
    frequency:   14.5649033487
  - # 20
    frequency:   14.8085659435
  - # 21
    frequency:   49.0175387395

- q-position: [    0.0151515,    0.0000000,    0.0000000 ]
  distance:    0.0046920
  band:
  - # 1
    frequency:   -1.7394854238
  - # 2
    frequency:   -1.7340628538
  - # 3
    frequency:    0.0084529224
  - # 4
    frequency:    0.0735260949
  - # 5
    frequency:    0.2006853274
  - # 6
    frequency:    0.6135579338
  - # 7
    frequency:    0.6273829113
  - # 8
    frequency:    2.1344699832
  - # 9
    frequency:    2.6113514515
  - # 10
    frequency:    2.6282999946
  - # 11
    frequency:    3.7341272122
  - # 12
    frequency:    4.8116335501
  - # 13
    frequency:    4.8139242704
  - # 14
    frequency:    7.8572258872
  - # 15
    frequency:    9.8559723299
  - # 16
    frequency:    9.8770421064
  - # 17
    frequency:   10.8328322422
  - # 18
    frequency:   14.5638367985
  - # 19
    frequency:   14.5653872772
  - # 20
    frequency:   14.8104263030
  - # 21
    frequency:   49.0139956027

- q-position: [    0.0202020,    0.0000000,    0.0000000 ]
  distance:    0.0062560
  band:
  - # 1
    frequency:   -1.7468497824
  - # 2
    frequency:   -1.7368570452
  - # 3
    frequency:    0.0151056260
  - # 4
    frequency:    0.0953407912
  - # 5
    frequency:    0.2657044240
  - # 6
    frequency:    0.6155574860
  - # 7
    frequency:    0.6417174990
  - # 8
    frequency:    2.1403802703
  - # 9
    frequency:    2.6158255434
  - # 10
    frequency:    2.6456442399
  - # 11
    frequency:    3.7302496875
  - # 12
    frequency:    4.8120024552
  - # 13
    frequency:    4.8160437249
  - # 14
    frequency:    7.8502910618
  - # 15
    frequency:    9.8382962073
  - # 16
    frequency:    9.8748814854
  - # 17
    frequency:   10.8516590095
  - # 18
    frequency:   14.5633809165
  - # 19
    frequency:   14.5658509497
  - # 20
    frequency:   14.8132358403
  - # 21
    frequency:   49.0090414222

- q-position: [    0.0252525,    0.0000000,    0.0000000 ]
  distance:    0.0078199
  band:
  - # 1
    frequency:   -1.7567163340
  - # 2
    frequency:   -1.7404327673
  - # 3
    frequency:    0.0236976353
  - # 4
    frequency:    0.1147274185
  - # 5
    frequency:    0.3290442565
  - # 6
    frequency:    0.6187309159
  - # 7
    frequency:    0.6624764583
  - # 8
    frequency:    2.1478215013
  - # 9
    frequency:    2.6215462421
  - # 10
    frequency:    2.6675213972
  - # 11
    frequency:    3.7253566600
  - # 12
    frequency:    4.8124650595
  - # 13
    frequency:    4.8187181499
  - # 14
    frequency:    7.8413740146
  - # 15
    frequency:    9.8165586812
  - # 16
    frequency:    9.8721085529
  - # 17
    frequency:   10.8748894356
  - # 18
    frequency:   14.5627940696
  - # 19
    frequency:   14.5660942574
  - # 20
    frequency:   14.8171859718
  - # 21
    frequency:   49.0026823958

- q-position: [    0.0303030,    0.0000000,    0.0000000 ]
  distance:    0.0093839
  band:
  - # 1
    frequency:   -1.7693228275
  - # 2
    frequency:   -1.7447777043
  - # 3
    frequency:    0.0341790969
  - # 4
    frequency:    0.1309542904
  - # 5
    frequency:    0.3903473979
  - # 6
    frequency:    0.6234944897
  - # 7
    frequency:    0.6908234943
  - # 8
    frequency:    2.1566930063
  - # 9
    frequency:    2.6284906537
  - # 10
    frequency:    2.6936306634
  - # 11
    frequency:    3.7195217667
  - # 12
    frequency:    4.8130127617
  - # 13
    frequency:    4.8219115702
  - # 14
    frequency:    7.8304749784
  - # 15
    frequency:    9.7913209093
  - # 16
    frequency:    9.8687270589
  - # 17
    frequency:   10.9019717771
  - # 18
    frequency:   14.5620757127
  - # 19
    frequency:   14.5658823469
  - # 20
    frequency:   14.8225005155
  - # 21
    frequency:   48.9949264735

- q-position: [    0.0353535,    0.0000000,    0.0000000 ]
  distance:    0.0109479
  band:
  - # 1
    frequency:   -1.7848978630
  - # 2
    frequency:   -1.7498771093
  - # 3
    frequency:    0.0464310977
  - # 4
    frequency:    0.1432439979
  - # 5
    frequency:    0.4495321996
  - # 6
    frequency:    0.6302953646
  - # 7
    frequency:    0.7274959194
  - # 8
    frequency:    2.1668878119
  - # 9
    frequency:    2.6366317224
  - # 10
    frequency:    2.7236189594
  - # 11
    frequency:    3.7128407330
  - # 12
    frequency:    4.8136352411
  - # 13
    frequency:    4.8255820720
  - # 14
    frequency:    7.8175951934
  - # 15
    frequency:    9.7631320672
  - # 16
    frequency:    9.8647415793
  - # 17
    frequency:   10.9323675810
  - # 18
    frequency:   14.5612251682
  - # 19
    frequency:   14.5649653072
  - # 20
    frequency:   14.8294161044
  - # 21
    frequency:   48.9857833436

- q-position: [    0.0404040,    0.0000000,    0.0000000 ]
  distance:    0.0125119
  band:
  - # 1
    frequency:   -1.8036330619
  - # 2
    frequency:   -1.7557139659
  - # 3
    frequency:    0.0602695310
  - # 4
    frequency:    0.1507920645
  - # 5
    frequency:    0.5069597912
  - # 6
    frequency:    0.6395541829
  - # 7
    frequency:    0.7725097182
  - # 8
    frequency:    2.1782986461
  - # 9
    frequency:    2.6459387118
  - # 10
    frequency:    2.7570852543
  - # 11
    frequency:    3.7054361306
  - # 12
    frequency:    4.8143205689
  - # 13
    frequency:    4.8296828723
  - # 14
    frequency:    7.8027374708
  - # 15
    frequency:    9.7325022207
  - # 16
    frequency:    9.8601575119
  - # 17
    frequency:   10.9655783524
  - # 18
    frequency:   14.5602416200
  - # 19
    frequency:   14.5631016432
  - # 20
    frequency:   14.8381588301
  - # 21
    frequency:   48.9752644158

- q-position: [    0.0454545,    0.0000000,    0.0000000 ]
  distance:    0.0140759
  band:
  - # 1
    frequency:   -1.8256596009
  - # 2
    frequency:   -1.7622691612
  - # 3
    frequency:    0.0754685198
  - # 4
    frequency:    0.1527699332
  - # 5
    frequency:    0.5634153739
  - # 6
    frequency:    0.6515985939
  - # 7
    frequency:    0.8251135551
  - # 8
    frequency:    2.1908231575
  - # 9
    frequency:    2.6563777155
  - # 10
    frequency:    2.7935821017
  - # 11
    frequency:    3.6974643787
  - # 12
    frequency:    4.8150553368
  - # 13
    frequency:    4.8341634585
  - # 14
    frequency:    7.7859068459
  - # 15
    frequency:    9.6998889562
  - # 16
    frequency:    9.8549810699
  - # 17
    frequency:   11.0011583915
  - # 18
    frequency:   14.5591241065
  - # 19
    frequency:   14.5600814928
  - # 20
    frequency:   14.8489211552
  - # 21
    frequency:   48.9633828009

- q-position: [    0.0505051,    0.0000000,    0.0000000 ]
  distance:    0.0156399
  band:
  - # 1
    frequency:   -1.8510328234
  - # 2
    frequency:   -1.7695216650
  - # 3
    frequency:    0.0917930486
  - # 4
    frequency:    0.1482582850
  - # 5
    frequency:    0.6198512952
  - # 6
    frequency:    0.6666074408
  - # 7
    frequency:    0.8840508989
  - # 8
    frequency:    2.2043683266
  - # 9
    frequency:    2.6679121748
  - # 10
    frequency:    2.8326130125
  - # 11
    frequency:    3.6891258971
  - # 12
    frequency:    4.8158248008
  - # 13
    frequency:    4.8389707591
  - # 14
    frequency:    7.7671113127
  - # 15
    frequency:    9.6656937516
  - # 16
    frequency:    9.8492192762
  - # 17
    frequency:   11.0387178266
  - # 18
    frequency:   14.5557445056
  - # 19
    frequency:   14.5578715131
  - # 20
    frequency:   14.8618441757
  - # 21
    frequency:   48.9501532887

- q-position: [    0.0555556,    0.0000000,    0.0000000 ]
  distance:    0.0172039
  band:
  - # 1
    frequency:   -1.8797270581
  - # 2
    frequency:   -1.7774487108
  - # 3
    frequency:    0.1090275503
  - # 4
    frequency:    0.1359868347
  - # 5
    frequency:    0.6770705988
  - # 6
    frequency:    0.6845864481
  - # 7
    frequency:    0.9479366102
  - # 8
    frequency:    2.2188542089
  - # 9
    frequency:    2.6805033862
  - # 10
    frequency:    2.8736242219
  - # 11
    frequency:    3.6806796163
  - # 12
    frequency:    4.8166130390
  - # 13
    frequency:    4.8440503124
  - # 14
    frequency:    7.7463626258
  - # 15
    frequency:    9.6302641824
  - # 16
    frequency:    9.8428799551
  - # 17
    frequency:   11.0779197594
  - # 18
    frequency:   14.5499885578
  - # 19
    frequency:   14.5564825649
  - # 20
    frequency:   14.8770090545
  - # 21
    frequency:   48.9355923216

- q-position: [    0.0606061,    0.0000000,    0.0000000 ]
  distance:    0.0187679
  band:
  - # 1
    frequency:   -1.9116405453
  - # 2
    frequency:   -1.7860259741
  - # 3
    frequency:    0.1134597161
  - # 4
    frequency:    0.1269923969
  - # 5
    frequency:    0.7053834662
  - # 6
    frequency:    0.7355531240
  - # 7
    frequency:    1.0155186800
  - # 8
    frequency:    2.2342172292
  - # 9
    frequency:    2.6941109824
  - # 10
    frequency:    2.9159893691
  - # 11
    frequency:    3.6724633021
  - # 12
    frequency:    4.8174031208
  - # 13
    frequency:    4.8493474080
  - # 14
    frequency:    7.7236771545
  - # 15
    frequency:    9.5938990138
  - # 16
    frequency:    9.8359717235
  - # 17
    frequency:   11.1184744866
  - # 18
    frequency:   14.5427685791
  - # 19
    frequency:   14.5549558191
  - # 20
    frequency:   14.8944383463
  - # 21
    frequency:   48.9197179662

- q-position: [    0.0656566,    0.0000000,    0.0000000 ]
  distance:    0.0203318
  band:
  - # 1
    frequency:   -1.9466083024
  - # 2
    frequency:   -1.7952277454
  - # 3
    frequency:    0.0725361519
  - # 4
    frequency:    0.1455478882
  - # 5
    frequency:    0.7287330625
  - # 6
    frequency:    0.7954547910
  - # 7
    frequency:    1.0857677256
  - # 8
    frequency:    2.2504132725
  - # 9
    frequency:    2.7086933738
  - # 10
    frequency:    2.9589858388
  - # 11
    frequency:    3.6649210793
  - # 12
    frequency:    4.8181772866
  - # 13
    frequency:    4.8548081864
  - # 14
    frequency:    7.6990767658
  - # 15
    frequency:    9.5568542761
  - # 16
    frequency:    9.8285039810
  - # 17
    frequency:   11.1601327190
  - # 18
    frequency:   14.5340878971
  - # 19
    frequency:   14.5532896578
  - # 20
    frequency:   14.9141048079
  - # 21
    frequency:   48.9025498825

- q-position: [    0.0707071,    0.0000000,    0.0000000 ]
  distance:    0.0218958
  band:
  - # 1
    frequency:   -1.9844195650
  - # 2
    frequency:   -1.8050270966
  - # 3
    frequency:   -0.0641009567
  - # 4
    frequency:    0.1645900151
  - # 5
    frequency:    0.7543103723
  - # 6
    frequency:    0.8566972415
  - # 7
    frequency:    1.1578592239
  - # 8
    frequency:    2.2674208092
  - # 9
    frequency:    2.7242081425
  - # 10
    frequency:    3.0017627758
  - # 11
    frequency:    3.6586383794
  - # 12
    frequency:    4.8189171350
  - # 13
    frequency:    4.8603806852
  - # 14
    frequency:    7.6725897140
  - # 15
    frequency:    9.5193492504
  - # 16
    frequency:    9.8204868980
  - # 17
    frequency:   11.2026788913
  - # 18
    frequency:   14.5239860019
  - # 19
    frequency:   14.5514822815
  - # 20
    frequency:   14.9359437874
  - # 21
    frequency:   48.8841092894

- q-position: [    0.0757576,    0.0000000,    0.0000000 ]
  distance:    0.0234598
  band:
  - # 1
    frequency:   -2.0248363408
  - # 2
    frequency:   -1.8153960393
  - # 3
    frequency:   -0.1222892838
  - # 4
    frequency:    0.1840429127
  - # 5
    frequency:    0.7817772077
  - # 6
    frequency:    0.9190699558
  - # 7
    frequency:    1.2311191647
  - # 8
    frequency:    2.2852442649
  - # 9
    frequency:    2.7406123822
  - # 10
    frequency:    3.0433047714
  - # 11
    frequency:    3.6543805968
  - # 12
    frequency:    4.8196038162
  - # 13
    frequency:    4.8660158339
  - # 14
    frequency:    7.6442515066
  - # 15
    frequency:    9.4815718513
  - # 16
    frequency:    9.8119314027
  - # 17
    frequency:   11.2459251005
  - # 18
    frequency:   14.5125262465
  - # 19
    frequency:   14.5495317036
  - # 20
    frequency:   14.9598656745
  - # 21
    frequency:   48.8644189285

- q-position: [    0.0808081,    0.0000000,    0.0000000 ]
  distance:    0.0250238
  band:
  - # 1
    frequency:   -2.0676103618
  - # 2
    frequency:   -1.8263056755
  - # 3
    frequency:   -0.1642451619
  - # 4
    frequency:    0.2038513324
  - # 5
    frequency:    0.8108129250
  - # 6
    frequency:    0.9823093108
  - # 7
    frequency:    1.3049693689
  - # 8
    frequency:    2.3039177889
  - # 9
    frequency:    2.7578629836
  - # 10
    frequency:    3.0824048601
  - # 11
    frequency:    3.6531221207
  - # 12
    frequency:    4.8202182290
  - # 13
    frequency:    4.8716684010
  - # 14
    frequency:    7.6141057183
  - # 15
    frequency:    9.4436832263
  - # 16
    frequency:    9.8028491668
  - # 17
    frequency:   11.2897058782
  - # 18
    frequency:   14.4997856066
  - # 19
    frequency:   14.5474357455
  - # 20
    frequency:   14.9857662883
  - # 21
    frequency:   48.8435030250

- q-position: [    0.0858586,    0.0000000,    0.0000000 ]
  distance:    0.0265878
  band:
  - # 1
    frequency:   -2.1124968318
  - # 2
    frequency:   -1.8377263404
  - # 3
    frequency:   -0.1997034004
  - # 4
    frequency:    0.2239746185
  - # 5
    frequency:    0.8411305369
  - # 6
    frequency:    1.0461484126
  - # 7
    frequency:    1.3788833578
  - # 8
    frequency:    2.3235094646
  - # 9
    frequency:    2.7759168649
  - # 10
    frequency:    3.1176780491
  - # 11
    frequency:    3.6560348363
  - # 12
    frequency:    4.8207412198
  - # 13
    frequency:    4.8772979057
  - # 14
    frequency:    7.5822047191
  - # 15
    frequency:    9.4058215743
  - # 16
    frequency:    9.7932525894
  - # 17
    frequency:   11.3338738203
  - # 18
    frequency:   14.4858472193
  - # 19
    frequency:   14.5451920346
  - # 20
    frequency:   15.0135344812
  - # 21
    frequency:   48.8213872464

- q-position: [    0.0909091,    0.0000000,    0.0000000 ]
  distance:    0.0281518
  band:
  - # 1
    frequency:   -2.1592644088
  - # 2
    frequency:   -1.8496277394
  - # 3
    frequency:   -0.2310738493
  - # 4
    frequency:    0.2443824471
  - # 5
    frequency:    0.8724821445
  - # 6
    frequency:    1.1103433390
  - # 7
    frequency:    1.4523528963
  - # 8
    frequency:    2.3441257791
  - # 9
    frequency:    2.7947311499
  - # 10
    frequency:    3.1476653595
  - # 11
    frequency:    3.6643864613
  - # 12
    frequency:    4.8211537814
  - # 13
    frequency:    4.8828695099
  - # 14
    frequency:    7.5486102874
  - # 15
    frequency:    9.3681052726
  - # 16
    frequency:    9.7831547789
  - # 17
    frequency:   11.3782960075
  - # 18
    frequency:   14.4707955147
  - # 19
    frequency:   14.5427980021
  - # 20
    frequency:   15.0430571454
  - # 21
    frequency:   48.7980986590

- q-position: [    0.0959596,    0.0000000,    0.0000000 ]
  distance:    0.0297158
  band:
  - # 1
    frequency:   -2.2077016061
  - # 2
    frequency:   -1.8619790774
  - # 3
    frequency:   -0.2593583949
  - # 4
    frequency:    0.2650520241
  - # 5
    frequency:    0.9046580490
  - # 6
    frequency:    1.1746836350
  - # 7
    frequency:    1.5248626667
  - # 8
    frequency:    2.3659157437
  - # 9
    frequency:    2.8142632998
  - # 10
    frequency:    3.1710675356
  - # 11
    frequency:    3.6793099593
  - # 12
    frequency:    4.8214372497
  - # 13
    frequency:    4.8883549125
  - # 14
    frequency:    7.5133940799
  - # 15
    frequency:    9.3306354351
  - # 16
    frequency:    9.7725695339
  - # 17
    frequency:   11.4228511177
  - # 18
    frequency:   14.4547133694
  - # 19
    frequency:   14.5402508848
  - # 20
    frequency:   15.0742221928
  - # 21
    frequency:   48.7736656817

- q-position: [    0.1010101,    0.0000000,    0.0000000 ]
  distance:    0.0312798
  band:
  - # 1
    frequency:   -2.2576201993
  - # 2
    frequency:   -1.8747491845
  - # 3
    frequency:   -0.2850802660
  - # 4
    frequency:    0.2859663046
  - # 5
    frequency:    0.9374828044
  - # 6
    frequency:    1.2389935714
  - # 7
    frequency:    1.5958711401
  - # 8
    frequency:    2.3890732819
  - # 9
    frequency:    2.8344712030
  - # 10
    frequency:    3.1870642311
  - # 11
    frequency:    3.7014887439
  - # 12
    frequency:    4.8215734964
  - # 13
    frequency:    4.8937332709
  - # 14
    frequency:    7.4766379331
  - # 15
    frequency:    9.2934980236
  - # 16
    frequency:    9.7615113221
  - # 17
    frequency:   11.4674271224
  - # 18
    frequency:   14.4376806630
  - # 19
    frequency:   14.5375477277
  - # 20
    frequency:   15.1069201270
  - # 21
    frequency:   48.7481180384

- q-position: [    0.1060606,    0.0000000,    0.0000000 ]
  distance:    0.0328437
  band:
  - # 1
    frequency:   -2.3088563594
  - # 2
    frequency:   -1.8879066363
  - # 3
    frequency:   -0.3085542599
  - # 4
    frequency:    0.3071128487
  - # 5
    frequency:    0.9708102251
  - # 6
    frequency:    1.3031286255
  - # 7
    frequency:    1.6647974939
  - # 8
    frequency:    2.4138352316
  - # 9
    frequency:    2.8553132298
  - # 10
    frequency:    3.1955527076
  - # 11
    frequency:    3.7309243780
  - # 12
    frequency:    4.8215451166
  - # 13
    frequency:    4.8989921826
  - # 14
    frequency:    7.4384339790
  - # 15
    frequency:    9.2567656241
  - # 16
    frequency:    9.7499952571
  - # 17
    frequency:   11.5119194664
  - # 18
    frequency:   14.4197737246
  - # 19
    frequency:   14.5346853901
  - # 20
    frequency:   15.1410447243
  - # 21
    frequency:   48.7214867081

- q-position: [    0.1111111,    0.0000000,    0.0000000 ]
  distance:    0.0344077
  band:
  - # 1
    frequency:   -2.3612701967
  - # 2
    frequency:   -1.9014198694
  - # 3
    frequency:   -0.3299893591
  - # 4
    frequency:    0.3284830348
  - # 5
    frequency:    1.0045184196
  - # 6
    frequency:    1.3669698820
  - # 7
    frequency:    1.7310166372
  - # 8
    frequency:    2.4404704480
  - # 9
    frequency:    2.8767482576
  - # 10
    frequency:    3.1971413846
  - # 11
    frequency:    3.7669525560
  - # 12
    frequency:    4.8213356089
  - # 13
    frequency:    4.9041287623
  - # 14
    frequency:    7.3988845644
  - # 15
    frequency:    9.2204989808
  - # 16
    frequency:    9.7380370740
  - # 17
    frequency:   11.5562296432
  - # 18
    frequency:   14.4010652995
  - # 19
    frequency:   14.5316605540
  - # 20
    frequency:   15.1764931911
  - # 21
    frequency:   48.6938038733

- q-position: [    0.1161616,    0.0000000,    0.0000000 ]
  distance:    0.0359717
  band:
  - # 1
    frequency:   -2.4147442843
  - # 2
    frequency:   -1.9152572943
  - # 3
    frequency:   -0.3495345276
  - # 4
    frequency:    0.3500714520
  - # 5
    frequency:    1.0385053330
  - # 6
    frequency:    1.4304177655
  - # 7
    frequency:    1.7938665227
  - # 8
    frequency:    2.4692532859
  - # 9
    frequency:    2.8987356739
  - # 10
    frequency:    3.1929203722
  - # 11
    frequency:    3.8084870251
  - # 12
    frequency:    4.8209295468
  - # 13
    frequency:    4.9091508613
  - # 14
    frequency:    7.3581019701
  - # 15
    frequency:    9.1847483597
  - # 16
    frequency:    9.7256531026
  - # 17
    frequency:   11.6002640888
  - # 18
    frequency:   14.3816247911
  - # 19
    frequency:   14.5284697351
  - # 20
    frequency:   15.2131660473
  - # 21
    frequency:   48.6651028664

- q-position: [    0.1212121,    0.0000000,    0.0000000 ]
  distance:    0.0375357
  band:
  - # 1
    frequency:   -2.4691815937
  - # 2
    frequency:   -1.9293874029
  - # 3
    frequency:   -0.3673015890
  - # 4
    frequency:    0.3718753626
  - # 5
    frequency:    1.0726849540
  - # 6
    frequency:    1.4933856475
  - # 7
    frequency:    1.8526728854
  - # 8
    frequency:    2.5004130825
  - # 9
    frequency:    2.9212353615
  - # 10
    frequency:    3.1841897769
  - # 11
    frequency:    3.8543135761
  - # 12
    frequency:    4.8203127414
  - # 13
    frequency:    4.9140784810
  - # 14
    frequency:    7.3162079332
  - # 15
    frequency:    9.1495547933
  - # 16
    frequency:    9.7128602399
  - # 17
    frequency:   11.6439333320
  - # 18
    frequency:   14.3615186298
  - # 19
    frequency:   14.5251092977
  - # 20
    frequency:   15.2509668842
  - # 21
    frequency:   48.6354181152

- q-position: [    0.1262626,    0.0000000,    0.0000000 ]
  distance:    0.0390997
  band:
  - # 1
    frequency:   -2.5245031471
  - # 2
    frequency:   -1.9437788733
  - # 3
    frequency:   -0.3833776742
  - # 4
    frequency:    0.3938941743
  - # 5
    frequency:    1.1069841843
  - # 6
    frequency:    1.5557932422
  - # 7
    frequency:    1.9067944558
  - # 8
    frequency:    2.5340518516
  - # 9
    frequency:    2.9442076720
  - # 10
    frequency:    3.1722932355
  - # 11
    frequency:    3.9032914379
  - # 12
    frequency:    4.8194723919
  - # 13
    frequency:    4.9189454433
  - # 14
    frequency:    7.2733329862
  - # 15
    frequency:    9.1149512423
  - # 16
    frequency:    9.6996759196
  - # 17
    frequency:   11.6871513483
  - # 18
    frequency:   14.3408106817
  - # 19
    frequency:   14.5215754718
  - # 20
    frequency:   15.2898020859
  - # 21
    frequency:   48.6047850862

- q-position: [    0.1313131,    0.0000000,    0.0000000 ]
  distance:    0.0406637
  band:
  - # 1
    frequency:   -2.5806455924
  - # 2
    frequency:   -1.9584006696
  - # 3
    frequency:   -0.3978324635
  - # 4
    frequency:    0.4161288879
  - # 5
    frequency:    1.1413402988
  - # 6
    frequency:    1.6175591247
  - # 7
    frequency:    1.9556849430
  - # 8
    frequency:    2.5700267390
  - # 9
    frequency:    2.9676133920
  - # 10
    frequency:    3.1585885975
  - # 11
    frequency:    3.9544378041
  - # 12
    frequency:    4.8183972257
  - # 13
    frequency:    4.9238013884
  - # 14
    frequency:    7.2296156273
  - # 15
    frequency:    9.0809636959
  - # 16
    frequency:    9.6861180808
  - # 17
    frequency:   11.7298350761
  - # 18
    frequency:   14.3195626507
  - # 19
    frequency:   14.5178643738
  - # 20
    frequency:   15.3295805621
  - # 21
    frequency:   48.5732402274

- q-position: [    0.1363636,    0.0000000,    0.0000000 ]
  distance:    0.0422277
  band:
  - # 1
    frequency:   -2.6375588264
  - # 2
    frequency:   -1.9732221377
  - # 3
    frequency:   -0.4107226306
  - # 4
    frequency:    0.4385815020
  - # 5
    frequency:    1.1756989054
  - # 6
    frequency:    1.6785908824
  - # 7
    frequency:    1.9989582325
  - # 8
    frequency:    2.6078010037
  - # 9
    frequency:    2.9914137047
  - # 10
    frequency:    3.1445265772
  - # 11
    frequency:    4.0069357247
  - # 12
    frequency:    4.8170776252
  - # 13
    frequency:    4.9287141748
  - # 14
    frequency:    7.1852013467
  - # 15
    frequency:    9.0476122192
  - # 16
    frequency:    9.6722051352
  - # 17
    frequency:   11.7719040584
  - # 18
    frequency:   14.2978344549
  - # 19
    frequency:   14.5139720303
  - # 20
    frequency:   15.3702135140
  - # 21
    frequency:   48.5408209089

- q-position: [    0.1414141,    0.0000000,    0.0000000 ]
  distance:    0.0437917
  band:
  - # 1
    frequency:   -2.6952037418
  - # 2
    frequency:   -1.9882130962
  - # 3
    frequency:   -0.4220946809
  - # 4
    frequency:    0.4612543618
  - # 5
    frequency:    1.2100123142
  - # 6
    frequency:    1.7387698062
  - # 7
    frequency:    2.0364375759
  - # 8
    frequency:    2.6462746812
  - # 9
    frequency:    3.0155701514
  - # 10
    frequency:    3.1318054720
  - # 11
    frequency:    4.0601081948
  - # 12
    frequency:    4.8155057415
  - # 13
    frequency:    4.9337727492
  - # 14
    frequency:    7.1402415318
  - # 15
    frequency:    9.0149119511
  - # 16
    frequency:    9.6579559321
  - # 17
    frequency:   11.8132801838
  - # 18
    frequency:   14.2756845658
  - # 19
    frequency:   14.5098944052
  - # 20
    frequency:   15.4116142426
  - # 21
    frequency:   48.5075653640

- q-position: [    0.1464646,    0.0000000,    0.0000000 ]
  distance:    0.0453556
  band:
  - # 1
    frequency:   -2.7535501361
  - # 2
    frequency:   -2.0033439230
  - # 3
    frequency:   -0.4319868159
  - # 4
    frequency:    0.4841494368
  - # 5
    frequency:    1.2442382378
  - # 6
    frequency:    1.7979233018
  - # 7
    frequency:    2.0681778569
  - # 8
    frequency:    2.6836219260
  - # 9
    frequency:    3.0400445934
  - # 10
    frequency:    3.1225672447
  - # 11
    frequency:    4.1133836906
  - # 12
    frequency:    4.8136755955
  - # 13
    frequency:    4.9390905259
  - # 14
    frequency:    7.0948922780
  - # 15
    frequency:    8.9828740483
  - # 16
    frequency:    9.6433897228
  - # 17
    frequency:   11.8538875020
  - # 18
    frequency:   14.2531703126
  - # 19
    frequency:   14.5056274295
  - # 20
    frequency:   15.4536980016
  - # 21
    frequency:   48.4735126277

- q-position: [    0.1515152,    0.0000000,    0.0000000 ]
  distance:    0.0469196
  band:
  - # 1
    frequency:   -2.8125748002
  - # 2
    frequency:   -2.0185856355
  - # 3
    frequency:   -0.4404301738
  - # 4
    frequency:    0.5072675119
  - # 5
    frequency:    1.2783387560
  - # 6
    frequency:    1.8557686798
  - # 7
    frequency:    2.0944764374
  - # 8
    frequency:    2.7172314402
  - # 9
    frequency:    3.0647991783
  - # 10
    frequency:    3.1195285469
  - # 11
    frequency:    4.1662639131
  - # 12
    frequency:    4.8115831638
  - # 13
    frequency:    4.9448092355
  - # 14
    frequency:    7.0493131319
  - # 15
    frequency:    8.9515065702
  - # 16
    frequency:    9.6285261235
  - # 17
    frequency:   11.8936520982
  - # 18
    frequency:   14.2303481531
  - # 19
    frequency:   14.5011670346
  - # 20
    frequency:   15.4963818910
  - # 21
    frequency:   48.4387024761
