nqpoint: 300    
npath: 3      
segment_nqpoint:
- 100
- 100
- 100
labels:
- [ 'G', 'M' ]
- [ 'M', 'K' ]
- [ 'K', 'G' ]
reciprocal_lattice:
- [   0.29406037,   0.16977583,   0.00000000 ] # a*
- [   0.00000000,   0.33955166,   0.00000000 ] # b*
- [   0.00000000,   0.00000000,   0.04238099 ] # c*
natom: 5      
lattice:
- [     3.400662290452853,     0.000000000000000,     0.000000000000000 ] # a
- [    -1.700331145226426,     2.945059933219810,     0.000000000000000 ] # b
- [     0.000000000000000,     0.000000000000000,    23.595482859144447 ] # c
points:
- symbol: Br # 1
  coordinates: [  0.666666984744047,  0.333332985985145,  0.381428939332430 ]
  mass: 79.904000
- symbol: C # 2
  coordinates: [  0.000000000000000,  0.000000000000000,  0.515853580839833 ]
  mass: 12.010700
- symbol: F # 3
  coordinates: [  0.333332985432215,  0.666666983183674,  0.618571060667570 ]
  mass: 18.998403
- symbol: Hf # 4
  coordinates: [  0.333332985432215,  0.666666983183674,  0.464650952021191 ]
  mass: 178.490000
- symbol: Hf # 5
  coordinates: [  0.666666984744047,  0.333332985985145,  0.563595344171211 ]
  mass: 178.490000

phonon:
- q-position: [    0.0000000,    0.0000000,    0.0000000 ]
  distance:    0.0000000
  band:
  - # 1
    frequency:   -0.0000093839
  - # 2
    frequency:   -0.0000000957
  - # 3
    frequency:    0.0000075745
  - # 4
    frequency:    3.0613863400
  - # 5
    frequency:    3.0613863400
  - # 6
    frequency:    4.1829186093
  - # 7
    frequency:    4.1829186093
  - # 8
    frequency:    4.6146836648
  - # 9
    frequency:    5.0527482945
  - # 10
    frequency:    5.0527482946
  - # 11
    frequency:    6.9272172845
  - # 12
    frequency:   10.9859738267
  - # 13
    frequency:   16.3590350777
  - # 14
    frequency:   18.4610864717
  - # 15
    frequency:   18.4610864717

- q-position: [    0.0050505,    0.0000000,    0.0000000 ]
  distance:    0.0017149
  band:
  - # 1
    frequency:    0.0011752729
  - # 2
    frequency:    0.0385479972
  - # 3
    frequency:    0.0811485718
  - # 4
    frequency:    3.0613801050
  - # 5
    frequency:    3.0623792294
  - # 6
    frequency:    4.1828960583
  - # 7
    frequency:    4.1830352145
  - # 8
    frequency:    4.6147447074
  - # 9
    frequency:    5.0529057221
  - # 10
    frequency:    5.0533381708
  - # 11
    frequency:    6.9265552199
  - # 12
    frequency:   10.9854099210
  - # 13
    frequency:   16.3588443850
  - # 14
    frequency:   18.4608103253
  - # 15
    frequency:   18.4612309884

- q-position: [    0.0101010,    0.0000000,    0.0000000 ]
  distance:    0.0034298
  band:
  - # 1
    frequency:    0.0046972906
  - # 2
    frequency:    0.0771427461
  - # 3
    frequency:    0.1622907579
  - # 4
    frequency:    3.0613615387
  - # 5
    frequency:    3.0653521719
  - # 6
    frequency:    4.1828269444
  - # 7
    frequency:    4.1833750265
  - # 8
    frequency:    4.6149413277
  - # 9
    frequency:    5.0533788737
  - # 10
    frequency:    5.0550999963
  - # 11
    frequency:    6.9245707466
  - # 12
    frequency:   10.9837192536
  - # 13
    frequency:   16.3582728519
  - # 14
    frequency:   18.4599831740
  - # 15
    frequency:   18.4616628186

- q-position: [    0.0151515,    0.0000000,    0.0000000 ]
  distance:    0.0051447
  band:
  - # 1
    frequency:    0.0105545463
  - # 2
    frequency:    0.1158303980
  - # 3
    frequency:    0.2434197881
  - # 4
    frequency:    3.0613310549
  - # 5
    frequency:    3.0702880765
  - # 6
    frequency:    4.1827069466
  - # 7
    frequency:    4.1839084324
  - # 8
    frequency:    4.6153132544
  - # 9
    frequency:    5.0541703122
  - # 10
    frequency:    5.0580107704
  - # 11
    frequency:    6.9212690159
  - # 12
    frequency:   10.9809049719
  - # 13
    frequency:   16.3573221119
  - # 14
    frequency:   18.4586088772
  - # 15
    frequency:   18.4623768169

- q-position: [    0.0202020,    0.0000000,    0.0000000 ]
  distance:    0.0068596
  band:
  - # 1
    frequency:    0.0187281207
  - # 2
    frequency:    0.1546559136
  - # 3
    frequency:    0.3245281282
  - # 4
    frequency:    3.0612893339
  - # 5
    frequency:    3.0771587410
  - # 6
    frequency:    4.1825290682
  - # 7
    frequency:    4.1845874175
  - # 8
    frequency:    4.6159242481
  - # 9
    frequency:    5.0552841644
  - # 10
    frequency:    5.0620334644
  - # 11
    frequency:    6.9166585764
  - # 12
    frequency:   10.9769723177
  - # 13
    frequency:   16.3559948821
  - # 14
    frequency:   18.4566938519
  - # 15
    frequency:   18.4633644551

- q-position: [    0.0252525,    0.0000000,    0.0000000 ]
  distance:    0.0085745
  band:
  - # 1
    frequency:    0.0291919972
  - # 2
    frequency:    0.1936624984
  - # 3
    frequency:    0.4056071031
  - # 4
    frequency:    3.0612373102
  - # 5
    frequency:    3.0859252622
  - # 6
    frequency:    4.1822839368
  - # 7
    frequency:    4.1853476150
  - # 8
    frequency:    4.6168585607
  - # 9
    frequency:    5.0567259085
  - # 10
    frequency:    5.0671187958
  - # 11
    frequency:    6.9107513211
  - # 12
    frequency:   10.9719286196
  - # 13
    frequency:   16.3542949542
  - # 14
    frequency:   18.4542470498
  - # 15
    frequency:   18.4646138935

- q-position: [    0.0303030,    0.0000000,    0.0000000 ]
  distance:    0.0102894
  band:
  - # 1
    frequency:    0.0419135079
  - # 2
    frequency:    0.2328910713
  - # 3
    frequency:    0.4866465287
  - # 4
    frequency:    3.0611761573
  - # 5
    frequency:    3.0965385863
  - # 6
    frequency:    4.1819602099
  - # 7
    frequency:    4.1861112330
  - # 8
    frequency:    4.6182162414
  - # 9
    frequency:    5.0585020864
  - # 10
    frequency:    5.0732073863
  - # 11
    frequency:    6.9035624133
  - # 12
    frequency:   10.9657832841
  - # 13
    frequency:   16.3522271830
  - # 14
    frequency:   18.4512799254
  - # 15
    frequency:   18.4661100786

- q-position: [    0.0353535,    0.0000000,    0.0000000 ]
  distance:    0.0120044
  band:
  - # 1
    frequency:    0.0568538712
  - # 2
    frequency:    0.2723797788
  - # 3
    frequency:    0.5676343530
  - # 4
    frequency:    3.0611072735
  - # 5
    frequency:    3.1089401748
  - # 6
    frequency:    4.1815450702
  - # 7
    frequency:    4.1867908555
  - # 8
    frequency:    4.6201075210
  - # 9
    frequency:    5.0606199502
  - # 10
    frequency:    5.0802320661
  - # 11
    frequency:    6.8951101955
  - # 12
    frequency:   10.9585477818
  - # 13
    frequency:   16.3497974708
  - # 14
    frequency:   18.4478063953
  - # 15
    frequency:   18.4678348663

- q-position: [    0.0404040,    0.0000000,    0.0000000 ]
  distance:    0.0137193
  band:
  - # 1
    frequency:    0.0739688012
  - # 2
    frequency:    0.3121635596
  - # 3
    frequency:    0.6485563076
  - # 4
    frequency:    3.0610322688
  - # 5
    frequency:    3.1230627613
  - # 6
    frequency:    4.1810247955
  - # 7
    frequency:    4.1872940457
  - # 8
    frequency:    4.6226465546
  - # 9
    frequency:    5.0630870544
  - # 10
    frequency:    5.0881201091
  - # 11
    frequency:    6.8854160804
  - # 12
    frequency:   10.9502356312
  - # 13
    frequency:   16.3470127488
  - # 14
    frequency:   18.4438427887
  - # 15
    frequency:   18.4697671699

- q-position: [    0.0454545,    0.0000000,    0.0000000 ]
  distance:    0.0154342
  band:
  - # 1
    frequency:    0.0932091646
  - # 2
    frequency:    0.3522737688
  - # 3
    frequency:    0.7293955730
  - # 4
    frequency:    3.0609529588
  - # 5
    frequency:    3.1388311683
  - # 6
    frequency:    4.1803853789
  - # 7
    frequency:    4.1875285673
  - # 8
    frequency:    4.6259448609
  - # 9
    frequency:    5.0659108095
  - # 10
    frequency:    5.0967952362
  - # 11
    frequency:    6.8745044292
  - # 12
    frequency:   10.9408623772
  - # 13
    frequency:   16.3438809548
  - # 14
    frequency:   18.4394077890
  - # 15
    frequency:   18.4718831288

- q-position: [    0.0505051,    0.0000000,    0.0000000 ]
  distance:    0.0171491
  band:
  - # 1
    frequency:    0.1145216616
  - # 2
    frequency:    0.3927378647
  - # 3
    frequency:    0.8101324562
  - # 4
    frequency:    3.0608713666
  - # 5
    frequency:    3.1561631578
  - # 6
    frequency:    4.1796131786
  - # 7
    frequency:    4.1874079085
  - # 8
    frequency:    4.6301048637
  - # 9
    frequency:    5.0690980112
  - # 10
    frequency:    5.1061792881
  - # 11
    frequency:    6.8624024172
  - # 12
    frequency:   10.9304455658
  - # 13
    frequency:   16.3404110077
  - # 14
    frequency:   18.4345223676
  - # 15
    frequency:   18.4741562979

- q-position: [    0.0555556,    0.0000000,    0.0000000 ]
  distance:    0.0188640
  band:
  - # 1
    frequency:    0.1378495103
  - # 2
    frequency:    0.4335791612
  - # 3
    frequency:    0.8907440832
  - # 4
    frequency:    3.0607897366
  - # 5
    frequency:    3.1749702857
  - # 6
    frequency:    4.1786955711
  - # 7
    frequency:    4.1868566792
  - # 8
    frequency:    4.6352139959
  - # 9
    frequency:    5.0726543646
  - # 10
    frequency:    5.1161935263
  - # 11
    frequency:    6.8491398916
  - # 12
    frequency:   10.9190047134
  - # 13
    frequency:   16.3366127780
  - # 14
    frequency:   18.4292097089
  - # 15
    frequency:   18.4765578535

- q-position: [    0.0606061,    0.0000000,    0.0000000 ]
  distance:    0.0205789
  band:
  - # 1
    frequency:    0.1631331148
  - # 2
    frequency:    0.4748166459
  - # 3
    frequency:    0.9712041039
  - # 4
    frequency:    3.0607105621
  - # 5
    frequency:    3.1951587355
  - # 6
    frequency:    4.1776215828
  - # 7
    frequency:    4.1858153891
  - # 8
    frequency:    4.6413398434
  - # 9
    frequency:    5.0765840199
  - # 10
    frequency:    5.1267595703
  - # 11
    frequency:    6.8347492223
  - # 12
    frequency:   10.9065612699
  - # 13
    frequency:   16.3324970563
  - # 14
    frequency:   18.4234951281
  - # 15
    frequency:   18.4790568146

- q-position: [    0.0656566,    0.0000000,    0.0000000 ]
  distance:    0.0222938
  band:
  - # 1
    frequency:    0.1903106997
  - # 2
    frequency:    0.5164648652
  - # 3
    frequency:    1.0514824118
  - # 4
    frequency:    3.0606366286
  - # 5
    frequency:    3.2166301088
  - # 6
    frequency:    4.1763824746
  - # 7
    frequency:    4.1842441455
  - # 8
    frequency:    4.6485267446
  - # 9
    frequency:    5.0808891392
  - # 10
    frequency:    5.1378000095
  - # 11
    frequency:    6.8192651506
  - # 12
    frequency:   10.8931385762
  - # 13
    frequency:   16.3280755170
  - # 14
    frequency:   18.4174059805
  - # 15
    frequency:   18.4816202748

- q-position: [    0.0707071,    0.0000000,    0.0000000 ]
  distance:    0.0240087
  band:
  - # 1
    frequency:    0.2193189011
  - # 2
    frequency:    0.5585338708
  - # 3
    frequency:    1.1315448742
  - # 4
    frequency:    3.0605710751
  - # 5
    frequency:    3.2392821513
  - # 6
    frequency:    4.1749722581
  - # 7
    frequency:    4.1821249408
  - # 8
    frequency:    4.6567941106
  - # 9
    frequency:    5.0855695096
  - # 10
    frequency:    5.1492387476
  - # 11
    frequency:    6.8027246376
  - # 12
    frequency:   10.8787618146
  - # 13
    frequency:   16.3233606796
  - # 14
    frequency:   18.4109715642
  - # 15
    frequency:   18.4842136450

- q-position: [    0.0757576,    0.0000000,    0.0000000 ]
  distance:    0.0257236
  band:
  - # 1
    frequency:    0.2500933015
  - # 2
    frequency:    0.6010292269
  - # 3
    frequency:    1.2113530744
  - # 4
    frequency:    3.0605174722
  - # 5
    frequency:    3.2630094010
  - # 6
    frequency:    4.1733881212
  - # 7
    frequency:    4.1794624107
  - # 8
    frequency:    4.6661365234
  - # 9
    frequency:    5.0906222186
  - # 10
    frequency:    5.1610011400
  - # 11
    frequency:    6.7851667154
  - # 12
    frequency:   10.8634579521
  - # 13
    frequency:   16.3183658671
  - # 14
    frequency:   18.4042230152
  - # 15
    frequency:   18.4868009003

- q-position: [    0.0808081,    0.0000000,    0.0000000 ]
  distance:    0.0274385
  band:
  - # 1
    frequency:    0.2825689059
  - # 2
    frequency:    0.6439520727
  - # 3
    frequency:    1.2908640608
  - # 4
    frequency:    3.0604799180
  - # 5
    frequency:    3.2877037426
  - # 6
    frequency:    4.1716307483
  - # 7
    frequency:    4.1762831744
  - # 8
    frequency:    4.6765254348
  - # 9
    frequency:    5.0960414028
  - # 10
    frequency:    5.1730139852
  - # 11
    frequency:    6.7666323453
  - # 12
    frequency:   10.8472556758
  - # 13
    frequency:   16.3131051611
  - # 14
    frequency:   18.3971931961
  - # 15
    frequency:   18.4893448325

- q-position: [    0.0858586,    0.0000000,    0.0000000 ]
  distance:    0.0291534
  band:
  - # 1
    frequency:    0.3166805544
  - # 2
    frequency:    0.6872992330
  - # 3
    frequency:    1.3700301042
  - # 4
    frequency:    3.0604631501
  - # 5
    frequency:    3.3132548604
  - # 6
    frequency:    4.1697045234
  - # 7
    frequency:    4.1726340637
  - # 8
    frequency:    4.6879121084
  - # 9
    frequency:    5.1018180792
  - # 10
    frequency:    5.1852054244
  - # 11
    frequency:    6.7471642834
  - # 12
    frequency:   10.8301853211
  - # 13
    frequency:   16.3075933541
  - # 14
    frequency:   18.3899165775
  - # 15
    frequency:   18.4918073018

- q-position: [    0.0909091,    0.0000000,    0.0000000 ]
  distance:    0.0308683
  band:
  - # 1
    frequency:    0.3523632713
  - # 2
    frequency:    0.7310633749
  - # 3
    frequency:    1.4487984564
  - # 4
    frequency:    3.0604726702
  - # 5
    frequency:    3.3395505799
  - # 6
    frequency:    4.1676176095
  - # 7
    frequency:    4.1685796589
  - # 8
    frequency:    4.7002313413
  - # 9
    frequency:    5.1079400620
  - # 10
    frequency:    5.1975047947
  - # 11
    frequency:    6.7268069576
  - # 12
    frequency:   10.8122787905
  - # 13
    frequency:   16.3018458993
  - # 14
    frequency:   18.3824291142
  - # 15
    frequency:   18.4941494877

- q-position: [    0.0959596,    0.0000000,    0.0000000 ]
  distance:    0.0325832
  band:
  - # 1
    frequency:    0.3895525536
  - # 2
    frequency:    0.7752332008
  - # 3
    frequency:    1.5271111111
  - # 4
    frequency:    3.0605148796
  - # 5
    frequency:    3.3664770933
  - # 6
    frequency:    4.1641995675
  - # 7
    frequency:    4.1653819050
  - # 8
    frequency:    4.7134054987
  - # 9
    frequency:    5.1143919678
  - # 10
    frequency:    5.2098424729
  - # 11
    frequency:    6.7056063588
  - # 12
    frequency:   10.7935694654
  - # 13
    frequency:   16.2958788577
  - # 14
    frequency:   18.3747681146
  - # 15
    frequency:   18.4963321360

- q-position: [    0.1010101,    0.0000000,    0.0000000 ]
  distance:    0.0342981
  band:
  - # 1
    frequency:    0.4281846004
  - # 2
    frequency:    0.8197936736
  - # 3
    frequency:    1.6049045617
  - # 4
    frequency:    3.0605972199
  - # 5
    frequency:    3.3939190633
  - # 6
    frequency:    4.1595858199
  - # 7
    frequency:    4.1630128791
  - # 8
    frequency:    4.7273484610
  - # 9
    frequency:    5.1211553022
  - # 10
    frequency:    5.2221497400
  - # 11
    frequency:    6.6836099454
  - # 12
    frequency:   10.7740921091
  - # 13
    frequency:   16.2897088435
  - # 14
    frequency:   18.3669721047
  - # 15
    frequency:   18.4983157992

- q-position: [    0.1060606,    0.0000000,    0.0000000 ]
  distance:    0.0360131
  band:
  - # 1
    frequency:    0.4681964902
  - # 2
    frequency:    0.8647262679
  - # 3
    frequency:    1.6821095541
  - # 4
    frequency:    3.0607283148
  - # 5
    frequency:    3.4217596042
  - # 6
    frequency:    4.1548406543
  - # 7
    frequency:    4.1605292994
  - # 8
    frequency:    4.7419691957
  - # 9
    frequency:    5.1282086242
  - # 10
    frequency:    5.2343586891
  - # 11
    frequency:    6.6608665653
  - # 12
    frequency:   10.7538827612
  - # 13
    frequency:   16.2833529662
  - # 14
    frequency:   18.3590806871
  - # 15
    frequency:   18.5000610692

- q-position: [    0.1111111,    0.0000000,    0.0000000 ]
  distance:    0.0377280
  band:
  - # 1
    frequency:    0.5095263084
  - # 2
    frequency:    0.9100092413
  - # 3
    frequency:    1.7586508327
  - # 4
    frequency:    3.0609181063
  - # 5
    frequency:    3.4498801407
  - # 6
    frequency:    4.1500748492
  - # 7
    frequency:    4.1579528616
  - # 8
    frequency:    4.7571747817
  - # 9
    frequency:    5.1355277769
  - # 10
    frequency:    5.2464021939
  - # 11
    frequency:    6.6374263950
  - # 12
    frequency:   10.7329786255
  - # 13
    frequency:   16.2768287719
  - # 14
    frequency:   18.3511343944
  - # 15
    frequency:   18.5015288003

- q-position: [    0.1161616,    0.0000000,    0.0000000 ]
  distance:    0.0394429
  band:
  - # 1
    frequency:    0.5521132336
  - # 2
    frequency:    0.9556179198
  - # 3
    frequency:    1.8344468774
  - # 4
    frequency:    3.0611779794
  - # 5
    frequency:    3.4781601506
  - # 6
    frequency:    4.1454066616
  - # 7
    frequency:    4.1553077409
  - # 8
    frequency:    4.7728728128
  - # 9
    frequency:    5.1430861725
  - # 10
    frequency:    5.2582139518
  - # 11
    frequency:    6.6133408945
  - # 12
    frequency:   10.7114179493
  - # 13
    frequency:   16.2701541816
  - # 14
    frequency:   18.3431745380
  - # 15
    frequency:   18.5026803217

- q-position: [    0.1212121,    0.0000000,    0.0000000 ]
  distance:    0.0411578
  band:
  - # 1
    frequency:    0.5958975857
  - # 2
    frequency:    1.0015249936
  - # 3
    frequency:    1.9094096336
  - # 4
    frequency:    3.0615208683
  - # 5
    frequency:    3.5064768099
  - # 6
    frequency:    4.1409613456
  - # 7
    frequency:    4.1526200830
  - # 8
    frequency:    4.7889731825
  - # 9
    frequency:    5.1508551201
  - # 10
    frequency:    5.2697286110
  - # 11
    frequency:    6.5886627803
  - # 12
    frequency:   10.6892398972
  - # 13
    frequency:   16.2633474287
  - # 14
    frequency:   18.3352430522
  - # 15
    frequency:   18.5034776368

- q-position: [    0.1262626,    0.0000000,    0.0000000 ]
  distance:    0.0428727
  band:
  - # 1
    frequency:    0.6408208437
  - # 2
    frequency:    1.0477008179
  - # 3
    frequency:    1.9834442359
  - # 4
    frequency:    3.0619613377
  - # 5
    frequency:    3.5347045740
  - # 6
    frequency:    4.1368711698
  - # 7
    frequency:    4.1499174538
  - # 8
    frequency:    4.8053892928
  - # 9
    frequency:    5.1588041823
  - # 10
    frequency:    5.2808819920
  - # 11
    frequency:    6.5634460127
  - # 12
    frequency:   10.6664844179
  - # 13
    frequency:   16.2564269944
  - # 14
    frequency:   18.3273823350
  - # 15
    frequency:   18.5038836113

- q-position: [    0.1313131,    0.0000000,    0.0000000 ]
  distance:    0.0445876
  band:
  - # 1
    frequency:    0.6868256363
  - # 2
    frequency:    1.0941137148
  - # 3
    frequency:    2.0564487350
  - # 4
    frequency:    3.0625156322
  - # 5
    frequency:    3.5627147637
  - # 6
    frequency:    4.1332757929
  - # 7
    frequency:    4.1472282701
  - # 8
    frequency:    4.8220387493
  - # 9
    frequency:    5.1669015476
  - # 10
    frequency:    5.2916114104
  - # 11
    frequency:    6.5377457953
  - # 12
    frequency:   10.6431921070
  - # 13
    frequency:   16.2494115413
  - # 14
    frequency:   18.3196350837
  - # 15
    frequency:   18.5038621462

- q-position: [    0.1363636,    0.0000000,    0.0000000 ]
  distance:    0.0463025
  band:
  - # 1
    frequency:    0.7338557127
  - # 2
    frequency:    1.1407302738
  - # 3
    frequency:    2.1283138363
  - # 4
    frequency:    3.0632016883
  - # 5
    frequency:    3.5903752674
  - # 6
    frequency:    4.1303228053
  - # 7
    frequency:    4.1445812285
  - # 8
    frequency:    4.8388436125
  - # 9
    frequency:    5.1751144086
  - # 10
    frequency:    5.3018561094
  - # 11
    frequency:    6.5116185840
  - # 12
    frequency:   10.6194040653
  - # 13
    frequency:   16.2423198463
  - # 14
    frequency:   18.3120441281
  - # 15
    frequency:   18.5033783384

- q-position: [    0.1414141,    0.0000000,    0.0000000 ]
  distance:    0.0480174
  band:
  - # 1
    frequency:    0.7818558956
  - # 2
    frequency:    1.1875156461
  - # 3
    frequency:    2.1989226716
  - # 4
    frequency:    3.0640391033
  - # 5
    frequency:    3.6175505491
  - # 6
    frequency:    4.1281681668
  - # 7
    frequency:    4.1420047520
  - # 8
    frequency:    4.8557302623
  - # 9
    frequency:    5.1834093332
  - # 10
    frequency:    5.3115578142
  - # 11
    frequency:    6.4851220998
  - # 12
    frequency:   10.5951617547
  - # 13
    frequency:   16.2351707315
  - # 14
    frequency:   18.3046522598
  - # 15
    frequency:   18.5023986273

- q-position: [    0.1464646,    0.0000000,    0.0000000 ]
  distance:    0.0497323
  band:
  - # 1
    frequency:    0.8307720222
  - # 2
    frequency:    1.2344338322
  - # 3
    frequency:    2.2681506318
  - # 4
    frequency:    3.0650490579
  - # 5
    frequency:    3.6441022455
  - # 6
    frequency:    4.1269761744
  - # 7
    frequency:    4.1395264683
  - # 8
    frequency:    4.8726289273
  - # 9
    frequency:    5.1917526224
  - # 10
    frequency:    5.3206614199
  - # 11
    frequency:    6.4583153387
  - # 12
    frequency:   10.5705068522
  - # 13
    frequency:   16.2279829941
  - # 14
    frequency:   18.2975020594
  - # 15
    frequency:   18.5008909274

- q-position: [    0.1515152,    0.0000000,    0.0000000 ]
  distance:    0.0514472
  band:
  - # 1
    frequency:    0.8805508758
  - # 2
    frequency:    1.2814479587
  - # 3
    frequency:    2.3358653000
  - # 4
    frequency:    3.0662541895
  - # 5
    frequency:    3.6698907495
  - # 6
    frequency:    4.1269184789
  - # 7
    frequency:    4.1371727349
  - # 8
    frequency:    4.8894729109
  - # 9
    frequency:    5.2001106475
  - # 10
    frequency:    5.3291158320
  - # 11
    frequency:    6.4312585717
  - # 12
    frequency:   10.5454811046
  - # 13
    frequency:   16.2207753356
  - # 14
    frequency:   18.2906357204
  - # 15
    frequency:   18.4988247488

- q-position: [    0.1565657,    0.0000000,    0.0000000 ]
  distance:    0.0531621
  band:
  - # 1
    frequency:    0.9311401107
  - # 2
    frequency:    1.3285205441
  - # 3
    frequency:    2.4019265440
  - # 4
    frequency:    3.0676784148
  - # 5
    frequency:    3.6947782812
  - # 6
    frequency:    4.1281715582
  - # 7
    frequency:    4.1349682199
  - # 8
    frequency:    4.9061975378
  - # 9
    frequency:    5.2084501601
  - # 10
    frequency:    5.3368749819
  - # 11
    frequency:    6.4040133238
  - # 12
    frequency:   10.5201261835
  - # 13
    frequency:   16.2135662889
  - # 14
    frequency:   18.2840948726
  - # 15
    frequency:   18.4961713047

- q-position: [    0.1616162,    0.0000000,    0.0000000 ]
  distance:    0.0548770
  band:
  - # 1
    frequency:    0.9824881740
  - # 2
    frequency:    1.3756137512
  - # 3
    frequency:    2.4661868405
  - # 4
    frequency:    3.0693467045
  - # 5
    frequency:    3.7186339610
  - # 6
    frequency:    4.1309120343
  - # 7
    frequency:    4.1329355467
  - # 8
    frequency:    4.9227388253
  - # 9
    frequency:    5.2167385739
  - # 10
    frequency:    5.3438990490
  - # 11
    frequency:    6.3766423223
  - # 12
    frequency:   10.4944835437
  - # 13
    frequency:   16.2063741459
  - # 14
    frequency:   18.2779204024
  - # 15
    frequency:   18.4929036067

- q-position: [    0.1666667,    0.0000000,    0.0000000 ]
  distance:    0.0565919
  band:
  - # 1
    frequency:    1.0345442247
  - # 2
    frequency:    1.4226896244
  - # 3
    frequency:    2.5284919287
  - # 4
    frequency:    3.0712848109
  - # 5
    frequency:    3.7413412224
  - # 6
    frequency:    4.1310950073
  - # 7
    frequency:    4.1353093762
  - # 8
    frequency:    4.9390318775
  - # 9
    frequency:    5.2249442143
  - # 10
    frequency:    5.3501559248
  - # 11
    frequency:    6.3492094001
  - # 12
    frequency:   10.4685942852
  - # 13
    frequency:   16.1992168833
  - # 14
    frequency:   18.2721522740
  - # 15
    frequency:   18.4889965505

- q-position: [    0.1717172,    0.0000000,    0.0000000 ]
  distance:    0.0583069
  band:
  - # 1
    frequency:    1.0872580529
  - # 2
    frequency:    1.4697103125
  - # 3
    frequency:    2.5886819061
  - # 4
    frequency:    3.0735189548
  - # 5
    frequency:    3.7628073997
  - # 6
    frequency:    4.1294643458
  - # 7
    frequency:    4.1415160237
  - # 8
    frequency:    4.9550089879
  - # 9
    frequency:    5.2330365366
  - # 10
    frequency:    5.3556229635
  - # 11
    frequency:    6.3217793413
  - # 12
    frequency:   10.4424990216
  - # 13
    frequency:   16.1921120884
  - # 14
    frequency:   18.2668293490
  - # 15
    frequency:   18.4844269902

- q-position: [    0.1767677,    0.0000000,    0.0000000 ]
  distance:    0.0600218
  band:
  - # 1
    frequency:    1.1405799995
  - # 2
    frequency:    1.5166382739
  - # 3
    frequency:    2.6465928994
  - # 4
    frequency:    3.0760754776
  - # 5
    frequency:    3.7829744615
  - # 6
    frequency:    4.1280586122
  - # 7
    frequency:    4.1496558133
  - # 8
    frequency:    4.9705974315
  - # 9
    frequency:    5.2409863115
  - # 10
    frequency:    5.3602890636
  - # 11
    frequency:    6.2944176545
  - # 12
    frequency:   10.4162377536
  - # 13
    frequency:   16.1850768845
  - # 14
    frequency:   18.2619892074
  - # 15
    frequency:   18.4791738050

- q-position: [    0.1818182,    0.0000000,    0.0000000 ]
  distance:    0.0617367
  band:
  - # 1
    frequency:    1.1944608768
  - # 2
    frequency:    1.5634364645
  - # 3
    frequency:    2.7020594462
  - # 4
    frequency:    3.0789804663
  - # 5
    frequency:    3.8018288094
  - # 6
    frequency:    4.1268900835
  - # 7
    frequency:    4.1598126386
  - # 8
    frequency:    4.9857169318
  - # 9
    frequency:    5.2487657803
  - # 10
    frequency:    5.3641571217
  - # 11
    frequency:    6.2671902620
  - # 12
    frequency:   10.3898497521
  - # 13
    frequency:   16.1781278565
  - # 14
    frequency:   18.2576679693
  - # 15
    frequency:   18.4732179569

- q-position: [    0.1868687,    0.0000000,    0.0000000 ]
  distance:    0.0634516
  band:
  - # 1
    frequency:    1.2488518919
  - # 2
    frequency:    1.6100685080
  - # 3
    frequency:    2.7549177069
  - # 4
    frequency:    3.0822593622
  - # 5
    frequency:    3.8194073239
  - # 6
    frequency:    4.1259682478
  - # 7
    frequency:    4.1720220248
  - # 8
    frequency:    5.0002768063
  - # 9
    frequency:    5.2563487807
  - # 10
    frequency:    5.3672468758
  - # 11
    frequency:    6.2401630932
  - # 12
    frequency:   10.3633734495
  - # 13
    frequency:   16.1712809767
  - # 14
    frequency:   18.2539001190
  - # 15
    frequency:   18.4665425419

- q-position: [    0.1919192,    0.0000000,    0.0000000 ]
  distance:    0.0651665
  band:
  - # 1
    frequency:    1.3037045707
  - # 2
    frequency:    1.6564988464
  - # 3
    frequency:    2.8050095824
  - # 4
    frequency:    3.0859365622
  - # 5
    frequency:    3.8357970437
  - # 6
    frequency:    4.1252998446
  - # 7
    frequency:    4.1862681455
  - # 8
    frequency:    5.0141728365
  - # 9
    frequency:    5.2637108456
  - # 10
    frequency:    5.3695981082
  - # 11
    frequency:    6.2134015787
  - # 12
    frequency:   10.3368463405
  - # 13
    frequency:   16.1645515312
  - # 14
    frequency:   18.2507183314
  - # 15
    frequency:   18.4591328358

- q-position: [    0.1969697,    0.0000000,    0.0000000 ]
  distance:    0.0668814
  band:
  - # 1
    frequency:    1.3589706851
  - # 2
    frequency:    1.7026928706
  - # 3
    frequency:    2.8521877254
  - # 4
    frequency:    3.0900350245
  - # 5
    frequency:    3.8511272880
  - # 6
    frequency:    4.1248889567
  - # 7
    frequency:    4.2024874649
  - # 8
    frequency:    5.0272840052
  - # 9
    frequency:    5.2708292760
  - # 10
    frequency:    5.3712740768
  - # 11
    frequency:    6.1869700466
  - # 12
    frequency:   10.3103048941
  - # 13
    frequency:   16.1579540484
  - # 14
    frequency:   18.2481533029
  - # 15
    frequency:   18.4509763344

- q-position: [    0.2020202,    0.0000000,    0.0000000 ]
  distance:    0.0685963
  band:
  - # 1
    frequency:    1.4146021801
  - # 2
    frequency:    1.7486170309
  - # 3
    frequency:    2.8963213031
  - # 4
    frequency:    3.0945758896
  - # 5
    frequency:    3.8655552253
  - # 6
    frequency:    4.1247371430
  - # 7
    frequency:    4.2205781327
  - # 8
    frequency:    5.0394694003
  - # 9
    frequency:    5.2776831920
  - # 10
    frequency:    5.3723648740
  - # 11
    frequency:    6.1609310344
  - # 12
    frequency:   10.2837844765
  - # 13
    frequency:   16.1515022280
  - # 14
    frequency:   18.2462335864
  - # 15
    frequency:   18.4420627895

- q-position: [    0.2070707,    0.0000000,    0.0000000 ]
  distance:    0.0703112
  band:
  - # 1
    frequency:    1.4705511034
  - # 2
    frequency:    1.7942389258
  - # 3
    frequency:    2.9373022000
  - # 4
    frequency:    3.0995781263
  - # 5
    frequency:    3.8792477994
  - # 6
    frequency:    4.1248436069
  - # 7
    frequency:    4.2404125102
  - # 8
    frequency:    5.0505658479
  - # 9
    frequency:    5.2842535628
  - # 10
    frequency:    5.3729901394
  - # 11
    frequency:    6.1353445422
  - # 12
    frequency:   10.2573192847
  - # 13
    frequency:   16.1452088740
  - # 14
    frequency:   18.2449854329
  - # 15
    frequency:   18.4323842426

- q-position: [    0.2121212,    0.0000000,    0.0000000 ]
  distance:    0.0720261
  band:
  - # 1
    frequency:    1.5267695341