nqpoint: 300    
npath: 3      
segment_nqpoint:
- 100
- 100
- 100
labels:
- [ 'G', 'M' ]
- [ 'M', 'K' ]
- [ 'K', 'G' ]
reciprocal_lattice:
- [   0.30430206,   0.17568888,   0.00000000 ] # a*
- [   0.00000000,   0.35137775,   0.00000000 ] # b*
- [   0.00000000,   0.00000000,   0.03928875 ] # c*
natom: 7      
lattice:
- [     3.286208448129328,     0.000000000000000,     0.000000000000000 ] # a
- [    -1.643104224064664,     2.845939998209744,     0.000000000000000 ] # b
- [     0.000000000000000,     0.000000000000000,    25.452576928555040 ] # c
points:
- symbol: C # 1
  coordinates: [  0.000000000000000,  0.000000000000000,  0.554163843951796 ]
  mass: 12.010700
- symbol: C # 2
  coordinates: [  0.666666984744047,  0.333332985985145,  0.400241078161943 ]
  mass: 12.010700
- symbol: Hf # 3
  coordinates: [  0.333332985432215,  0.666666983183674,  0.507068264821836 ]
  mass: 178.490000
- symbol: Hf # 4
  coordinates: [  0.666666984744047,  0.333332985985145,  0.609259431720942 ]
  mass: 178.490000
- symbol: N # 5
  coordinates: [  0.666666984744047,  0.333332985985145,  0.353598774114812 ]
  mass: 14.006700
- symbol: O # 6
  coordinates: [  0.333332985432215,  0.666666983183674,  0.646401225885188 ]
  mass: 15.999400
- symbol: O # 7
  coordinates: [  0.666666984744047,  0.333332985985145,  0.452898060156079 ]
  mass: 15.999400

phonon:
- q-position: [    0.0000000,    0.0000000,    0.0000000 ]
  distance:    0.0000000
  band:
  - # 1
    frequency:   -2.8168580165
  - # 2
    frequency:   -2.8168580165
  - # 3
    frequency:   -0.0000058311
  - # 4
    frequency:   -0.0000002488
  - # 5
    frequency:    0.0000046575
  - # 6
    frequency:    2.9278604993
  - # 7
    frequency:    2.9278604993
  - # 8
    frequency:    5.1668672391
  - # 9
    frequency:    5.9912490746
  - # 10
    frequency:    5.9912490746
  - # 11
    frequency:    8.3880676664
  - # 12
    frequency:   10.7512071441
  - # 13
    frequency:   10.7512071442
  - # 14
    frequency:   13.5665576580
  - # 15
    frequency:   13.5665576581
  - # 16
    frequency:   15.1315972018
  - # 17
    frequency:   16.7379216834
  - # 18
    frequency:   16.7379216834
  - # 19
    frequency:   19.1573965942
  - # 20
    frequency:   31.7330034502
  - # 21
    frequency:   68.0956552341

- q-position: [    0.0050505,    0.0000000,    0.0000000 ]
  distance:    0.0017746
  band:
  - # 1
    frequency:   -2.8162916113
  - # 2
    frequency:   -2.8146187790
  - # 3
    frequency:    0.0013246296
  - # 4
    frequency:    0.0332262993
  - # 5
    frequency:    0.0672469942
  - # 6
    frequency:    2.9278617099
  - # 7
    frequency:    2.9288968375
  - # 8
    frequency:    5.1664274387
  - # 9
    frequency:    5.9914818868
  - # 10
    frequency:    5.9915226454
  - # 11
    frequency:    8.3871689959
  - # 12
    frequency:   10.7499166135
  - # 13
    frequency:   10.7501873611
  - # 14
    frequency:   13.5666376486
  - # 15
    frequency:   13.5667264919
  - # 16
    frequency:   15.1304457147
  - # 17
    frequency:   16.7357540043
  - # 18
    frequency:   16.7372525067
  - # 19
    frequency:   19.1566778779
  - # 20
    frequency:   31.7324894007
  - # 21
    frequency:   68.0953414323

- q-position: [    0.0101010,    0.0000000,    0.0000000 ]
  distance:    0.0035493
  band:
  - # 1
    frequency:   -2.8145928055
  - # 2
    frequency:   -2.8078964286
  - # 3
    frequency:    0.0051798764
  - # 4
    frequency:    0.0664979201
  - # 5
    frequency:    0.1345166021
  - # 6
    frequency:    2.9278691156
  - # 7
    frequency:    2.9319992810
  - # 8
    frequency:    5.1651087838
  - # 9
    frequency:    5.9921786924
  - # 10
    frequency:    5.9923413797
  - # 11
    frequency:    8.3844747072
  - # 12
    frequency:   10.7460469047
  - # 13
    frequency:   10.7471314851
  - # 14
    frequency:   13.5668773019
  - # 15
    frequency:   13.5672324966
  - # 16
    frequency:   15.1269927827
  - # 17
    frequency:   16.7292626436
  - # 18
    frequency:   16.7352481752
  - # 19
    frequency:   19.1545244012
  - # 20
    frequency:   31.7309485546
  - # 21
    frequency:   68.0944007585

- q-position: [    0.0151515,    0.0000000,    0.0000000 ]
  distance:    0.0053239
  band:
  - # 1
    frequency:   -2.8117628203
  - # 2
    frequency:   -2.7966770254
  - # 3
    frequency:    0.0116257270
  - # 4
    frequency:    0.0998604345
  - # 5
    frequency:    0.2018283235
  - # 6
    frequency:    2.9278939337
  - # 7
    frequency:    2.9371482854
  - # 8
    frequency:    5.1629135126
  - # 9
    frequency:    5.9933345895
  - # 10
    frequency:    5.9936993865
  - # 11
    frequency:    8.3799899830
  - # 12
    frequency:   10.7396037348
  - # 13
    frequency:   10.7420499397
  - # 14
    frequency:   13.5672756647
  - # 15
    frequency:   13.5680741806
  - # 16
    frequency:   15.1212430111
  - # 17
    frequency:   16.7184825804
  - # 18
    frequency:   16.7319182667
  - # 19
    frequency:   19.1509441712
  - # 20
    frequency:   31.7283848146
  - # 21
    frequency:   68.0928354044

- q-position: [    0.0202020,    0.0000000,    0.0000000 ]
  distance:    0.0070985
  band:
  - # 1
    frequency:   -2.8078036659
  - # 2
    frequency:   -2.7809372551
  - # 3
    frequency:    0.0206957804
  - # 4
    frequency:    0.1333598886
  - # 5
    frequency:    0.2691954684
  - # 6
    frequency:    2.9279545172
  - # 7
    frequency:    2.9443118289
  - # 8
    frequency:    5.1598453531
  - # 9
    frequency:    5.9949413778
  - # 10
    frequency:    5.9955869919
  - # 11
    frequency:    8.3737235085
  - # 12
    frequency:   10.7305968593
  - # 13
    frequency:   10.7349601110
  - # 14
    frequency:   13.5678311517
  - # 15
    frequency:   13.5692490546
  - # 16
    frequency:   15.1132041340
  - # 17
    frequency:   16.7034719389
  - # 18
    frequency:   16.7272786836
  - # 19
    frequency:   19.1459505046
  - # 20
    frequency:   31.7248046699
  - # 21
    frequency:   68.0906490148

- q-position: [    0.0252525,    0.0000000,    0.0000000 ]
  distance:    0.0088732
  band:
  - # 1
    frequency:   -2.8027181034
  - # 2
    frequency:   -2.7606443275
  - # 3
    frequency:    0.0324387515
  - # 4
    frequency:    0.1670429760
  - # 5
    frequency:    0.3366222296
  - # 6
    frequency:    2.9280758528
  - # 7
    frequency:    2.9534462045
  - # 8
    frequency:    5.1559095188
  - # 9
    frequency:    5.9969875154
  - # 10
    frequency:    5.9979909506
  - # 11
    frequency:    8.3656875438
  - # 12
    frequency:   10.7190404133
  - # 13
    frequency:   10.7258863685
  - # 14
    frequency:   13.5685415520
  - # 15
    frequency:   13.5707536259
  - # 16
    frequency:   15.1028871057
  - # 17
    frequency:   16.6843117229
  - # 18
    frequency:   16.7213515624
  - # 19
    frequency:   19.1395619826
  - # 20
    frequency:   31.7202171735
  - # 21
    frequency:   68.0878466748

- q-position: [    0.0303030,    0.0000000,    0.0000000 ]
  distance:    0.0106478
  band:
  - # 1
    frequency:   -2.7965095946
  - # 2
    frequency:   -2.7357558802
  - # 3
    frequency:    0.0469210449
  - # 4
    frequency:    0.2009571366
  - # 5
    frequency:    0.4041009250
  - # 6
    frequency:    2.9282888826
  - # 7
    frequency:    2.9644970590
  - # 8
    frequency:    5.1511127040
  - # 9
    frequency:    5.9994580593
  - # 10
    frequency:    6.0008947308
  - # 11
    frequency:    8.3558980276
  - # 12
    frequency:   10.7049533942
  - # 13
    frequency:   10.7148600938
  - # 14
    frequency:   13.5694040378
  - # 15
    frequency:   13.5725833901
  - # 16
    frequency:   15.0903062343
  - # 17
    frequency:   16.6611054330
  - # 18
    frequency:   16.7141651463
  - # 19
    frequency:   19.1318023862
  - # 20
    frequency:   31.7146339103
  - # 21
    frequency:   68.0844348926

- q-position: [    0.0353535,    0.0000000,    0.0000000 ]
  distance:    0.0124224
  band:
  - # 1
    frequency:   -2.7891822377
  - # 2
    frequency:   -2.7062199433
  - # 3
    frequency:    0.0642297001
  - # 4
    frequency:    0.2351505614
  - # 5
    frequency:    0.4716094614
  - # 6
    frequency:    2.9286296715
  - # 7
    frequency:    2.9774006174
  - # 8
    frequency:    5.1454630766
  - # 9
    frequency:    6.0023345960
  - # 10
    frequency:    6.0042788624
  - # 11
    frequency:    8.3443747148
  - # 12
    frequency:   10.6883602874
  - # 13
    frequency:   10.7019197187
  - # 14
    frequency:   13.5704151760
  - # 15
    frequency:   13.5747328191
  - # 16
    frequency:   15.0754793657
  - # 17
    frequency:   16.6339785576
  - # 18
    frequency:   16.7057536218
  - # 19
    frequency:   19.1227006082
  - # 20
    frequency:   31.7080689572
  - # 21
    frequency:   68.0804215771

- q-position: [    0.0404040,    0.0000000,    0.0000000 ]
  distance:    0.0141971
  band:
  - # 1
    frequency:   -2.7807406938
  - # 2
    frequency:   -2.6719750559
  - # 3
    frequency:    0.0844760411
  - # 4
    frequency:    0.2696720893
  - # 5
    frequency:    0.5391090495
  - # 6
    frequency:    2.9291384484
  - # 7
    frequency:    2.9920850255
  - # 8
    frequency:    5.1389702668
  - # 9
    frequency:    6.0055951659
  - # 10
    frequency:    6.0081213364
  - # 11
    frequency:    8.3311413504
  - # 12
    frequency:   10.6692918383
  - # 13
    frequency:   10.6871107717
  - # 14
    frequency:   13.5715709444
  - # 15
    frequency:   13.5771953448
  - # 16
    frequency:   15.0584281225
  - # 17
    frequency:   16.6030779238
  - # 18
    frequency:   16.6961569195
  - # 19
    frequency:   19.1122905409
  - # 20
    frequency:   31.7005388333
  - # 21
    frequency:   68.0758160114

- q-position: [    0.0454545,    0.0000000,    0.0000000 ]
  distance:    0.0159717
  band:
  - # 1
    frequency:   -2.7711901048
  - # 2
    frequency:   -2.6329506769
  - # 3
    frequency:    0.1078001496
  - # 4
    frequency:    0.3045709829
  - # 5
    frequency:    0.6065421884
  - # 6
    frequency:    2.9298585544
  - # 7
    frequency:    3.0084717404
  - # 8
    frequency:    5.1316453507
  - # 9
    frequency:    6.0092141901
  - # 10
    frequency:    6.0123980419
  - # 11
    frequency:    8.3162258837
  - # 12
    frequency:   10.6477859732
  - # 13
    frequency:   10.6704859343
  - # 14
    frequency:   13.5728667512
  - # 15
    frequency:   13.5799633380
  - # 16
    frequency:   15.0391782110
  - # 17
    frequency:   16.5685708948
  - # 18
    frequency:   16.6854204777
  - # 19
    frequency:   19.1006109357
  - # 20
    frequency:   31.6920624436
  - # 21
    frequency:   68.0706288205

- q-position: [    0.0505051,    0.0000000,    0.0000000 ]
  distance:    0.0177464
  band:
  - # 1
    frequency:   -2.7605360052
  - # 2
    frequency:   -2.5890681136
  - # 3
    frequency:    0.1343763180
  - # 4
    frequency:    0.3398965826
  - # 5
    frequency:    0.6738309272
  - # 6
    frequency:    2.9308353323
  - # 7
    frequency:    3.0264769036
  - # 8
    frequency:    5.1235008219
  - # 9
    frequency:    6.0131624133
  - # 10
    frequency:    6.0170832259
  - # 11
    frequency:    8.2996607255
  - # 12
    frequency:   10.6238888688
  - # 13
    frequency:   10.6521051055
  - # 14
    frequency:   13.5742974593
  - # 15
    frequency:   13.5830280792
  - # 16
    frequency:   15.0177598011
  - # 17
    frequency:   16.5306443962
  - # 18
    frequency:   16.6735949716
  - # 19
    frequency:   19.0877052327
  - # 20
    frequency:   31.6826610131
  - # 21
    frequency:   68.0648719360

- q-position: [    0.0555556,    0.0000000,    0.0000000 ]
  distance:    0.0195210
  band:
  - # 1
    frequency:   -2.7487842319
  - # 2
    frequency:   -2.5402423194
  - # 3
    frequency:    0.1644196932
  - # 4
    frequency:    0.3756978383
  - # 5
    frequency:    0.7408753984
  - # 6
    frequency:    2.9321149940
  - # 7
    frequency:    3.0460126416
  - # 8
    frequency:    5.1145505475
  - # 9
    frequency:    6.0174068768
  - # 10
    frequency:    6.0221499612
  - # 11
    frequency:    8.2814830517
  - # 12
    frequency:   10.5976561693
  - # 13
    frequency:   10.6320354749
  - # 14
    frequency:   13.5758574167
  - # 15
    frequency:   13.5863797226
  - # 16
    frequency:   14.9942079939
  - # 17
    frequency:   16.4895037550
  - # 18
    frequency:   16.6607360069
  - # 19
    frequency:   19.0736213577
  - # 20
    frequency:   31.6723580144
  - # 21
    frequency:   68.0585585552

- q-position: [    0.0606061,    0.0000000,    0.0000000 ]
  distance:    0.0212956
  band:
  - # 1
    frequency:   -2.7359408349
  - # 2
    frequency:   -2.4863851091
  - # 3
    frequency:    0.1981943777
  - # 4
    frequency:    0.4120227302
  - # 5
    frequency:    0.8075526158
  - # 6
    frequency:    2.9337435038
  - # 7
    frequency:    3.0669882472
  - # 8
    frequency:    5.1048096988
  - # 9
    frequency:    6.0219109440
  - # 10
    frequency:    6.0275706085
  - # 11
    frequency:    8.2617351554
  - # 12
    frequency:   10.5691543433
  - # 13
    frequency:   10.6103516043
  - # 14
    frequency:   13.5775404920
  - # 15
    frequency:   13.5900072486
  - # 16
    frequency:   14.9685633820
  - # 17
    frequency:   16.4453713353
  - # 18
    frequency:   16.6469037789
  - # 19
    frequency:   19.0584114858
  - # 20
    frequency:   31.6611790878
  - # 21
    frequency:   68.0517030967

- q-position: [    0.0656566,    0.0000000,    0.0000000 ]
  distance:    0.0230703
  band:
  - # 1
    frequency:   -2.7220119929
  - # 2
    frequency:   -2.4274106462
  - # 3
    frequency:    0.2360232773
  - # 4
    frequency:    0.4489175937
  - # 5
    frequency:    0.8737155236
  - # 6
    frequency:    2.9357655132
  - # 7
    frequency:    3.0893112109
  - # 8
    frequency:    5.0942946477
  - # 9
    frequency:    6.0266344045
  - # 10
    frequency:    6.0333172577
  - # 11
    frequency:    8.2404648494
  - # 12
    frequency:   10.5384621690
  - # 13
    frequency:   10.5871355153
  - # 14
    frequency:   13.5793401165
  - # 15
    frequency:   13.5938984037
  - # 16
    frequency:   14.9408727126
  - # 17
    frequency:   16.3984849565
  - # 18
    frequency:   16.6321626991
  - # 19
    frequency:   19.0421317697
  - # 20
    frequency:   31.6491519539
  - # 21
    frequency:   68.0443211519

- q-position: [    0.0707071,    0.0000000,    0.0000000 ]
  distance:    0.0248449
  band:
  - # 1
    frequency:   -2.7070039384
  - # 2
    frequency:   -2.3632445268
  - # 3
    frequency:    0.2782999131
  - # 4
    frequency:    0.4864263707
  - # 5
    frequency:    0.9391922897
  - # 6
    frequency:    2.9382233806
  - # 7
    frequency:    3.1128880851
  - # 8
    frequency:    5.0830228197
  - # 9
    frequency:    6.0315336896
  - # 10
    frequency:    6.0393621382
  - # 11
    frequency:    8.2177259162
  - # 12
    frequency:   10.5056723284
  - # 13
    frequency:   10.5624767818
  - # 14
    frequency:   13.5812493340
  - # 15
    frequency:   13.5980396243
  - # 16
    frequency:   14.9111896563
  - # 17
    frequency:   16.3490960852
  - # 18
    frequency:   16.6165809901
  - # 19
    frequency:   19.0248420332
  - # 20
    frequency:   31.6363063211
  - # 21
    frequency:   68.0364294330

- q-position: [    0.0757576,    0.0000000,    0.0000000 ]
  distance:    0.0266195
  band:
  - # 1
    frequency:   -2.6909228976
  - # 2
    frequency:   -2.2938384814
  - # 3
    frequency:    0.3255021390
  - # 4
    frequency:    0.5245898137
  - # 5
    frequency:    1.0037858496
  - # 6
    frequency:    2.9411563049
  - # 7
    frequency:    3.1376251763
  - # 8
    frequency:    5.0710124908
  - # 9
    frequency:    6.0365622361
  - # 10
    frequency:    6.0456779854
  - # 11
    frequency:    8.1935786006
  - # 12
    frequency:   10.4708930814
  - # 13
    frequency:   10.5364726253
  - # 14
    frequency:   13.5832608569
  - # 15
    frequency:   13.6024159416
  - # 16
    frequency:   14.8795756820
  - # 17
    frequency:   16.2974677994
  - # 18
    frequency:   16.6002302514
  - # 19
    frequency:   19.0066054305
  - # 20
    frequency:   31.6226737858
  - # 21
    frequency:   68.0280457166

- q-position: [    0.0808081,    0.0000000,    0.0000000 ]
  distance:    0.0283942
  band:
  - # 1
    frequency:   -2.6737750492
  - # 2
    frequency:   -2.2191936953
  - # 3
    frequency:    0.3782069723
  - # 4
    frequency:    0.5634446750
  - # 5
    frequency:    1.0672737340
  - # 6
    frequency:    2.9445995986
  - # 7
    frequency:    3.1634290735
  - # 8
    frequency:    5.0582825213
  - # 9
    frequency:    6.0416710435
  - # 10
    frequency:    6.0522383557
  - # 11
    frequency:    8.1680901348
  - # 12
    frequency:   10.4342499809
  - # 13
    frequency:   10.5092280085
  - # 14
    frequency:   13.5853671305
  - # 15
    frequency:   13.6070108608
  - # 16
    frequency:   14.8461010305
  - # 17
    frequency:   16.2438725319
  - # 18
    frequency:   16.5831849982
  - # 19
    frequency:   18.9874880723
  - # 20
    frequency:   31.6082877280
  - # 21
    frequency:   68.0191887851

- q-position: [    0.0858586,    0.0000000,    0.0000000 ]
  distance:    0.0301688
  band:
  - # 1
    frequency:   -2.6555665079
  - # 2
    frequency:   -2.1393969672
  - # 3
    frequency:    0.4371041205
  - # 4
    frequency:    0.6030229094
  - # 5
    frequency:    1.1294082650
  - # 6
    frequency:    2.9485841182
  - # 7
    frequency:    3.1902070304
  - # 8
    frequency:    5.0448520185
  - # 9
    frequency:    6.0468094729
  - # 10
    frequency:    6.0590178828
  - # 11
    frequency:    8.1413352773
  - # 12
    frequency:   10.3958875769
  - # 13
    frequency:   10.4808557246
  - # 14
    frequency:   13.5875604041
  - # 15
    frequency:   13.6118062103
  - # 16
    frequency:   14.8108457723
  - # 17
    frequency:   16.1885896159
  - # 18
    frequency:   16.5655221771
  - # 19
    frequency:   18.9675586229
  - # 20
    frequency:   31.5931832013
  - # 21
    frequency:   68.0098783642

- q-position: [    0.0909091,    0.0000000,    0.0000000 ]
  distance:    0.0319434
  band:
  - # 1
    frequency:   -2.6363033385
  - # 2
    frequency:   -2.0546749998
  - # 3
    frequency:    0.5030025041
  - # 4
    frequency:    0.6433509257
  - # 5
    frequency:    1.1899173033
  - # 6
    frequency:    2.9531358639
  - # 7
    frequency:    3.2178672305
  - # 8
    frequency:    5.0307399281
  - # 9
    frequency:    6.0519263391
  - # 10
    frequency:    6.0659924705
  - # 11
    frequency:    8.1133968376
  - # 12
    frequency:   10.3559710440
  - # 13
    frequency:   10.4514764768
  - # 14
    frequency:   13.5898328101
  - # 15
    frequency:   13.6167819527
  - # 16
    frequency:   14.7739009268
  - # 17
    frequency:   16.1319026661
  - # 18
    frequency:   16.5473206609
  - # 19
    frequency:   18.9468878695
  - # 20
    frequency:   31.5773968183
  - # 21
    frequency:   68.0001350583

- q-position: [    0.0959596,    0.0000000,    0.0000000 ]
  distance:    0.0337181
  band:
  - # 1
    frequency:   -2.6159916040
  - # 2
    frequency:   -1.9654717955
  - # 3
    frequency:    0.5768181168
  - # 4
    frequency:    0.6844489129
  - # 5
    frequency:    1.2485059152
  - # 6
    frequency:    2.9582757543
  - # 7
    frequency:    3.2463189655
  - # 8
    frequency:    5.0159645615
  - # 9
    frequency:    6.0569713464
  - # 10
    frequency:    6.0731394185
  - # 11
    frequency:    8.0843661477
  - # 12
    frequency:   10.3146876541
  - # 13
    frequency:   10.4212189409
  - # 14
    frequency:   13.5921764488
  - # 15
    frequency:   13.6219159469
  - # 16
    frequency:   14.7353696093
  - # 17
    frequency:   16.0740968495
  - # 18
    frequency:   16.5286607285
  - # 19
    frequency:   18.9255482705
  - # 20
    frequency:   31.5609666321
  - # 21
    frequency:   67.9899802825

- q-position: [    0.1010101,    0.0000000,    0.0000000 ]
  distance:    0.0354927
  band:
  - # 1
    frequency:   -2.5946374539
  - # 2
    frequency:   -1.8725493015
  - # 3
    frequency:    0.6595223194
  - # 4
    frequency:    0.7263302667
  - # 5
    frequency:    1.3048597227
  - # 6
    frequency:    2.9640195747
  - # 7
    frequency:    3.2754727654
  - # 8
    frequency:    5.0005430781
  - # 9
    frequency:    6.0618969158
  - # 10
    frequency:    6.0804374814
  - # 11
    frequency:    8.0543434272
  - # 12
    frequency:   10.2722480006
  - # 13
    frequency:   10.3902198058
  - # 14
    frequency:   13.5945834803
  - # 15
    frequency:   13.6271836480
  - # 16
    frequency:   14.6953681673
  - # 17
    frequency:   16.0154561162
  - # 18
    frequency:   16.5096235339
  - # 19
    frequency:   18.9036134859
  - # 20
    frequency:   31.5439320141
  - # 21
    frequency:   67.9794361932

- q-position: [    0.1060606,    0.0000000,    0.0000000 ]
  distance:    0.0372673
  band:
  - # 1
    frequency:   -2.5722472557
  - # 2
    frequency:   -1.7770964135
  - # 3
    frequency:    0.7520194119
  - # 4
    frequency:    0.7690011346
  - # 5
    frequency:    1.3586515760
  - # 6
    frequency:    2.9703780904
  - # 7
    frequency:    3.3052405168
  - # 8
    frequency:    4.9844909594
  - # 9
    frequency:    6.0666604331
  - # 10
    frequency:    6.0878668611
  - # 11
    frequency:    8.0234379727
  - # 12
    frequency:   10.2288868704
  - # 13
    frequency:   10.3586237825
  - # 14
    frequency:   13.5970462200
  - # 15
    frequency:   13.6325577285
  - # 16
    frequency:   14.6540272591
  - # 17
    frequency:   15.9562604724
  - # 18
    frequency:   16.4902905692
  - # 19
    frequency:   18.8811578967
  - # 20
    frequency:   31.5263335277
  - # 21
    frequency:   67.9685256163

- q-position: [    0.1111111,    0.0000000,    0.0000000 ]
  distance:    0.0390420
  band:
  - # 1
    frequency:   -2.5488277714
  - # 2
    frequency:   -1.6808004921
  - # 3
    frequency:    0.8124600912
  - # 4
    frequency:    0.8549213898
  - # 5
    frequency:    1.4095553686
  - # 6
    frequency:    2.9773573126
  - # 7
    frequency:    3.3355356028
  - # 8
    frequency:    4.9678215317
  - # 9
    frequency:    6.0712269273
  - # 10
    frequency:    6.0954091365
  - # 11
    frequency:    7.9917680908
  - # 12
    frequency:   10.1848636525
  - # 13
    frequency:   10.3265835732
  - # 14
    frequency:   13.5995572379
  - # 15
    frequency:   13.6380075948
  - # 16
    frequency:   14.6114928315
  - # 17
    frequency:   15.8967833955
  - # 18
    frequency:   16.4707431279
  - # 19
    frequency:   18.8582561199
  - # 20
    frequency:   31.5082128001
  - # 21
    frequency:   67.9572719735

- q-position: [    0.1161616,    0.0000000,    0.0000000 ]
  distance:    0.0408166
  band:
  - # 1
    frequency:   -2.5243863815
  - # 2
    frequency:   -1.5857959928
  - # 3
    frequency:    0.8566979487
  - # 4
    frequency:    0.9682170236
  - # 5
    frequency:    1.4572768516
  - # 6
    frequency:    2.9849588988
  - # 7
    frequency:    3.3662730909
  - # 8
    frequency:    4.9505456241
  - # 9
    frequency:    6.0755721475
  - # 10
    frequency:    6.1030471340
  - # 11
    frequency:    7.9594606795
  - # 12
    frequency:   10.1404621667
  - # 13
    frequency:   10.2942597898
  - # 14
    frequency:   13.6021094600
  - # 15
    frequency:   13.6434987686
  - # 16
    frequency:   14.5679269609
  - # 17
    frequency:   15.8372894908
  - # 18
    frequency:   16.4510617754
  - # 19
    frequency:   18.8349825249
  - # 20
    frequency:   31.4896123911
  - # 21
    frequency:   67.9456992079

- q-position: [    0.1212121,    0.0000000,    0.0000000 ]
  distance:    0.0425912
  band:
  - # 1
    frequency:   -2.4989313551
  - # 2
    frequency:   -1.4943996882
  - # 3
    frequency:    0.9016976988
  - # 4
    frequency:    1.0908997089
  - # 5
    frequency:    1.5016306336
  - # 6
    frequency:    2.9931806650
  - # 7
    frequency:    3.3973699796
  - # 8
    frequency:    4.9326714756
  - # 9
    frequency:    6.0796859523
  - # 10
    frequency:    6.1107647466
  - # 11
    frequency:    7.9266503623
  - # 12
    frequency:   10.0959898021
  - # 13
    frequency:   10.2618208105
  - # 14
    frequency:   13.6046962686
  - # 15
    frequency:   13.6489920897
  - # 16
    frequency:   14.5235085394
  - # 17
    frequency:   15.7780324910
  - # 18
    frequency:   16.4313258320
  - # 19
    frequency:   18.8114107592
  - # 20
    frequency:   31.4705756598
  - # 21
    frequency:   67.9338317079

- q-position: [    0.1262626,    0.0000000,    0.0000000 ]
  distance:    0.0443659
  band:
  - # 1
    frequency:   -2.4724721619
  - # 2
    frequency:   -1.4086386745
  - # 3
    frequency:    0.9474345797
  - # 4
    frequency:    1.2206350757
  - # 5
    frequency:    1.5427669122
  - # 6
    frequency:    3.0020171865
  - # 7
    frequency:    3.4287454986
  - # 8
    frequency:    4.9142050398
  - # 9
    frequency:    6.0835758503
  - # 10
    frequency:    6.1185467088
  - # 11
    frequency:    7.8934780851
  - # 12
    frequency:   10.0517758680
  - # 13
    frequency:   10.2294425637
  - # 14
    frequency:   13.6073116001
  - # 15
    frequency:   13.6544426788
  - # 16
    frequency:   14.4784338187
  - # 17
    frequency:   15.7192536867
  - # 18
    frequency:   16.4116128758
  - # 19
    frequency:   18.7876132901
  - # 20
    frequency:   31.4511466296
  - # 21
    frequency:   67.9216942302

- q-position: [    0.1313131,    0.0000000,    0.0000000 ]
  distance:    0.0461405
  band:
  - # 1
    frequency:   -2.4450198230
  - # 2
    frequency:   -1.3297585968
  - # 3
    frequency:    0.9938762521
  - # 4
    frequency:    1.3531500399
  - # 5
    frequency:    1.5820137978
  - # 6
    frequency:    3.0114604609
  - # 7
    frequency:    3.4603214284
  - # 8
    frequency:    4.8951508597
  - # 9
    frequency:    6.0872704459
  - # 10
    frequency:    6.1263783364
  - # 11
    frequency:    7.8600891102
  - # 12
    frequency:   10.0081690806
  - # 13
    frequency:   10.1973082251
  - # 14
    frequency:   13.6099500380
  - # 15
    frequency:   13.6597985814
  - # 16
    frequency:   14.4329168689
  - # 17
    frequency:   15.6611808547
  - # 18
    frequency:   16.3919982728
  - # 19
    frequency:   18.7636609701
  - # 20
    frequency:   31.4313698519
  - # 21
    frequency:   67.9093118230

- q-position: [    0.1363636,    0.0000000,    0.0000000 ]
  distance:    0.0479151
  band:
  - # 1
    frequency:   -2.4165872895
  - # 2
    frequency:   -1.2579791131
  - # 3
    frequency:    1.0409830709
  - # 4
    frequency:    1.4786126321
  - # 5
    frequency:    1.6259974945
  - # 6
    frequency:    3.0215006074
  - # 7
    frequency:    3.4920223780
  - # 8
    frequency:    4.8755137019
  - # 9
    frequency:    6.0908224464
  - # 10
    frequency:    6.1342452428
  - # 11
    frequency:    7.8266303875
  - # 12
    frequency:    9.9655341411
  - # 13
    frequency:   10.1656078146
  - # 14
    frequency:   13.6126068980
  - # 15
    frequency:   13.6649989826
  - # 16
    frequency:   14.3871900628
  - # 17
    frequency:   15.6040277260
  - # 18
    frequency:   16.3725547395
  - # 19
    frequency:   18.7396226316
  - # 20
    frequency:   31.4112902686
  - # 21
    frequency:   67.8967097485

- q-position: [    0.1414141,    0.0000000,    0.0000000 ]
  distance:    0.0496898
  band:
  - # 1
    frequency:   -2.3871898408
  - # 2
    frequency:   -1.1926014602
  - # 3
    frequency:    1.0887084315
  - # 4
    frequency:    1.5681108213
  - # 5
    frequency:    1.7006706545
  - # 6
    frequency:    3.0321265765
  - # 7
    frequency:    3.5237759292
  - # 8
    frequency:    4.8553011247
  - # 9
    frequency:    6.0943108041
  - # 10
    frequency:    6.1421330434
  - # 11
    frequency:    7.7932473465
  - # 12
    frequency:    9.9242474049
  - # 13
    frequency:   10.1345376803
  - # 14
    frequency:   13.6152783025
  - # 15
    frequency:   13.6699718473
  - # 16
    frequency:   14.3415047618
  - # 17
    frequency:   15.5479939973
  - # 18
    frequency:   16.3533519469
  - # 19
    frequency:   18.7155647182
  - # 20
    frequency:   31.3909530742
  - # 21
    frequency:   67.8839134053

- q-position: [    0.1464646,    0.0000000,    0.0000000 ]
  distance:    0.0514644
  band:
  - # 1
    frequency:   -2.3568454875
  - # 2
    frequency:   -1.1323352426
  - # 3
    frequency:    1.1369991771
  - # 4
    frequency:    1.6073139284
  - # 5
    frequency:    1.8179487397
  - # 6
    frequency:    3.0433268450
  - # 7
    frequency:    3.5555125256
  - # 8
    frequency:    4.8345271111
  - # 9
    frequency:    6.0978415134
  - # 10
    frequency:    6.1500270612
  - # 11
    frequency:    7.7600802384
  - # 12
    frequency:    9.8846916851
  - # 13
    frequency:   10.1042998552
  - # 14
    frequency:   13.6179612429
  - # 15
    frequency:   13.6746307980
  - # 16
    frequency:   14.2961324518
  - # 17
    frequency:   15.4932658617
  - # 18
    frequency:   16.3344561688
  - # 19
    frequency:   18.6915509586
  - # 20
    frequency:   31.3704035777
  - # 21
    frequency:   67.8709482516

- q-position: [    0.1515152,    0.0000000,    0.0000000 ]
  distance:    0.0532391
  band:
  - # 1
    frequency:   -2.3255753641
  - # 2
    frequency:   -1.0756419431
  - # 3
    frequency:    1.1857960488
  - # 4
    frequency:    1.6235633489
  - # 5
    frequency:    1.9486832877
  - # 6
    frequency:    3.0550900730
  - # 7
    frequency:    3.5871649705
  - # 8
    frequency:    4.8132167984
  - # 9
    frequency:    6.1015465917
  - # 10
    frequency:    6.1579120467
  - # 11
    frequency:    7.7272602453
  - # 12
    frequency:    9.8472502887
  - # 13
    frequency:   10.0751012734
  - # 14
    frequency:   13.6206536255
  - # 15
    frequency:   13.6788710113
  - # 16
    frequency:   14.2513666318
  - # 17
    frequency:   15.4400169975
  - # 18
    frequency:   16.3159299831
  - # 19
    frequency:   18.6676420865
  - # 20
    frequency:   31.3496870633
  - # 21