nqpoint: 300    
npath: 3      
segment_nqpoint:
- 100
- 100
- 100
labels:
- [ 'G', 'M' ]
- [ 'M', 'K' ]
- [ 'K', 'G' ]
reciprocal_lattice:
- [   0.28824060,   0.16641579,   0.00000000 ] # a*
- [   0.00000000,   0.33283158,   0.00000000 ] # b*
- [   0.00000000,   0.00000000,   0.03483004 ] # c*
natom: 9      
lattice:
- [     3.469323832105114,     0.000000000000000,     0.000000000000000 ] # a
- [    -1.734661916052557,     3.004522572549477,     0.000000000000000 ] # b
- [     0.000000000000000,     0.000000000000000,    28.710845010118497 ] # c
points:
- symbol: C # 1
  coordinates: [  0.000000000000000,  0.000000000000000,  0.512740748136949 ]
  mass: 12.010700
- symbol: C # 2
  coordinates: [  0.333332985432215,  0.666666983183674,  0.644579321323487 ]
  mass: 12.010700
- symbol: C # 3
  coordinates: [  0.666666984744047,  0.333332985985145,  0.354933700396619 ]
  mass: 12.010700
- symbol: N # 4
  coordinates: [  0.333332985432215,  0.666666983183674,  0.601104986007011 ]
  mass: 14.006700
- symbol: N # 5
  coordinates: [  0.666666984744047,  0.333332985985145,  0.313470397573744 ]
  mass: 14.006700
- symbol: O # 6
  coordinates: [  0.333332985432215,  0.666666983183674,  0.686529602426256 ]
  mass: 15.999400
- symbol: S # 7
  coordinates: [  0.666666984744047,  0.333332985985145,  0.413134291422498 ]
  mass: 32.065000
- symbol: Sc # 8
  coordinates: [  0.333332985432215,  0.666666983183674,  0.470413519540220 ]
  mass: 44.955912
- symbol: Sc # 9
  coordinates: [  0.666666984744047,  0.333332985985145,  0.555887014104681 ]
  mass: 44.955912

phonon:
- q-position: [    0.0000000,    0.0000000,    0.0000000 ]
  distance:    0.0000000
  band:
  - # 1
    frequency:   -0.8499984597
  - # 2
    frequency:   -0.8499984597
  - # 3
    frequency:   -0.4266207938
  - # 4
    frequency:   -0.4266207938
  - # 5
    frequency:   -0.0000015604
  - # 6
    frequency:   -0.0000004181
  - # 7
    frequency:    0.0000018805
  - # 8
    frequency:    3.7004344249
  - # 9
    frequency:    3.7004344249
  - # 10
    frequency:    4.9637270659
  - # 11
    frequency:    5.4169029744
  - # 12
    frequency:    5.4169029744
  - # 13
    frequency:    6.5128083327
  - # 14
    frequency:    6.5128083327
  - # 15
    frequency:    8.5006484405
  - # 16
    frequency:   10.1010825069
  - # 17
    frequency:   10.1010825069
  - # 18
    frequency:   10.6450628202
  - # 19
    frequency:   10.6450628202
  - # 20
    frequency:   11.6540719174
  - # 21
    frequency:   17.7620204615
  - # 22
    frequency:   17.7620204615
  - # 23
    frequency:   17.8102090630
  - # 24
    frequency:   21.2414992602
  - # 25
    frequency:   38.6123619902
  - # 26
    frequency:   65.1573365910
  - # 27
    frequency:   69.0416657879

- q-position: [    0.0050505,    0.0000000,    0.0000000 ]
  distance:    0.0016810
  band:
  - # 1
    frequency:   -0.8493403417
  - # 2
    frequency:   -0.8477074763
  - # 3
    frequency:   -0.4267252673
  - # 4
    frequency:   -0.4219689150
  - # 5
    frequency:   -0.0384230356
  - # 6
    frequency:    0.0755224960
  - # 7
    frequency:    0.1167490489
  - # 8
    frequency:    3.7009557984
  - # 9
    frequency:    3.7023274323
  - # 10
    frequency:    4.9624607353
  - # 11
    frequency:    5.4173781668
  - # 12
    frequency:    5.4231212919
  - # 13
    frequency:    6.5129579405
  - # 14
    frequency:    6.5131713653
  - # 15
    frequency:    8.5004364555
  - # 16
    frequency:   10.1015180734
  - # 17
    frequency:   10.1058997752
  - # 18
    frequency:   10.6453704257
  - # 19
    frequency:   10.6473268314
  - # 20
    frequency:   11.6535173491
  - # 21
    frequency:   17.7582540480
  - # 22
    frequency:   17.7620677835
  - # 23
    frequency:   17.8126349918
  - # 24
    frequency:   21.2414199659
  - # 25
    frequency:   38.6123036448
  - # 26
    frequency:   65.1572415991
  - # 27
    frequency:   69.0402363295

- q-position: [    0.0101010,    0.0000000,    0.0000000 ]
  distance:    0.0033619
  band:
  - # 1
    frequency:   -0.8473862099
  - # 2
    frequency:   -0.8409514765
  - # 3
    frequency:   -0.4267298391
  - # 4
    frequency:   -0.4077254775
  - # 5
    frequency:   -0.0522304950
  - # 6
    frequency:    0.1502730669
  - # 7
    frequency:    0.2272997289
  - # 8
    frequency:    3.7025182865
  - # 9
    frequency:    3.7079886482
  - # 10
    frequency:    4.9588254672
  - # 11
    frequency:    5.4187998519
  - # 12
    frequency:    5.4414593248
  - # 13
    frequency:    6.5134053039
  - # 14
    frequency:    6.5142645875
  - # 15
    frequency:    8.4998029094
  - # 16
    frequency:   10.1028188068
  - # 17
    frequency:   10.1201179160
  - # 18
    frequency:   10.6462939025
  - # 19
    frequency:   10.6543067297
  - # 20
    frequency:   11.6518887422
  - # 21
    frequency:   17.7484074168
  - # 22
    frequency:   17.7622096262
  - # 23
    frequency:   17.8184637322
  - # 24
    frequency:   21.2411822683
  - # 25
    frequency:   38.6121287875
  - # 26
    frequency:   65.1569567914
  - # 27
    frequency:   69.0359523443

- q-position: [    0.0151515,    0.0000000,    0.0000000 ]
  distance:    0.0050429
  band:
  - # 1
    frequency:   -0.8441940659
  - # 2
    frequency:   -0.8300410494
  - # 3
    frequency:   -0.4259247648
  - # 4
    frequency:   -0.3829091406
  - # 5
    frequency:   -0.0670630706
  - # 6
    frequency:    0.2238695193
  - # 7
    frequency:    0.3401750050
  - # 8
    frequency:    3.7051170071
  - # 9
    frequency:    3.7173652414
  - # 10
    frequency:    4.9532373451
  - # 11
    frequency:    5.4211564104
  - # 12
    frequency:    5.4710509911
  - # 13
    frequency:    6.5141460533
  - # 14
    frequency:    6.5161007310
  - # 15
    frequency:    8.4987549889
  - # 16
    frequency:   10.1049668984
  - # 17
    frequency:   10.1430114550
  - # 18
    frequency:   10.6478351842
  - # 19
    frequency:   10.6665827042
  - # 20
    frequency:   11.6492968180
  - # 21
    frequency:   17.7345168167
  - # 22
    frequency:   17.7624456205
  - # 23
    frequency:   17.8256697206
  - # 24
    frequency:   21.2407867225
  - # 25
    frequency:   38.6118379543
  - # 26
    frequency:   65.1564826711
  - # 27
    frequency:   69.0288269803

- q-position: [    0.0202020,    0.0000000,    0.0000000 ]
  distance:    0.0067239
  band:
  - # 1
    frequency:   -0.8398522064
  - # 2
    frequency:   -0.8153774589
  - # 3
    frequency:   -0.4235802957
  - # 4
    frequency:   -0.3454048016
  - # 5
    frequency:   -0.0804665566
  - # 6
    frequency:    0.2963530418
  - # 7
    frequency:    0.4546362259
  - # 8
    frequency:    3.7087438721
  - # 9
    frequency:    3.7303710668
  - # 10
    frequency:    4.9462020306
  - # 11
    frequency:    5.4244286623
  - # 12
    frequency:    5.5106714816
  - # 13
    frequency:    6.5151729424
  - # 14
    frequency:    6.5187022499
  - # 15
    frequency:    8.4973045434
  - # 16
    frequency:   10.1079329661
  - # 17
    frequency:   10.1733000343
  - # 18
    frequency:   10.6499973344
  - # 19
    frequency:   10.6851653386
  - # 20
    frequency:   11.6459457844
  - # 21
    frequency:   17.7175838095
  - # 22
    frequency:   17.7627751540
  - # 23
    frequency:   17.8332691867
  - # 24
    frequency:   21.2402342508
  - # 25
    frequency:   38.6114320360
  - # 26
    frequency:   65.1558200750
  - # 27
    frequency:   69.0188820747

- q-position: [    0.0252525,    0.0000000,    0.0000000 ]
  distance:    0.0084048
  band:
  - # 1
    frequency:   -0.8344683460
  - # 2
    frequency:   -0.7973314672
  - # 3
    frequency:   -0.4191459351
  - # 4
    frequency:   -0.2907180974
  - # 5
    frequency:   -0.0900108024
  - # 6
    frequency:    0.3679879102
  - # 7
    frequency:    0.5704515174
  - # 8
    frequency:    3.7133876601
  - # 9
    frequency:    3.7468893485
  - # 10
    frequency:    4.9381755832
  - # 11
    frequency:    5.4285901414
  - # 12
    frequency:    5.5589189909
  - # 13
    frequency:    6.5164759024
  - # 14
    frequency:    6.5221033109
  - # 15
    frequency:    8.4954679153
  - # 16
    frequency:   10.1116765063
  - # 17
    frequency:   10.2090879720
  - # 18
    frequency:   10.6527843052
  - # 19
    frequency:   10.7115092430
  - # 20
    frequency:   11.6421690406
  - # 21
    frequency:   17.6979656501
  - # 22
    frequency:   17.7631973746
  - # 23
    frequency:   17.8409297473
  - # 24
    frequency:   21.2395261379
  - # 25
    frequency:   38.6109122739
  - # 26
    frequency:   65.1549701711
  - # 27
    frequency:   69.0061480409

- q-position: [    0.0303030,    0.0000000,    0.0000000 ]
  distance:    0.0100858
  band:
  - # 1
    frequency:   -0.8281573723
  - # 2
    frequency:   -0.7761500935
  - # 3
    frequency:   -0.4122536265
  - # 4
    frequency:   -0.2081218852
  - # 5
    frequency:   -0.0888473593
  - # 6
    frequency:    0.4390759457
  - # 7
    frequency:    0.6873849490
  - # 8
    frequency:    3.7190341161
  - # 9
    frequency:    3.7667761136
  - # 10
    frequency:    4.9295014710
  - # 11
    frequency:    5.4336074686
  - # 12
    frequency:    5.6143303915
  - # 13
    frequency:    6.5180421163
  - # 14
    frequency:    6.5263528724
  - # 15
    frequency:    8.4932657415
  - # 16
    frequency:   10.1161465292
  - # 17
    frequency:   10.2479004550
  - # 18
    frequency:   10.6562005944
  - # 19
    frequency:   10.7473978526
  - # 20
    frequency:   11.6384942807
  - # 21
    frequency:   17.6757653398
  - # 22
    frequency:   17.7637111959
  - # 23
    frequency:   17.8485803186
  - # 24
    frequency:   21.2386640250
  - # 25
    frequency:   38.6102802542
  - # 26
    frequency:   65.1539344542
  - # 27
    frequency:   68.9906637110

- q-position: [    0.0353535,    0.0000000,    0.0000000 ]
  distance:    0.0117668
  band:
  - # 1
    frequency:   -0.8210298615
  - # 2
    frequency:   -0.7519126320
  - # 3
    frequency:   -0.4026459326
  - # 4
    frequency:   -0.1211685605
  - # 5
    frequency:    0.1167519145
  - # 6
    frequency:    0.5098644039
  - # 7
    frequency:    0.8051712470
  - # 8
    frequency:    3.7256660769
  - # 9
    frequency:    3.7898641121
  - # 10
    frequency:    4.9204095872
  - # 11
    frequency:    5.4394408168
  - # 12
    frequency:    5.6754393243
  - # 13
    frequency:    6.5198561122
  - # 14
    frequency:    6.5315191803
  - # 15
    frequency:    8.4907227494
  - # 16
    frequency:   10.1212823801
  - # 17
    frequency:   10.2869523456
  - # 18
    frequency:   10.6602507968
  - # 19
    frequency:   10.7945422631
  - # 20
    frequency:   11.6357606883
  - # 21
    frequency:   17.6509964867
  - # 22
    frequency:   17.7643153043
  - # 23
    frequency:   17.8562462135
  - # 24
    frequency:   21.2376499021
  - # 25
    frequency:   38.6095379010
  - # 26
    frequency:   65.1527147416
  - # 27
    frequency:   68.9724761348

- q-position: [    0.0404040,    0.0000000,    0.0000000 ]
  distance:    0.0134477
  band:
  - # 1
    frequency:   -0.8131830550
  - # 2
    frequency:   -0.7245263691
  - # 3
    frequency:   -0.3901005186
  - # 4
    frequency:   -0.1019161161
  - # 5
    frequency:    0.2622833090
  - # 6
    frequency:    0.5805213558
  - # 7
    frequency:    0.9235515676
  - # 8
    frequency:    3.7332636213
  - # 9
    frequency:    3.8159669531
  - # 10
    frequency:    4.9110433921
  - # 11
    frequency:    5.4460444545
  - # 12
    frequency:    5.7408046267
  - # 13
    frequency:    6.5218998758
  - # 14
    frequency:    6.5376961471
  - # 15
    frequency:    8.4878675641
  - # 16
    frequency:   10.1270147456
  - # 17
    frequency:   10.3237002166
  - # 18
    frequency:   10.6649390507
  - # 19
    frequency:   10.8538024997
  - # 20
    frequency:   11.6353310020
  - # 21
    frequency:   17.6236478225
  - # 22
    frequency:   17.7650081667
  - # 23
    frequency:   17.8639845762
  - # 24
    frequency:   21.2364860980
  - # 25
    frequency:   38.6086874676
  - # 26
    frequency:   65.1513131667
  - # 27
    frequency:   68.9516403374

- q-position: [    0.0454545,    0.0000000,    0.0000000 ]
  distance:    0.0151287
  band:
  - # 1
    frequency:   -0.8046951921
  - # 2
    frequency:   -0.6937369257
  - # 3
    frequency:   -0.3743663160
  - # 4
    frequency:   -0.0745674342
  - # 5
    frequency:    0.3651193110
  - # 6
    frequency:    0.6511424577
  - # 7
    frequency:    1.0423004182
  - # 8
    frequency:    3.7418042406
  - # 9
    frequency:    3.8448832038
  - # 10
    frequency:    4.9014912940
  - # 11
    frequency:    5.4533673569
  - # 12
    frequency:    5.8090274350
  - # 13
    frequency:    6.5241529776
  - # 14
    frequency:    6.5450122232
  - # 15
    frequency:    8.4847325350
  - # 16
    frequency:   10.1332668387
  - # 17
    frequency:   10.3564495112
  - # 18
    frequency:   10.6702683804
  - # 19
    frequency:   10.9241882679
  - # 20
    frequency:   11.6394713452
  - # 21
    frequency:   17.5937091511
  - # 22
    frequency:   17.7657880405
  - # 23
    frequency:   17.8718583812
  - # 24
    frequency:   21.2351752697
  - # 25
    frequency:   38.6077315258
  - # 26
    frequency:   65.1497321726
  - # 27
    frequency:   68.9282190358

- q-position: [    0.0505051,    0.0000000,    0.0000000 ]
  distance:    0.0168097
  band:
  - # 1
    frequency:   -0.7956232145
  - # 2
    frequency:   -0.6591293821
  - # 3
    frequency:   -0.3551027157
  - # 4
    frequency:    0.0480520199
  - # 5
    frequency:    0.4530966281
  - # 6
    frequency:    0.7217677793
  - # 7
    frequency:    1.1612345259
  - # 8
    frequency:    3.7512630295
  - # 9
    frequency:    3.8764002384
  - # 10
    frequency:    4.8918121099
  - # 11
    frequency:    5.4613538702
  - # 12
    frequency:    5.8787625452
  - # 13
    frequency:    6.5265927157
  - # 14
    frequency:    6.5536424542
  - # 15
    frequency:    8.4813535817
  - # 16
    frequency:   10.1399557500
  - # 17
    frequency:   10.3846080558
  - # 18
    frequency:   10.6762399455
  - # 19
    frequency:   11.0019679338
  - # 20
    frequency:   11.6519804867
  - # 21
    frequency:   17.5611817749
  - # 22
    frequency:   17.7666529842
  - # 23
    frequency:   17.8799259556
  - # 24
    frequency:   21.2337203896
  - # 25
    frequency:   38.6066729549
  - # 26
    frequency:   65.1479745040
  - # 27
    frequency:   68.9022823178

- q-position: [    0.0555556,    0.0000000,    0.0000000 ]
  distance:    0.0184906
  band:
  - # 1
    frequency:   -0.7860031960
  - # 2
    frequency:   -0.6201016976
  - # 3
    frequency:   -0.3318023996
  - # 4
    frequency:    0.1191453253
  - # 5
    frequency:    0.5332950960
  - # 6
    frequency:    0.7923990821
  - # 7
    frequency:    1.2802094771
  - # 8
    frequency:    3.7616128932
  - # 9
    frequency:    3.9102976635
  - # 10
    frequency:    4.8820526673
  - # 11
    frequency:    5.4699444149
  - # 12
    frequency:    5.9487229411
  - # 13
    frequency:    6.5291942713
  - # 14
    frequency:    6.5638242381
  - # 15
    frequency:    8.4777700504
  - # 16
    frequency:   10.1469939444
  - # 17
    frequency:   10.4084536535
  - # 18
    frequency:   10.6828522132
  - # 19
    frequency:   11.0801349349
  - # 20
    frequency:   11.6789527970
  - # 21
    frequency:   17.5260822609
  - # 22
    frequency:   17.7676008694
  - # 23
    frequency:   17.8882371655
  - # 24
    frequency:   21.2321247318
  - # 25
    frequency:   38.6055149278
  - # 26
    frequency:   65.1460431981
  - # 27
    frequency:   68.8739072834

- q-position: [    0.0606061,    0.0000000,    0.0000000 ]
  distance:    0.0201716
  band:
  - # 1
    frequency:   -0.7758525416
  - # 2
    frequency:   -0.5757891567
  - # 3
    frequency:   -0.3036613597
  - # 4
    frequency:    0.1758693644
  - # 5
    frequency:    0.6086355266
  - # 6
    frequency:    0.8630140536
  - # 7
    frequency:    1.3991111285
  - # 8
    frequency:    3.7728247678
  - # 9
    frequency:    3.9463501931
  - # 10
    frequency:    4.8722588878
  - # 11
    frequency:    5.4790762142
  - # 12
    frequency:    6.0176755135
  - # 13
    frequency:    6.5319308742
  - # 14
    frequency:    6.5758763748
  - # 15
    frequency:    8.4740245733
  - # 16
    frequency:   10.1542908685
  - # 17
    frequency:   10.4286914268
  - # 18
    frequency:   10.6901000824
  - # 19
    frequency:   11.1489626902
  - # 20
    frequency:   11.7286687199
  - # 21
    frequency:   17.4884432480
  - # 22
    frequency:   17.7686293936
  - # 23
    frequency:   17.8968325730
  - # 24
    frequency:   21.2303918570
  - # 25
    frequency:   38.6042608974
  - # 26
    frequency:   65.1439415757
  - # 27
    frequency:   68.8431776535

- q-position: [    0.0656566,    0.0000000,    0.0000000 ]
  distance:    0.0218526
  band:
  - # 1
    frequency:   -0.7651730194
  - # 2
    frequency:   -0.5248959197
  - # 3
    frequency:   -0.2693064851
  - # 4
    frequency:    0.2308661344
  - # 5
    frequency:    0.6806111342
  - # 6
    frequency:    0.9335767711
  - # 7
    frequency:    1.5178462065
  - # 8
    frequency:    3.7848678526
  - # 9
    frequency:    3.9843298795
  - # 10
    frequency:    4.8624823852
  - # 11
    frequency:    5.4886840347
  - # 12
    frequency:    6.0844293637
  - # 13
    frequency:    6.5347739789
  - # 14
    frequency:    6.5902182956
  - # 15
    frequency:    8.4701629201
  - # 16
    frequency:   10.1617546264
  - # 17
    frequency:   10.4461034001
  - # 18
    frequency:   10.6979739965
  - # 19
    frequency:   11.1994409730
  - # 20
    frequency:   11.8085171486
  - # 21
    frequency:   17.4483129624
  - # 22
    frequency:   17.7697360946
  - # 23
    frequency:   17.9057439059
  - # 24
    frequency:   21.2285255960
  - # 25
    frequency:   38.6029145800
  - # 26
    frequency:   65.1416732302
  - # 27
    frequency:   68.8101833457

- q-position: [    0.0707071,    0.0000000,    0.0000000 ]
  distance:    0.0235335
  band:
  - # 1
    frequency:   -0.7539538988
  - # 2
    frequency:   -0.4653152500
  - # 3
    frequency:   -0.2260854861
  - # 4
    frequency:    0.2864408059
  - # 5
    frequency:    0.7500862203
  - # 6
    frequency:    1.0040447844
  - # 7
    frequency:    1.6363340473
  - # 8
    frequency:    3.7977098498
  - # 9
    frequency:    4.0240076253
  - # 10
    frequency:    4.8527843637
  - # 11
    frequency:    5.4987009251
  - # 12
    frequency:    6.1478255835
  - # 13
    frequency:    6.5376934461
  - # 14
    frequency:    6.6073802288
  - # 15
    frequency:    8.4662338333
  - # 16
    frequency:   10.1692936680
  - # 17
    frequency:   10.4613746833
  - # 18
    frequency:   10.7064590962
  - # 19
    frequency:   11.2284054320
  - # 20
    frequency:   11.9200528440
  - # 21
    frequency:   17.4057542354
  - # 22
    frequency:   17.7709183653
  - # 23
    frequency:   17.9149950565
  - # 24
    frequency:   21.2265300321
  - # 25
    frequency:   38.6014799392
  - # 26
    frequency:   65.1392420163
  - # 27
    frequency:   68.7750200222

- q-position: [    0.0757576,    0.0000000,    0.0000000 ]
  distance:    0.0252145
  band:
  - # 1
    frequency:   -0.7421747356
  - # 2
    frequency:   -0.3931518923
  - # 3
    frequency:   -0.1674774783
  - # 4
    frequency:    0.3433054185
  - # 5
    frequency:    0.8176035834
  - # 6
    frequency:    1.0743735619
  - # 7
    frequency:    1.7544999819
  - # 8
    frequency:    3.8113172101
  - # 9
    frequency:    4.0651539031
  - # 10
    frequency:    4.8432381475
  - # 11
    frequency:    5.5090589422
  - # 12
    frequency:    6.2067491981
  - # 13
    frequency:    6.5406577316
  - # 14
    frequency:    6.6279844608
  - # 15
    frequency:    8.4622888414
  - # 16
    frequency:   10.1768184249
  - # 17
    frequency:   10.4750433004
  - # 18
    frequency:   10.7155344650
  - # 19
    frequency:   11.2389576691
  - # 20
    frequency:   12.0586431431
  - # 21
    frequency:   17.3608434169
  - # 22
    frequency:   17.7721734689
  - # 23
    frequency:   17.9246032354
  - # 24
    frequency:   21.2244094832
  - # 25
    frequency:   38.5999611671
  - # 26
    frequency:   65.1366520384
  - # 27
    frequency:   68.7377886119

- q-position: [    0.0808081,    0.0000000,    0.0000000 ]
  distance:    0.0268955
  band:
  - # 1
    frequency:   -0.7298075805
  - # 2
    frequency:   -0.2994066074
  - # 3
    frequency:   -0.0582967173
  - # 4
    frequency:    0.4016341248
  - # 5
    frequency:    0.8835243618
  - # 6
    frequency:    1.1445190506
  - # 7
    frequency:    1.8722702163
  - # 8
    frequency:    3.8256553805
  - # 9
    frequency:    4.1075385813
  - # 10
    frequency:    4.8339313023
  - # 11
    frequency:    5.5196898546
  - # 12
    frequency:    6.2601948683
  - # 13
    frequency:    6.5436340784
  - # 14
    frequency:    6.6526676999
  - # 15
    frequency:    8.4583820467
  - # 16
    frequency:   10.1842428288
  - # 17
    frequency:   10.4875068248
  - # 18
    frequency:   10.7251725293
  - # 19
    frequency:   11.2362099913
  - # 20
    frequency:   12.2177351338
  - # 21
    frequency:   17.3136693822
  - # 22
    frequency:   17.7734985557
  - # 23
    frequency:   17.9345801037
  - # 24
    frequency:   21.2221684817
  - # 25
    frequency:   38.5983626655
  - # 26
    frequency:   65.1339076376
  - # 27
    frequency:   68.6985948089

- q-position: [    0.0858586,    0.0000000,    0.0000000 ]
  distance:    0.0285764
  band:
  - # 1
    frequency:   -0.7168185442
  - # 2
    frequency:   -0.1470884644
  - # 3
    frequency:    0.1508892708
  - # 4
    frequency:    0.4613441967
  - # 5
    frequency:    0.9480993417
  - # 6
    frequency:    1.2144389756
  - # 7
    frequency:    1.9895678531
  - # 8
    frequency:    3.8406890523
  - # 9
    frequency:    4.1509296943
  - # 10
    frequency:    4.8249680809
  - # 11
    frequency:    5.5305258142
  - # 12
    frequency:    6.3074083058
  - # 13
    frequency:    6.5465887133
  - # 14
    frequency:    6.6819244675
  - # 15
    frequency:    8.4545698859
  - # 16
    frequency:   10.1914856451
  - # 17
    frequency:   10.4990461054
  - # 18
    frequency:   10.7353386685
  - # 19
    frequency:   11.2243626716
  - # 20
    frequency:   12.3917736290
  - # 21
    frequency:   17.2643327421
  - # 22
    frequency:   17.7748906793
  - # 23
    frequency:   17.9449328085
  - # 24
    frequency:   21.2198117552
  - # 25
    frequency:   38.5966890258
  - # 26
    frequency:   65.1310133788
  - # 27
    frequency:   68.6575485531

- q-position: [    0.0909091,    0.0000000,    0.0000000 ]
  distance:    0.0302574
  band:
  - # 1
    frequency:   -0.7031687457
  - # 2
    frequency:    0.2229086794
  - # 3
    frequency:    0.2244612354
  - # 4
    frequency:    0.5222124780
  - # 5
    frequency:    1.0115085047
  - # 6
    frequency:    1.2840933458
  - # 7
    frequency:    2.1063096878
  - # 8
    frequency:    3.8563824067
  - # 9
    frequency:    4.1950908842
  - # 10
    frequency:    4.8164728485
  - # 11
    frequency:    5.5414999893
  - # 12
    frequency:    6.3480690015
  - # 13
    frequency:    6.5494870458
  - # 14
    frequency:    6.7159077101
  - # 15
    frequency:    8.4509108664
  - # 16
    frequency:   10.1984715667
  - # 17
    frequency:   10.5098490445
  - # 18
    frequency:   10.7459910822
  - # 19
    frequency:   11.2062325537
  - # 20
    frequency:   12.5766667941
  - # 21
    frequency:   17.2129453274
  - # 22
    frequency:   17.7763468139
  - # 23
    frequency:   17.9556648963
  - # 24
    frequency:   21.2173442050
  - # 25
    frequency:   38.5949450080
  - # 26
    frequency:   65.1279740369
  - # 27
    frequency:   68.6147634928

- q-position: [    0.0959596,    0.0000000,    0.0000000 ]
  distance:    0.0319384
  band:
  - # 1
    frequency:   -0.6888147043
  - # 2
    frequency:    0.2817481437
  - # 3
    frequency:    0.3530776743
  - # 4
    frequency:    0.5839582145
  - # 5
    frequency:    1.0738844437
  - # 6
    frequency:    1.3534444914
  - # 7
    frequency:    2.2224034609
  - # 8
    frequency:    3.8726993555
  - # 9
    frequency:    4.2397770569
  - # 10
    frequency:    4.8085952087
  - # 11
    frequency:    5.5525471533
  - # 12
    frequency:    6.3824012972
  - # 13
    frequency:    6.5522938689
  - # 14
    frequency:    6.7543010822
  - # 15
    frequency:    8.4474652791
  - # 16
    frequency:   10.2051320259
  - # 17
    frequency:   10.5200289154
  - # 18
    frequency:   10.7570809456
  - # 19
    frequency:   11.1836273711
  - # 20
    frequency:   12.7694095185
  - # 21
    frequency:   17.1596300175
  - # 22
    frequency:   17.7778638718
  - # 23
    frequency:   17.9667771016
  - # 24
    frequency:   21.2147708853
  - # 25
    frequency:   38.5931355191
  - # 26
    frequency:   65.1247945822
  - # 27
    frequency:   68.5703564364

- q-position: [    0.1010101,    0.0000000,    0.0000000 ]
  distance:    0.0336194
  band:
  - # 1
    frequency:   -0.6737082351
  - # 2
    frequency:    0.3312112473
  - # 3
    frequency:    0.4513083697
  - # 4
    frequency:    0.6463209452
  - # 5
    frequency:    1.1353269843
  - # 6
    frequency:    1.4224568496
  - # 7
    frequency:    2.3377453091
  - # 8
    frequency:    3.8896037743
  - # 9
    frequency:    4.2847275117
  - # 10
    frequency:    4.8015177707
  - # 11
    frequency:    5.5636042255
  - # 12
    frequency:    6.4111079027
  - # 13
    frequency:    6.5549735640
  - # 14
    frequency:    6.7963698635
  - # 15
    frequency:    8.4442948969
  - # 16
    frequency:   10.2114057050
  - # 17
    frequency:   10.5296362045
  - # 18
    frequency:   10.7685528651
  - # 19
    frequency:   11.1577379648
  - # 20
    frequency:   12.9676926483
  - # 21
    frequency:   17.1045210039
  - # 22
    frequency:   17.7794387202
  - # 23
    frequency:   17.9782680199
  - # 24
    frequency:   21.2120969807
  - # 25
    frequency:   38.5912655906
  - # 26
    frequency:   65.1214801667
  - # 27
    frequency:   68.5244467941

- q-position: [    0.1060606,    0.0000000,    0.0000000 ]
  distance:    0.0353003
  band:
  - # 1
    frequency:   -0.6577958877
  - # 2
    frequency:    0.3758671847
  - # 3
    frequency:    0.5357917274
  - # 4
    frequency:    0.7091241672
  - # 5
    frequency:    1.1959127396
  - # 6
    frequency:    1.4910966305
  - # 7
    frequency:    2.4522172012
  - # 8
    frequency:    3.9070597275
  - # 9
    frequency:    4.3296553834
  - # 10
    frequency:    4.7954678833
  - # 11
    frequency:    5.5746107614
  - # 12
    frequency:    6.4351530918
  - # 13
    frequency:    6.5574903070
  - # 14
    frequency:    6.8411639320
  - # 15
    frequency:    8.4414626607
  - # 16
    frequency:   10.2172387461
  - # 17
    frequency:   10.5386642165
  - # 18
    frequency:   10.7803456204
  - # 19
    frequency:   11.1293998078
  - # 20
    frequency:   13.1696460072
  - # 21
    frequency:   17.0477646242
  - # 22
    frequency:   17.7810681991
  - # 23
    frequency:   17.9901346768
  - # 24
    frequency:   21.2093277843
  - # 25
    frequency:   38.5893403559
  - # 26
    frequency:   65.1180361080
  - # 27
    frequency:   68.4771560142

- q-position: [    0.1111111,    0.0000000,    0.0000000 ]
  distance:    0.0369813
  band:
  - # 1
    frequency:   -0.6410179314
  - # 2
    frequency:    0.4171871406
  - # 3
    frequency:    0.6123999047
  - # 4
    frequency:    0.7723077145
  - # 5
    frequency:    1.2557016080
  - # 6
    frequency:    1.5593314446
  - # 7
    frequency:    2.5656841743
  - # 8
    frequency:    3.9250316819
  - # 9
    frequency:    4.3742317012
  - # 10
    frequency:    4.7907351765
  - # 11
    frequency:    5.5855093902
  - # 12
    frequency:    6.4555307223
  - # 13
    frequency:    6.5598082797
  - # 14
    frequency:    6.8877379517
  - # 15
    frequency:    8.4390323664
  - # 16
    frequency:   10.2225846841
  - # 17
    frequency:   10.5470486522
  - # 18
    frequency:   10.7923931618
  - # 19
    frequency:   11.0992529796
  - # 20
    frequency:   13.3736856242
  - # 21
    frequency:   16.9895209829
  - # 22
    frequency:   17.7827491382
  - # 23
    frequency:   18.0023730042
  - # 24
    frequency:   21.2064686749
  - # 25
    frequency:   38.5873650269
  - # 26
    frequency:   65.1144678752
  - # 27
    frequency:   68.4286070176

- q-position: [    0.1161616,    0.0000000,    0.0000000 ]
  distance:    0.0386623
  band:
  - # 1
    frequency:   -0.6233068475
  - # 2
    frequency:    0.4560105947
  - # 3
    frequency:    0.6837679461
  - # 4
    frequency:    0.8359226590
  - # 5
    frequency:    1.3147413636
  - # 6
    frequency:    1.6271299377
  - # 7
    frequency:    2.6779912021
  - # 8
    frequency:    3.9434847075
  - # 9
    frequency:    4.4180619894
  - # 10
    frequency:    4.7876971377
  - # 11
    frequency:    5.5962462006
  - # 12
    frequency:    6.4731183635
  - # 13
    frequency:    6.5618918844
  - # 14
    frequency:    6.9352875249
  - # 15
    frequency:    8.4370683579
  - # 16
    frequency:   10.2274041443
  - # 17
    frequency:   10.5546608886
  - # 18
    frequency:   10.8046258112
  - # 19
    frequency:   11.0678428023
  - # 20
    frequency:   13.5784230607
  - # 21
    frequency:   16.9299667026
  - # 22
    frequency:   17.7844783736
  - # 23
    frequency:   18.0149782319
  - # 24
    frequency:   21.2035250945
  - # 25
    frequency:   38.5853448705
  - # 26
    frequency:   65.1107810730
  - # 27
    frequency:   68.3789236346

- q-position: [    0.1212121,    0.0000000,    0.0000000 ]
  distance:    0.0403432
  band:
  - # 1
    frequency:   -0.6045852270
  - # 2
    frequency:    0.4928651636
  - # 3
    frequency:    0.7512297089
  - # 4
    frequency:    0.9000955680
  - # 5
    frequency:    1.3730710213
  - # 6
    frequency:    1.6944614543
  - # 7
    frequency:    2.7889595315
  - # 8
    frequency:    3.9623846654
  - # 9
    frequency:    4.4606541756
  - # 10
    frequency:    4.7868541000