nqpoint: 300    
npath: 3      
segment_nqpoint:
- 100
- 100
- 100
labels:
- [ 'G', 'M' ]
- [ 'M', 'K' ]
- [ 'K', 'G' ]
reciprocal_lattice:
- [   0.29676176,   0.17133548,   0.00000000 ] # a*
- [   0.00000000,   0.34267097,   0.00000000 ] # b*
- [   0.00000000,   0.00000000,   0.03890911 ] # c*
natom: 7      
lattice:
- [     3.369706347096320,     0.000000000000000,     0.000000000000000 ] # a
- [    -1.684853173548159,     2.918251299876819,     0.000000000000000 ] # b
- [     0.000000000000000,     0.000000000000000,    25.700919344042948 ] # c
points:
- symbol: C # 1
  coordinates: [  0.000000000000000,  0.000000000000000,  0.500000032010365 ]
  mass: 12.010700
- symbol: N # 2
  coordinates: [  0.333332985432214,  0.666666983183674,  0.598920298429827 ]
  mass: 14.006700
- symbol: N # 3
  coordinates: [  0.666666984744048,  0.333332985985145,  0.401079701570172 ]
  mass: 14.006700
- symbol: O # 4
  coordinates: [  0.333332985432214,  0.666666983183674,  0.649817974231881 ]
  mass: 15.999400
- symbol: O # 5
  coordinates: [  0.666666984744048,  0.333332985985145,  0.350182025768119 ]
  mass: 15.999400
- symbol: Zr # 6
  coordinates: [  0.333332985432214,  0.666666983183674,  0.448558530745327 ]
  mass: 91.224000
- symbol: Zr # 7
  coordinates: [  0.666666984744048,  0.333332985985145,  0.551441468776898 ]
  mass: 91.224000

phonon:
- q-position: [    0.0000000,    0.0000000,    0.0000000 ]
  distance:    0.0000000
  band:
  - # 1
    frequency:   -2.6011307113
  - # 2
    frequency:   -2.6011307113
  - # 3
    frequency:   -2.1949914706
  - # 4
    frequency:   -2.1949914706
  - # 5
    frequency:   -0.0000006211
  - # 6
    frequency:   -0.0000004532
  - # 7
    frequency:    0.0000009283
  - # 8
    frequency:    2.1606008610
  - # 9
    frequency:    3.7396109465
  - # 10
    frequency:    3.7396109465
  - # 11
    frequency:    5.6548985227
  - # 12
    frequency:    5.7326004003
  - # 13
    frequency:    5.7326004003
  - # 14
    frequency:    7.4817651042
  - # 15
    frequency:    7.4817651042
  - # 16
    frequency:    8.1478404999
  - # 17
    frequency:   13.8439696935
  - # 18
    frequency:   13.8439696935
  - # 19
    frequency:   16.1957603390
  - # 20
    frequency:   40.8951072105
  - # 21
    frequency:   41.1806931477

- q-position: [    0.0050505,    0.0000000,    0.0000000 ]
  distance:    0.0017307
  band:
  - # 1
    frequency:   -2.6024053840
  - # 2
    frequency:   -2.6023330381
  - # 3
    frequency:   -2.1952062608
  - # 4
    frequency:   -2.1950092014
  - # 5
    frequency:    0.0319247827
  - # 6
    frequency:    0.0676630963
  - # 7
    frequency:    0.1047018483
  - # 8
    frequency:    2.1673710662
  - # 9
    frequency:    3.7398164924
  - # 10
    frequency:    3.7421883832
  - # 11
    frequency:    5.6544527351
  - # 12
    frequency:    5.7331125604
  - # 13
    frequency:    5.7340100755
  - # 14
    frequency:    7.4784167595
  - # 15
    frequency:    7.4802255321
  - # 16
    frequency:    8.1463708539
  - # 17
    frequency:   13.8435208020
  - # 18
    frequency:   13.8438541549
  - # 19
    frequency:   16.1953477112
  - # 20
    frequency:   40.8945685293
  - # 21
    frequency:   41.1798427609

- q-position: [    0.0101010,    0.0000000,    0.0000000 ]
  distance:    0.0034613
  band:
  - # 1
    frequency:   -2.6062049993
  - # 2
    frequency:   -2.6058774863
  - # 3
    frequency:   -2.1959348948
  - # 4
    frequency:   -2.1950689260
  - # 5
    frequency:    0.0632072826
  - # 6
    frequency:    0.1351559298
  - # 7
    frequency:    0.2096147917
  - # 8
    frequency:    2.1874817555
  - # 9
    frequency:    3.7404349348
  - # 10
    frequency:    3.7499123999
  - # 11
    frequency:    5.6530831391
  - # 12
    frequency:    5.7346472764
  - # 13
    frequency:    5.7382463909
  - # 14
    frequency:    7.4684073790
  - # 15
    frequency:    7.4756112999
  - # 16
    frequency:    8.1419753514
  - # 17
    frequency:   13.8421829979
  - # 18
    frequency:   13.8435096341
  - # 19
    frequency:   16.1941123310
  - # 20
    frequency:   40.8929532293
  - # 21
    frequency:   41.1772934876

- q-position: [    0.0151515,    0.0000000,    0.0000000 ]
  distance:    0.0051920
  band:
  - # 1
    frequency:   -2.6124584158
  - # 2
    frequency:   -2.6115851582
  - # 3
    frequency:   -2.1974256339
  - # 4
    frequency:   -2.1951893761
  - # 5
    frequency:    0.0933956173
  - # 6
    frequency:    0.2023201987
  - # 7
    frequency:    0.3149559703
  - # 8
    frequency:    2.2203455800
  - # 9
    frequency:    3.7414716292
  - # 10
    frequency:    3.7627586951
  - # 11
    frequency:    5.6507070931
  - # 12
    frequency:    5.7371992709
  - # 13
    frequency:    5.7453164737
  - # 14
    frequency:    7.4518453442
  - # 15
    frequency:    7.4679358728
  - # 16
    frequency:    8.1346942190
  - # 17
    frequency:   13.8399826858
  - # 18
    frequency:   13.8429423836
  - # 19
    frequency:   16.1920616655
  - # 20
    frequency:   40.8902635376
  - # 21
    frequency:   41.1730509829

- q-position: [    0.0202020,    0.0000000,    0.0000000 ]
  distance:    0.0069226
  band:
  - # 1
    frequency:   -2.6210535939
  - # 2
    frequency:   -2.6191847819
  - # 3
    frequency:   -2.2000770416
  - # 4
    frequency:   -2.1953990986
  - # 5
    frequency:    0.1223751404
  - # 6
    frequency:    0.2690205847
  - # 7
    frequency:    0.4209475471
  - # 8
    frequency:    2.2650249396
  - # 9
    frequency:    3.7429353093
  - # 10
    frequency:    3.7806885647
  - # 11
    frequency:    5.6472199577
  - # 12
    frequency:    5.7407597968
  - # 13
    frequency:    5.7551968173
  - # 14
    frequency:    7.4289160413
  - # 15
    frequency:    7.4572217389
  - # 16
    frequency:    8.1245942434
  - # 17
    frequency:   13.8369631920
  - # 18
    frequency:   13.8421627147
  - # 19
    frequency:   16.1892080206
  - # 20
    frequency:   40.8865031524
  - # 21
    frequency:   41.1671246520

- q-position: [    0.0252525,    0.0000000,    0.0000000 ]
  distance:    0.0086533
  band:
  - # 1
    frequency:   -2.6318462387
  - # 2
    frequency:   -2.6283465783
  - # 3
    frequency:   -2.2044149194
  - # 4
    frequency:   -2.1957331021
  - # 5
    frequency:    0.1504361507
  - # 6
    frequency:    0.3351540231
  - # 7
    frequency:    0.5278057414
  - # 8
    frequency:    2.3202921188
  - # 9
    frequency:    3.7448378044
  - # 10
    frequency:    3.8036511460
  - # 11
    frequency:    5.6425146488
  - # 12
    frequency:    5.7453167072
  - # 13
    frequency:    5.7678102744
  - # 14
    frequency:    7.3998890309
  - # 15
    frequency:    7.4435004782
  - # 16
    frequency:    8.1117684054
  - # 17
    frequency:   13.8331837693
  - # 18
    frequency:   13.8411848353
  - # 19
    frequency:   16.1855683376
  - # 20
    frequency:   40.8816772235
  - # 21
    frequency:   41.1595276203

- q-position: [    0.0303030,    0.0000000,    0.0000000 ]
  distance:    0.0103840
  band:
  - # 1
    frequency:   -2.6446699623
  - # 2
    frequency:   -2.6387194352
  - # 3
    frequency:   -2.2110598884
  - # 4
    frequency:   -2.1962292131
  - # 5
    frequency:    0.1782430401
  - # 6
    frequency:    0.4006566249
  - # 7
    frequency:    0.6357224989
  - # 8
    frequency:    2.3847065170
  - # 9
    frequency:    3.7471936597
  - # 10
    frequency:    3.8315856690
  - # 11
    frequency:    5.6364844403
  - # 12
    frequency:    5.7508545446
  - # 13
    frequency:    5.7830184033
  - # 14
    frequency:    7.3651281448
  - # 15
    frequency:    7.4268128650
  - # 16
    frequency:    8.0963354095
  - # 17
    frequency:   13.8287182555
  - # 18
    frequency:   13.8400266283
  - # 19
    frequency:   16.1811639182
  - # 20
    frequency:   40.8757923235
  - # 21
    frequency:   41.1502766919

- q-position: [    0.0353535,    0.0000000,    0.0000000 ]
  distance:    0.0121146
  band:
  - # 1
    frequency:   -2.6593466958
  - # 2
    frequency:   -2.6499659156
  - # 3
    frequency:   -2.2206862698
  - # 4
    frequency:   -2.1969247281
  - # 5
    frequency:    0.2067094726
  - # 6
    frequency:    0.4655079185
  - # 7
    frequency:    0.7448458236
  - # 8
    frequency:    2.4566988524
  - # 9
    frequency:    3.7500196697
  - # 10
    frequency:    3.8644228557
  - # 11
    frequency:    5.6290157912
  - # 12
    frequency:    5.7573546411
  - # 13
    frequency:    5.8006224567
  - # 14
    frequency:    7.3251045006
  - # 15
    frequency:    7.4072090045
  - # 16
    frequency:    8.0784391489
  - # 17
    frequency:   13.8236534365
  - # 18
    frequency:   13.8387093742
  - # 19
    frequency:   16.1760200894
  - # 20
    frequency:   40.8688564126
  - # 21
    frequency:   41.1393922969

- q-position: [    0.0404040,    0.0000000,    0.0000000 ]
  distance:    0.0138453
  band:
  - # 1
    frequency:   -2.6756963336
  - # 2
    frequency:   -2.6617921427
  - # 3
    frequency:   -2.2339738121
  - # 4
    frequency:   -2.1978537236
  - # 5
    frequency:    0.2368127230
  - # 6
    frequency:    0.5297323331
  - # 7
    frequency:    0.8552649342
  - # 8
    frequency:    2.5346509634
  - # 9
    frequency:    3.7533343432
  - # 10
    frequency:    3.9020844199
  - # 11
    frequency:    5.6199796422
  - # 12
    frequency:    5.7647952177
  - # 13
    frequency:    5.8203647951
  - # 14
    frequency:    7.2804122768
  - # 15
    frequency:    7.3847485110
  - # 16
    frequency:    8.0582481566
  - # 17
    frequency:   13.8180871719
  - # 18
    frequency:   13.8372574236
  - # 19
    frequency:   16.1701658171
  - # 20
    frequency:   40.8608787948
  - # 21
    frequency:   41.1268984276

- q-position: [    0.0454545,    0.0000000,    0.0000000 ]
  distance:    0.0155760
  band:
  - # 1
    frequency:   -2.6935449534
  - # 2
    frequency:   -2.6739725483
  - # 3
    frequency:   -2.2515544997
  - # 4
    frequency:   -2.1990451399
  - # 5
    frequency:    0.2694026167
  - # 6
    frequency:    0.5933980586
  - # 7
    frequency:    0.9670040470
  - # 8
    frequency:    2.6169625610
  - # 9
    frequency:    3.7571573155
  - # 10
    frequency:    3.9444794834
  - # 11
    frequency:    5.6092254640
  - # 12
    frequency:    5.7731514677
  - # 13
    frequency:    5.8419270143
  - # 14
    frequency:    7.2317867786
  - # 15
    frequency:    7.3595007368
  - # 16
    frequency:    8.0359551032
  - # 17
    frequency:   13.8121263514
  - # 18
    frequency:   13.8356978270
  - # 19
    frequency:   16.1636332817
  - # 20
    frequency:   40.8518700664
  - # 21
    frequency:   41.1128225645

- q-position: [    0.0505051,    0.0000000,    0.0000000 ]
  distance:    0.0173066
  band:
  - # 1
    frequency:   -2.7127312888
  - # 2
    frequency:   -2.6863723064
  - # 3
    frequency:   -2.2739564114
  - # 4
    frequency:   -2.2005215691
  - # 5
    frequency:    0.3050614754
  - # 6
    frequency:    0.6566135608
  - # 7
    frequency:    1.0800254298
  - # 8
    frequency:    2.7021012546
  - # 9
    frequency:    3.7615087308
  - # 10
    frequency:    3.9914966989
  - # 11
    frequency:    5.5965795309
  - # 12
    frequency:    5.7823956026
  - # 13
    frequency:    5.8649245544
  - # 14
    frequency:    7.1801237001
  - # 15
    frequency:    7.3315450619
  - # 16
    frequency:    8.0117764108
  - # 17
    frequency:   13.8058847527
  - # 18
    frequency:   13.8340599287
  - # 19
    frequency:   16.1564574272
  - # 20
    frequency:   40.8418420567
  - # 21
    frequency:   41.0971955926

- q-position: [    0.0555556,    0.0000000,    0.0000000 ]
  distance:    0.0190373
  band:
  - # 1
    frequency:   -2.7331113909
  - # 2
    frequency:   -2.6989732326
  - # 3
    frequency:   -2.3015444726
  - # 4
    frequency:   -2.2022985791
  - # 5
    frequency:    0.3440463330
  - # 6
    frequency:    0.7195221257
  - # 7
    frequency:    1.1942397452
  - # 8
    frequency:    2.7886367852
  - # 9
    frequency:    3.7664086097
  - # 10
    frequency:    4.0429910078
  - # 11
    frequency:    5.5818485539
  - # 12
    frequency:    5.7924968353
  - # 13
    frequency:    5.8888990840
  - # 14
    frequency:    7.1264973655
  - # 15
    frequency:    7.3009712642
  - # 16
    frequency:    7.9859520661
  - # 17
    frequency:   13.7994808737
  - # 18
    frequency:   13.8323749327
  - # 19
    frequency:   16.1486754948
  - # 20
    frequency:   40.8308077619
  - # 21
    frequency:   41.0800517085

- q-position: [    0.0606061,    0.0000000,    0.0000000 ]
  distance:    0.0207679
  band:
  - # 1
    frequency:   -2.7545615803
  - # 2
    frequency:   -2.7119129566
  - # 3
    frequency:   -2.3344530011
  - # 4
    frequency:   -2.2043843866
  - # 5
    frequency:    0.3863087707
  - # 6
    frequency:    0.7822948443
  - # 7
    frequency:    1.3095202856
  - # 8
    frequency:    2.8752629506
  - # 9
    frequency:    3.7718762259
  - # 10
    frequency:    4.0987643253
  - # 11
    frequency:    5.5648308553
  - # 12
    frequency:    5.8034212641
  - # 13
    frequency:    5.9133109167
  - # 14
    frequency:    7.0721738247
  - # 15
    frequency:    7.2678799913
  - # 16
    frequency:    7.9587457259
  - # 17
    frequency:   13.7930358072
  - # 18
    frequency:   13.8306754488
  - # 19
    frequency:   16.1403265510
  - # 20
    frequency:   40.8187812692
  - # 21
    frequency:   41.0614283207

- q-position: [    0.0656566,    0.0000000,    0.0000000 ]
  distance:    0.0224986
  band:
  - # 1
    frequency:   -2.7769798703
  - # 2
    frequency:   -2.7255539786
  - # 3
    frequency:   -2.3724960578
  - # 4
    frequency:   -2.2067797185
  - # 5
    frequency:    0.4315634446
  - # 6
    frequency:    0.8451224684
  - # 7
    frequency:    1.4257175500
  - # 8
    frequency:    2.9608109589
  - # 9
    frequency:    3.7779295055
  - # 10
    frequency:    4.1585400152
  - # 11
    frequency:    5.5453388037
  - # 12
    frequency:    5.8151316143
  - # 13
    frequency:    5.9375353051
  - # 14
    frequency:    7.0186117440
  - # 15
    frequency:    7.2323833694
  - # 16
    frequency:    7.9304452247
  - # 17
    frequency:   13.7866712234
  - # 18
    frequency:   13.8289950280
  - # 19
    frequency:   16.1314510185
  - # 20
    frequency:   40.8057776744
  - # 21
    frequency:   41.0413659426

- q-position: [    0.0707071,    0.0000000,    0.0000000 ]
  distance:    0.0242293
  band:
  - # 1
    frequency:   -2.8002860802
  - # 2
    frequency:   -2.7406103168
  - # 3
    frequency:   -2.4150280818
  - # 4
    frequency:   -2.2094777487
  - # 5
    frequency:    0.4793727014
  - # 6
    frequency:    0.9082065693
  - # 7
    frequency:    1.5426713830
  - # 8
    frequency:    3.0442566128
  - # 9
    frequency:    3.7845844672
  - # 10
    frequency:    4.2219316048
  - # 11
    frequency:    5.5232377070
  - # 12
    frequency:    5.8275867745
  - # 13
    frequency:    5.9608692466
  - # 14
    frequency:    6.9674400675
  - # 15
    frequency:    7.1946057963
  - # 16
    frequency:    7.9013636099
  - # 17
    frequency:   13.7805075144
  - # 18
    frequency:   13.8273676952
  - # 19
    frequency:   16.1220902175
  - # 20
    frequency:   40.7918129893
  - # 21
    frequency:   41.0199080812

- q-position: [    0.0757576,    0.0000000,    0.0000000 ]
  distance:    0.0259599
  band:
  - # 1
    frequency:   -2.8244208524
  - # 2
    frequency:   -2.7583696676
  - # 3
    frequency:   -2.4607151088
  - # 4
    frequency:   -2.2124640481
  - # 5
    frequency:    0.5292244837
  - # 6
    frequency:    0.9717504278
  - # 7
    frequency:    1.6602190977
  - # 8
    frequency:    3.1247218959
  - # 9
    frequency:    3.7918547148
  - # 10
    frequency:    4.2884064049
  - # 11
    frequency:    5.4985071368
  - # 12
    frequency:    5.8407410466
  - # 13
    frequency:    5.9825591959
  - # 14
    frequency:    6.9203974103
  - # 15
    frequency:    7.1546849863
  - # 16
    frequency:    7.8718408417
  - # 17
    frequency:   13.7746621455
  - # 18
    frequency:   13.8258274871
  - # 19
    frequency:   16.1122859212
  - # 20
    frequency:   40.7769040393
  - # 21
    frequency:   40.9971011236

- q-position: [    0.0808081,    0.0000000,    0.0000000 ]
  distance:    0.0276906
  band:
  - # 1
    frequency:   -2.8493437811
  - # 2
    frequency:   -2.7810154244
  - # 3
    frequency:   -2.5072094241
  - # 4
    frequency:   -2.2157165254
  - # 5
    frequency:    0.5805930102
  - # 6
    frequency:    1.0359500750
  - # 7
    frequency:    1.7781991494
  - # 8
    frequency:    3.2014702474
  - # 9
    frequency:    3.7997509908
  - # 10
    frequency:    4.3572439877
  - # 11
    frequency:    5.4713297665
  - # 12
    frequency:    5.8545429976
  - # 13
    frequency:    6.0018626665
  - # 14
    frequency:    6.8792172515
  - # 15
    frequency:    7.1127733635
  - # 16
    frequency:    7.8422463046
  - # 17
    frequency:   13.7692482481
  - # 18
    frequency:   13.8244080036
  - # 19
    frequency:   16.1020799291
  - # 20
    frequency:   40.7610683500
  - # 21
    frequency:   40.9729942236

- q-position: [    0.0858586,    0.0000000,    0.0000000 ]
  distance:    0.0294212
  band:
  - # 1
    frequency:   -2.8750308428
  - # 2
    frequency:   -2.8118214484
  - # 3
    frequency:   -2.5509519957
  - # 4
    frequency:   -2.2192053728
  - # 5
    frequency:    0.6329804445
  - # 6
    frequency:    1.1009858863
  - # 7
    frequency:    1.8964507244
  - # 8
    frequency:    3.2738947769
  - # 9
    frequency:    3.8082808001
  - # 10
    frequency:    4.4274875394
  - # 11
    frequency:    5.4422092410
  - # 12
    frequency:    5.8689337552
  - # 13
    frequency:    6.0181527372
  - # 14
    frequency:    6.8454515390
  - # 15
    frequency:    7.0690399457
  - # 16
    frequency:    7.8129822523
  - # 17
    frequency:   13.7643734730
  - # 18
    frequency:   13.8231419796
  - # 19
    frequency:   16.0915136605
  - # 20
    frequency:   40.7443240187
  - # 21
    frequency:   40.9476391921

- q-position: [    0.0909091,    0.0000000,    0.0000000 ]
  distance:    0.0311519
  band:
  - # 1
    frequency:   -2.9014713051
  - # 2
    frequency:   -2.8544647932
  - # 3
    frequency:   -2.5878555950
  - # 4
    frequency:   -2.2228930457
  - # 5
    frequency:    0.6859421298
  - # 6
    frequency:    1.1670150959
  - # 7
    frequency:    2.0148099526
  - # 8
    frequency:    3.3415000887
  - # 9
    frequency:    3.8174481038
  - # 10
    frequency:    4.4978836984
  - # 11
    frequency:    5.4121118073
  - # 12
    frequency:    5.8838445246
  - # 13
    frequency:    6.0310568044
  - # 14
    frequency:    6.8202502406
  - # 15
    frequency:    7.0236729220
  - # 16
    frequency:    7.7844882435
  - # 17
    frequency:   13.7601391157
  - # 18
    frequency:   13.8220608840
  - # 19
    frequency:   16.0806277684
  - # 20
    frequency:   40.7266895693
  - # 21
    frequency:   40.9210903967

- q-position: [    0.0959596,    0.0000000,    0.0000000 ]
  distance:    0.0328826
  band:
  - # 1
    frequency:   -2.9286642836
  - # 2
    frequency:   -2.9110328271
  - # 3
    frequency:   -2.6152915986
  - # 4
    frequency:   -2.2267343272
  - # 5
    frequency:    0.7390993452
  - # 6
    frequency:    1.2341655468
  - # 7
    frequency:    2.1331033786
  - # 8
    frequency:    3.4038808590
  - # 9
    frequency:    3.8272530877
  - # 10
    frequency:    4.5668073473
  - # 11
    frequency:    5.3826157610
  - # 12
    frequency:    5.8991930062
  - # 13
    frequency:    6.0405900661
  - # 14
    frequency:    6.8041525853
  - # 15
    frequency:    6.9768832282
  - # 16
    frequency:    7.7572464505
  - # 17
    frequency:   13.7566395116
  - # 18
    frequency:   13.8211945516
  - # 19
    frequency:   16.0694617740
  - # 20
    frequency:   40.7081837845
  - # 21
    frequency:   40.8934046762

- q-position: [    0.1010101,    0.0000000,    0.0000000 ]
  distance:    0.0346132
  band:
  - # 1
    frequency:   -2.9807243054
  - # 2
    frequency:   -2.9566151016
  - # 3
    frequency:   -2.6333817303
  - # 4
    frequency:   -2.2306765269
  - # 5
    frequency:    0.7921433864
  - # 6
    frequency:    1.3025309169
  - # 7
    frequency:    2.2511389259
  - # 8
    frequency:    3.4607031015
  - # 9
    frequency:    3.8376920017
  - # 10
    frequency:    4.6321830854
  - # 11
    frequency:    5.3560324391
  - # 12
    frequency:    5.9148782469
  - # 13
    frequency:    6.0472216167
  - # 14
    frequency:    6.7969713159
  - # 15
    frequency:    6.9289095676
  - # 16
    frequency:    7.7317873700
  - # 17
    frequency:   13.7539616906
  - # 18
    frequency:   13.8205708516
  - # 19
    frequency:   16.0580537215
  - # 20
    frequency:   40.6888255078
  - # 21
    frequency:   40.8646412793

- q-position: [    0.1060606,    0.0000000,    0.0000000 ]
  distance:    0.0363439
  band:
  - # 1
    frequency:   -3.0609599337
  - # 2
    frequency:   -2.9853316032
  - # 3
    frequency:   -2.6438811301
  - # 4
    frequency:   -2.2346598676
  - # 5
    frequency:    0.8448340486
  - # 6
    frequency:    1.3721675659
  - # 7
    frequency:    2.3686939021
  - # 8
    frequency:    3.5116964632
  - # 9
    frequency:    3.8487570698
  - # 10
    frequency:    4.6914700293
  - # 11
    frequency:    5.3354115750
  - # 12
    frequency:    5.9307732401
  - # 13
    frequency:    6.0518296799
  - # 14
    frequency:    6.7978277688
  - # 15
    frequency:    6.8800255421
  - # 16
    frequency:    7.7086948176
  - # 17
    frequency:   13.7521852749
  - # 18
    frequency:   13.8202153988
  - # 19
    frequency:   16.0464398529
  - # 20
    frequency:   40.6686334057
  - # 21
    frequency:   40.8348618389

- q-position: [    0.1111111,    0.0000000,    0.0000000 ]
  distance:    0.0380746
  band:
  - # 1
    frequency:   -3.1489827086
  - # 2
    frequency:   -3.0148205550
  - # 3
    frequency:   -2.6485750050
  - # 4
    frequency:   -2.2386181011
  - # 5
    frequency:    0.8969947654
  - # 6
    frequency:    1.4430930486
  - # 7
    frequency:    2.4854985830
  - # 8
    frequency:    3.5566673718
  - # 9
    frequency:    3.8604364675
  - # 10
    frequency:    4.7418973449
  - # 11
    frequency:    5.3242355274
  - # 12
    frequency:    5.9467142723
  - # 13
    frequency:    6.0555628402
  - # 14
    frequency:    6.8053239451
  - # 15
    frequency:    6.8305498758
  - # 16
    frequency:    7.6886080254
  - # 17
    frequency:   13.7513825957
  - # 18
    frequency:   13.8201513077
  - # 19
    frequency:   16.0346543021
  - # 20
    frequency:   40.6476256740
  - # 21
    frequency:   40.8041303997

- q-position: [    0.1161616,    0.0000000,    0.0000000 ]
  distance:    0.0398052
  band:
  - # 1
    frequency:   -3.2424467766
  - # 2
    frequency:   -3.0450842580
  - # 3
    frequency:   -2.6486926500
  - # 4
    frequency:   -2.2424793853
  - # 5
    frequency:    0.9485059453
  - # 6
    frequency:    1.5152862346
  - # 7
    frequency:    2.6012123641
  - # 8
    frequency:    3.5955429070
  - # 9
    frequency:    3.8727143644
  - # 10
    frequency:    4.7812309768
  - # 11
    frequency:    5.3255293654
  - # 12
    frequency:    5.9624855769
  - # 13
    frequency:    6.0596749729
  - # 14
    frequency:    6.7808611533
  - # 15
    frequency:    6.8177751037
  - # 16
    frequency:    7.6722171629
  - # 17
    frequency:   13.7516190036
  - # 18
    frequency:   13.8203989935
  - # 19
    frequency:   16.0227288101
  - # 20
    frequency:   40.6258196665
  - # 21
    frequency:   40.7725135211

- q-position: [    0.1212121,    0.0000000,    0.0000000 ]
  distance:    0.0415359
  band:
  - # 1
    frequency:   -3.3393860236
  - # 2
    frequency:   -3.0761174702
  - # 3
    frequency:   -2.6449494989
  - # 4
    frequency:   -2.2461674315
  - # 5
    frequency:    0.9992975026
  - # 6
    frequency:    1.5886888836
  - # 7
    frequency:    2.7153869564
  - # 8
    frequency:    3.6284532528
  - # 9
    frequency:    3.8855710305
  - # 10
    frequency:    4.8090073473
  - # 11
    frequency:    5.3404719589
  - # 12
    frequency:    5.9777973263
  - # 13
    frequency:    6.0653976432
  - # 14
    frequency:    6.7314190218
  - # 15
    frequency:    6.8334237670
  - # 16
    frequency:    7.6602469865
  - # 17
    frequency:   13.7529533437
  - # 18
    frequency:   13.8209760196
  - # 19
    frequency:   16.0106924607
  - # 20
    frequency:   40.6032314144
  - # 21
    frequency:   40.7400804901

- q-position: [    0.1262626,    0.0000000,    0.0000000 ]
  distance:    0.0432665
  band:
  - # 1
    frequency:   -3.4380694191
  - # 2
    frequency:   -3.1079047208
  - # 3
    frequency:   -2.6377108579
  - # 4
    frequency:   -2.2496029110
  - # 5
    frequency:    1.0493411993
  - # 6
    frequency:    1.6632084542
  - # 7
    frequency:    2.8274068855
  - # 8
    frequency:    3.6558563742
  - # 9
    frequency:    3.8989830044
  - # 10
    frequency:    4.8272597917
  - # 11
    frequency:    5.3675137550
  - # 12
    frequency:    5.9922545859
  - # 13
    frequency:    6.0738691392
  - # 14
    frequency:    6.6827942194
  - # 15
    frequency:    6.8505997034
  - # 16
    frequency:    7.6534226189
  - # 17
    frequency:   13.7554385661
  - # 18
    frequency:   13.8218969919
  - # 19
    frequency:   15.9985714400
  - # 20
    frequency:   40.5798749909
  - # 21
    frequency:   40.7069036906

- q-position: [    0.1313131,    0.0000000,    0.0000000 ]
  distance:    0.0449972
  band:
  - # 1
    frequency:   -3.5368995377
  - # 2
    frequency:   -3.1404180695
  - # 3
    frequency:   -2.6271201208
  - # 4
    frequency:   -2.2527050881
  - # 5
    frequency:    1.0986431648
  - # 6
    frequency:    1.7387218775
  - # 7
    frequency:    2.9363908467
  - # 8
    frequency:    3.6787042303
  - # 9
    frequency:    3.9129233268
  - # 10
    frequency:    4.8397673634
  - # 11
    frequency:    5.4030114896
  - # 12
    frequency:    6.0053153415
  - # 13
    frequency:    6.0860979409
  - # 14
    frequency:    6.6357093050
  - # 15
    frequency:    6.8678322114
  - # 16
    frequency:    7.6524136361
  - # 17
    frequency:   13.7591224443
  - # 18
    frequency:   13.8231734992
  - # 19
    frequency:   15.9863888214
  - # 20
    frequency:   40.5557616553
  - # 21
    frequency:   40.6730591960

- q-position: [    0.1363636,    0.0000000,    0.0000000 ]
  distance:    0.0467279
  band:
  - # 1
    frequency:   -3.6343639812
  - # 2
    frequency:   -3.1736153434
  - # 3
    frequency:   -2.6131795918
  - # 4
    frequency:   -2.2553936254
  - # 5
    frequency:    1.1472368040
  - # 6
    frequency:    1.8150800099
  - # 7
    frequency:    3.0410294148
  - # 8
    frequency:    3.6986495383
  - # 9
    frequency:    3.9273618389
  - # 10
    frequency:    4.8504783312
  - # 11
    frequency:    5.4427696809
  - # 12
    frequency:    6.0162392220
  - # 13
    frequency:    6.1029238132
  - # 14
    frequency:    6.5910884615
  - # 15
    frequency:    6.8839339765
  - # 16
    frequency:    7.6577596963
  - # 17
    frequency:   13.7640483707
  - # 18
    frequency:   13.8248140973
  - # 19
    frequency:   15.9741643811
  - # 20
    frequency:   40.5308986869
  - # 21
    frequency:   40.6386276764

- q-position: [    0.1414141,    0.0000000,    0.0000000 ]
  distance:    0.0484585
  band:
  - # 1
    frequency:   -3.7290215789
  - # 2
    frequency:   -3.2074388589
  - # 3
    frequency:   -2.5957989579
  - # 4
    frequency:   -2.2575904943
  - # 5
    frequency:    1.1951762166
  - # 6
    frequency:    1.8921124832
  - # 7
    frequency:    3.1393378959
  - # 8
    frequency:    3.7182908583
  - # 9
    frequency:    3.9422655511
  - # 10
    frequency:    4.8624264577
  - # 11
    frequency:    5.4831982847
  - # 12
    frequency:    6.0240398100
  - # 13
    frequency:    6.1249510203
  - # 14
    frequency:    6.5501034775
  - # 15
    frequency:    6.8980645689
  - # 16
    frequency:    7.6697923500
  - # 17
    frequency:   13.7702562056
  - # 18
    frequency:   13.8268243345
  - # 19
    frequency:   15.9619144464
  - # 20
    frequency:   40.5052877910
  - # 21
    frequency:   40.6036957395

- q-position: [    0.1464646,    0.0000000,    0.0000000 ]
  distance:    0.0501892
  band:
  - # 1
    frequency:   -3.8195070153
  - # 2
    frequency:   -3.2418146190
  - # 3
    frequency:   -2.5748244010
  - # 4
    frequency:   -2.2592219153
  - # 5
    frequency:    1.2425301982
  - # 6
    frequency:    1.9696327015
  - # 7
    frequency:    3.2283740678
  - # 8
    frequency:    3.7413983930
  - # 9
    frequency:    3.9575990858
  - # 10
    frequency:    4.8774706091
  - # 11
    frequency:    5.5217442427
  - # 12
    frequency:    6.0274791204
  - # 13
    frequency:    6.1524576892
  - # 14
    frequency:    6.5141773333
  - # 15
    frequency:    6.9097646389
  - # 16
    frequency:    7.6885773680
  - # 17
    frequency:   13.7777831512
  - # 18
    frequency:   13.8292068158
  - # 19
    frequency:   15.9496517831
  - # 20
    frequency:   40.4789229445
  - # 21
    frequency:   40.5683578400

- q-position: [    0.1515152,    0.0000000,    0.0000000 ]
  distance:    0.0519198
  band:
  - # 1
    frequency:   -3.9045429085
  - # 2
    frequency:   -3.2766519607
  - # 3
    frequency:   -2.5500563318
  - # 4
    frequency:   -2.2602202496
  - # 5
    frequency:    1.2893768653
  - # 6
    frequency:    2.0474427684
  - # 7
    frequency:    3.3042500006
  - # 8
    frequency:    3.7728052315
  - # 9
    frequency:    3.9733252003
  - # 10
    frequency:    4.8964880148
  - # 11
    frequency:    5.5569046532
  - # 12
    frequency:    6.0251794489
  - # 13
    frequency:    6.1853196805
  - # 14
    frequency:    6.4848702045
  - # 15
    frequency:    6.9189461370
  - # 16
    frequency:    7.7139005189
  - # 17
    frequency:   13.7866646274
  - # 18
    frequency:   13.8319613009
  - # 19
    frequency:   15.9373855269
  - # 20
    frequency:   40.4517875867
  - # 21
    frequency:   40.5327188505