nqpoint: 300    
npath: 3      
segment_nqpoint:
- 100
- 100
- 100
labels:
- [ 'G', 'M' ]
- [ 'M', 'K' ]
- [ 'K', 'G' ]
reciprocal_lattice:
- [   0.30502664,   0.17610721,   0.00000000 ] # a*
- [   0.00000000,   0.35221443,   0.00000000 ] # b*
- [   0.00000000,   0.00000000,   0.03896848 ] # c*
natom: 7      
lattice:
- [     3.278402135549554,     0.000000000000000,     0.000000000000000 ] # a
- [    -1.639201067774776,     2.839179533209133,     0.000000000000000 ] # b
- [     0.000000000000000,     0.000000000000000,    25.661768397896580 ] # c
points:
- symbol: C # 1
  coordinates: [  0.333332985432215,  0.666666983183674,  0.602095533093153 ]
  mass: 12.010700
- symbol: Hf # 2
  coordinates: [  0.333332985432215,  0.666666983183674,  0.447759960922742 ]
  mass: 178.490000
- symbol: Hf # 3
  coordinates: [  0.666666984744047,  0.333332985985145,  0.545503813598167 ]
  mass: 178.490000
- symbol: N # 4
  coordinates: [  0.000000000000000,  0.000000000000000,  0.497822066535202 ]
  mass: 14.006700
- symbol: N # 5
  coordinates: [  0.333332985432215,  0.666666983183674,  0.649283718080095 ]
  mass: 14.006700
- symbol: N # 6
  coordinates: [  0.666666984744047,  0.333332985985145,  0.402750795598049 ]
  mass: 14.006700
- symbol: O # 7
  coordinates: [  0.666666984744047,  0.333332985985145,  0.350716281919905 ]
  mass: 15.999400

phonon:
- q-position: [    0.0000000,    0.0000000,    0.0000000 ]
  distance:    0.0000000
  band:
  - # 1
    frequency:   -5.1632232917
  - # 2
    frequency:   -5.1632232917
  - # 3
    frequency:   -0.0000057919
  - # 4
    frequency:    0.0000002802
  - # 5
    frequency:    0.0000063864
  - # 6
    frequency:    1.4856926103
  - # 7
    frequency:    1.4856926103
  - # 8
    frequency:    2.7702621344
  - # 9
    frequency:    2.7702621344
  - # 10
    frequency:    4.1502293179
  - # 11
    frequency:    6.8652563142
  - # 12
    frequency:    6.8652563142
  - # 13
    frequency:    7.2934946696
  - # 14
    frequency:    7.2934946696
  - # 15
    frequency:    8.0687711813
  - # 16
    frequency:    8.7001788439
  - # 17
    frequency:   14.0772677385
  - # 18
    frequency:   14.0772677385
  - # 19
    frequency:   14.9136092297
  - # 20
    frequency:   36.7906046614
  - # 21
    frequency:   58.8573401072

- q-position: [    0.0050505,    0.0000000,    0.0000000 ]
  distance:    0.0017789
  band:
  - # 1
    frequency:   -5.1631650876
  - # 2
    frequency:   -5.1624377337
  - # 3
    frequency:    0.0011323901
  - # 4
    frequency:    0.0529169034
  - # 5
    frequency:    0.0914039768
  - # 6
    frequency:    1.4852958784
  - # 7
    frequency:    1.4866649798
  - # 8
    frequency:    2.7707471548
  - # 9
    frequency:    2.7709195468
  - # 10
    frequency:    4.1501297022
  - # 11
    frequency:    6.8641556441
  - # 12
    frequency:    6.8649588927
  - # 13
    frequency:    7.2943138309
  - # 14
    frequency:    7.2950889333
  - # 15
    frequency:    8.0686220117
  - # 16
    frequency:    8.7002077555
  - # 17
    frequency:   14.0770675273
  - # 18
    frequency:   14.0774151638
  - # 19
    frequency:   14.9133754383
  - # 20
    frequency:   36.7900031918
  - # 21
    frequency:   58.8572789538

- q-position: [    0.0101010,    0.0000000,    0.0000000 ]
  distance:    0.0035577
  band:
  - # 1
    frequency:   -5.1629940330
  - # 2
    frequency:   -5.1600814027
  - # 3
    frequency:    0.0045216550
  - # 4
    frequency:    0.1058157484
  - # 5
    frequency:    0.1827803363
  - # 6
    frequency:    1.4841061513
  - # 7
    frequency:    1.4895735395
  - # 8
    frequency:    2.7722004721
  - # 9
    frequency:    2.7728898184
  - # 10
    frequency:    4.1498293923
  - # 11
    frequency:    6.8608761358
  - # 12
    frequency:    6.8640860184
  - # 13
    frequency:    7.2967483592
  - # 14
    frequency:    7.2998500103
  - # 15
    frequency:    8.0681767121
  - # 16
    frequency:    8.7002946969
  - # 17
    frequency:   14.0764656589
  - # 18
    frequency:   14.0778589802
  - # 19
    frequency:   14.9126741788
  - # 20
    frequency:   36.7881998287
  - # 21
    frequency:   58.8570955406

- q-position: [    0.0151515,    0.0000000,    0.0000000 ]
  distance:    0.0053366
  band:
  - # 1
    frequency:   -5.1627207379
  - # 2
    frequency:   -5.1561553434
  - # 3
    frequency:    0.0101453059
  - # 4
    frequency:    0.1586778671
  - # 5
    frequency:    0.2741006093
  - # 6
    frequency:    1.4821248645
  - # 7
    frequency:    1.4943929143
  - # 8
    frequency:    2.7746168408
  - # 9
    frequency:    2.7761671211
  - # 10
    frequency:    4.1493240069
  - # 11
    frequency:    6.8554825006
  - # 12
    frequency:    6.8626935852
  - # 13
    frequency:    7.3007322196
  - # 14
    frequency:    7.3077149675
  - # 15
    frequency:    8.0674419797
  - # 16
    frequency:    8.7004402824
  - # 17
    frequency:   14.0754584640
  - # 18
    frequency:   14.0786037786
  - # 19
    frequency:   14.9115057908
  - # 20
    frequency:   36.7851977071
  - # 21
    frequency:   58.8567900090

- q-position: [    0.0202020,    0.0000000,    0.0000000 ]
  distance:    0.0071154
  band:
  - # 1
    frequency:   -5.1623626789
  - # 2
    frequency:   -5.1506613491
  - # 3
    frequency:    0.0179661327
  - # 4
    frequency:    0.2114833425
  - # 5
    frequency:    0.3653346105
  - # 6
    frequency:    1.4793545157
  - # 7
    frequency:    1.5010817114
  - # 8
    frequency:    2.7779874728
  - # 9
    frequency:    2.7807419617
  - # 10
    frequency:    4.1486062700
  - # 11
    frequency:    6.8480740596
  - # 12
    frequency:    6.8608677851
  - # 13
    frequency:    7.3061640034
  - # 14
    frequency:    7.3185856568
  - # 15
    frequency:    8.0664292122
  - # 16
    frequency:    8.7006455215
  - # 17
    frequency:   14.0740399445
  - # 18
    frequency:   14.0796571087
  - # 19
    frequency:   14.9098708249
  - # 20
    frequency:   36.7810020436
  - # 21
    frequency:   58.8563625945

- q-position: [    0.0252525,    0.0000000,    0.0000000 ]
  distance:    0.0088943
  band:
  - # 1
    frequency:   -5.1619438901
  - # 2
    frequency:   -5.1436020398
  - # 3
    frequency:    0.0279329669
  - # 4
    frequency:    0.2642103067
  - # 5
    frequency:    0.4564495460
  - # 6
    frequency:    1.4757988329
  - # 7
    frequency:    1.5095838387
  - # 8
    frequency:    2.7822999743
  - # 9
    frequency:    2.7866014958
  - # 10
    frequency:    4.1476660490
  - # 11
    frequency:    6.8387743341
  - # 12
    frequency:    6.8587165524
  - # 13
    frequency:    7.3129175159
  - # 14
    frequency:    7.3323369130
  - # 15
    frequency:    8.0651548785
  - # 16
    frequency:    8.7009117976
  - # 17
    frequency:   14.0722019458
  - # 18
    frequency:   14.0810293282
  - # 19
    frequency:   14.9077700219
  - # 20
    frequency:   36.7756201236
  - # 21
    frequency:   58.8558136267

- q-position: [    0.0303030,    0.0000000,    0.0000000 ]
  distance:    0.0106732
  band:
  - # 1
    frequency:   -5.1614945361
  - # 2
    frequency:   -5.1349809682
  - # 3
    frequency:    0.0399815514
  - # 4
    frequency:    0.3168341408
  - # 5
    frequency:    0.5474090695
  - # 6
    frequency:    1.4714630352
  - # 7
    frequency:    1.5198303047
  - # 8
    frequency:    2.7875382676
  - # 9
    frequency:    2.7937299308
  - # 10
    frequency:    4.1464904095
  - # 11
    frequency:    6.8277201647
  - # 12
    frequency:    6.8563605362
  - # 13
    frequency:    7.3208529000
  - # 14
    frequency:    7.3488250386
  - # 15
    frequency:    8.0636410739
  - # 16
    frequency:    8.7012408421
  - # 17
    frequency:   14.0699343938
  - # 18
    frequency:   14.0827333945
  - # 19
    frequency:   14.9052042841
  - # 20
    frequency:   36.7690612837
  - # 21
    frequency:   58.8551435290

- q-position: [    0.0353535,    0.0000000,    0.0000000 ]
  distance:    0.0124520
  band:
  - # 1
    frequency:   -5.1610503707
  - # 2
    frequency:   -5.1248027547
  - # 3
    frequency:    0.0540355835
  - # 4
    frequency:    0.3693265380
  - # 5
    frequency:    0.6381722389
  - # 6
    frequency:    1.4663542144
  - # 7
    frequency:    1.5317414694
  - # 8
    frequency:    2.7936825073
  - # 9
    frequency:    2.8021089903
  - # 10
    frequency:    4.1450636872
  - # 11
    frequency:    6.8150522399
  - # 12
    frequency:    6.8539251272
  - # 13
    frequency:    7.3298264159
  - # 14
    frequency:    7.3678949995
  - # 15
    frequency:    8.0619163045
  - # 16
    frequency:    8.7016347058
  - # 17
    frequency:   14.0672255910
  - # 18
    frequency:   14.0847846025
  - # 19
    frequency:   14.9021746426
  - # 20
    frequency:   36.7613368891
  - # 21
    frequency:   58.8543528185

- q-position: [    0.0404040,    0.0000000,    0.0000000 ]
  distance:    0.0142309
  band:
  - # 1
    frequency:   -5.1606520885
  - # 2
    frequency:   -5.1130732462
  - # 3
    frequency:    0.0700078872
  - # 4
    frequency:    0.4216543759
  - # 5
    frequency:    0.7286923026
  - # 6
    frequency:    1.4604818850
  - # 7
    frequency:    1.5452297469
  - # 8
    frequency:    2.8007090018
  - # 9
    frequency:    2.8117184030
  - # 10
    frequency:    4.1433675770
  - # 11
    frequency:    6.8009080479
  - # 12
    frequency:    6.8515343901
  - # 13
    frequency:    7.3396978532
  - # 14
    frequency:    7.3893854064
  - # 15
    frequency:    8.0600165641
  - # 16
    frequency:    8.7020957309
  - # 17
    frequency:   14.0640625646
  - # 18
    frequency:   14.0872002730
  - # 19
    frequency:   14.8986822224
  - # 20
    frequency:   36.7524603063
  - # 21
    frequency:   58.8534421055

- q-position: [    0.0454545,    0.0000000,    0.0000000 ]
  distance:    0.0160097
  band:
  - # 1
    frequency:   -5.1603445771
  - # 2
    frequency:   -5.0997996980
  - # 3
    frequency:    0.0878016666
  - # 4
    frequency:    0.4737783283
  - # 5
    frequency:    0.8189151774
  - # 6
    frequency:    1.4538587704
  - # 7
    frequency:    1.5602028117
  - # 8
    frequency:    2.8085901509
  - # 9
    frequency:    2.8225363841
  - # 10
    frequency:    4.1413812408
  - # 11
    frequency:    6.7854174544
  - # 12
    frequency:    6.8493070843
  - # 13
    frequency:    7.3503353709
  - # 14
    frequency:    7.4131309919
  - # 15
    frequency:    8.0579868064
  - # 16
    frequency:    8.7026265289
  - # 17
    frequency:   14.0604314611
  - # 18
    frequency:   14.0899993956
  - # 19
    frequency:   14.8947282070
  - # 20
    frequency:   36.7424468698
  - # 21
    frequency:   58.8524120937

- q-position: [    0.0505051,    0.0000000,    0.0000000 ]
  distance:    0.0177886
  band:
  - # 1
    frequency:   -5.1601760820
  - # 2
    frequency:   -5.0849909749
  - # 3
    frequency:    0.1073117964
  - # 4
    frequency:    0.5256511123
  - # 5
    frequency:    0.9087773785
  - # 6
    frequency:    1.4465019386
  - # 7
    frequency:    1.5765674777
  - # 8
    frequency:    2.8172944122
  - # 9
    frequency:    2.8345400742
  - # 10
    frequency:    4.1390814360
  - # 11
    frequency:    6.7687005693
  - # 12
    frequency:    6.8473545080
  - # 13
    frequency:    7.3616180918
  - # 14
    frequency:    7.4389626870
  - # 15
    frequency:    8.0558829589
  - # 16
    frequency:    8.7032299672
  - # 17
    frequency:   14.0563179779
  - # 18
    frequency:   14.0932022323
  - # 19
    frequency:   14.8903138072
  - # 20
    frequency:   36.7313138460
  - # 21
    frequency:   58.8512635794

- q-position: [    0.0555556,    0.0000000,    0.0000000 ]
  distance:    0.0195675
  band:
  - # 1
    frequency:   -5.1601972951
  - # 2
    frequency:   -5.0686577679
  - # 3
    frequency:    0.1284261109
  - # 4
    frequency:    0.5772152085
  - # 5
    frequency:    0.9982029454
  - # 6
    frequency:    1.4384344559
  - # 7
    frequency:    1.5942346329
  - # 8
    frequency:    2.8267863055
  - # 9
    frequency:    2.8477059113
  - # 10
    frequency:    4.1364426654
  - # 11
    frequency:    6.7508673381
  - # 12
    frequency:    6.8457796984
  - # 13
    frequency:    7.3734370097
  - # 14
    frequency:    7.4667055332
  - # 15
    frequency:    8.0537747002
  - # 16
    frequency:    8.7039091719
  - # 17
    frequency:   14.0517078241
  - # 18
    frequency:   14.0968298889
  - # 19
    frequency:   14.8854402352
  - # 20
    frequency:   36.7190803901
  - # 21
    frequency:   58.8499974511

- q-position: [    0.0606061,    0.0000000,    0.0000000 ]
  distance:    0.0213463
  band:
  - # 1
    frequency:   -5.1604603831
  - # 2
    frequency:   -5.0508128238
  - # 3
    frequency:    0.1510266565
  - # 4
    frequency:    0.6283997957
  - # 5
    frequency:    1.0870984797
  - # 6
    frequency:    1.4296878340
  - # 7
    frequency:    1.6131260600
  - # 8
    frequency:    2.8370264661
  - # 9
    frequency:    2.8620099123
  - # 10
    frequency:    4.1334373520
  - # 11
    frequency:    6.7320182793
  - # 12
    frequency:    6.8446774992
  - # 13
    frequency:    7.3856947763
  - # 14
    frequency:    7.4961745741
  - # 15
    frequency:    8.0517493326
  - # 16
    frequency:    8.7046675508
  - # 17
    frequency:   14.0465872018
  - # 18
    frequency:   14.1009038598
  - # 19
    frequency:   14.8801086890
  - # 20
    frequency:   36.7057675006
  - # 21
    frequency:   58.8486146898

- q-position: [    0.0656566,    0.0000000,    0.0000000 ]
  distance:    0.0231252
  band:
  - # 1
    frequency:   -5.1610179735
  - # 2
    frequency:   -5.0314711819
  - # 3
    frequency:    0.1749908836
  - # 4
    frequency:    0.6791164756
  - # 5
    frequency:    1.1753444710
  - # 6
    frequency:    1.4203057149
  - # 7
    frequency:    1.6331849153
  - # 8
    frequency:    2.8479717513
  - # 9
    frequency:    2.8774278527
  - # 10
    frequency:    4.1300360394
  - # 11
    frequency:    6.7122458879
  - # 12
    frequency:    6.8441350839
  - # 13
    frequency:    7.3983048393
  - # 14
    frequency:    7.5271686363
  - # 15
    frequency:    8.0499172364
  - # 16
    frequency:    8.7055088439
  - # 17
    frequency:   14.0409432981
  - # 18
    frequency:   14.1054455551
  - # 19
    frequency:   14.8743203479
  - # 20
    frequency:   36.6913979671
  - # 21
    frequency:   58.8471163675

- q-position: [    0.0707071,    0.0000000,    0.0000000 ]
  distance:    0.0249041
  band:
  - # 1
    frequency:   -5.1619221154
  - # 2
    frequency:   -5.0106504157
  - # 3
    frequency:    0.2001927585
  - # 4
    frequency:    0.7292530691
  - # 5
    frequency:    1.2627789180
  - # 6
    frequency:    1.4103495287
  - # 7
    frequency:    1.6543938244
  - # 8
    frequency:    2.8595754082
  - # 9
    frequency:    2.8939353393
  - # 10
    frequency:    4.1262076221
  - # 11
    frequency:    6.6916363494
  - # 12
    frequency:    6.8442326330
  - # 13
    frequency:    7.4111902743
  - # 14
    frequency:    7.5594615723
  - # 15
    frequency:    8.0484196200
  - # 16
    frequency:    8.7064372098
  - # 17
    frequency:   14.0347647807
  - # 18
    frequency:   14.1104758172
  - # 19
    frequency:   14.8680763842
  - # 20
    frequency:   36.6759963157
  - # 21
    frequency:   58.8455036479

- q-position: [    0.0757576,    0.0000000,    0.0000000 ]
  distance:    0.0266829
  band:
  - # 1
    frequency:   -5.1632232391
  - # 2
    frequency:   -4.9883708748
  - # 3
    frequency:    0.2265037842
  - # 4
    frequency:    0.7786642611
  - # 5
    frequency:    1.3491638239
  - # 6
    frequency:    1.3999073727
  - # 7
    frequency:    1.6768099839
  - # 8
    frequency:    2.8717873004
  - # 9
    frequency:    2.9115077791
  - # 10
    frequency:    4.1219196089
  - # 11
    frequency:    6.6702713284
  - # 12
    frequency:    6.8450439641
  - # 13
    frequency:    7.4242825344
  - # 14
    frequency:    7.5927901490
  - # 15
    frequency:    8.0474395666
  - # 16
    frequency:    8.7074573561
  - # 17
    frequency:   14.0280422865
  - # 18
    frequency:   14.1160144356
  - # 19
    frequency:   14.8613779899
  - # 20
    frequency:   36.6595887487
  - # 21
    frequency:   58.8437777851

- q-position: [    0.0808081,    0.0000000,    0.0000000 ]
  distance:    0.0284618
  band:
  - # 1
    frequency:   -5.1649691343
  - # 2
    frequency:   -4.9646559220
  - # 3
    frequency:    0.2537939250
  - # 4
    frequency:    0.8271569643
  - # 5
    frequency:    1.3891082597
  - # 6
    frequency:    1.4341104472
  - # 7
    frequency:    1.7006413705
  - # 8
    frequency:    2.8845541970
  - # 9
    frequency:    2.9301202553
  - # 10
    frequency:    4.1171384229
  - # 11
    frequency:    6.6482296848
  - # 12
    frequency:    6.8466369966
  - # 13
    frequency:    7.4375202515
  - # 14
    frequency:    7.6268373934
  - # 15
    frequency:    8.0472176652
  - # 16
    frequency:    8.7085747261
  - # 17
    frequency:   14.0207688981
  - # 18
    frequency:   14.1220796684
  - # 19
    frequency:   14.8542264232
  - # 20
    frequency:   36.6422030805
  - # 21
    frequency:   58.8419401237

- q-position: [    0.0858586,    0.0000000,    0.0000000 ]
  distance:    0.0302406
  band:
  - # 1
    frequency:   -5.1672039716
  - # 2
    frequency:   -4.9395321632
  - # 3
    frequency:    0.2819324345
  - # 4
    frequency:    0.8744666764
  - # 5
    frequency:    1.3781454777
  - # 6
    frequency:    1.5168965807
  - # 7
    frequency:    1.7264307682
  - # 8
    frequency:    2.8978201169
  - # 9
    frequency:    2.9497473242
  - # 10
    frequency:    4.1118297420
  - # 11
    frequency:    6.6255890338
  - # 12
    frequency:    6.8490739905
  - # 13
    frequency:    7.4508481596
  - # 14
    frequency:    7.6612101294
  - # 15
    frequency:    8.0480735322
  - # 16
    frequency:    8.7097957556
  - # 17
    frequency:   14.0129405993
  - # 18
    frequency:   14.1286877776
  - # 19
    frequency:   14.8466230729
  - # 20
    frequency:   36.6238686700
  - # 21
    frequency:   58.8399920978

- q-position: [    0.0909091,    0.0000000,    0.0000000 ]
  distance:    0.0320195
  band:
  - # 1
    frequency:   -5.1699673894
  - # 2
    frequency:   -4.9130296658
  - # 3
    frequency:    0.3107885910
  - # 4
    frequency:    0.9202183832
  - # 5
    frequency:    1.3673155246
  - # 6
    frequency:    1.5959886519
  - # 7
    frequency:    1.7555348076
  - # 8
    frequency:    2.9115267267
  - # 9
    frequency:    2.9703627556
  - # 10
    frequency:    4.1059588863
  - # 11
    frequency:    6.6024271062
  - # 12
    frequency:    6.8524115376
  - # 13
    frequency:    7.4642161676
  - # 14
    frequency:    7.6954104609
  - # 15
    frequency:    8.0504334660
  - # 16
    frequency:    8.7111282211
  - # 17
    frequency:   14.0045567056
  - # 18
    frequency:   14.1358525892
  - # 19
    frequency:   14.8385695421
  - # 20
    frequency:   36.6046163485
  - # 21
    frequency:   58.8379352314

- q-position: [    0.0959596,    0.0000000,    0.0000000 ]
  distance:    0.0337984
  band:
  - # 1
    frequency:   -5.1732936678
  - # 2
    frequency:   -4.8851821623
  - # 3
    frequency:    0.3402323464
  - # 4
    frequency:    0.9638614845
  - # 5
    frequency:    1.3570831450
  - # 6
    frequency:    1.6679161304
  - # 7
    frequency:    1.7912505280
  - # 8
    frequency:    2.9256137828
  - # 9
    frequency:    2.9919392345
  - # 10
    frequency:    4.0994912571
  - # 11
    frequency:    6.5788228917
  - # 12
    frequency:    6.8567003070
  - # 13
    frequency:    7.4775785864
  - # 14
    frequency:    7.7288050310
  - # 15
    frequency:    8.0548603723
  - # 16
    frequency:    8.7125817045
  - # 17
    frequency:   13.9956202628
  - # 18
    frequency:   14.1435850823
  - # 19
    frequency:   14.8300677495
  - # 20
    frequency:   36.5844783443
  - # 21
    frequency:   58.8357711370

- q-position: [    0.1010101,    0.0000000,    0.0000000 ]
  distance:    0.0355772
  band:
  - # 1
    frequency:   -5.1772110111
  - # 2
    frequency:   -4.8560272363
  - # 3
    frequency:    0.3701348963
  - # 4
    frequency:    1.0045648590
  - # 5
    frequency:    1.3481863566
  - # 6
    frequency:    1.7266871522
  - # 7
    frequency:    1.8394005438
  - # 8
    frequency:    2.9400196114
  - # 9
    frequency:    3.0144480483
  - # 10
    frequency:    4.0923928354
  - # 11
    frequency:    6.5548575595
  - # 12
    frequency:    6.8619845630
  - # 13
    frequency:    7.4908934998
  - # 14
    frequency:    7.7606065550
  - # 15
    frequency:    8.0620714091
  - # 16
    frequency:    8.7141682127
  - # 17
    frequency:   13.9861384118
  - # 18
    frequency:   14.1518930175
  - # 19
    frequency:   14.8211200465
  - # 20
    frequency:   36.5634882033
  - # 21
    frequency:   58.8335015158

- q-position: [    0.1060606,    0.0000000,    0.0000000 ]
  distance:    0.0373561
  band:
  - # 1
    frequency:   -5.1817409552
  - # 2
    frequency:   -4.8256064890
  - # 3
    frequency:    0.4003691804
  - # 4
    frequency:    1.0410683945
  - # 5
    frequency:    1.3417851288
  - # 6
    frequency:    1.7699792814
  - # 7
    frequency:    1.9021428926
  - # 8
    frequency:    2.9546816200
  - # 9
    frequency:    3.0378587745
  - # 10
    frequency:    4.0846307459
  - # 11
    frequency:    6.5306151585
  - # 12
    frequency:    6.8683014800
  - # 13
    frequency:    7.5041222639
  - # 14
    frequency:    7.7899015108
  - # 15
    frequency:    8.0729093926
  - # 16
    frequency:    8.7159030054
  - # 17
    frequency:   13.9761227152
  - # 18
    frequency:   14.1607806095
  - # 19
    frequency:   14.8117293481
  - # 20
    frequency:   36.5416807072
  - # 21
    frequency:   58.8311281572

- q-position: [    0.1111111,    0.0000000,    0.0000000 ]
  distance:    0.0391349
  band:
  - # 1
    frequency:   -5.1868979140
  - # 2
    frequency:   -4.7939656844
  - # 3
    frequency:    0.4308103191
  - # 4
    frequency:    1.0715567983
  - # 5
    frequency:    1.3395878820
  - # 6
    frequency:    1.8033627117
  - # 7
    frequency:    1.9737482611
  - # 8
    frequency:    2.9695368309
  - # 9
    frequency:    3.0621389839
  - # 10
    frequency:    4.0761738999
  - # 11
    frequency:    6.5061831024
  - # 12
    frequency:    6.8756802867
  - # 13
    frequency:    7.5172291147
  - # 14
    frequency:    7.8157731979
  - # 15
    frequency:    8.0882186512
  - # 16
    frequency:    8.7178057076
  - # 17
    frequency:   13.9655894444
  - # 18
    frequency:   14.1702482495
  - # 19
    frequency:   14.8018992735
  - # 20
    frequency:   36.5190917874
  - # 21
    frequency:   58.8286529383

- q-position: [    0.1161616,    0.0000000,    0.0000000 ]
  distance:    0.0409138
  band:
  - # 1
    frequency:   -5.1926888772
  - # 2
    frequency:   -4.7611548719
  - # 3
    frequency:    0.4613359921
  - # 4
    frequency:    1.0938205888
  - # 5
    frequency:    1.3436908808
  - # 6
    frequency:    1.8321437408
  - # 7
    frequency:    2.0487567555
  - # 8
    frequency:    2.9845224320
  - # 9
    frequency:    3.0872539656
  - # 10
    frequency:    4.0669937260
  - # 11
    frequency:    6.4816524451
  - # 12
    frequency:    6.8841412754
  - # 13
    frequency:    7.5301808668
  - # 14
    frequency:    7.8375353099
  - # 15
    frequency:    8.1086100483
  - # 16
    frequency:    8.7199018181
  - # 17
    frequency:   13.9545598242
  - # 18
    frequency:   14.1802922837
  - # 19
    frequency:   14.7916342924
  - # 20
    frequency:   36.4957584368
  - # 21
    frequency:   58.8260778232

- q-position: [    0.1212121,    0.0000000,    0.0000000 ]
  distance:    0.0426927
  band:
  - # 1
    frequency:   -5.1991132631
  - # 2
    frequency:   -4.7272284868
  - # 3
    frequency:    0.4918267633
  - # 4
    frequency:    1.1060961647
  - # 5
    frequency:    1.3557385837
  - # 6
    frequency:    1.8587680760
  - # 7
    frequency:    2.1245746614
  - # 8
    frequency:    2.9995763397
  - # 9
    frequency:    3.1131664710
  - # 10
    frequency:    4.0570650073
  - # 11
    frequency:    6.4571179536
  - # 12
    frequency:    6.8936947158
  - # 13
    frequency:    7.5429466849
  - # 14
    frequency:    7.8549752453
  - # 15
    frequency:    8.1342157613
  - # 16
    frequency:    8.7222247778
  - # 17
    frequency:   13.9430602351
  - # 18
    frequency:   14.1909048486
  - # 19
    frequency:   14.7809398741
  - # 20
    frequency:   36.4717186190
  - # 21
    frequency:   58.8234048634

- q-position: [    0.1262626,    0.0000000,    0.0000000 ]
  distance:    0.0444715
  band:
  - # 1
    frequency:   -5.2061629295
  - # 2
    frequency:   -4.6922454289
  - # 3
    frequency:    0.5221663503
  - # 4
    frequency:    1.1082149740
  - # 5
    frequency:    1.3757748782
  - # 6
    frequency:    1.8842446427
  - # 7
    frequency:    2.2000505248
  - # 8
    frequency:    3.0146377702
  - # 9
    frequency:    3.1398364643
  - # 10
    frequency:    4.0463668457
  - # 11
    frequency:    6.4326779841
  - # 12
    frequency:    6.9043397189
  - # 13
    frequency:    7.5554979134
  - # 14
    frequency:    7.8684232771
  - # 15
    frequency:    8.1646174294
  - # 16
    frequency:    8.7248188409
  - # 17
    frequency:   13.9311223707
  - # 18
    frequency:   14.2020737687
  - # 19
    frequency:   14.7698226337
  - # 20
    frequency:   36.4470111742
  - # 21
    frequency:   58.8206361966

- q-position: [    0.1313131,    0.0000000,    0.0000000 ]
  distance:    0.0462504
  band:
  - # 1
    frequency:   -5.2138223394
  - # 2
    frequency:   -4.6562691208
  - # 3
    frequency:    0.5522418356
  - # 4
    frequency:    1.1016631768
  - # 5
    frequency:    1.4021837400
  - # 6
    frequency:    1.9090131110
  - # 7
    frequency:    2.2746073477
  - # 8
    frequency:    3.0296478156
  - # 9
    frequency:    3.1672208524
  - # 10
    frequency:    4.0348837825
  - # 11
    frequency:    6.4084341675
  - # 12
    frequency:    6.9160631011
  - # 13
    frequency:    7.5678079509
  - # 14
    frequency:    7.8785884078
  - # 15
    frequency:    8.1990064629
  - # 16
    frequency:    8.7277431048
  - # 17
    frequency:   13.9187833494
  - # 18
    frequency:   14.2137825150
  - # 19
    frequency:   14.7582904712
  - # 20
    frequency:   36.4216757242
  - # 21
    frequency:   58.8177740470

- q-position: [    0.1363636,    0.0000000,    0.0000000 ]
  distance:    0.0480292
  band:
  - # 1
    frequency:   -5.2220688744
  - # 2
    frequency:   -4.6193675476
  - # 3
    frequency:    0.5819438103
  - # 4
    frequency:    1.0884684063
  - # 5
    frequency:    1.4328026321
  - # 6
    frequency:    1.9332760622
  - # 7
    frequency:    2.3479099818
  - # 8
    frequency:    3.0445500259
  - # 9
    frequency:    3.1952731539
  - # 10
    frequency:    4.0226071179
  - # 11
    frequency:    6.3844909135
  - # 12
    frequency:    6.9288383058
  - # 13
    frequency:    7.5798521572
  - # 14
    frequency:    7.8863055728
  - # 15
    frequency:    8.2364312935
  - # 16
    frequency:    8.7310772283
  - # 17
    frequency:   13.9060857765
  - # 18
    frequency:   14.2260102265
  - # 19
    frequency:   14.7463527014
  - # 20
    frequency:   36.3957525743
  - # 21
    frequency:   58.8148207246

- q-position: [    0.1414141,    0.0000000,    0.0000000 ]
  distance:    0.0498081
  band:
  - # 1
    frequency:   -5.2308732854
  - # 2
    frequency:   -4.5816132809
  - # 3
    frequency:    0.6111664396
  - # 4
    frequency:    1.0703074032
  - # 5
    frequency:    1.4658147592
  - # 6
    frequency:    1.9571267027
  - # 7
    frequency:    2.4197368271
  - # 8
    frequency:    3.0592909930
  - # 9
    frequency:    3.2239430407
  - # 10
    frequency:    4.0095364871
  - # 11
    frequency:    6.3609547416
  - # 12
    frequency:    6.9426244486
  - # 13
    frequency:    7.5916077860
  - # 14
    frequency:    7.8923539424
  - # 15
    frequency:    8.2759710273
  - # 16
    frequency:    8.7349295949
  - # 17
    frequency:   13.8930777568
  - # 18
    frequency:   14.2387317910
  - # 19
    frequency:   14.7340201679
  - # 20
    frequency:   36.3692826144
  - # 21
    frequency:   58.8117786249

- q-position: [    0.1464646,    0.0000000,    0.0000000 ]
  distance:    0.0515870
  band:
  - # 1
    frequency:   -5.2402002660
  - # 2
    frequency:   -4.5430834919
  - # 3
    frequency:    0.6398074326
  - # 4
    frequency:    1.0483015828
  - # 5
    frequency:    1.4999529832
  - # 6
    frequency:    1.9806018486
  - # 7
    frequency:    2.4899261200
  - # 8
    frequency:    3.0738209375
  - # 9
    frequency:    3.2531756613
  - # 10
    frequency:    3.9956817809
  - # 11
    frequency:    6.3379334521
  - # 12
    frequency:    6.9573655571
  - # 13
    frequency:    7.6030539345
  - # 14
    frequency:    7.8973838667
  - # 15
    frequency:    8.3167968804
  - # 16
    frequency:    8.7394489567
  - # 17
    frequency:   13.8798128502
  - # 18
    frequency:   14.2519179859
  - # 19
    frequency:   14.7213053420
  - # 20
    frequency:   36.3423072184
  - # 21
    frequency:   58.8086502289

- q-position: [    0.1515152,    0.0000000,    0.0000000 ]
  distance:    0.0533658
  band:
  - # 1
    frequency:   -5.2500091335
  - # 2
    frequency:   -4.5038599553
  - # 3
    frequency:    0.6677678965
  - # 4
    frequency:    1.0231278035
  - # 5
    frequency:    1.5343879450
  - # 6
    frequency:    2.0037054756
  - # 7
    frequency:    2.5583515304
  - # 8
    frequency:    3.0880942951
  - # 9
    frequency:    3.2829106072
  - # 10
    frequency:    3.9810655424
  - # 11
    frequency:    6.3155351526
  - # 12
    frequency:    6.9729900905
  - # 13
    frequency:    7.6141715033
  - # 14
    frequency:    7.9019131346
  - # 15
    frequency:    8.3581594503
  - # 16
    frequency:    8.7448407909
  - # 17
    frequency:   13.8663499690
  - # 18
    frequency:   14.2655356725
  - # 19
    frequency:   14.7082224019
  - # 20
    frequency:   36.3148681431
  - # 21