nqpoint: 300    
npath: 3      
segment_nqpoint:
- 100
- 100
- 100
labels:
- [ 'G', 'M' ]
- [ 'M', 'K' ]
- [ 'K', 'G' ]
reciprocal_lattice:
- [   0.31226434,   0.18028590,   0.00000000 ] # a*
- [   0.00000000,   0.36057180,   0.00000000 ] # b*
- [   0.00000000,   0.00000000,   0.04080018 ] # c*
natom: 6      
lattice:
- [     3.202415007941914,     0.000000000000000,     0.000000000000000 ] # a
- [    -1.601207503970957,     2.773372750335030,     0.000000000000000 ] # b
- [     0.000000000000000,     0.000000000000000,    24.509695663828222 ] # c
points:
- symbol: C # 1
  coordinates: [  0.000000000000000,  0.000000000000000,  0.480721744373184 ]
  mass: 12.010700
- symbol: C # 2
  coordinates: [  0.333332985432215,  0.666666983183674,  0.583697604785288 ]
  mass: 12.010700
- symbol: Cl # 3
  coordinates: [  0.666666984744048,  0.333332985985145,  0.367201621898649 ]
  mass: 35.453000
- symbol: N # 4
  coordinates: [  0.333332985432215,  0.666666983183674,  0.632798378101351 ]
  mass: 14.006700
- symbol: Ti # 5
  coordinates: [  0.333332985432215,  0.666666983183674,  0.435847374683208 ]
  mass: 47.867000
- symbol: Ti # 6
  coordinates: [  0.666666984744048,  0.333332985985145,  0.526870370903652 ]
  mass: 47.867000

phonon:
- q-position: [    0.0000000,    0.0000000,    0.0000000 ]
  distance:    0.0000000
  band:
  - # 1
    frequency:   -1.0230210648
  - # 2
    frequency:   -1.0230210648
  - # 3
    frequency:   -0.0000015885
  - # 4
    frequency:   -0.0000003636
  - # 5
    frequency:    0.0000015293
  - # 6
    frequency:    4.8104691308
  - # 7
    frequency:    4.8104691308
  - # 8
    frequency:    6.5854711320
  - # 9
    frequency:    7.3012210657
  - # 10
    frequency:    7.3012210657
  - # 11
    frequency:    8.1249464848
  - # 12
    frequency:    8.1249464848
  - # 13
    frequency:    9.7654301690
  - # 14
    frequency:   11.7595834107
  - # 15
    frequency:   17.5938904825
  - # 16
    frequency:   17.6638340813
  - # 17
    frequency:   17.6638340813
  - # 18
    frequency:   60.9403457339

- q-position: [    0.0050505,    0.0000000,    0.0000000 ]
  distance:    0.0018211
  band:
  - # 1
    frequency:   -1.0221612346
  - # 2
    frequency:   -1.0203495591
  - # 3
    frequency:   -0.1643304477
  - # 4
    frequency:    0.0987873990
  - # 5
    frequency:    0.2133593825
  - # 6
    frequency:    4.8111285840
  - # 7
    frequency:    4.8122453816
  - # 8
    frequency:    6.5849404089
  - # 9
    frequency:    7.3013085422
  - # 10
    frequency:    7.3024130568
  - # 11
    frequency:    8.1255451910
  - # 12
    frequency:    8.1261947209
  - # 13
    frequency:    9.7654606611
  - # 14
    frequency:   11.7594488663
  - # 15
    frequency:   17.5936142863
  - # 16
    frequency:   17.6646953526
  - # 17
    frequency:   17.6649146062
  - # 18
    frequency:   60.9403139312

- q-position: [    0.0101010,    0.0000000,    0.0000000 ]
  distance:    0.0036421
  band:
  - # 1
    frequency:   -1.0195939722
  - # 2
    frequency:   -1.0123359622
  - # 3
    frequency:   -0.2069954195
  - # 4
    frequency:    0.1975571475
  - # 5
    frequency:    0.3421235277
  - # 6
    frequency:    4.8131037816
  - # 7
    frequency:    4.8175591005
  - # 8
    frequency:    6.5833643354
  - # 9
    frequency:    7.3015704437
  - # 10
    frequency:    7.3059723403
  - # 11
    frequency:    8.1273361502
  - # 12
    frequency:    8.1299304591
  - # 13
    frequency:    9.7655523997
  - # 14
    frequency:   11.7590425655
  - # 15
    frequency:   17.5928029825
  - # 16
    frequency:   17.6672704503
  - # 17
    frequency:   17.6681286537
  - # 18
    frequency:   60.9402185059

- q-position: [    0.0151515,    0.0000000,    0.0000000 ]
  distance:    0.0054632
  band:
  - # 1
    frequency:   -1.0153537414
  - # 2
    frequency:   -0.9989728454
  - # 3
    frequency:   -0.2295637659
  - # 4
    frequency:    0.2962835066
  - # 5
    frequency:    0.4691681853
  - # 6
    frequency:    4.8163852752
  - # 7
    frequency:    4.8263656512
  - # 8
    frequency:    6.5807899400
  - # 9
    frequency:    7.3020051701
  - # 10
    frequency:    7.3118500785
  - # 11
    frequency:    8.1303039535
  - # 12
    frequency:    8.1361268911
  - # 13
    frequency:    9.7657061848
  - # 14
    frequency:   11.7583565303
  - # 15
    frequency:   17.5914993705
  - # 16
    frequency:   17.6715333167
  - # 17
    frequency:   17.6734028048
  - # 18
    frequency:   60.9400594071

- q-position: [    0.0202020,    0.0000000,    0.0000000 ]
  distance:    0.0072843
  band:
  - # 1
    frequency:   -1.0094914207
  - # 2
    frequency:   -0.9802186462
  - # 3
    frequency:   -0.2434561786
  - # 4
    frequency:    0.3949269782
  - # 5
    frequency:    0.5983236527
  - # 6
    frequency:    4.8209574395
  - # 7
    frequency:    4.8385921561
  - # 8
    frequency:    6.5772916204
  - # 9
    frequency:    7.3026100056
  - # 10
    frequency:    7.3199687649
  - # 11
    frequency:    8.1344231462
  - # 12
    frequency:    8.1447396741
  - # 13
    frequency:    9.7659233912
  - # 14
    frequency:   11.7573775442
  - # 15
    frequency:   17.5897524725
  - # 16
    frequency:   17.6774408235
  - # 17
    frequency:   17.6806373618
  - # 18
    frequency:   60.9398365524

- q-position: [    0.0252525,    0.0000000,    0.0000000 ]
  distance:    0.0091053
  band:
  - # 1
    frequency:   -1.0020669302
  - # 2
    frequency:   -0.9559667897
  - # 3
    frequency:   -0.2521469297
  - # 4
    frequency:    0.4934323695
  - # 5
    frequency:    0.7296229201
  - # 6
    frequency:    4.8267986520
  - # 7
    frequency:    4.8541396586
  - # 8
    frequency:    6.5729658596
  - # 9
    frequency:    7.3033810507
  - # 10
    frequency:    7.3302273712
  - # 11
    frequency:    8.1396585609
  - # 12
    frequency:    8.1557074353
  - # 13
    frequency:    9.7662060300
  - # 14
    frequency:   11.7560872729
  - # 15
    frequency:   17.5876017532
  - # 16
    frequency:   17.6849332190
  - # 17
    frequency:   17.6897226567
  - # 18
    frequency:   60.9395498314

- q-position: [    0.0303030,    0.0000000,    0.0000000 ]
  distance:    0.0109264
  band:
  - # 1
    frequency:   -0.9931425104
  - # 2
    frequency:   -0.9260184610
  - # 3
    frequency:   -0.2562542593
  - # 4
    frequency:    0.5917304087
  - # 5
    frequency:    0.8625435143
  - # 6
    frequency:    4.8338815414
  - # 7
    frequency:    4.8728859451
  - # 8
    frequency:    6.5679250086
  - # 9
    frequency:    7.3043131357
  - # 10
    frequency:    7.3425073760
  - # 11
    frequency:    8.1459657700
  - # 12
    frequency:    8.1689524730
  - # 13
    frequency:    9.7665568301
  - # 14
    frequency:   11.7544624324
  - # 15
    frequency:   17.5850708509
  - # 16
    frequency:   17.6939347457
  - # 17
    frequency:   17.7005460539
  - # 18
    frequency:   60.9391991112

- q-position: [    0.0353535,    0.0000000,    0.0000000 ]
  distance:    0.0127475
  band:
  - # 1
    frequency:   -0.9827780874
  - # 2
    frequency:   -0.8900620720
  - # 3
    frequency:   -0.2549811556
  - # 4
    frequency:    0.6897416519
  - # 5
    frequency:    0.9965802184
  - # 6
    frequency:    4.8421732964
  - # 7
    frequency:    4.8946888466
  - # 8
    frequency:    6.5622909322
  - # 9
    frequency:    7.3053997265
  - # 10
    frequency:    7.3566788858
  - # 11
    frequency:    8.1532916433
  - # 12
    frequency:    8.1843816443
  - # 13
    frequency:    9.7669793382
  - # 14
    frequency:   11.7524750027
  - # 15
    frequency:   17.5821685225
  - # 16
    frequency:   17.7043544215
  - # 17
    frequency:   17.7129919269
  - # 18
    frequency:   60.9387842419

- q-position: [    0.0404040,    0.0000000,    0.0000000 ]
  distance:    0.0145686
  band:
  - # 1
    frequency:   -0.9710290961
  - # 2
    frequency:   -0.8476588929
  - # 3
    frequency:   -0.2464125942
  - # 4
    frequency:    0.7873811420
  - # 5
    frequency:    1.1313312058
  - # 6
    frequency:    4.8516360317
  - # 7
    frequency:    4.9193898277
  - # 8
    frequency:    6.5561891743
  - # 9
    frequency:    7.3066328308
  - # 10
    frequency:    7.3726062042
  - # 11
    frequency:    8.1615749980
  - # 12
    frequency:    8.2018874304
  - # 13
    frequency:    9.7674780320
  - # 14
    frequency:   11.7500924872
  - # 15
    frequency:   17.5788924640
  - # 16
    frequency:   17.7160869718
  - # 17
    frequency:   17.7269389439
  - # 18
    frequency:   60.9383050653

- q-position: [    0.0454545,    0.0000000,    0.0000000 ]
  distance:    0.0163896
  band:
  - # 1
    frequency:   -0.9579463296
  - # 2
    frequency:   -0.7982369876
  - # 3
    frequency:   -0.2269860394
  - # 4
    frequency:    0.8845626403
  - # 5
    frequency:    1.2664885980
  - # 6
    frequency:    4.8622272031
  - # 7
    frequency:    4.9468176720
  - # 8
    frequency:    6.5497440679
  - # 9
    frequency:    7.3080029144
  - # 10
    frequency:    7.3901524395
  - # 11
    frequency:    8.1707473233
  - # 12
    frequency:    8.2213491569
  - # 13
    frequency:    9.7680584416
  - # 14
    frequency:   11.7472782157
  - # 15
    frequency:   17.5752332089
  - # 16
    frequency:   17.7290139029
  - # 17
    frequency:   17.7422574387
  - # 18
    frequency:   60.9377614230

- q-position: [    0.0505051,    0.0000000,    0.0000000 ]
  distance:    0.0182107
  band:
  - # 1
    frequency:   -0.9435770538
  - # 2
    frequency:   -0.7411077384
  - # 3
    frequency:   -0.1890619695
  - # 4
    frequency:    0.9812018397
  - # 5
    frequency:    1.4018156521
  - # 6
    frequency:    4.8739000647
  - # 7
    frequency:    4.9767920936
  - # 8
    frequency:    6.5430749870
  - # 9
    frequency:    7.3094988375
  - # 10
    frequency:    7.4091829722
  - # 11
    frequency:    8.1807335640
  - # 12
    frequency:    8.2426343498
  - # 13
    frequency:    9.7687272731
  - # 14
    frequency:   11.7439916889
  - # 15
    frequency:   17.5711770849
  - # 16
    frequency:   17.7430047026
  - # 17
    frequency:   17.7588078751
  - # 18
    frequency:   60.9371531670

- q-position: [    0.0555556,    0.0000000,    0.0000000 ]
  distance:    0.0200318
  band:
  - # 1
    frequency:   -0.9279666826
  - # 2
    frequency:   -0.6755454969
  - # 3
    frequency:   -0.1051824890
  - # 4
    frequency:    1.0772184606
  - # 5
    frequency:    1.5371268591
  - # 6
    frequency:    4.8866041593
  - # 7
    frequency:    5.0091271289
  - # 8
    frequency:    6.5362937518
  - # 9
    frequency:    7.3111078179
  - # 10
    frequency:    7.4295677996
  - # 11
    frequency:    8.1914529473
  - # 12
    frequency:    8.2656001973
  - # 13
    frequency:    9.7694925274
  - # 14
    frequency:   11.7401889618
  - # 15
    frequency:   17.5667081603
  - # 16
    frequency:   17.7579181525
  - # 17
    frequency:   17.7764404551
  - # 18
    frequency:   60.9364801703

- q-position: [    0.0606061,    0.0000000,    0.0000000 ]
  distance:    0.0218528
  band:
  - # 1
    frequency:   -0.9111605231
  - # 2
    frequency:   -0.6009982461
  - # 3
    frequency:    0.1607322470
  - # 4
    frequency:    1.1725374124
  - # 5
    frequency:    1.6722729557
  - # 6
    frequency:    4.9002858355
  - # 7
    frequency:    5.0436342033
  - # 8
    frequency:    6.5295030754
  - # 9
    frequency:    7.3128154276
  - # 10
    frequency:    7.4511828922
  - # 11
    frequency:    8.2028198385
  - # 12
    frequency:    8.2900950901
  - # 13
    frequency:    9.7703636058
  - # 14
    frequency:   11.7358230643
  - # 15
    frequency:   17.5618094266
  - # 16
    frequency:   17.7736037375
  - # 17
    frequency:   17.7949956046
  - # 18
    frequency:   60.9357423393

- q-position: [    0.0656566,    0.0000000,    0.0000000 ]
  distance:    0.0236739
  band:
  - # 1
    frequency:   -0.8932053416
  - # 2
    frequency:   -0.5173636757
  - # 3
    frequency:    0.2819525080
  - # 4
    frequency:    1.2670892941
  - # 5
    frequency:    1.8071300655
  - # 6
    frequency:    4.9148887820
  - # 7
    frequency:    5.0801247985
  - # 8
    frequency:    6.5227958797
  - # 9
    frequency:    7.3146056259
  - # 10
    frequency:    7.4739107625
  - # 11
    frequency:    8.2147446114
  - # 12
    frequency:    8.3159602100
  - # 13
    frequency:    9.7713513940
  - # 14
    frequency:   11.7308444547
  - # 15
    frequency:   17.5564634906
  - # 16
    frequency:   17.7899031353
  - # 17
    frequency:   17.8143050466
  - # 18
    frequency:   60.9349396263

- q-position: [    0.0707071,    0.0000000,    0.0000000 ]
  distance:    0.0254950
  band:
  - # 1
    frequency:   -0.8741506697
  - # 2
    frequency:   -0.4243612303
  - # 3
    frequency:    0.3934883507
  - # 4
    frequency:    1.3608104870
  - # 5
    frequency:    1.9415918977
  - # 6
    frequency:    4.9303545712
  - # 7
    frequency:    5.1184126830
  - # 8
    frequency:    6.5162552932
  - # 9
    frequency:    7.3164608326
  - # 10
    frequency:    7.4976404570
  - # 11
    frequency:    8.2271345234
  - # 12
    frequency:    8.3430311411
  - # 13
    frequency:    9.7724683147
  - # 14
    frequency:   11.7252015027
  - # 15
    frequency:   17.5506529795
  - # 16
    frequency:   17.8066517697
  - # 17
    frequency:   17.8341932373
  - # 18
    frequency:   60.9340720431

- q-position: [    0.0757576,    0.0000000,    0.0000000 ]
  distance:    0.0273160
  band:
  - # 1
    frequency:   -0.8540498705
  - # 2
    frequency:   -0.3168888554
  - # 3
    frequency:    0.5043183467
  - # 4
    frequency:    1.4536430301
  - # 5
    frequency:    2.0755641250
  - # 6
    frequency:    4.9466232056
  - # 7
    frequency:    5.1583156961
  - # 8
    frequency:    6.5099551572
  - # 9
    frequency:    7.3183620397
  - # 10
    frequency:    7.5222671654
  - # 11
    frequency:    8.2398945827
  - # 12
    frequency:    8.3711394808
  - # 13
    frequency:    9.7737283381
  - # 14
    frequency:   11.7188409988
  - # 15
    frequency:   17.5443607931
  - # 16
    frequency:   17.8236804101
  - # 17
    frequency:   17.8544790119
  - # 18
    frequency:   60.9331396752

- q-position: [    0.0808081,    0.0000000,    0.0000000 ]
  distance:    0.0291371
  band:
  - # 1
    frequency:   -0.8329610363
  - # 2
    frequency:   -0.1627117855
  - # 3
    frequency:    0.6134059253
  - # 4
    frequency:    1.5455344022
  - # 5
    frequency:    2.2089602882
  - # 6
    frequency:    4.9636336595
  - # 7
    frequency:    5.1996570997
  - # 8
    frequency:    6.5039608923
  - # 9
    frequency:    7.3202889612
  - # 10
    frequency:    7.5476916090
  - # 11
    frequency:    8.2529284020
  - # 12
    frequency:    8.4001144343
  - # 13
    frequency:    9.7751469397
  - # 14
    frequency:   11.7117086848
  - # 15
    frequency:   17.5375702827
  - # 16
    frequency:   17.8408168015
  - # 17
    frequency:   17.8749773422
  - # 18
    frequency:   60.9321426956

- q-position: [    0.0858586,    0.0000000,    0.0000000 ]
  distance:    0.0309582
  band:
  - # 1
    frequency:   -0.8109477968
  - # 2
    frequency:    0.2146127328
  - # 3
    frequency:    0.7188122805
  - # 4
    frequency:    1.6364372843
  - # 5
    frequency:    2.3416987643
  - # 6
    frequency:    4.9813244094
  - # 7
    frequency:    5.2422665273
  - # 8
    frequency:    6.4983306101
  - # 9
    frequency:    7.3222202178
  - # 10
    frequency:    7.5738193343
  - # 11
    frequency:    8.2661390292
  - # 12
    frequency:    8.4297843820
  - # 13
    frequency:    9.7767409933
  - # 14
    frequency:   11.7037498021
  - # 15
    frequency:   17.5302654002
  - # 16
    frequency:   17.8578873070
  - # 17
    frequency:   17.8955011416
  - # 18
    frequency:   60.9310813802

- q-position: [    0.0909091,    0.0000000,    0.0000000 ]
  distance:    0.0327793
  band:
  - # 1
    frequency:   -0.7880801239
  - # 2
    frequency:    0.3477718031
  - # 3
    frequency:    0.8198452017
  - # 4
    frequency:    1.7263093374
  - # 5
    frequency:    2.4737004701
  - # 6
    frequency:    4.9996339483
  - # 7
    frequency:    5.2859805733
  - # 8
    frequency:    6.4931163832
  - # 9
    frequency:    7.3241335524
  - # 10
    frequency:    7.6005599993
  - # 11
    frequency:    8.2794297498
  - # 12
    frequency:    8.4599784158
  - # 13
    frequency:    9.7785285890
  - # 14
    frequency:   11.6949096516
  - # 15
    frequency:   17.5224308418
  - # 16
    frequency:   17.8747185488
  - # 17
    frequency:   17.9158630768
  - # 18
    frequency:   60.9299561215

- q-position: [    0.0959596,    0.0000000,    0.0000000 ]
  distance:    0.0346003
  band:
  - # 1
    frequency:   -0.7644352068
  - # 2
    frequency:    0.4479347297
  - # 3
    frequency:    0.9167269656
  - # 4
    frequency:    1.8151130114
  - # 5
    frequency:    2.6048870722
  - # 6
    frequency:    5.0185012784
  - # 7
    frequency:    5.3306430688
  - # 8
    frequency:    6.4883656118
  - # 9
    frequency:    7.3260060717
  - # 10
    frequency:    7.6278267144
  - # 11
    frequency:    8.2927048561
  - # 12
    frequency:    8.4905278438
  - # 13
    frequency:    9.7805287648
  - # 14
    frequency:   11.6851341625
  - # 15
    frequency:   17.5140521960
  - # 16
    frequency:   17.8911390308
  - # 17
    frequency:   17.9358773580
  - # 18
    frequency:   60.9287674439

- q-position: [    0.1010101,    0.0000000,    0.0000000 ]
  distance:    0.0364214
  band:
  - # 1
    frequency:   -0.7400984720
  - # 2
    frequency:    0.5353238872
  - # 3
    frequency:    1.0100205245
  - # 4
    frequency:    1.9028153876
  - # 5
    frequency:    2.7351795431
  - # 6
    frequency:    5.0378663786
  - # 7
    frequency:    5.3761050958
  - # 8
    frequency:    6.4841224452
  - # 9
    frequency:    7.3278145086
  - # 10
    frequency:    7.6555354729
  - # 11
    frequency:    8.3058703788
  - # 12
    frequency:    8.5212676684
  - # 13
    frequency:    9.7827611428
  - # 14
    frequency:   11.6743704638
  - # 15
    frequency:   17.5051161006
  - # 16
    frequency:   17.9069807295
  - # 17
    frequency:   17.9553614866
  - # 18
    frequency:   60.9275160175

- q-position: [    0.1060606,    0.0000000,    0.0000000 ]
  distance:    0.0382425
  band:
  - # 1
    frequency:   -0.7151648170
  - # 2
    frequency:    0.6159866192
  - # 3
    frequency:    1.1003392968
  - # 4
    frequency:    1.9893880516
  - # 5
    frequency:    2.8644969493
  - # 6
    frequency:    5.0576706443
  - # 7
    frequency:    5.4222247883
  - # 8
    frequency:    6.4804292302
  - # 9
    frequency:    7.3295355007
  - # 10
    frequency:    7.6836046878
  - # 11
    frequency:    8.3188347772
  - # 12
    frequency:    8.5520380410
  - # 13
    frequency:    9.7852454634
  - # 14
    frequency:   11.6625674545
  - # 15
    frequency:   17.4956104088
  - # 16
    frequency:   17.9220806392
  - # 17
    frequency:   17.9741379443
  - # 18
    frequency:   60.9262026718

- q-position: [    0.1111111,    0.0000000,    0.0000000 ]
  distance:    0.0400635
  band:
  - # 1
    frequency:   -0.6897401283
  - # 2
    frequency:    0.6924644215
  - # 3
    frequency:    1.1882452502
  - # 4
    frequency:    2.0748069893
  - # 5
    frequency:    2.9927553906
  - # 6
    frequency:    5.0778572956
  - # 7
    frequency:    5.4688669701
  - # 8
    frequency:    6.4773279691
  - # 9
    frequency:    7.3311458775
  - # 10
    frequency:    7.7119548411
  - # 11
    frequency:    8.3315095842
  - # 12
    frequency:    8.5826856990
  - # 13
    frequency:    9.7880010144
  - # 14
    frequency:   11.6496763683
  - # 15
    frequency:   17.4855243629
  - # 16
    frequency:   17.9362822597
  - # 17
    frequency:   17.9920358122
  - # 18
    frequency:   60.9248284088

- q-position: [    0.1161616,    0.0000000,    0.0000000 ]
  distance:    0.0418846
  band:
  - # 1
    frequency:   -0.6639431576
  - # 2
    frequency:    0.7659737337
  - # 3
    frequency:    1.2742251386
  - # 4
    frequency:    2.1590525017
  - # 5
    frequency:    3.1198670310
  - # 6
    frequency:    5.0983717528
  - # 7
    frequency:    5.5159026756
  - # 8
    frequency:    6.4748617755
  - # 9
    frequency:    7.3326229536
  - # 10
    frequency:    7.7405082411
  - # 11
    frequency:    8.3438100053
  - # 12
    frequency:    8.6130653846
  - # 13
    frequency:    9.7910459578
  - # 14
    frequency:   11.6356513293
  - # 15
    frequency:   17.4748487723
  - # 16
    frequency:   17.9494370147
  - # 17
    frequency:   18.0088923060
  - # 18
    frequency:   60.9233944152

- q-position: [    0.1212121,    0.0000000,    0.0000000 ]
  distance:    0.0437057
  band:
  - # 1
    frequency:   -0.6379078294
  - # 2
    frequency:    0.8371244130
  - # 3
    frequency:    1.3586929401
  - # 4
    frequency:    2.2421091305
  - # 5
    frequency:    3.2457391782
  - # 6
    frequency:    5.1191619792
  - # 7
    frequency:    5.5632086006
  - # 8
    frequency:    6.4730763186
  - # 9
    frequency:    7.3339448198
  - # 10
    frequency:    7.7691888780
  - # 11
    frequency:    8.3556554664
  - # 12
    frequency:    8.6430412406
  - # 13
    frequency:    9.7943965619
  - # 14
    frequency:   11.6204498938
  - # 15
    frequency:   17.4635761943
  - # 16
    frequency:   17.9614055904
  - # 17
    frequency:   18.0245542216
  - # 18
    frequency:   60.9219020734

- q-position: [    0.1262626,    0.0000000,    0.0000000 ]
  distance:    0.0455267
  band:
  - # 1
    frequency:   -0.6117860516
  - # 2
    frequency:    0.9062171188
  - # 3
    frequency:    1.4419987729
  - # 4
    frequency:    2.3239655904
  - # 5
    frequency:    3.3702733784
  - # 6
    frequency:    5.1401787878
  - # 7
    frequency:    5.6106665282
  - # 8
    frequency:    6.4720212429
  - # 9
    frequency:    7.3350906291
  - # 10
    frequency:    7.7979223679
  - # 11
    frequency:    8.3669701121
  - # 12
    frequency:    8.6724881698
  - # 13
    frequency:    9.7980663562
  - # 14
    frequency:   11.6040335769
  - # 15
    frequency:   17.4517011128
  - # 16
    frequency:   17.9720591858
  - # 17
    frequency:   18.0388792791
  - # 18
    frequency:   60.9203529718

- q-position: [    0.1313131,    0.0000000,    0.0000000 ]
  distance:    0.0473478
  band:
  - # 1
    frequency:   -0.5857510826
  - # 2
    frequency:    0.9733853780
  - # 3
    frequency:    1.5244377450
  - # 4
    frequency:    2.4046147016
  - # 5
    frequency:    3.4933644996
  - # 6
    frequency:    5.1613761142
  - # 7
    frequency:    5.6581627845
  - # 8
    frequency:    6.4717515455
  - # 9
    frequency:    7.3360408723
  - # 10
    frequency:    7.8266359701
  - # 11
    frequency:    8.3776832493
  - # 12
    frequency:    8.7012931360
  - # 13
    frequency:    9.8020652357
  - # 14
    frequency:   11.5863683603
  - # 15
    frequency:   17.4392201142
  - # 16
    frequency:   17.9812806656
  - # 17
    frequency:   18.0517373606
  - # 18
    frequency:   60.9187489130

- q-position: [    0.1363636,    0.0000000,    0.0000000 ]
  distance:    0.0491689
  band:
  - # 1
    frequency:   -0.5600014653
  - # 2
    frequency:    1.0386707701
  - # 3
    frequency:    1.6062570661
  - # 4
    frequency:    2.4840533210
  - # 5
    frequency:    3.6148997850
  - # 6
    frequency:    5.1827112543
  - # 7
    frequency:    5.7055877819
  - # 8
    frequency:    6.4723288780
  - # 9
    frequency:    7.3367776387
  - # 10
    frequency:    7.8552586663
  - # 11
    frequency:    8.3877297377
  - # 12
    frequency:    8.7293563739
  - # 13
    frequency:    9.8063985480
  - # 14
    frequency:   11.5674251799
  - # 15
    frequency:   17.4261320537
  - # 16
    frequency:   17.9889656096
  - # 17
    frequency:   18.0630116335
  - # 18
    frequency:   60.9170919210

- q-position: [    0.1414141,    0.0000000,    0.0000000 ]
  distance:    0.0509900
  band:
  - # 1
    frequency:   -0.5347654493
  - # 2
    frequency:    1.1020658534
  - # 3
    frequency:    1.6876614432
  - # 4
    frequency:    2.5622822663
  - # 5
    frequency:    3.7347578618
  - # 6
    frequency:    5.2041450670
  - # 7
    frequency:    5.7528357298
  - # 8
    frequency:    6.4738227213
  - # 9
    frequency:    7.3372848576
  - # 10
    frequency:    7.8837212885
  - # 11
    frequency:    8.3970503256
  - # 12
    frequency:    8.7565924656
  - # 13
    frequency:    9.8110662093
  - # 14
    frequency:   11.5471803921
  - # 15
    frequency:   17.4124382137
  - # 16
    frequency:   17.9950232504
  - # 17
    frequency:   18.0725995546
  - # 18
    frequency:   60.9153842467

- q-position: [    0.1464646,    0.0000000,    0.0000000 ]
  distance:    0.0528110
  band:
  - # 1
    frequency:   -0.5103056560
  - # 2
    frequency:    1.1635399864
  - # 3
    frequency:    1.7688172663
  - # 4
    frequency:    2.6393062309
  - # 5
    frequency:    3.8528076987
  - # 6
    frequency:    5.2256421428
  - # 7
    frequency:    5.7998046107
  - # 8
    frequency:    6.4763113479
  - # 9
    frequency:    7.3375485193
  - # 10
    frequency:    7.9119566848
  - # 11
    frequency:    8.4055919297
  - # 12
    frequency:    8.7829312353
  - # 13
    frequency:    9.8160618979
  - # 14
    frequency:   11.5256162187
  - # 15
    frequency:   17.3981424473
  - # 16
    frequency:   17.9993772968
  - # 17
    frequency:   18.0804137499
  - # 18
    frequency:   60.9136283712

- q-position: [    0.1515152,    0.0000000,    0.0000000 ]
  distance:    0.0546321
  band:
  - # 1
    frequency:   -0.4869234558
  - # 2
    frequency:    1.2230552638
  - # 3
    frequency:    1.8498561401
  - # 4
    frequency:    2.7151336868
  - # 5
    frequency:    3.9689075137
  - # 6
    frequency:    5.2471709385
  - # 7
    frequency:    5.8463965600
  - # 8
    frequency:    6.4798824452
  - # 9
    frequency:    7.3375568688
  - # 10
    frequency:    7.9398999123
  - # 11
    frequency:    8.4133078607
  - # 12
    frequency:    8.8083184072
  - # 13
    frequency:    9.8213723819
  - # 14
    frequency:   11.5027211700
  - # 15
    frequency:   17.3832513068
  - # 16
    frequency:   18.0019666344
  - # 17
    frequency:   18.0863827646
  - # 18
    frequency:   60.9118270081

- q-position: [    0.1565657,    0.0000000,    0.0000000 ]
  distance:    0.0564532
  band:
  - # 1
    frequency:   -0.4649620865
  - # 2
    frequency:    1.2805762799
  - # 3
    frequency:    1.9308781964
  - # 4
    frequency:    2.7897767733
  - # 5
    frequency:    4.0829036488
  - # 6
    frequency:    5.2687038782
  - # 7
    frequency:    5.8925188276
  - # 8
    frequency:    6.4846332107
  - # 9
    frequency:    7.3373005727
  - # 10
    frequency:    7.9674884478
  - # 11
    frequency:    8.4201579938
  - # 12
    frequency:    8.8327159743
  - # 13
    frequency:    9.8269770309
  - # 14
    frequency:   11.4784904478
  - # 15
    frequency:   17.3677741539
  - # 16
    frequency:   18.0027459043
  - # 17
    frequency:   18.0904516814
  - # 18
    frequency:   60.9099831022

- q-position: [    0.1616162,    0.0000000,    0.0000000 ]
  distance:    0.0582742
  band:
  - # 1
    frequency:   -0.4448069353
  - # 2
    frequency:    1.3360758069
  - # 3
    frequency:    2.0119554493
  - # 4
    frequency:    2.8632511684
  - # 5
    frequency:    4.1946294458
  - # 6
    frequency:    5.2902174211
  - # 7
    frequency:    5.9380855517
  - # 8
    frequency:    6.4906696631
  - # 9
    frequency:    7.3367728558
  - # 10
    frequency:    7.9946624069
  - # 11
    frequency:    8.4261088853
  - # 12
    frequency:    8.8561022312
  - # 13
    frequency:    9.8328475616
  - # 14
    frequency:   11.4529263309
  - # 15
    frequency:   17.3517232488
  - # 16
    frequency:   18.0016859516
  - # 17
    frequency:   18.0925826014
  - # 18
    frequency:   60.9080998279

- q-position: [    0.1666667,    0.0000000,    0.0000000 ]
  distance:    0.0600953
  band:
  - # 1
    frequency:   -0.4268807241
  - # 2
    frequency:    1.3895376775
  - # 3
    frequency:    2.0931352937
  - # 4
    frequency:    2.9355759411
  - # 5
    frequency:    4.3039041915
  - # 6
    frequency:    5.3116920967
  - # 7
    frequency:    5.9830206184
  - # 8
    frequency:    6.4981048358
  - # 9
    frequency:    7.3359696055
  - # 10
    frequency:    8.0213647623
  - # 11
    frequency:    8.4311338369
  - # 12
    frequency:    8.8784714360
  - # 13
    frequency:    9.8389480483
  - # 14
    frequency:   11.4260385429
  - # 15
    frequency:   17.3351138177
  - # 16
    frequency:   17.9987741452
  - # 17
    frequency:   18.0927549871
  - # 18
    frequency:   60.9061805843

- q-position: [    0.1717172,    0.0000000,    0.0000000 ]
  distance:    0.0619164
  band:
  - # 1
    frequency:   -0.4116308659
  - # 2
    frequency:    1.4409577637
  - # 3
    frequency:    2.1744441195
  - # 4
    frequency:    3.0067733835
  - # 5
    frequency:    4.4105322384
  - # 6
    frequency:    5.3331125076
  - # 7
    frequency:    6.0272618934
  - # 8
    frequency:    6.5070554663
  - # 9
    frequency:    7.3348894421
  - # 10
    frequency:    8.0475415531
  - # 11
    frequency:    8.4352129086
  - # 12
    frequency:    8.8998330842
  - # 13
    frequency:    9.8452352177
  - # 14
    frequency:   11.3978446092
  - # 15
    frequency:   17.3179640945
  - # 16
    frequency:   17.9940145653
  - # 17
    frequency:   18.0909658636
  - # 18
    frequency:   60.9042289883

- q-position: [    0.1767677,    0.0000000,    0.0000000 ]
  distance:    0.0637374
  band:
  - # 1
    frequency:   -0.3995065565
  - # 2
    frequency:    1.4903437030
  - # 3
    frequency:    2.2558909355
  - # 4
    frequency:    3.0768688187
  - # 5
    frequency:    4.5143024699
  - # 6
    frequency:    5.3544672995
  - # 7
    frequency:    6.0707670424
  - # 8
    frequency:    6.5176368040
  - # 9
    frequency:    7.3335337555
  - # 10
    frequency:    8.0731420755
  - # 11
    frequency:    8.4383328833
  - # 12
    frequency:    8.9202107974
  - # 13
    frequency:    9.8516590236
  - # 14