nqpoint: 300    
npath: 3      
segment_nqpoint:
- 100
- 100
- 100
labels:
- [ 'G', 'M' ]
- [ 'M', 'K' ]
- [ 'K', 'G' ]
reciprocal_lattice:
- [   0.27475690,   0.15863097,   0.00000000 ] # a*
- [   0.00000000,   0.31726194,   0.00000000 ] # b*
- [   0.00000000,   0.00000000,   0.03514455 ] # c*
natom: 9      
lattice:
- [     3.639581086658851,     0.000000000000000,     0.000000000000000 ] # a
- [    -1.819790543329425,     3.151969680185017,     0.000000000000000 ] # b
- [     0.000000000000000,     0.000000000000000,    28.453913762391199 ] # c
points:
- symbol: C # 1
  coordinates: [  0.000000000000000,  0.000000000000000,  0.500000024784414 ]
  mass: 12.010700
- symbol: C # 2
  coordinates: [  0.333332985432215,  0.666666983183674,  0.641311997189814 ]
  mass: 12.010700
- symbol: C # 3
  coordinates: [  0.666666984744047,  0.333332985985145,  0.358688002440276 ]
  mass: 12.010700
- symbol: N # 4
  coordinates: [  0.333332985432215,  0.666666983183674,  0.597508376676056 ]
  mass: 14.006700
- symbol: N # 5
  coordinates: [  0.666666984744047,  0.333332985985145,  0.402491623323951 ]
  mass: 14.006700
- symbol: O # 6
  coordinates: [  0.333332985432215,  0.666666983183674,  0.683699048392573 ]
  mass: 15.999400
- symbol: O # 7
  coordinates: [  0.666666984744047,  0.333332985985145,  0.316300951607427 ]
  mass: 15.999400
- symbol: Y # 8
  coordinates: [  0.333332985432215,  0.666666983183674,  0.451953458871671 ]
  mass: 88.905850
- symbol: Y # 9
  coordinates: [  0.666666984744047,  0.333332985985145,  0.548046540758412 ]
  mass: 88.905850

phonon:
- q-position: [    0.0000000,    0.0000000,    0.0000000 ]
  distance:    0.0000000
  band:
  - # 1
    frequency:   -0.0000104914
  - # 2
    frequency:    0.0000005021
  - # 3
    frequency:    0.0000091714
  - # 4
    frequency:    0.3757468019
  - # 5
    frequency:    0.3757468020
  - # 6
    frequency:    0.4259705250
  - # 7
    frequency:    0.4259705250
  - # 8
    frequency:    3.5180817273
  - # 9
    frequency:    3.5180817274
  - # 10
    frequency:    4.6375589229
  - # 11
    frequency:    5.3518254692
  - # 12
    frequency:    5.3518254692
  - # 13
    frequency:    5.5293500697
  - # 14
    frequency:    5.5293500697
  - # 15
    frequency:    7.1816727594
  - # 16
    frequency:    8.6030677621
  - # 17
    frequency:    9.4781697104
  - # 18
    frequency:    9.4781697104
  - # 19
    frequency:   16.6860904804
  - # 20
    frequency:   17.7656403373
  - # 21
    frequency:   17.7656403374
  - # 22
    frequency:   17.7831708806
  - # 23
    frequency:   17.7831708806
  - # 24
    frequency:   38.6105755005
  - # 25
    frequency:   38.6623553400
  - # 26
    frequency:   68.7935982471
  - # 27
    frequency:   68.9025818326

- q-position: [    0.0050505,    0.0000000,    0.0000000 ]
  distance:    0.0016023
  band:
  - # 1
    frequency:    0.0012779400
  - # 2
    frequency:    0.0552017510
  - # 3
    frequency:    0.0965649791
  - # 4
    frequency:    0.3756667871
  - # 5
    frequency:    0.3775563429
  - # 6
    frequency:    0.4266651801
  - # 7
    frequency:    0.4298502484
  - # 8
    frequency:    3.5181283190
  - # 9
    frequency:    3.5188534532
  - # 10
    frequency:    4.6372966020
  - # 11
    frequency:    5.3518288753
  - # 12
    frequency:    5.3569098263
  - # 13
    frequency:    5.5295221770
  - # 14
    frequency:    5.5298133964
  - # 15
    frequency:    7.1813475659
  - # 16
    frequency:    8.6015072730
  - # 17
    frequency:    9.4779619869
  - # 18
    frequency:    9.4840929401
  - # 19
    frequency:   16.6846068662
  - # 20
    frequency:   17.7656605365
  - # 21
    frequency:   17.7660831851
  - # 22
    frequency:   17.7831836111
  - # 23
    frequency:   17.7834162939
  - # 24
    frequency:   38.6105620533
  - # 25
    frequency:   38.6623079076
  - # 26
    frequency:   68.7925493461
  - # 27
    frequency:   68.9015035593

- q-position: [    0.0101010,    0.0000000,    0.0000000 ]
  distance:    0.0032047
  band:
  - # 1
    frequency:    0.0051180094
  - # 2
    frequency:    0.1096785222
  - # 3
    frequency:    0.1896571150
  - # 4
    frequency:    0.3754303025
  - # 5
    frequency:    0.3829386568
  - # 6
    frequency:    0.4289192933
  - # 7
    frequency:    0.4427652433
  - # 8
    frequency:    3.5182682786
  - # 9
    frequency:    3.5211644756
  - # 10
    frequency:    4.6365317520
  - # 11
    frequency:    5.3518398414
  - # 12
    frequency:    5.3720108862
  - # 13
    frequency:    5.5300379103
  - # 14
    frequency:    5.5312026375
  - # 15
    frequency:    7.1803727806
  - # 16
    frequency:    8.5968959538
  - # 17
    frequency:    9.4773395551
  - # 18
    frequency:    9.5018096159
  - # 19
    frequency:   16.6801633663
  - # 20
    frequency:   17.7657211337
  - # 21
    frequency:   17.7674055270
  - # 22
    frequency:   17.7832218192
  - # 23
    frequency:   17.7841524555
  - # 24
    frequency:   38.6105217432
  - # 25
    frequency:   38.6621656928
  - # 26
    frequency:   68.7894048709
  - # 27
    frequency:   68.8982709860

- q-position: [    0.0151515,    0.0000000,    0.0000000 ]
  distance:    0.0048070
  band:
  - # 1
    frequency:    0.0115340827
  - # 2
    frequency:    0.1624915813
  - # 3
    frequency:    0.2732861950
  - # 4
    frequency:    0.3750482817
  - # 5
    frequency:    0.3917619136
  - # 6
    frequency:    0.4333080953
  - # 7
    frequency:    0.4695183345
  - # 8
    frequency:    3.5185021577
  - # 9
    frequency:    3.5250024038
  - # 10
    frequency:    4.6353251257
  - # 11
    frequency:    5.3518606006
  - # 12
    frequency:    5.3966846967
  - # 13
    frequency:    5.5308955109
  - # 14
    frequency:    5.5335160717
  - # 15
    frequency:    7.1787508035
  - # 16
    frequency:    8.5894285763
  - # 17
    frequency:    9.4763046291
  - # 18
    frequency:    9.5311742023
  - # 19
    frequency:   16.6727816972
  - # 20
    frequency:   17.7658221281
  - # 21
    frequency:   17.7695889966
  - # 22
    frequency:   17.7832855551
  - # 23
    frequency:   17.7853792068
  - # 24
    frequency:   38.6104546645
  - # 25
    frequency:   38.6619289432
  - # 26
    frequency:   68.7841714985
  - # 27
    frequency:   68.8928908463

- q-position: [    0.0202020,    0.0000000,    0.0000000 ]
  distance:    0.0064093
  band:
  - # 1
    frequency:    0.0205407132
  - # 2
    frequency:    0.2122041841
  - # 3
    frequency:    0.3380989430
  - # 4
    frequency:    0.3745397419
  - # 5
    frequency:    0.4038250728
  - # 6
    frequency:    0.4410155734
  - # 7
    frequency:    0.5186966409
  - # 8
    frequency:    3.5188308701
  - # 9
    frequency:    3.5303468377
  - # 10
    frequency:    4.6337619946
  - # 11
    frequency:    5.3518948394
  - # 12
    frequency:    5.4302273693
  - # 13
    frequency:    5.5320920707
  - # 14
    frequency:    5.5367535219
  - # 15
    frequency:    7.1764856835
  - # 16
    frequency:    8.5793843709
  - # 17
    frequency:    9.4748608944
  - # 18
    frequency:    9.5719823828
  - # 19
    frequency:   16.6624970503
  - # 20
    frequency:   17.7659635179
  - # 21
    frequency:   17.7726036990
  - # 22
    frequency:   17.7833749018
  - # 23
    frequency:   17.7870965761
  - # 24
    frequency:   38.6103609733
  - # 25
    frequency:   38.6615980709
  - # 26
    frequency:   68.7768603352
  - # 27
    frequency:   68.8853743417

- q-position: [    0.0252525,    0.0000000,    0.0000000 ]
  distance:    0.0080117
  band:
  - # 1
    frequency:    0.0321435928
  - # 2
    frequency:    0.2565535757
  - # 3
    frequency:    0.3739326899
  - # 4
    frequency:    0.3811455104
  - # 5
    frequency:    0.4188705287
  - # 6
    frequency:    0.4541173376
  - # 7
    frequency:    0.5926833891
  - # 8
    frequency:    3.5192556832
  - # 9
    frequency:    3.5371697511
  - # 10
    frequency:    4.6319355100
  - # 11
    frequency:    5.3519476474
  - # 12
    frequency:    5.4717110125
  - # 13
    frequency:    5.5336235655
  - # 14
    frequency:    5.5409292476
  - # 15
    frequency:    7.1735831911
  - # 16
    frequency:    8.5670781652
  - # 17
    frequency:    9.4730134998
  - # 18
    frequency:    9.6240094878
  - # 19
    frequency:   16.6493567045
  - # 20
    frequency:   17.7661453002
  - # 21
    frequency:   17.7764089862
  - # 22
    frequency:   17.7834899743
  - # 23
    frequency:   17.7893054007
  - # 24
    frequency:   38.6102408869
  - # 25
    frequency:   38.6611736523
  - # 26
    frequency:   68.7674868838
  - # 27
    frequency:   68.8757371095

- q-position: [    0.0303030,    0.0000000,    0.0000000 ]
  distance:    0.0096140
  band:
  - # 1
    frequency:    0.0463318953
  - # 2
    frequency:    0.2925690609
  - # 3
    frequency:    0.3732643383
  - # 4
    frequency:    0.4112420229
  - # 5
    frequency:    0.4365870000
  - # 6
    frequency:    0.4754369479
  - # 7
    frequency:    0.6822221237
  - # 8
    frequency:    3.5197782068
  - # 9
    frequency:    3.5454360343
  - # 10
    frequency:    4.6299331494
  - # 11
    frequency:    5.3520254498
  - # 12
    frequency:    5.5198860307
  - # 13
    frequency:    5.5354848975
  - # 14
    frequency:    5.5462246576
  - # 15
    frequency:    7.1700509180
  - # 16
    frequency:    8.5528179349
  - # 17
    frequency:    9.4707690470
  - # 18
    frequency:    9.6870389707
  - # 19
    frequency:   16.6334182946
  - # 20
    frequency:   17.7663674700
  - # 21
    frequency:   17.7809537682
  - # 22
    frequency:   17.7836309190
  - # 23
    frequency:   17.7920087604
  - # 24
    frequency:   38.6100946818
  - # 25
    frequency:   38.6606564276
  - # 26
    frequency:   68.7560709972
  - # 27
    frequency:   68.8639991785

- q-position: [    0.0353535,    0.0000000,    0.0000000 ]
  distance:    0.0112163
  band:
  - # 1
    frequency:    0.0630740467
  - # 2
    frequency:    0.3181544829
  - # 3
    frequency:    0.3725782882
  - # 4
    frequency:    0.4364030494
  - # 5
    frequency:    0.4566283742
  - # 6
    frequency:    0.5069511567
  - # 7
    frequency:    0.7789481445
  - # 8
    frequency:    3.5204003796
  - # 9
    frequency:    3.5551041897
  - # 10
    frequency:    4.6278289188
  - # 11
    frequency:    5.3521359257
  - # 12
    frequency:    5.5376699459
  - # 13
    frequency:    5.5511293949
  - # 14
    frequency:    5.5750954643
  - # 15
    frequency:    7.1658984050
  - # 16
    frequency:    8.5368767317
  - # 17
    frequency:    9.4681355756
  - # 18
    frequency:    9.7608737066
  - # 19
    frequency:   16.6147479016
  - # 20
    frequency:   17.7666300198
  - # 21
    frequency:   17.7837979119
  - # 22
    frequency:   17.7861748311
  - # 23
    frequency:   17.7952155869
  - # 24
    frequency:   38.6099226922
  - # 25
    frequency:   38.6600472999
  - # 26
    frequency:   68.7426368203
  - # 27
    frequency:   68.8501849121

- q-position: [    0.0404040,    0.0000000,    0.0000000 ]
  distance:    0.0128187
  band:
  - # 1
    frequency:    0.0823169351
  - # 2
    frequency:    0.3340577040
  - # 3
    frequency:    0.3719143925
  - # 4
    frequency:    0.4602463148
  - # 5
    frequency:    0.4786684577
  - # 6
    frequency:    0.5478212903
  - # 7
    frequency:    0.8789297979
  - # 8
    frequency:    3.5211244523
  - # 9
    frequency:    3.5661271600
  - # 10
    frequency:    4.6256810505
  - # 11
    frequency:    5.3522879163
  - # 12
    frequency:    5.5401716212
  - # 13
    frequency:    5.5582222042
  - # 14
    frequency:    5.6335468318
  - # 15
    frequency:    7.1611372951
  - # 16
    frequency:    8.5194795339
  - # 17
    frequency:    9.4651225457
  - # 18
    frequency:    9.8453306237
  - # 19
    frequency:   16.5934181239
  - # 20
    frequency:   17.7669329383
  - # 21
    frequency:   17.7839911575
  - # 22
    frequency:   17.7919883794
  - # 23
    frequency:   17.7989510730
  - # 24
    frequency:   38.6097253071
  - # 25
    frequency:   38.6593473341
  - # 26
    frequency:   68.7272127178
  - # 27
    frequency:   68.8343229390

- q-position: [    0.0454545,    0.0000000,    0.0000000 ]
  distance:    0.0144210
  band:
  - # 1
    frequency:    0.1039875347
  - # 2
    frequency:    0.3430205051
  - # 3
    frequency:    0.3712888073
  - # 4
    frequency:    0.4841668370
  - # 5
    frequency:    0.5024425099
  - # 6
    frequency:    0.5952574346
  - # 7
    frequency:    0.9804569805
  - # 8
    frequency:    3.5219529707
  - # 9
    frequency:    3.5784532594
  - # 10
    frequency:    4.6235334213
  - # 11
    frequency:    5.3524913250
  - # 12
    frequency:    5.5429819207
  - # 13
    frequency:    5.5658694462
  - # 14
    frequency:    5.6956619862
  - # 15
    frequency:    7.1557815138
  - # 16
    frequency:    8.5008013744
  - # 17
    frequency:    9.4617408153
  - # 18
    frequency:    9.9402236678
  - # 19
    frequency:   16.5695062674
  - # 20
    frequency:   17.7672762097
  - # 21
    frequency:   17.7842108862
  - # 22
    frequency:   17.7982571978
  - # 23
    frequency:   17.8032913481
  - # 24
    frequency:   38.6095029682
  - # 25
    frequency:   38.6585577561
  - # 26
    frequency:   68.7098311906
  - # 27
    frequency:   68.8164460717

- q-position: [    0.0505051,    0.0000000,    0.0000000 ]
  distance:    0.0160233
  band:
  - # 1
    frequency:    0.1279957152
  - # 2
    frequency:    0.3476463654
  - # 3
    frequency:    0.3706753220
  - # 4
    frequency:    0.5086701413
  - # 5
    frequency:    0.5277429549
  - # 6
    frequency:    0.6466655212
  - # 7
    frequency:    1.0827144279
  - # 8
    frequency:    3.5228887568
  - # 9
    frequency:    3.5920271687
  - # 10
    frequency:    4.6214187657
  - # 11
    frequency:    5.3527570127
  - # 12
    frequency:    5.5460919831
  - # 13
    frequency:    5.5742948901
  - # 14
    frequency:    5.7600501372
  - # 15
    frequency:    7.1498474773
  - # 16
    frequency:    8.4809721755
  - # 17
    frequency:    9.4580026142
  - # 18
    frequency:   10.0453412462
  - # 19
    frequency:   16.5430927528
  - # 20
    frequency:   17.7676598121
  - # 21
    frequency:   17.7844573532
  - # 22
    frequency:   17.8046847465
  - # 23
    frequency:   17.8084710092
  - # 24
    frequency:   38.6092561668
  - # 25
    frequency:   38.6576799512
  - # 26
    frequency:   68.6905287796
  - # 27
    frequency:   68.7965912131

- q-position: [    0.0555556,    0.0000000,    0.0000000 ]
  distance:    0.0176257
  band:
  - # 1
    frequency:    0.1542372865
  - # 2
    frequency:    0.3496803248
  - # 3
    frequency:    0.3700133510
  - # 4
    frequency:    0.5339067935
  - # 5
    frequency:    0.5543999345
  - # 6
    frequency:    0.7003569445
  - # 7
    frequency:    1.1852656937
  - # 8
    frequency:    3.5239348894
  - # 9
    frequency:    3.6067909501
  - # 10
    frequency:    4.6193622852
  - # 11
    frequency:    5.3530966901
  - # 12
    frequency:    5.5494921409
  - # 13
    frequency:    5.5835002696
  - # 14
    frequency:    5.8256232914
  - # 15
    frequency:    7.1433543330
  - # 16
    frequency:    8.4600845643
  - # 17
    frequency:    9.4539215127
  - # 18
    frequency:   10.1604235049
  - # 19
    frequency:   16.5142598033
  - # 20
    frequency:   17.7680837164
  - # 21
    frequency:   17.7847308354
  - # 22
    frequency:   17.8108197557
  - # 23
    frequency:   17.8148798812
  - # 24
    frequency:   38.6089854408
  - # 25
    frequency:   38.6567154625
  - # 26
    frequency:   68.6693459574
  - # 27
    frequency:   68.7747992519

- q-position: [    0.0606061,    0.0000000,    0.0000000 ]
  distance:    0.0192280
  band:
  - # 1
    frequency:    0.1825967322
  - # 2
    frequency:    0.3501788778
  - # 3
    frequency:    0.3692448117
  - # 4
    frequency:    0.5598833778
  - # 5
    frequency:    0.5822698830
  - # 6
    frequency:    0.7553400642
  - # 7
    frequency:    1.2878500334
  - # 8
    frequency:    3.5250946862
  - # 9
    frequency:    3.6226850459
  - # 10
    frequency:    4.6173848934
  - # 11
    frequency:    5.3535228092
  - # 12
    frequency:    5.5531719672
  - # 13
    frequency:    5.5934655112
  - # 14
    frequency:    5.8914239773
  - # 15
    frequency:    7.1363242358
  - # 16
    frequency:    8.4382022622
  - # 17
    frequency:    9.4495123852
  - # 18
    frequency:   10.2851433032
  - # 19
    frequency:   16.4830904341
  - # 20
    frequency:   17.7685478846
  - # 21
    frequency:   17.7850316291
  - # 22
    frequency:   17.8167393837
  - # 23
    frequency:   17.8223809189
  - # 24
    frequency:   38.6086913712
  - # 25
    frequency:   38.6556659894
  - # 26
    frequency:   68.6463270091
  - # 27
    frequency:   68.7511149460

- q-position: [    0.0656566,    0.0000000,    0.0000000 ]
  distance:    0.0208303
  band:
  - # 1
    frequency:    0.2129494094
  - # 2
    frequency:    0.3497675153
  - # 3
    frequency:    0.3683444970
  - # 4
    frequency:    0.5865485361
  - # 5
    frequency:    0.6112316319
  - # 6
    frequency:    0.8110310763
  - # 7
    frequency:    1.3902950614
  - # 8
    frequency:    3.5263716853
  - # 9
    frequency:    3.6396492222
  - # 10
    frequency:    4.6155058073
  - # 11
    frequency:    5.3540484545
  - # 12
    frequency:    5.5571203196
  - # 13
    frequency:    5.6041637327
  - # 14
    frequency:    5.9566292919
  - # 15
    frequency:    7.1287826731
  - # 16
    frequency:    8.4153677652
  - # 17
    frequency:    9.4447913690
  - # 18
    frequency:   10.4190932200
  - # 19
    frequency:   16.4496677429
  - # 20
    frequency:   17.7690522682
  - # 21
    frequency:   17.7853600473
  - # 22
    frequency:   17.8228238496
  - # 23
    frequency:   17.8305363459
  - # 24
    frequency:   38.6083745788
  - # 25
    frequency:   38.6545333850
  - # 26
    frequency:   68.6215199011
  - # 27
    frequency:   68.7255867952

- q-position: [    0.0707071,    0.0000000,    0.0000000 ]
  distance:    0.0224327
  band:
  - # 1
    frequency:    0.2451631833
  - # 2
    frequency:    0.3488188864
  - # 3
    frequency:    0.3673231597
  - # 4
    frequency:    0.6138295131
  - # 5
    frequency:    0.6411851874
  - # 6
    frequency:    0.8670718676
  - # 7
    frequency:    1.4924755200
  - # 8
    frequency:    3.5277696301
  - # 9
    frequency:    3.6576234352
  - # 10
    frequency:    4.6137444695
  - # 11
    frequency:    5.3546872341
  - # 12
    frequency:    5.5613253778
  - # 13
    frequency:    5.6155642750
  - # 14
    frequency:    6.0205577617
  - # 15
    frequency:    7.1207588496
  - # 16
    frequency:    8.3916087879
  - # 17
    frequency:    9.4397758164
  - # 18
    frequency:   10.5617795804
  - # 19
    frequency:   16.4140744771
  - # 20
    frequency:   17.7695968061
  - # 21
    frequency:   17.7857164168
  - # 22
    frequency:   17.8292380942
  - # 23
    frequency:   17.8391265036
  - # 24
    frequency:   38.6080357207
  - # 25
    frequency:   38.6533196546
  - # 26
    frequency:   68.5949761402
  - # 27
    frequency:   68.6982669036

- q-position: [    0.0757576,    0.0000000,    0.0000000 ]
  distance:    0.0240350
  band:
  - # 1
    frequency:    0.2790995568
  - # 2
    frequency:    0.3475630210
  - # 3
    frequency:    0.3662155757
  - # 4
    frequency:    0.6416482464
  - # 5
    frequency:    0.6720508662
  - # 6
    frequency:    0.9232310204
  - # 7
    frequency:    1.5942921090
  - # 8
    frequency:    3.5292924555
  - # 9
    frequency:    3.6765485975
  - # 10
    frequency:    4.6121219052
  - # 11
    frequency:    5.3554531710
  - # 12
    frequency:    5.5657746788
  - # 13
    frequency:    5.6276336691
  - # 14
    frequency:    6.0826696111
  - # 15
    frequency:    7.1122861539
  - # 16
    frequency:    8.3669433768
  - # 17
    frequency:    9.4344842417
  - # 18
    frequency:   10.7126233907
  - # 19
    frequency:   16.3763928441
  - # 20
    frequency:   17.7701814233
  - # 21
    frequency:   17.7861010749
  - # 22
    frequency:   17.8360321603
  - # 23
    frequency:   17.8480497567
  - # 24
    frequency:   38.6076754867
  - # 25
    frequency:   38.6520269523
  - # 26
    frequency:   68.5667506212
  - # 27
    frequency:   68.6692108310

- q-position: [    0.0808081,    0.0000000,    0.0000000 ]
  distance:    0.0256373
  band:
  - # 1
    frequency:    0.3146143864
  - # 2
    frequency:    0.3461514697
  - # 3
    frequency:    0.3650686666
  - # 4
    frequency:    0.6699285281
  - # 5
    frequency:    0.7037682686
  - # 6
    frequency:    0.9793509347
  - # 7
    frequency:    1.6956597798
  - # 8
    frequency:    3.5309442779
  - # 9
    frequency:    3.6963672376
  - # 10
    frequency:    4.6106616541
  - # 11
    frequency:    5.3563605951
  - # 12
    frequency:    5.5704551472
  - # 13
    frequency:    5.6403360776
  - # 14
    frequency:    6.1425600654
  - # 15
    frequency:    7.1034027360
  - # 16
    frequency:    8.3413838089
  - # 17
    frequency:    9.4289362609
  - # 18
    frequency:   10.8709672503
  - # 19
    frequency:   16.3367045294
  - # 20
    frequency:   17.7708060283
  - # 21
    frequency:   17.7865143662
  - # 22
    frequency:   17.8432200328
  - # 23
    frequency:   17.8572437564
  - # 24
    frequency:   38.6072945962
  - # 25
    frequency:   38.6506575791
  - # 26
    frequency:   68.5369014660
  - # 27
    frequency:   68.6384774354

- q-position: [    0.0858586,    0.0000000,    0.0000000 ]
  distance:    0.0272397
  band:
  - # 1
    frequency:    0.3446928568
  - # 2
    frequency:    0.3515582790
  - # 3
    frequency:    0.3639342586
  - # 4
    frequency:    0.6985990561
  - # 5
    frequency:    0.7362951449
  - # 6
    frequency:    1.0353189272
  - # 7
    frequency:    1.7965008205
  - # 8
    frequency:    3.5327293882
  - # 9
    frequency:    3.7170240441
  - # 10
    frequency:    4.6093904074
  - # 11
    frequency:    5.3574240330
  - # 12
    frequency:    5.5753531257
  - # 13
    frequency:    5.6536335744
  - # 14
    frequency:    6.1999469592
  - # 15
    frequency:    7.0941522380
  - # 16
    frequency:    8.3149394733
  - # 17
    frequency:    9.4231525250
  - # 18
    frequency:   11.0360867778
  - # 19
    frequency:   16.2950908892
  - # 20
    frequency:   17.7714705113
  - # 21
    frequency:   17.7869566395
  - # 22
    frequency:   17.8508030805
  - # 23
    frequency:   17.8666619616
  - # 24
    frequency:   38.6068937940
  - # 25
    frequency:   38.6492139787
  - # 26
    frequency:   68.5054898525
  - # 27
    frequency:   68.6061287054

- q-position: [    0.0909091,    0.0000000,    0.0000000 ]
  distance:    0.0288420
  band:
  - # 1
    frequency:    0.3432721457
  - # 2
    frequency:    0.3628655581
  - # 3
    frequency:    0.3897767672
  - # 4
    frequency:    0.7275945177
  - # 5
    frequency:    0.7696062782
  - # 6
    frequency:    1.0910508732
  - # 7
    frequency:    1.8967405075
  - # 8
    frequency:    3.5346522493
  - # 9
    frequency:    3.7384662976
  - # 10
    frequency:    4.6083384566
  - # 11
    frequency:    5.3586580978
  - # 12
    frequency:    5.5804544027
  - # 13
    frequency:    5.6674863706
  - # 14
    frequency:    6.2546543692
  - # 15
    frequency:    7.0845847343
  - # 16
    frequency:    8.2876189425
  - # 17
    frequency:    9.4171546472
  - # 18
    frequency:   11.2072048714
  - # 19
    frequency:   16.2516332917
  - # 20
    frequency:   17.7721747417
  - # 21
    frequency:   17.7874282439
  - # 22
    frequency:   17.8587774048
  - # 23
    frequency:   17.8762661521
  - # 24
    frequency:   38.6064738479
  - # 25
    frequency:   38.6476987351
  - # 26
    frequency:   68.4725798352
  - # 27
    frequency:   68.5722295839

- q-position: [    0.0959596,    0.0000000,    0.0000000 ]
  distance:    0.0304443
  band:
  - # 1
    frequency:    0.3419610499
  - # 2
    frequency:    0.3619156618
  - # 3
    frequency:    0.4291103631
  - # 4
    frequency:    0.7568557210
  - # 5
    frequency:    0.8036924375
  - # 6
    frequency:    1.1464815998
  - # 7
    frequency:    1.9963041992
  - # 8
    frequency:    3.5367174979
  - # 9
    frequency:    3.7606441944
  - # 10
    frequency:    4.6075400369
  - # 11
    frequency:    5.3600773764
  - # 12
    frequency:    5.5857442422
  - # 13
    frequency:    5.6818530236
  - # 14
    frequency:    6.3065939854
  - # 15
    frequency:    7.0747579680
  - # 16
    frequency:    8.2594314233
  - # 17
    frequency:    9.4109651221
  - # 18
    frequency:   11.3835071556
  - # 19
    frequency:   16.2064135926
  - # 20
    frequency:   17.7729185662
  - # 21
    frequency:   17.7879295255
  - # 22
    frequency:   17.8671365222
  - # 23
    frequency:   17.8860235353
  - # 24
    frequency:   38.6060355451
  - # 25
    frequency:   38.6461145678
  - # 26
    frequency:   68.4382381575
  - # 27
    frequency:   68.5368477844

- q-position: [    0.1010101,    0.0000000,    0.0000000 ]
  distance:    0.0320467
  band:
  - # 1
    frequency:    0.3408236680
  - # 2
    frequency:    0.3611369741
  - # 3
    frequency:    0.4693946047
  - # 4
    frequency:    0.7863292760
  - # 5
    frequency:    0.8385593728
  - # 6
    frequency:    1.2015590440
  - # 7
    frequency:    2.0951152625
  - # 8
    frequency:    3.5389299504
  - # 9
    frequency:    3.7835110649
  - # 10
    frequency:    4.6070336318
  - # 11
    frequency:    5.3616963156
  - # 12
    frequency:    5.5912074143
  - # 13
    frequency:    5.6966906454
  - # 14
    frequency:    6.3557456704
  - # 15
    frequency:    7.0647389981
  - # 16
    frequency:    8.2303877429
  - # 17
    frequency:    9.4046072386
  - # 18
    frequency:   11.5641572029
  - # 19
    frequency:   16.1595147418
  - # 20
    frequency:   17.7737018064
  - # 21
    frequency:   17.7884608237
  - # 22
    frequency:   17.8758724854
  - # 23
    frequency:   17.8959053722
  - # 24
    frequency:   38.6055796893
  - # 25
    frequency:   38.6444643286
  - # 26
    frequency:   68.4025340572
  - # 27
    frequency:   68.5000535980

- q-position: [    0.1060606,    0.0000000,    0.0000000 ]
  distance:    0.0336490
  band:
  - # 1
    frequency:    0.3399194971
  - # 2
    frequency:    0.3605809475
  - # 3
    frequency:    0.5104602326
  - # 4
    frequency:    0.8159670841
  - # 5
    frequency:    0.8742267562
  - # 6
    frequency:    1.2562405851
  - # 7
    frequency:    2.1930934874
  - # 8
    frequency:    3.5412946131
  - # 9
    frequency:    3.8070234965
  - # 10
    frequency:    4.6068622845
  - # 11
    frequency:    5.3635291045
  - # 12
    frequency:    5.5968282297
  - # 13
    frequency:    5.7119551137
  - # 14
    frequency:    6.4021382420
  - # 15
    frequency:    7.0546064267
  - # 16
    frequency:    8.2005009972
  - # 17
    frequency:    9.3981049863
  - # 18
    frequency:   11.7483104565
  - # 19
    frequency:   16.1110215389
  - # 20
    frequency:   17.7745242558
  - # 21
    frequency:   17.7890224674
  - # 22
    frequency:   17.8849764008
  - # 23
    frequency:   17.9058861810
  - # 24
    frequency:   38.6051070981
  - # 25
    frequency:   38.6427509963
  - # 26
    frequency:   68.3655390637
  - # 27
    frequency:   68.4619196944

- q-position: [    0.1111111,    0.0000000,    0.0000000 ]
  distance:    0.0352513
  band:
  - # 1
    frequency:    0.3393049548
  - # 2
    frequency:    0.3602978760
  - # 3
    frequency:    0.5521336603
  - # 4
    frequency:    0.8457257681
  - # 5
    frequency:    0.9107269179
  - # 6
    frequency:    1.3104906747
  - # 7
    frequency:    2.2901537860
  - # 8
    frequency:    3.5438166969
  - # 9
    frequency:    3.8311413617
  - # 10
    frequency:    4.6070739599
  - # 11
    frequency:    5.3655895568
  - # 12
    frequency:    5.6025905764
  - # 13
    frequency:    5.7276012877
  - # 14
    frequency:    6.4458310529
  - # 15
    frequency:    7.0444534393
  - # 16
    frequency:    8.1697869579
  - # 17
    frequency:    9.3914829542
  - # 18
    frequency:   11.9351261333
  - # 19
    frequency:   16.0610215704
  - # 20
    frequency:   17.7753856783
  - # 21
    frequency:   17.7896147714
  - # 22
    frequency:   17.8944386827
  - # 23
    frequency:   17.9159431945
  - # 24
    frequency:   38.6046186002
  - # 25
    frequency:   38.6409776723
  - # 26
    frequency:   68.3273267906
  - # 27
    frequency:   68.4225209161

- q-position: [    0.1161616,    0.0000000,    0.0000000 ]
  distance:    0.0368537
  band:
  - # 1
    frequency:    0.3390340172
  - # 2
    frequency:    0.3603366330
  - # 3
    frequency:    0.5942379259
  - # 4
    frequency:    0.8755661094
  - # 5
    frequency:    0.9481031888
  - # 6
    frequency:    1.3642792665
  - # 7
    frequency:    2.3862050487
  - # 8
    frequency:    3.5465016349
  - # 9
    frequency:    3.8558277528
  - # 10
    frequency:    4.6077219898
  - # 11
    frequency:    5.3678909896
  - # 12
    frequency:    5.6084779622
  - # 13
    frequency:    5.7435832310
  - # 14
    frequency:    6.4868964805
  - # 15
    frequency:    7.0343919866
  - # 16
    frequency:    8.1382643129
  - # 17
    frequency:    9.3847662244
  - # 18
    frequency:   12.1237767084
  - # 19
    frequency:   16.0096063979
  - # 20
    frequency:   17.7762858050
  - # 21
    frequency:   17.7902380327
  - # 22
    frequency:   17.9042491774
  - # 23
    frequency:   17.9260559467
  - # 24
    frequency:   38.6041150338
  - # 25
    frequency:   38.6391475752
  - # 26
    frequency:   68.2879727219
  - # 27
    frequency:   68.3819340664

- q-position: [    0.1212121,    0.0000000,    0.0000000 ]
  distance:    0.0384560
  band:
  - # 1
    frequency:    0.3391583115
  - # 2
    frequency:    0.3607443206
  - # 3
    frequency:    0.6365943184
  - # 4
    frequency:    0.9054525253
  - # 5
    frequency:    0.9864076510
  - # 6
    frequency:    1.4175807499
  - # 7
    frequency:    2.4811490796
  - # 8
    frequency:    3.5493551025
  - # 9
    frequency:    3.8810488184
  - # 10
    frequency:    4.6088656364