nqpoint: 300    
npath: 3      
segment_nqpoint:
- 100
- 100
- 100
labels:
- [ 'G', 'M' ]
- [ 'M', 'K' ]
- [ 'K', 'G' ]
reciprocal_lattice:
- [   0.29388212,   0.16967292,   0.00000000 ] # a*
- [   0.00000000,   0.33934584,   0.00000000 ] # b*
- [   0.00000000,   0.00000000,   0.03524307 ] # c*
natom: 9      
lattice:
- [     3.402724898359088,     0.000000000000000,     0.000000000000000 ] # a
- [    -1.701362449179544,     2.946846204061671,     0.000000000000000 ] # b
- [     0.000000000000000,     0.000000000000000,    28.374376513873450 ] # c
points:
- symbol: C # 1
  coordinates: [  0.000000000000000,  0.000000000000000,  0.505865263494905 ]
  mass: 12.010700
- symbol: C # 2
  coordinates: [  0.333332985432215,  0.666666983183674,  0.640333900679653 ]
  mass: 12.010700
- symbol: C # 3
  coordinates: [  0.666666984744047,  0.333332985985145,  0.371992210463005 ]
  mass: 12.010700
- symbol: N # 4
  coordinates: [  0.333332985432215,  0.666666983183674,  0.596431276443954 ]
  mass: 14.006700
- symbol: N # 5
  coordinates: [  0.666666984744047,  0.333332985985145,  0.415937648430572 ]
  mass: 14.006700
- symbol: O # 6
  coordinates: [  0.333332985432215,  0.666666983183674,  0.682812413671909 ]
  mass: 15.999400
- symbol: S # 7
  coordinates: [  0.666666984744047,  0.333332985985145,  0.317187586328091 ]
  mass: 32.065000
- symbol: Sc # 8
  coordinates: [  0.333332985432215,  0.666666983183674,  0.461742534768300 ]
  mass: 44.955912
- symbol: Sc # 9
  coordinates: [  0.666666984744047,  0.333332985985145,  0.549630866805332 ]
  mass: 44.955912

phonon:
- q-position: [    0.0000000,    0.0000000,    0.0000000 ]
  distance:    0.0000000
  band:
  - # 1
    frequency:   -0.9328856133
  - # 2
    frequency:   -0.9328856133
  - # 3
    frequency:   -0.5028845414
  - # 4
    frequency:   -0.5028845414
  - # 5
    frequency:   -0.0000025331
  - # 6
    frequency:   -0.0000010263
  - # 7
    frequency:    0.0000022467
  - # 8
    frequency:    4.5387980962
  - # 9
    frequency:    4.5387980962
  - # 10
    frequency:    4.9627342047
  - # 11
    frequency:    5.5620015679
  - # 12
    frequency:    5.5620015679
  - # 13
    frequency:    6.5517342659
  - # 14
    frequency:    6.5517342659
  - # 15
    frequency:    8.3522414221
  - # 16
    frequency:   10.9160975106
  - # 17
    frequency:   10.9160975106
  - # 18
    frequency:   11.7532313342
  - # 19
    frequency:   14.4522222392
  - # 20
    frequency:   14.4522222392
  - # 21
    frequency:   17.7242432855
  - # 22
    frequency:   17.7242432855
  - # 23
    frequency:   18.6824883880
  - # 24
    frequency:   27.4191814576
  - # 25
    frequency:   38.7829820465
  - # 26
    frequency:   59.7467736397
  - # 27
    frequency:   69.3069306008

- q-position: [    0.0050505,    0.0000000,    0.0000000 ]
  distance:    0.0017139
  band:
  - # 1
    frequency:   -0.9318333648
  - # 2
    frequency:   -0.9297357034
  - # 3
    frequency:   -0.5003176025
  - # 4
    frequency:   -0.4942823226
  - # 5
    frequency:   -0.0112645173
  - # 6
    frequency:    0.0774256908
  - # 7
    frequency:    0.1200109103
  - # 8
    frequency:    4.5391819591
  - # 9
    frequency:    4.5399514898
  - # 10
    frequency:    4.9625208129
  - # 11
    frequency:    5.5626257432
  - # 12
    frequency:    5.5695249822
  - # 13
    frequency:    6.5517680544
  - # 14
    frequency:    6.5519159506
  - # 15
    frequency:    8.3519726731
  - # 16
    frequency:   10.9167104708
  - # 17
    frequency:   10.9222016254
  - # 18
    frequency:   11.7528451717
  - # 19
    frequency:   14.4523182505
  - # 20
    frequency:   14.4526104612
  - # 21
    frequency:   17.7242950147
  - # 22
    frequency:   17.7244183782
  - # 23
    frequency:   18.6809918894
  - # 24
    frequency:   27.4190866252
  - # 25
    frequency:   38.7829287539
  - # 26
    frequency:   59.7451331780
  - # 27
    frequency:   69.3054502775

- q-position: [    0.0101010,    0.0000000,    0.0000000 ]
  distance:    0.0034277
  band:
  - # 1
    frequency:   -0.9287297432
  - # 2
    frequency:   -0.9205190210
  - # 3
    frequency:   -0.4926210084
  - # 4
    frequency:   -0.4676726014
  - # 5
    frequency:   -0.0205563922
  - # 6
    frequency:    0.1554231483
  - # 7
    frequency:    0.2412387130
  - # 8
    frequency:    4.5403325698
  - # 9
    frequency:    4.5433988302
  - # 10
    frequency:    4.9619006247
  - # 11
    frequency:    5.5644931882
  - # 12
    frequency:    5.5918656929
  - # 13
    frequency:    6.5518685335
  - # 14
    frequency:    6.5524643628
  - # 15
    frequency:    8.3511689449
  - # 16
    frequency:   10.9185451884
  - # 17
    frequency:   10.9404285437
  - # 18
    frequency:   11.7517793352
  - # 19
    frequency:   14.4526061414
  - # 20
    frequency:   14.4537744707
  - # 21
    frequency:   17.7244500644
  - # 22
    frequency:   17.7249391591
  - # 23
    frequency:   18.6765104709
  - # 24
    frequency:   27.4188022516
  - # 25
    frequency:   38.7827690338
  - # 26
    frequency:   59.7402162650
  - # 27
    frequency:   69.3010137823

- q-position: [    0.0151515,    0.0000000,    0.0000000 ]
  distance:    0.0051416
  band:
  - # 1
    frequency:   -0.9237258187
  - # 2
    frequency:   -0.9058612617
  - # 3
    frequency:   -0.4797850089
  - # 4
    frequency:   -0.4201632323
  - # 5
    frequency:   -0.0255270509
  - # 6
    frequency:    0.2344705394
  - # 7
    frequency:    0.3647073956
  - # 8
    frequency:    4.5422469939
  - # 9
    frequency:    4.5491012785
  - # 10
    frequency:    4.9609284745
  - # 11
    frequency:    5.5675887401
  - # 12
    frequency:    5.6283538568
  - # 13
    frequency:    6.5520330535
  - # 14
    frequency:    6.5533900803
  - # 15
    frequency:    8.3498378403
  - # 16
    frequency:   10.9215892040
  - # 17
    frequency:   10.9704973453
  - # 18
    frequency:   11.7503336935
  - # 19
    frequency:   14.4530854837
  - # 20
    frequency:   14.4557123032
  - # 21
    frequency:   17.7247080215
  - # 22
    frequency:   17.7257919748
  - # 23
    frequency:   18.6690685206
  - # 24
    frequency:   27.4183287074
  - # 25
    frequency:   38.7825033576
  - # 26
    frequency:   59.7320362949
  - # 27
    frequency:   69.2936345164

- q-position: [    0.0202020,    0.0000000,    0.0000000 ]
  distance:    0.0068555
  band:
  - # 1
    frequency:   -0.9170472047
  - # 2
    frequency:   -0.8865835267
  - # 3
    frequency:   -0.4617196052
  - # 4
    frequency:   -0.3444806505
  - # 5
    frequency:   -0.0142329297
  - # 6
    frequency:    0.3148812734
  - # 7
    frequency:    0.4909244210
  - # 8
    frequency:    4.5449203376
  - # 9
    frequency:    4.5569930542
  - # 10
    frequency:    4.9596825002
  - # 11
    frequency:    5.5718873893
  - # 12
    frequency:    5.6779300230
  - # 13
    frequency:    6.5522572311
  - # 14
    frequency:    6.5547125633
  - # 15
    frequency:    8.3479921823
  - # 16
    frequency:   10.9258218498
  - # 17
    frequency:   11.0118493571
  - # 18
    frequency:   11.7490895622
  - # 19
    frequency:   14.4537555646
  - # 20
    frequency:   14.4584207044
  - # 21
    frequency:   17.7250682005
  - # 22
    frequency:   17.7269535197
  - # 23
    frequency:   18.6587072217
  - # 24
    frequency:   27.4176666096
  - # 25
    frequency:   38.7821325087
  - # 26
    frequency:   59.7206155184
  - # 27
    frequency:   69.2833347385

- q-position: [    0.0252525,    0.0000000,    0.0000000 ]
  distance:    0.0085693
  band:
  - # 1
    frequency:   -0.9089601106
  - # 2
    frequency:   -0.8634550854
  - # 3
    frequency:   -0.4381471792
  - # 4
    frequency:   -0.2203224930
  - # 5
    frequency:    0.0641412709
  - # 6
    frequency:    0.3967738935
  - # 7
    frequency:    0.6198556554
  - # 8
    frequency:    4.5483457456
  - # 9
    frequency:    4.5669798610
  - # 10
    frequency:    4.9582538802
  - # 11
    frequency:    5.5773546647
  - # 12
    frequency:    5.7392151989
  - # 13
    frequency:    6.5525349984
  - # 14
    frequency:    6.5564635070
  - # 15
    frequency:    8.3456502272
  - # 16
    frequency:   10.9312143980
  - # 17
    frequency:   11.0634799054
  - # 18
    frequency:   11.7490650828
  - # 19
    frequency:   14.4546153895
  - # 20
    frequency:   14.4618951597
  - # 21
    frequency:   17.7255296481
  - # 22
    frequency:   17.7283899678
  - # 23
    frequency:   18.6454853996
  - # 24
    frequency:   27.4168168194
  - # 25
    frequency:   38.7816575791
  - # 26
    frequency:   59.7059849342
  - # 27
    frequency:   69.2701454510

- q-position: [    0.0303030,    0.0000000,    0.0000000 ]
  distance:    0.0102832
  band:
  - # 1
    frequency:   -0.8997340761
  - # 2
    frequency:   -0.8369990235
  - # 3
    frequency:   -0.4084492735
  - # 4
    frequency:   -0.0902550973
  - # 5
    frequency:    0.2328267192
  - # 6
    frequency:    0.4800883289
  - # 7
    frequency:    0.7510430538
  - # 8
    frequency:    4.5525144015
  - # 9
    frequency:    4.5789365618
  - # 10
    frequency:    4.9567430097
  - # 11
    frequency:    5.5839471561
  - # 12
    frequency:    5.8105877015
  - # 13
    frequency:    6.5528586710
  - # 14
    frequency:    6.5586930530
  - # 15
    frequency:    8.3428359420
  - # 16
    frequency:   10.9377302665
  - # 17
    frequency:   11.1236274548
  - # 18
    frequency:   11.7520091886
  - # 19
    frequency:   14.4556636840
  - # 20
    frequency:   14.4661299371
  - # 21
    frequency:   17.7260911487
  - # 22
    frequency:   17.7300556646
  - # 23
    frequency:   18.6294808007
  - # 24
    frequency:   27.4157804411
  - # 25
    frequency:   38.7810799645
  - # 26
    frequency:   59.6881841379
  - # 27
    frequency:   69.2541062407

- q-position: [    0.0353535,    0.0000000,    0.0000000 ]
  distance:    0.0119971
  band:
  - # 1
    frequency:   -0.8896095140
  - # 2
    frequency:   -0.8074150661
  - # 3
    frequency:   -0.3714205736
  - # 4
    frequency:   -0.0481131541
  - # 5
    frequency:    0.3937919899
  - # 6
    frequency:    0.5646352413
  - # 7
    frequency:    0.8838355613
  - # 8
    frequency:    4.5574155345
  - # 9
    frequency:    4.5927037964
  - # 10
    frequency:    4.9552626913
  - # 11
    frequency:    5.5916131596
  - # 12
    frequency:    5.8902567345
  - # 13
    frequency:    6.5532190340
  - # 14
    frequency:    6.5614813344
  - # 15
    frequency:    8.3395793245
  - # 16
    frequency:   10.9453252844
  - # 17
    frequency:   11.1892411422
  - # 18
    frequency:   11.7609143526
  - # 19
    frequency:   14.4568988973
  - # 20
    frequency:   14.4711181456
  - # 21
    frequency:   17.7267512326
  - # 22
    frequency:   17.7318912830
  - # 23
    frequency:   18.6107919009
  - # 24
    frequency:   27.4145588183
  - # 25
    frequency:   38.7804013578
  - # 26
    frequency:   59.6672611291
  - # 27
    frequency:   69.2352650767

- q-position: [    0.0404040,    0.0000000,    0.0000000 ]
  distance:    0.0137109
  band:
  - # 1
    frequency:   -0.8787762615
  - # 2
    frequency:   -0.7746034613
  - # 3
    frequency:   -0.3247453791
  - # 4
    frequency:    0.0516359288
  - # 5
    frequency:    0.5228305899
  - # 6
    frequency:    0.6501552803
  - # 7
    frequency:    1.0175917461
  - # 8
    frequency:    4.5630364361
  - # 9
    frequency:    4.6080830362
  - # 10
    frequency:    4.9539465162
  - # 11
    frequency:    5.6002934277
  - # 12
    frequency:    5.9763223788
  - # 13
    frequency:    6.5536054468
  - # 14
    frequency:    6.5649607633
  - # 15
    frequency:    8.3359167525
  - # 16
    frequency:   10.9539480152
  - # 17
    frequency:   11.2552459298
  - # 18
    frequency:   11.7807304800
  - # 19
    frequency:   14.4583192067
  - # 20
    frequency:   14.4768518113
  - # 21
    frequency:   17.7275081851
  - # 22
    frequency:   17.7338213010
  - # 23
    frequency:   18.5895403849
  - # 24
    frequency:   27.4131535320
  - # 25
    frequency:   38.7796237419
  - # 26
    frequency:   59.6432720784
  - # 27
    frequency:   69.2136780657

- q-position: [    0.0454545,    0.0000000,    0.0000000 ]
  distance:    0.0154248
  band:
  - # 1
    frequency:   -0.8673652178
  - # 2
    frequency:   -0.7382273431
  - # 3
    frequency:   -0.2634658199
  - # 4
    frequency:    0.0987754387
  - # 5
    frequency:    0.6376516800
  - # 6
    frequency:    0.7363694571
  - # 7
    frequency:    1.1517849728
  - # 8
    frequency:    4.5693624896
  - # 9
    frequency:    4.6248294436
  - # 10
    frequency:    4.9529606925
  - # 11
    frequency:    5.6099220038
  - # 12
    frequency:    6.0668053776
  - # 13
    frequency:    6.5540059632
  - # 14
    frequency:    6.5693617068
  - # 15
    frequency:    8.3318913453
  - # 16
    frequency:   10.9635401379
  - # 17
    frequency:   11.3142284431
  - # 18
    frequency:   11.8186587682
  - # 19
    frequency:   14.4599225215
  - # 20
    frequency:   14.4833219768
  - # 21
    frequency:   17.7283600576
  - # 22
    frequency:   17.7357506174
  - # 23
    frequency:   18.5658744816
  - # 24
    frequency:   27.4115663957
  - # 25
    frequency:   38.7787493807
  - # 26
    frequency:   59.6162810562
  - # 27
    frequency:   69.1894091662

- q-position: [    0.0505051,    0.0000000,    0.0000000 ]
  distance:    0.0171387
  band:
  - # 1
    frequency:   -0.8554509956
  - # 2
    frequency:   -0.6977596139
  - # 3
    frequency:   -0.1727720777
  - # 4
    frequency:    0.1415619129
  - # 5
    frequency:    0.7445471257
  - # 6
    frequency:    0.8230128162
  - # 7
    frequency:    1.2860253251
  - # 8
    frequency:    4.5763772171
  - # 9
    frequency:    4.6426419862
  - # 10
    frequency:    4.9525184740
  - # 11
    frequency:    5.6204271205
  - # 12
    frequency:    6.1596111407
  - # 13
    frequency:    6.5544074679
  - # 14
    frequency:    6.5751135573
  - # 15
    frequency:    8.3275533318
  - # 16
    frequency:   10.9740368841
  - # 17
    frequency:   11.3583178407
  - # 18
    frequency:   11.8822532232
  - # 19
    frequency:   14.4617064883
  - # 20
    frequency:   14.4905188312
  - # 21
    frequency:   17.7293046795
  - # 22
    frequency:   17.7375600694
  - # 23
    frequency:   18.5399733956
  - # 24
    frequency:   27.4097994520
  - # 25
    frequency:   38.7777808089
  - # 26
    frequency:   59.5863597241
  - # 27
    frequency:   69.1625298645

- q-position: [    0.0555556,    0.0000000,    0.0000000 ]
  distance:    0.0188525
  band:
  - # 1
    frequency:   -0.8430612389
  - # 2
    frequency:   -0.6524865080
  - # 3
    frequency:    0.1149473531
  - # 4
    frequency:    0.1856125160
  - # 5
    frequency:    0.8463879231
  - # 6
    frequency:    0.9098521367
  - # 7
    frequency:    1.4200394005
  - # 8
    frequency:    4.5840623460
  - # 9
    frequency:    4.6611508697
  - # 10
    frequency:    4.9528966062
  - # 11
    frequency:    5.6317321399
  - # 12
    frequency:    6.2523373815
  - # 13
    frequency:    6.5547958268
  - # 14
    frequency:    6.5830889386
  - # 15
    frequency:    8.3229604201
  - # 16
    frequency:   10.9853675298
  - # 17
    frequency:   11.3835323340
  - # 18
    frequency:   11.9750611195
  - # 19
    frequency:   14.4636684961
  - # 20
    frequency:   14.4984318849
  - # 21
    frequency:   17.7303396723
  - # 22
    frequency:   17.7391005671
  - # 23
    frequency:   18.5120531192
  - # 24
    frequency:   27.4078549673
  - # 25
    frequency:   38.7767208209
  - # 26
    frequency:   59.5535869908
  - # 27
    frequency:   69.1331188132

- q-position: [    0.0606061,    0.0000000,    0.0000000 ]
  distance:    0.0205664
  band:
  - # 1
    frequency:   -0.8301882350
  - # 2
    frequency:   -0.6014492803
  - # 3
    frequency:    0.2323133032
  - # 4
    frequency:    0.2444520844
  - # 5
    frequency:    0.9447099801
  - # 6
    frequency:    0.9966920104
  - # 7
    frequency:    1.5536385531
  - # 8
    frequency:    4.5923978968
  - # 9
    frequency:    4.6799041555
  - # 10
    frequency:    4.9544518891
  - # 11
    frequency:    5.6437565160
  - # 12
    frequency:    6.3416755631
  - # 13
    frequency:    6.5551560500
  - # 14
    frequency:    6.5952391893
  - # 15
    frequency:    8.3181781720
  - # 16
    frequency:   10.9974559398
  - # 17
    frequency:   11.3915121382
  - # 18
    frequency:   12.0948831187
  - # 19
    frequency:   14.4658056818
  - # 20
    frequency:   14.5070502102
  - # 21
    frequency:   17.7314624641
  - # 22
    frequency:   17.7401855489
  - # 23
    frequency:   18.4823739277
  - # 24
    frequency:   27.4057354272
  - # 25
    frequency:   38.7755724580
  - # 26
    frequency:   59.5180486368
  - # 27
    frequency:   69.1012614362

- q-position: [    0.0656566,    0.0000000,    0.0000000 ]
  distance:    0.0222803
  band:
  - # 1
    frequency:   -0.8167997700
  - # 2
    frequency:   -0.5432814547
  - # 3
    frequency:    0.2822297923
  - # 4
    frequency:    0.3312981738
  - # 5
    frequency:    1.0404204524
  - # 6
    frequency:    1.0833739194
  - # 7
    frequency:    1.6866898360
  - # 8
    frequency:    4.6013622934
  - # 9
    frequency:    4.6983594697
  - # 10
    frequency:    4.9576320949
  - # 11
    frequency:    5.6564167590
  - # 12
    frequency:    6.4218758470
  - # 13
    frequency:    6.5554724647
  - # 14
    frequency:    6.6161510956
  - # 15
    frequency:    8.3132803898
  - # 16
    frequency:   11.0102211613
  - # 17
    frequency:   11.3864566547
  - # 18
    frequency:   12.2368360553
  - # 19
    frequency:   14.4681149359
  - # 20
    frequency:   14.5163627842
  - # 21
    frequency:   17.7326703060
  - # 22
    frequency:   17.7405815223
  - # 23
    frequency:   18.4512497959
  - # 24
    frequency:   27.4034435303
  - # 25
    frequency:   38.7743389951
  - # 26
    frequency:   59.4798369073
  - # 27
    frequency:   69.0670495005

- q-position: [    0.0707071,    0.0000000,    0.0000000 ]
  distance:    0.0239942
  band:
  - # 1
    frequency:   -0.8028477359
  - # 2
    frequency:   -0.4758043625
  - # 3
    frequency:    0.3356393572
  - # 4
    frequency:    0.4039639977
  - # 5
    frequency:    1.1340919201
  - # 6
    frequency:    1.1697718721
  - # 7
    frequency:    1.8190936804
  - # 8
    frequency:    4.6109324962
  - # 9
    frequency:    4.7158935391
  - # 10
    frequency:    4.9629686806
  - # 11
    frequency:    5.6696273856
  - # 12
    frequency:    6.4833476180
  - # 13
    frequency:    6.5557288978
  - # 14
    frequency:    6.6544537723
  - # 15
    frequency:    8.3083495258
  - # 16
    frequency:   11.0235780632
  - # 17
    frequency:   11.3721521486
  - # 18
    frequency:   12.3963320821
  - # 19
    frequency:   14.4705929082
  - # 20
    frequency:   14.5263589994
  - # 21
    frequency:   17.7339602889
  - # 22
    frequency:   17.7399967199
  - # 23
    frequency:   18.4190597155
  - # 24
    frequency:   27.4009821827
  - # 25
    frequency:   38.7730239257
  - # 26
    frequency:   59.4390500789
  - # 27
    frequency:   69.0305806603

- q-position: [    0.0757576,    0.0000000,    0.0000000 ]
  distance:    0.0257080
  band:
  - # 1
    frequency:   -0.7882741478
  - # 2
    frequency:   -0.3948911476
  - # 3
    frequency:    0.3926257533
  - # 4
    frequency:    0.4690441040
  - # 5
    frequency:    1.2261030964
  - # 6
    frequency:    1.2557868789
  - # 7
    frequency:    1.9507679859
  - # 8
    frequency:    4.6210841568
  - # 9
    frequency:    4.7318487694
  - # 10
    frequency:    4.9710322402
  - # 11
    frequency:    5.6833018391
  - # 12
    frequency:    6.5205563512
  - # 13
    frequency:    6.5559088637
  - # 14
    frequency:    6.7149169408
  - # 15
    frequency:    8.3034771267
  - # 16
    frequency:   11.0374380167
  - # 17
    frequency:   11.3512073622
  - # 18
    frequency:   12.5698558253
  - # 19
    frequency:   14.4732360135
  - # 20
    frequency:   14.5370294555
  - # 21
    frequency:   17.7353293614
  - # 22
    frequency:   17.7380685438
  - # 23
    frequency:   18.3862602480
  - # 24
    frequency:   27.3983544911
  - # 25
    frequency:   38.7716309466
  - # 26
    frequency:   59.3957919998
  - # 27
    frequency:   68.9919579736

- q-position: [    0.0808081,    0.0000000,    0.0000000 ]
  distance:    0.0274219
  band:
  - # 1
    frequency:   -0.7730148413
  - # 2
    frequency:   -0.2902329211
  - # 3
    frequency:    0.4530295814
  - # 4
    frequency:    0.5292980306
  - # 5
    frequency:    1.3167130470
  - # 6
    frequency:    1.3413415316
  - # 7
    frequency:    2.0816370489
  - # 8
    frequency:    4.6317917926
  - # 9
    frequency:    4.7456306130
  - # 10
    frequency:    4.9823370883
  - # 11
    frequency:    5.6973533683
  - # 12
    frequency:    6.5410644080
  - # 13
    frequency:    6.5559957562
  - # 14
    frequency:    6.7893957238
  - # 15
    frequency:    8.2987643263
  - # 16
    frequency:   11.0517096108
  - # 17
    frequency:   11.3252889427
  - # 18
    frequency:   12.7547459982
  - # 19
    frequency:   14.4760404372
  - # 20
    frequency:   14.5483672495
  - # 21
    frequency:   17.7343518053
  - # 22
    frequency:   17.7367743486
  - # 23
    frequency:   18.3533973198
  - # 24
    frequency:   27.3955637568
  - # 25
    frequency:   38.7701639411
  - # 26
    frequency:   59.3501716103
  - # 27
    frequency:   68.9512893967

- q-position: [    0.0858586,    0.0000000,    0.0000000 ]
  distance:    0.0291358
  band:
  - # 1
    frequency:   -0.7570013290
  - # 2
    frequency:   -0.1068319523
  - # 3
    frequency:    0.5163621541
  - # 4
    frequency:    0.5861675335
  - # 5
    frequency:    1.4061033007
  - # 6
    frequency:    1.4263752566
  - # 7
    frequency:    2.2116237406
  - # 8
    frequency:    4.6430289782
  - # 9
    frequency:    4.7568376447
  - # 10
    frequency:    4.9972131848
  - # 11
    frequency:    5.7116958557
  - # 12
    frequency:    6.5537545107
  - # 13
    frequency:    6.5559730417
  - # 14
    frequency:    6.8685861904
  - # 15
    frequency:    8.2943223955
  - # 16
    frequency:   11.0662993987
  - # 17
    frequency:   11.2954641097
  - # 18
    frequency:   12.9488717837
  - # 19
    frequency:   14.4790021411
  - # 20
    frequency:   14.5603701946
  - # 21
    frequency:   17.7283120855
  - # 22
    frequency:   17.7382919716
  - # 23
    frequency:   18.3211129538
  - # 24
    frequency:   27.3926134679
  - # 25
    frequency:   38.7686269617
  - # 26
    frequency:   59.3023024422
  - # 27
    frequency:   68.9086872585

- q-position: [    0.0909091,    0.0000000,    0.0000000 ]
  distance:    0.0308496
  band:
  - # 1
    frequency:   -0.7401612756
  - # 2
    frequency:    0.2508416120
  - # 3
    frequency:    0.5818025835
  - # 4
    frequency:    0.6405046155
  - # 5
    frequency:    1.4944031361
  - # 6
    frequency:    1.5108404190
  - # 7
    frequency:    2.3406436635
  - # 8
    frequency:    4.6547685520
  - # 9
    frequency:    4.7653616533
  - # 10
    frequency:    5.0157082294
  - # 11
    frequency:    5.7262445882
  - # 12
    frequency:    6.5558244503
  - # 13
    frequency:    6.5629474885
  - # 14
    frequency:    6.9478829490
  - # 15
    frequency:    8.2902733533
  - # 16
    frequency:   11.0811126663
  - # 17
    frequency:   11.2624402227
  - # 18
    frequency:   13.1504115045
  - # 19
    frequency:   14.4821168683
  - # 20
    frequency:   14.5730448753
  - # 21
    frequency:   17.7193317657
  - # 22
    frequency:   17.7398788667
  - # 23
    frequency:   18.2901394088
  - # 24
    frequency:   27.3895072927
  - # 25
    frequency:   38.7670242122
  - # 26
    frequency:   59.2523021047
  - # 27
    frequency:   68.8642677182

- q-position: [    0.0959596,    0.0000000,    0.0000000 ]
  distance:    0.0325635
  band:
  - # 1
    frequency:   -0.7224179359
  - # 2
    frequency:    0.3738123038
  - # 3
    frequency:    0.6483558424
  - # 4
    frequency:    0.6928541337
  - # 5
    frequency:    1.5817054799
  - # 6
    frequency:    1.5946992436
  - # 7
    frequency:    2.4686003389
  - # 8
    frequency:    4.6669828326
  - # 9
    frequency:    4.7713939610
  - # 10
    frequency:    5.0375838691
  - # 11
    frequency:    5.7409169661
  - # 12
    frequency:    6.5555341621
  - # 13
    frequency:    6.5704590299
  - # 14
    frequency:    7.0252965630
  - # 15
    frequency:    8.2867506277
  - # 16
    frequency:   11.0960542159
  - # 17
    frequency:   11.2267089530
  - # 18
    frequency:   13.3577220680
  - # 19
    frequency:   14.4853801487
  - # 20
    frequency:   14.5864146277
  - # 21
    frequency:   17.7067390623
  - # 22
    frequency:   17.7415316056
  - # 23
    frequency:   18.2612704327
  - # 24
    frequency:   27.3862490721
  - # 25
    frequency:   38.7653600285
  - # 26
    frequency:   59.2002917566
  - # 27
    frequency:   68.8181502106

- q-position: [    0.1010101,    0.0000000,    0.0000000 ]
  distance:    0.0342774
  band:
  - # 1
    frequency:   -0.7036887645
  - # 2
    frequency:    0.4694306506
  - # 3
    frequency:    0.7150959077
  - # 4
    frequency:    0.7435841618
  - # 5
    frequency:    1.6680772875
  - # 6
    frequency:    1.6779214403
  - # 7
    frequency:    2.5953807111
  - # 8
    frequency:    4.6796438427
  - # 9
    frequency:    4.7753398964
  - # 10
    frequency:    5.0624042900
  - # 11
    frequency:    5.7556331506
  - # 12
    frequency:    6.5550869860
  - # 13
    frequency:    6.5771100307
  - # 14
    frequency:    7.0999181642
  - # 15
    frequency:    8.2838997333
  - # 16
    frequency:   11.1110291580
  - # 17
    frequency:   11.1886303332
  - # 18
    frequency:   13.5692572534
  - # 19
    frequency:   14.4887873041
  - # 20
    frequency:   14.6005367477
  - # 21
    frequency:   17.6898690777
  - # 22
    frequency:   17.7432467159
  - # 23
    frequency:   18.2353006603
  - # 24
    frequency:   27.3828428115
  - # 25
    frequency:   38.7636388596
  - # 26
    frequency:   59.1463955702
  - # 27
    frequency:   68.7704568811

- q-position: [    0.1060606,    0.0000000,    0.0000000 ]
  distance:    0.0359912
  band:
  - # 1
    frequency:   -0.6838832690
  - # 2
    frequency:    0.5533675644
  - # 3
    frequency:    0.7813354399
  - # 4
    frequency:    0.7929535038
  - # 5
    frequency:    1.7535665438
  - # 6
    frequency:    1.7604823981
  - # 7
    frequency:    2.7208503889
  - # 8
    frequency:    4.6927235364
  - # 9
    frequency:    4.7777048424
  - # 10
    frequency:    5.0896540211
  - # 11
    frequency:    5.7703166486
  - # 12
    frequency:    6.5544685280
  - # 13
    frequency:    6.5833147445
  - # 14
    frequency:    7.1713084487
  - # 15
    frequency:    8.2818788936
  - # 16
    frequency:   11.1259437022
  - # 17
    frequency:   11.1484821309
  - # 18
    frequency:   13.7834931132
  - # 19
    frequency:   14.4923334535
  - # 20
    frequency:   14.6155442830
  - # 21
    frequency:   17.6681554974
  - # 22
    frequency:   17.7450207007
  - # 23
    frequency:   18.2129346007
  - # 24
    frequency:   27.3792926736
  - # 25
    frequency:   38.7618652478
  - # 26
    frequency:   59.0907401890
  - # 27
    frequency:   68.7213120161

- q-position: [    0.1111111,    0.0000000,    0.0000000 ]
  distance:    0.0377051
  band:
  - # 1
    frequency:   -0.6629000453
  - # 2
    frequency:    0.6313051427
  - # 3
    frequency:    0.8411497111
  - # 4
    frequency:    0.8466589485
  - # 5
    frequency:    1.8382071155
  - # 6
    frequency:    1.8423618198
  - # 7
    frequency:    2.8448481019
  - # 8
    frequency:    4.7061940254
  - # 9
    frequency:    4.7790099521
  - # 10
    frequency:    5.1188271810
  - # 11
    frequency:    5.7848948378
  - # 12
    frequency:    6.5536653451
  - # 13
    frequency:    6.5893065965
  - # 14
    frequency:    7.2392520659
  - # 15
    frequency:    8.2808594731
  - # 16
    frequency:   11.1064894884
  - # 17
    frequency:   11.1407059383
  - # 18
    frequency:   13.9987918476
  - # 19
    frequency:   14.4960135179
  - # 20
    frequency:   14.6317655869
  - # 21
    frequency:   17.6412318646
  - # 22
    frequency:   17.7468500588
  - # 23
    frequency:   18.1946863849
  - # 24
    frequency:   27.3756029699
  - # 25
    frequency:   38.7600438086
  - # 26
    frequency:   59.0334541841
  - # 27
    frequency:   68.6708414702

- q-position: [    0.1161616,    0.0000000,    0.0000000 ]
  distance:    0.0394190
  band:
  - # 1
    frequency:   -0.6406227877
  - # 2
    frequency:    0.7059600218
  - # 3
    frequency:    0.8883118953
  - # 4
    frequency:    0.9108701740
  - # 5
    frequency:    1.9220221967
  - # 6
    frequency:    1.9235426930
  - # 7
    frequency:    2.9671788342
  - # 8
    frequency:    4.7200278024
  - # 9
    frequency:    4.7797538520
  - # 10
    frequency:    5.1494722716
  - # 11
    frequency:    5.7992994363
  - # 12
    frequency:    6.5526650833
  - # 13
    frequency:    6.5952328080
  - # 14
    frequency:    7.3036467470
  - # 15
    frequency:    8.2810260016
  - # 16
    frequency:   11.0628431896
  - # 17
    frequency:   11.1552265998
  - # 18
    frequency:   14.2129575201
  - # 19
    frequency:   14.4998222259
  - # 20
    frequency:   14.6501596898
  - # 21
    frequency:   17.6090046533
  - # 22
    frequency:   17.7487313041
  - # 23
    frequency:   18.1808082089
  - # 24
    frequency:   27.3717781531
  - # 25
    frequency:   38.7581792102
  - # 26
    frequency:   58.9746675105
  - # 27
    frequency:   68.6191720953

- q-position: [    0.1212121,    0.0000000,    0.0000000 ]
  distance:    0.0411328
  band:
  - # 1
    frequency:   -0.6169148777
  - # 2
    frequency:    0.7787770054
  - # 3
    frequency:    0.9345451204
  - # 4
    frequency:    0.9739211175
  - # 5
    frequency:    2.0040105119
  - # 6
    frequency:    2.0050268067
  - # 7
    frequency:    3.0876050450
  - # 8
    frequency:    4.7341979561
  - # 9
    frequency:    4.7804090982
  - # 10
    frequency:    5.1812042898