nqpoint: 300    
npath: 3      
segment_nqpoint:
- 100
- 100
- 100
labels:
- [ 'G', 'M' ]
- [ 'M', 'K' ]
- [ 'K', 'G' ]
reciprocal_lattice:
- [   0.26980856,   0.15577404,   0.00000000 ] # a*
- [   0.00000000,   0.31154809,   0.00000000 ] # b*
- [   0.00000000,   0.00000000,   0.03929479 ] # c*
natom: 7      
lattice:
- [     3.706331650342805,     0.000000000000000,     0.000000000000000 ] # a
- [    -1.853165825171402,     3.209777364046582,     0.000000000000000 ] # b
- [     0.000000000000000,     0.000000000000000,    25.448669201696607 ] # c
points:
- symbol: Cl # 1
  coordinates: [  0.333332985432215,  0.666666983183674,  0.646346929630411 ]
  mass: 35.453000
- symbol: H # 2
  coordinates: [  0.666666984744047,  0.333332985985145,  0.353653070369589 ]
  mass: 1.007940
- symbol: N # 3
  coordinates: [  0.000000000000000,  0.000000000000000,  0.474476191495754 ]
  mass: 14.006700
- symbol: O # 4
  coordinates: [  0.333332985432215,  0.666666983183674,  0.540734822043668 ]
  mass: 15.999400
- symbol: O # 5
  coordinates: [  0.666666984744047,  0.333332985985145,  0.392369236146516 ]
  mass: 15.999400
- symbol: Y # 6
  coordinates: [  0.333332985432215,  0.666666983183674,  0.444602777670495 ]
  mass: 88.905850
- symbol: Y # 7
  coordinates: [  0.666666984744047,  0.333332985985145,  0.567887144311115 ]
  mass: 88.905850

phonon:
- q-position: [    0.0000000,    0.0000000,    0.0000000 ]
  distance:    0.0000000
  band:
  - # 1
    frequency:   -1.3065123148
  - # 2
    frequency:   -1.3065123148
  - # 3
    frequency:   -0.0000049790
  - # 4
    frequency:   -0.0000003661
  - # 5
    frequency:    0.0000021381
  - # 6
    frequency:    0.7689063970
  - # 7
    frequency:    0.7689063970
  - # 8
    frequency:    2.9570079541
  - # 9
    frequency:    4.7095933563
  - # 10
    frequency:    4.7095933563
  - # 11
    frequency:    7.5147925446
  - # 12
    frequency:    9.2368386926
  - # 13
    frequency:    9.2368386926
  - # 14
    frequency:   10.5632528533
  - # 15
    frequency:   10.7908993368
  - # 16
    frequency:   11.6287761426
  - # 17
    frequency:   11.6287761426
  - # 18
    frequency:   13.2434700967
  - # 19
    frequency:   13.2434700967
  - # 20
    frequency:   13.9684786995
  - # 21
    frequency:  114.8833587617

- q-position: [    0.0050505,    0.0000000,    0.0000000 ]
  distance:    0.0015735
  band:
  - # 1
    frequency:   -1.3063955760
  - # 2
    frequency:   -1.3045091981
  - # 3
    frequency:   -0.0245893410
  - # 4
    frequency:    0.0013101510
  - # 5
    frequency:    0.0744418234
  - # 6
    frequency:    0.7721614225
  - # 7
    frequency:    0.7737225872
  - # 8
    frequency:    2.9566330591
  - # 9
    frequency:    4.7095464327
  - # 10
    frequency:    4.7100234108
  - # 11
    frequency:    7.5129325768
  - # 12
    frequency:    9.2359673432
  - # 13
    frequency:    9.2364869792
  - # 14
    frequency:   10.5615130279
  - # 15
    frequency:   10.7889313801
  - # 16
    frequency:   11.6289724252
  - # 17
    frequency:   11.6331579868
  - # 18
    frequency:   13.2433232470
  - # 19
    frequency:   13.2453044485
  - # 20
    frequency:   13.9681189898
  - # 21
    frequency:  114.8833309805

- q-position: [    0.0101010,    0.0000000,    0.0000000 ]
  distance:    0.0031470
  band:
  - # 1
    frequency:   -1.3060599160
  - # 2
    frequency:   -1.2984961795
  - # 3
    frequency:   -0.0467276451
  - # 4
    frequency:    0.0051542222
  - # 5
    frequency:    0.1489176985
  - # 6
    frequency:    0.7817195013
  - # 7
    frequency:    0.7879613401
  - # 8
    frequency:    2.9555122398
  - # 9
    frequency:    4.7094059490
  - # 10
    frequency:    4.7113121303
  - # 11
    frequency:    7.5073600667
  - # 12
    frequency:    9.2333611935
  - # 13
    frequency:    9.2354322637
  - # 14
    frequency:   10.5561806016
  - # 15
    frequency:   10.7833568105
  - # 16
    frequency:   11.6295611612
  - # 17
    frequency:   11.6460846682
  - # 18
    frequency:   13.2428831770
  - # 19
    frequency:   13.2507954603
  - # 20
    frequency:   13.9670419612
  - # 21
    frequency:  114.8832477007

- q-position: [    0.0151515,    0.0000000,    0.0000000 ]
  distance:    0.0047204
  band:
  - # 1
    frequency:   -1.3055483232
  - # 2
    frequency:   -1.2884618042
  - # 3
    frequency:   -0.0639439047
  - # 4
    frequency:    0.0112843799
  - # 5
    frequency:    0.2234513678
  - # 6
    frequency:    0.7970190784
  - # 7
    frequency:    0.8110356085
  - # 8
    frequency:    2.9536572555
  - # 9
    frequency:    4.7091727653
  - # 10
    frequency:    4.7134551924
  - # 11
    frequency:    7.4980972251
  - # 12
    frequency:    9.2290437191
  - # 13
    frequency:    9.2336758195
  - # 14
    frequency:   10.5469460885
  - # 15
    frequency:   10.7750819579
  - # 16
    frequency:   11.6305420154
  - # 17
    frequency:   11.6669517012
  - # 18
    frequency:   13.2421513219
  - # 19
    frequency:   13.2599073036
  - # 20
    frequency:   13.9652539506
  - # 21
    frequency:  114.8831091136

- q-position: [    0.0202020,    0.0000000,    0.0000000 ]
  distance:    0.0062939
  band:
  - # 1
    frequency:   -1.3049301450
  - # 2
    frequency:   -1.2743854555
  - # 3
    frequency:   -0.0734906722
  - # 4
    frequency:    0.0193620013
  - # 5
    frequency:    0.2980469961
  - # 6
    frequency:    0.8172873518
  - # 7
    frequency:    0.8420895381
  - # 8
    frequency:    2.9510882533
  - # 9
    frequency:    4.7088483113
  - # 10
    frequency:    4.7164454263
  - # 11
    frequency:    7.4851811674
  - # 12
    frequency:    9.2230533234
  - # 13
    frequency:    9.2312197687
  - # 14
    frequency:   10.5333973756
  - # 15
    frequency:   10.7653665940
  - # 16
    frequency:   11.6319144312
  - # 17
    frequency:   11.6948982478
  - # 18
    frequency:   13.2411300677
  - # 19
    frequency:   13.2725812481
  - # 20
    frequency:   13.9627656428
  - # 21
    frequency:  114.8829155370

- q-position: [    0.0252525,    0.0000000,    0.0000000 ]
  distance:    0.0078674
  band:
  - # 1
    frequency:   -1.3042975466
  - # 2
    frequency:   -1.2562349781
  - # 3
    frequency:   -0.0713065530
  - # 4
    frequency:    0.0290281271
  - # 5
    frequency:    0.3726816787
  - # 6
    frequency:    0.8416950847
  - # 7
    frequency:    0.8801303949
  - # 8
    frequency:    2.9478346104
  - # 9
    frequency:    4.7084345805
  - # 10
    frequency:    4.7202728623
  - # 11
    frequency:    7.4686640385
  - # 12
    frequency:    9.2154422896
  - # 13
    frequency:    9.2280670825
  - # 14
    frequency:   10.5151760188
  - # 15
    frequency:   10.7555188216
  - # 16
    frequency:   11.6336776335
  - # 17
    frequency:   11.7289553243
  - # 18
    frequency:   13.2398227412
  - # 19
    frequency:   13.2887370485
  - # 20
    frequency:   13.9595922691
  - # 21
    frequency:  114.8826674145

- q-position: [    0.0303030,    0.0000000,    0.0000000 ]
  distance:    0.0094409
  band:
  - # 1
    frequency:   -1.3037604470
  - # 2
    frequency:   -1.2339631761
  - # 3
    frequency:   -0.0459700199
  - # 4
    frequency:    0.0399593655
  - # 5
    frequency:    0.4473000005
  - # 6
    frequency:    0.8694694109
  - # 7
    frequency:    0.9241447824
  - # 8
    frequency:    2.9439361509
  - # 9
    frequency:    4.7079341217
  - # 10
    frequency:    4.7249248018
  - # 11
    frequency:    7.4486131493
  - # 12
    frequency:    9.2062753822
  - # 13
    frequency:    9.2242215799
  - # 14
    frequency:   10.4921472848
  - # 15
    frequency:   10.7466054668
  - # 16
    frequency:   11.6358306323
  - # 17
    frequency:   11.7681646210
  - # 18
    frequency:   13.2382335972
  - # 19
    frequency:   13.3082747159
  - # 20
    frequency:   13.9557539181
  - # 21
    frequency:  114.8823653140

- q-position: [    0.0353535,    0.0000000,    0.0000000 ]
  distance:    0.0110143
  band:
  - # 1
    frequency:   -1.3034399853
  - # 2
    frequency:   -1.2075030192
  - # 3
    frequency:    0.0518992630
  - # 4
    frequency:    0.0667493673
  - # 5
    frequency:    0.5218105185
  - # 6
    frequency:    0.8999514255
  - # 7
    frequency:    0.9731794734
  - # 8
    frequency:    2.9394447770
  - # 9
    frequency:    4.7073500292
  - # 10
    frequency:    4.7303859083
  - # 11
    frequency:    7.4251110898
  - # 12
    frequency:    9.1956281649
  - # 13
    frequency:    9.2196879280
  - # 14
    frequency:   10.4644934875
  - # 15
    frequency:   10.7392865061
  - # 16
    frequency:   11.6383722278
  - # 17
    frequency:   11.8116499384
  - # 18
    frequency:   13.2363678014
  - # 19
    frequency:   13.3310765149
  - # 20
    frequency:   13.9512759981
  - # 21
    frequency:  114.8820099258

- q-position: [    0.0404040,    0.0000000,    0.0000000 ]
  distance:    0.0125878
  band:
  - # 1
    frequency:   -1.3034607782
  - # 2
    frequency:   -1.1767613479
  - # 3
    frequency:    0.0646694716
  - # 4
    frequency:    0.1242563645
  - # 5
    frequency:    0.5960838291
  - # 6
    frequency:    0.9326113485
  - # 7
    frequency:    1.0263857284
  - # 8
    frequency:    2.9344265583
  - # 9
    frequency:    4.7066859300
  - # 10
    frequency:    4.7366383197
  - # 11
    frequency:    7.3982557831
  - # 12
    frequency:    9.1835851133
  - # 13
    frequency:    9.2144716408
  - # 14
    frequency:   10.4326774842
  - # 15
    frequency:   10.7338209677
  - # 16
    frequency:   11.6413010161
  - # 17
    frequency:   11.8586470134
  - # 18
    frequency:   13.2342314097
  - # 19
    frequency:   13.3570089873
  - # 20
    frequency:   13.9461899212
  - # 21
    frequency:  114.8816020605

- q-position: [    0.0454545,    0.0000000,    0.0000000 ]
  distance:    0.0141613
  band:
  - # 1
    frequency:   -1.3039424930
  - # 2
    frequency:   -1.1416108272
  - # 3
    frequency:    0.0781699714
  - # 4
    frequency:    0.1775257623
  - # 5
    frequency:    0.6699518832
  - # 6
    frequency:    0.9670398475
  - # 7
    frequency:    1.0830355226
  - # 8
    frequency:    2.9289643317
  - # 9
    frequency:    4.7059459686
  - # 10
    frequency:    4.7436617819
  - # 11
    frequency:    7.3681604442
  - # 12
    frequency:    9.1702376121
  - # 13
    frequency:    9.2085790776
  - # 14
    frequency:   10.3973176191
  - # 15
    frequency:   10.7301885873
  - # 16
    frequency:   11.6446153961
  - # 17
    frequency:   11.9085062375
  - # 18
    frequency:   13.2318313445
  - # 19
    frequency:   13.3859247623
  - # 20
    frequency:   13.9405341269
  - # 21
    frequency:  114.8811426459

- q-position: [    0.0505051,    0.0000000,    0.0000000 ]
  distance:    0.0157348
  band:
  - # 1
    frequency:   -1.3049915216
  - # 2
    frequency:   -1.1018798637
  - # 3
    frequency:    0.0923771871
  - # 4
    frequency:    0.2306723066
  - # 5
    frequency:    0.7432083690
  - # 6
    frequency:    1.0029296403
  - # 7
    frequency:    1.1425198395
  - # 8
    frequency:    2.9231608606
  - # 9
    frequency:    4.7051347905
  - # 10
    frequency:    4.7514338053
  - # 11
    frequency:    7.3349534102
  - # 12
    frequency:    9.1556819248
  - # 13
    frequency:    9.2020174419
  - # 14
    frequency:   10.3590588142
  - # 15
    frequency:   10.7282293227
  - # 16
    frequency:   11.6483135767
  - # 17
    frequency:   11.9606815078
  - # 18
    frequency:   13.2291753669
  - # 19
    frequency:   13.4176638271
  - # 20
    frequency:   13.9343556571
  - # 21
    frequency:  114.8806327245

- q-position: [    0.0555556,    0.0000000,    0.0000000 ]
  distance:    0.0173082
  band:
  - # 1
    frequency:   -1.3066936819
  - # 2
    frequency:   -1.0573402025
  - # 3
    frequency:    0.1073470575
  - # 4
    frequency:    0.2844268200
  - # 5
    frequency:    0.8156101945
  - # 6
    frequency:    1.0400553756
  - # 7
    frequency:    1.2043371495
  - # 8
    frequency:    2.9171425894
  - # 9
    frequency:    4.7042575227
  - # 10
    frequency:    4.7599298419
  - # 11
    frequency:    7.2987778215
  - # 12
    frequency:    9.1400172247
  - # 13
    frequency:    9.1947947782
  - # 14
    frequency:   10.3184900771
  - # 15
    frequency:   10.7277416982
  - # 16
    frequency:   11.6523935844
  - # 17
    frequency:   12.0147139863
  - # 18
    frequency:   13.2262720457
  - # 19
    frequency:   13.4520537803
  - # 20
    frequency:   13.9277126740
  - # 21
    frequency:  114.8800734501

- q-position: [    0.0606061,    0.0000000,    0.0000000 ]
  distance:    0.0188817
  band:
  - # 1
    frequency:   -1.3091088286
  - # 2
    frequency:   -1.0076921104
  - # 3
    frequency:    0.1232295750
  - # 4
    frequency:    0.3388353079
  - # 5
    frequency:    0.8868802918
  - # 6
    frequency:    1.0782553709
  - # 7
    frequency:    1.2680773487
  - # 8
    frequency:    2.9110639983
  - # 9
    frequency:    4.7033197531
  - # 10
    frequency:    4.7691234863
  - # 11
    frequency:    7.2597911343
  - # 12
    frequency:    9.1233437636
  - # 13
    frequency:    9.1869199695
  - # 14
    frequency:   10.2761107694
  - # 15
    frequency:   10.7285328960
  - # 16
    frequency:   11.6568532720
  - # 17
    frequency:   12.0702155022
  - # 18
    frequency:   13.2231307239
  - # 19
    frequency:   13.4889082320
  - # 20
    frequency:   13.9206786923
  - # 21
    frequency:  114.8794660837

- q-position: [    0.0656566,    0.0000000,    0.0000000 ]
  distance:    0.0204552
  band:
  - # 1
    frequency:   -1.3122679855
  - # 2
    frequency:   -0.9525478858
  - # 3
    frequency:    0.1403034478
  - # 4
    frequency:    0.3937345301
  - # 5
    frequency:    0.9567120940
  - # 6
    frequency:    1.1174163200
  - # 7
    frequency:    1.3334041280
  - # 8
    frequency:    2.9051124994
  - # 9
    frequency:    4.7023275067
  - # 10
    frequency:    4.7789866975
  - # 11
    frequency:    7.2181644622
  - # 12
    frequency:    9.1057612370
  - # 13
    frequency:    9.1784027323
  - # 14
    frequency:   10.2323276429
  - # 15
    frequency:   10.7304364753
  - # 16
    frequency:   11.6616903274
  - # 17
    frequency:   12.1268536761
  - # 18
    frequency:   13.2197614809
  - # 19
    frequency:   13.5280217008
  - # 20
    frequency:   13.9133501400
  - # 21
    frequency:  114.8788119896

- q-position: [    0.0707071,    0.0000000,    0.0000000 ]
  distance:    0.0220287
  band:
  - # 1
    frequency:   -1.3161731867
  - # 2
    frequency:   -0.8914173854
  - # 3
    frequency:    0.1590459679
  - # 4
    frequency:    0.4488927557
  - # 5
    frequency:    1.0247760770
  - # 6
    frequency:    1.1574609416
  - # 7
    frequency:    1.4000373052
  - # 8
    frequency:    2.8995137110
  - # 9
    frequency:    4.7012872213
  - # 10
    frequency:    4.7894900410
  - # 11
    frequency:    7.1740817475
  - # 12
    frequency:    9.0873673923
  - # 13
    frequency:    9.1692536119
  - # 14
    frequency:   10.1874657573
  - # 15
    frequency:   10.7333139373
  - # 16
    frequency:   11.6669022815
  - # 17
    frequency:   12.1843393840
  - # 18
    frequency:   13.2161750929
  - # 19
    frequency:   13.5691573453
  - # 20
    frequency:   13.9058609058
  - # 21
    frequency:  114.8781126311

- q-position: [    0.0757576,    0.0000000,    0.0000000 ]
  distance:    0.0236021
  band:
  - # 1
    frequency:   -1.3207997607
  - # 2
    frequency:   -0.8237090034
  - # 3
    frequency:    0.1802669492
  - # 4
    frequency:    0.5040637609
  - # 5
    frequency:    1.0907287600
  - # 6
    frequency:    1.1983381237
  - # 7
    frequency:    1.4677359617
  - # 8
    frequency:    2.8945367775
  - # 9
    frequency:    4.7002057204
  - # 10
    frequency:    4.8006029531
  - # 11
    frequency:    7.1277387748
  - # 12
    frequency:    9.0682568989
  - # 13
    frequency:    9.1594839757
  - # 14
    frequency:   10.1417832865
  - # 15
    frequency:   10.7370501419
  - # 16
    frequency:   11.6724865179
  - # 17
    frequency:   12.2424164852
  - # 18
    frequency:   13.2123829897
  - # 19
    frequency:   13.6120184874
  - # 20
    frequency:   13.8984129295
  - # 21
    frequency:  114.8773695656

- q-position: [    0.0808081,    0.0000000,    0.0000000 ]
  distance:    0.0251756
  band:
  - # 1
    frequency:   -1.3261004371
  - # 2
    frequency:   -0.7487912587
  - # 3
    frequency:    0.2053610749
  - # 4
    frequency:    0.5590111499
  - # 5
    frequency:    1.1542245683
  - # 6
    frequency:    1.2400150463
  - # 7
    frequency:    1.5362830513
  - # 8
    frequency:    2.8904991572
  - # 9
    frequency:    4.6990901849
  - # 10
    frequency:    4.8122940216
  - # 11
    frequency:    7.0793420401
  - # 12
    frequency:    9.0485204867
  - # 13
    frequency:    9.1491060051
  - # 14
    frequency:   10.0954856698
  - # 15
    frequency:   10.7415473953
  - # 16
    frequency:   11.6784402804
  - # 17
    frequency:   12.3008534669
  - # 18
    frequency:   13.2083972096
  - # 19
    frequency:   13.6561789631
  - # 20
    frequency:   13.8913478410
  - # 21
    frequency:  114.8765844400

- q-position: [    0.0858586,    0.0000000,    0.0000000 ]
  distance:    0.0267491
  band:
  - # 1
    frequency:   -1.3320104881
  - # 2
    frequency:   -0.6662622242
  - # 3
    frequency:    0.2367626775
  - # 4
    frequency:    0.6135202359
  - # 5
    frequency:    1.2149311104
  - # 6
    frequency:    1.2824708276
  - # 7
    frequency:    1.6054722091
  - # 8
    frequency:    2.8877699724
  - # 9
    frequency:    4.6979481228
  - # 10
    frequency:    4.8245312853
  - # 11
    frequency:    7.0291074938
  - # 12
    frequency:    9.0282443381
  - # 13
    frequency:    9.1381326862
  - # 14
    frequency:   10.0487375638
  - # 15
    frequency:   10.7467200958
  - # 16
    frequency:   11.6847606818
  - # 17
    frequency:   12.3594365835
  - # 18
    frequency:   13.2042303511
  - # 19
    frequency:   13.7008944488
  - # 20
    frequency:   13.8853375562
  - # 21
    frequency:  114.8757589847

- q-position: [    0.0909091,    0.0000000,    0.0000000 ]
  distance:    0.0283226
  band:
  - # 1
    frequency:   -1.3384531426
  - # 2
    frequency:   -0.5768708726
  - # 3
    frequency:    0.2786029853
  - # 4
    frequency:    0.6674037560
  - # 5
    frequency:    1.2725487651
  - # 6
    frequency:    1.3256913526
  - # 7
    frequency:    1.6750975290
  - # 8
    frequency:    2.8867706303
  - # 9
    frequency:    4.6967873379
  - # 10
    frequency:    4.8372825478
  - # 11
    frequency:    6.9772591753
  - # 12
    frequency:    9.0075097100
  - # 13
    frequency:    9.1265777986
  - # 14
    frequency:   10.0016723855
  - # 15
    frequency:   10.7524904678
  - # 16
    frequency:   11.6914447111
  - # 17
    frequency:   12.4179640922
  - # 18
    frequency:   13.1998955231
  - # 19
    frequency:   13.7445263747
  - # 20
    frequency:   13.8819622899
  - # 21
    frequency:  114.8748950089

- q-position: [    0.0959596,    0.0000000,    0.0000000 ]
  distance:    0.0298960
  band:
  - # 1
    frequency:   -1.3453446710
  - # 2
    frequency:   -0.4850020914
  - # 3
    frequency:    0.3367070146
  - # 4
    frequency:    0.7205041256
  - # 5
    frequency:    1.3268359406
  - # 6
    frequency:    1.3696650498
  - # 7
    frequency:    1.7449469387
  - # 8
    frequency:    2.8879710623
  - # 9
    frequency:    4.6956158968
  - # 10
    frequency:    4.8505157039
  - # 11
    frequency:    6.9240277537
  - # 12
    frequency:    8.9863927487
  - # 13
    frequency:    9.1144559023
  - # 14
    frequency:    9.9543997372
  - # 15
    frequency:   10.7587853701
  - # 16
    frequency:   11.6984892400
  - # 17
    frequency:   12.4762412310
  - # 18
    frequency:   13.1954062922
  - # 19
    frequency:   13.7827895784
  - # 20
    frequency:   13.8854649162
  - # 21
    frequency:  114.8739943942

- q-position: [    0.1010101,    0.0000000,    0.0000000 ]
  distance:    0.0314695
  band:
  - # 1
    frequency:   -1.3525987583
  - # 2
    frequency:   -0.4018364375
  - # 3
    frequency:    0.4145017429
  - # 4
    frequency:    0.7726936148
  - # 5
    frequency:    1.3776415806
  - # 6
    frequency:    1.4143794793
  - # 7
    frequency:    1.8147994490
  - # 8
    frequency:    2.8918797519
  - # 9
    frequency:    4.6944420951
  - # 10
    frequency:    4.8641990759
  - # 11
    frequency:    6.8696489874
  - # 12
    frequency:    8.9649644616
  - # 13
    frequency:    9.1017823228
  - # 14
    frequency:    9.9070111160
  - # 15
    frequency:   10.7655339961
  - # 16
    frequency:   11.7058910295
  - # 17
    frequency:   12.5340756404
  - # 18
    frequency:   13.1907766293
  - # 19
    frequency:   13.8070076772
  - # 20
    frequency:   13.9044977816
  - # 21
    frequency:  114.8730590890

- q-position: [    0.1060606,    0.0000000,    0.0000000 ]
  distance:    0.0330430
  band:
  - # 1
    frequency:   -1.3601299907
  - # 2
    frequency:   -0.3406297186
  - # 3
    frequency:    0.5052898732
  - # 4
    frequency:    0.8238732408
  - # 5
    frequency:    1.4249457067
  - # 6
    frequency:    1.4598186583
  - # 7
    frequency:    1.8844261107
  - # 8
    frequency:    2.8990259798
  - # 9
    frequency:    4.6932744221
  - # 10
    frequency:    4.8783017565
  - # 11
    frequency:    6.8143621112
  - # 12
    frequency:    8.9432908028
  - # 13
    frequency:    9.0885731340
  - # 14
    frequency:    9.8595842929
  - # 15
    frequency:   10.7726662598
  - # 16
    frequency:   11.7136467343
  - # 17
    frequency:   12.5912729870
  - # 18
    frequency:   13.1860208534
  - # 19
    frequency:   13.8145180126
  - # 20
    frequency:   13.9417202057
  - # 21
    frequency:  114.8720911022

- q-position: [    0.1111111,    0.0000000,    0.0000000 ]
  distance:    0.0346165
  band:
  - # 1
    frequency:   -1.3678564459
  - # 2
    frequency:   -0.3054278541
  - # 3
    frequency:    0.5963663373
  - # 4
    frequency:    0.8739708641
  - # 5
    frequency:    1.4689060433
  - # 6
    frequency:    1.5059610964
  - # 7
    frequency:    1.9535941295
  - # 8
    frequency:    2.9099336831
  - # 9
    frequency:    4.6921215247
  - # 10
    frequency:    4.8927939541
  - # 11
    frequency:    6.7584081552
  - # 12
    frequency:    8.9214328371
  - # 13
    frequency:    9.0748451391
  - # 14
    frequency:    9.8121866775
  - # 15
    frequency:   10.7801116942
  - # 16
    frequency:   11.7217529067
  - # 17
    frequency:   12.6476326014
  - # 18
    frequency:   13.1811535745
  - # 19
    frequency:   13.8134256974
  - # 20
    frequency:   13.9890472020
  - # 21
    frequency:  114.8710924971

- q-position: [    0.1161616,    0.0000000,    0.0000000 ]
  distance:    0.0361899
  band:
  - # 1
    frequency:   -1.3757014740
  - # 2
    frequency:   -0.2928748820
  - # 3
    frequency:    0.6798221669
  - # 4
    frequency:    0.9229387899
  - # 5
    frequency:    1.5099032555
  - # 6
    frequency:    1.5527785188
  - # 7
    frequency:    2.0220733666
  - # 8
    frequency:    2.9250881134
  - # 9
    frequency:    4.6909921708
  - # 10
    frequency:    4.9076473370
  - # 11
    frequency:    6.7020282019
  - # 12
    frequency:    8.8994469457
  - # 13
    frequency:    9.0606158489
  - # 14
    frequency:    9.7648779175
  - # 15
    frequency:   10.7877987231
  - # 16
    frequency:   11.7302059993
  - # 17
    frequency:   12.7029430196
  - # 18
    frequency:   13.1761896351
  - # 19
    frequency:   13.8093525645
  - # 20
    frequency:   14.0409036469
  - # 21
    frequency:  114.8700653844

- q-position: [    0.1212121,    0.0000000,    0.0000000 ]
  distance:    0.0377634
  band:
  - # 1
    frequency:   -1.3835948107
  - # 2
    frequency:   -0.2990326222
  - # 3
    frequency:    0.7529945803
  - # 4
    frequency:    0.9707510640
  - # 5
    frequency:    1.5485693786
  - # 6
    frequency:    1.6002352500
  - # 7
    frequency:    2.0896443504
  - # 8
    frequency:    2.9448988432
  - # 9
    frequency:    4.6898952121
  - # 10
    frequency:    4.9228353717
  - # 11
    frequency:    6.6454615821
  - # 12
    frequency:    8.8773850447
  - # 13
    frequency:    9.0459034582
  - # 14
    frequency:    9.7177119226
  - # 15
    frequency:   10.7956542109
  - # 16
    frequency:   11.7390023659
  - # 17
    frequency:   12.7569774226
  - # 18
    frequency:   13.1711440509
  - # 19
    frequency:   13.8045238727
  - # 20
    frequency:   14.0951409776
  - # 21
    frequency:  114.8690119163

- q-position: [    0.1262626,    0.0000000,    0.0000000 ]
  distance:    0.0393369
  band:
  - # 1
    frequency:   -1.3914731705
  - # 2
    frequency:   -0.3210625206
  - # 3
    frequency:    0.8153693725
  - # 4
    frequency:    1.0174005917
  - # 5
    frequency:    1.5857766557
  - # 6
    frequency:    1.6482882014
  - # 7
    frequency:    2.1561068653
  - # 8
    frequency:    2.9696648244
  - # 9
    frequency:    4.6888395464
  - # 10
    frequency:    4.9383336483
  - # 11
    frequency:    6.5889440183
  - # 12
    frequency:    8.8552947919
  - # 13
    frequency:    9.0307268196
  - # 14
    frequency:    9.6707384568
  - # 15
    frequency:   10.8036032162
  - # 16
    frequency:   11.7481382615
  - # 17
    frequency:   12.8094891404
  - # 18
    frequency:   13.1660319507
  - # 19
    frequency:   13.7999435617
  - # 20
    frequency:   14.1508654126
  - # 21
    frequency:  114.8679342794

- q-position: [    0.1313131,    0.0000000,    0.0000000 ]
  distance:    0.0409104
  band:
  - # 1
    frequency:   -1.3992804606
  - # 2
    frequency:   -0.3569410903
  - # 3
    frequency:    0.8671211841
  - # 4
    frequency:    1.0628961818
  - # 5
    frequency:    1.6225644671
  - # 6
    frequency:    1.6968873748
  - # 7
    frequency:    2.2212880927
  - # 8
    frequency:    2.9995480746
  - # 9
    frequency:    4.6878340799
  - # 10
    frequency:    4.9541201903
  - # 11
    frequency:    6.5327057236
  - # 12
    frequency:    8.8332197632
  - # 13
    frequency:    9.0151054146
  - # 14
    frequency:    9.6240044076
  - # 15
    frequency:   10.8115689061
  - # 16
    frequency:   11.7576098402
  - # 17
    frequency:   12.8602076601
  - # 18
    frequency:   13.1608685148
  - # 19
    frequency:   13.7962148568
  - # 20
    frequency:   14.2076204170
  - # 21
    frequency:  114.8668346881

- q-position: [    0.1363636,    0.0000000,    0.0000000 ]
  distance:    0.0424838
  band:
  - # 1
    frequency:   -1.4069677304
  - # 2
    frequency:   -0.4051953636
  - # 3
    frequency:    0.9087966951
  - # 4
    frequency:    1.1072596073
  - # 5
    frequency:    1.6599995742
  - # 6
    frequency:    1.7459767673
  - # 7
    frequency:    2.2850492000
  - # 8
    frequency:    3.0345613720
  - # 9
    frequency:    4.6868876892
  - # 10
    frequency:    4.9701757389
  - # 11
    frequency:    6.4769694735
  - # 12
    frequency:    8.8111995821
  - # 13
    frequency:    8.9990593229
  - # 14
    frequency:    9.5775548127
  - # 15
    frequency:   10.8194725967
  - # 16
    frequency:   11.7674131525
  - # 17
    frequency:   12.9088359840
  - # 18
    frequency:   13.1556689147
  - # 19
    frequency:   13.7938050823
  - # 20
    frequency:   14.2651236761
  - # 21
    frequency:  114.8657153779

- q-position: [    0.1414141,    0.0000000,    0.0000000 ]
  distance:    0.0440573
  band:
  - # 1
    frequency:   -1.4144929492
  - # 2
    frequency:   -0.4647114153
  - # 3
    frequency:    0.9413745591
  - # 4
    frequency:    1.1505227733
  - # 5
    frequency:    1.6990002359
  - # 6
    frequency:    1.7954955451
  - # 7
    frequency:    2.3472893423
  - # 8
    frequency:    3.0745722453
  - # 9
    frequency:    4.6860091842
  - # 10
    frequency:    4.9864840064
  - # 11
    frequency:    6.4219486731
  - # 12
    frequency:    8.7892699945
  - # 13
    frequency:    8.9826091884
  - # 14
    frequency:    9.5314337086
  - # 15
    frequency:   10.8272339015
  - # 16
    frequency:   11.7775441396
  - # 17
    frequency:   12.9550507407
  - # 18
    frequency:   13.1504482512
  - # 19
    frequency:   13.7931392630
  - # 20
    frequency:   14.3231725756
  - # 21
    frequency:  114.8645785983

- q-position: [    0.1464646,    0.0000000,    0.0000000 ]
  distance:    0.0456308
  band:
  - # 1
    frequency:   -1.4218206797
  - # 2
    frequency:   -0.5345071006
  - # 3
    frequency:    0.9663418419
  - # 4
    frequency:    1.1927250740
  - # 5
    frequency:    1.7401871092
  - # 6
    frequency:    1.8453793540
  - # 7
    frequency:    2.4079463811
  - # 8
    frequency:    3.1193217080
  - # 9
    frequency:    4.6852072708
  - # 10
    frequency:    5.0030318908
  - # 11
    frequency:    6.3678454520
  - # 12
    frequency:    8.7674628785
  - # 13
    frequency:    8.9657761839
  - # 14
    frequency:    9.4856848459
  - # 15
    frequency:   10.8347709747
  - # 16
    frequency:   11.7879986278
  - # 17
    frequency:   12.9985070624
  - # 18
    frequency:   13.1452214930
  - # 19
    frequency:   13.7946330409
  - # 20
    frequency:   14.3816056231
  - # 21
    frequency:  114.8634266065

- q-position: [    0.1515152,    0.0000000,    0.0000000 ]
  distance:    0.0472043
  band:
  - # 1
    frequency:   -1.4289216956
  - # 2
    frequency:   -0.6135037038
  - # 3
    frequency:    0.9856267359
  - # 4
    frequency:    1.2339110070
  - # 5
    frequency:    1.7838202968
  - # 6
    frequency:    1.8955616473
  - # 7
    frequency:    2.4669942338
  - # 8
    frequency:    3.1684531334
  - # 9
    frequency:    4.6844905144
  - # 10
    frequency:    5.0198096429
  - # 11
    frequency:    6.3148488260
  - # 12
    frequency:    8.7458061873
  - # 13
    frequency:    8.9485819725
  - # 14
    frequency:    9.4403523106
  - # 15
    frequency:   10.8420008420
  - # 16
    frequency:   11.7987723200
  - # 17
    frequency:   13.0388506564
  - # 18
    frequency:   13.1400034161
  - # 19
    frequency:   13.7986973707
  - # 20
    frequency:   14.4402849103
  - # 21
    frequency:  114.8622616603
