nqpoint: 300    
npath: 3      
segment_nqpoint:
- 100
- 100
- 100
labels:
- [ 'G', 'M' ]
- [ 'M', 'K' ]
- [ 'K', 'G' ]
reciprocal_lattice:
- [   0.29082050,   0.16790529,   0.00000000 ] # a*
- [   0.00000000,   0.33581059,   0.00000000 ] # b*
- [   0.00000000,   0.00000000,   0.03689398 ] # c*
natom: 8      
lattice:
- [     3.438547140341899,     0.000000000000000,     0.000000000000000 ] # a
- [    -1.719273570170950,     2.977869175633797,     0.000000000000000 ] # b
- [     0.000000000000000,     0.000000000000000,    27.104693627931713 ] # c
points:
- symbol: C # 1
  coordinates: [  0.000000000000000,  0.000000000000000,  0.529469755219633 ]
  mass: 12.010700
- symbol: C # 2
  coordinates: [  0.666666984744047,  0.333332985985145,  0.389387826427151 ]
  mass: 12.010700
- symbol: N # 3
  coordinates: [  0.333332985432215,  0.666666983183674,  0.618925107227791 ]
  mass: 14.006700
- symbol: N # 4
  coordinates: [  0.666666984744047,  0.333332985985145,  0.435616063084054 ]
  mass: 14.006700
- symbol: O # 5
  coordinates: [  0.333332985432215,  0.666666983183674,  0.667954188173321 ]
  mass: 15.999400
- symbol: S # 6
  coordinates: [  0.666666984744047,  0.333332985985145,  0.332045811826679 ]
  mass: 32.065000
- symbol: Zr # 7
  coordinates: [  0.333332985432215,  0.666666983183674,  0.487094416249724 ]
  mass: 91.224000
- symbol: Zr # 8
  coordinates: [  0.666666984744047,  0.333332985985145,  0.582966990172908 ]
  mass: 91.224000

phonon:
- q-position: [    0.0000000,    0.0000000,    0.0000000 ]
  distance:    0.0000000
  band:
  - # 1
    frequency:   -4.7225565938
  - # 2
    frequency:   -4.7225565938
  - # 3
    frequency:   -0.0000208535
  - # 4
    frequency:   -0.0000001722
  - # 5
    frequency:    0.0000176140
  - # 6
    frequency:    0.0880461562
  - # 7
    frequency:    0.0880461578
  - # 8
    frequency:    3.5926923910
  - # 9
    frequency:    3.5926923911
  - # 10
    frequency:    5.0711275170
  - # 11
    frequency:    6.0604592236
  - # 12
    frequency:    6.0604592237
  - # 13
    frequency:    7.5258144649
  - # 14
    frequency:    8.5137724457
  - # 15
    frequency:   10.9625964056
  - # 16
    frequency:   10.9625964056
  - # 17
    frequency:   13.9322755063
  - # 18
    frequency:   13.9322755064
  - # 19
    frequency:   14.7834642096
  - # 20
    frequency:   14.7834642097
  - # 21
    frequency:   15.6852773560
  - # 22
    frequency:   27.0727295726
  - # 23
    frequency:   38.9364586883
  - # 24
    frequency:   57.7357890125

- q-position: [    0.0050505,    0.0000000,    0.0000000 ]
  distance:    0.0016960
  band:
  - # 1
    frequency:   -4.7230356533
  - # 2
    frequency:   -4.7218742546
  - # 3
    frequency:    0.0021067480
  - # 4
    frequency:    0.0639335659
  - # 5
    frequency:    0.1034158002
  - # 6
    frequency:    0.1044995317
  - # 7
    frequency:    0.1275304629
  - # 8
    frequency:    3.5931509491
  - # 9
    frequency:    3.5939548416
  - # 10
    frequency:    5.0707871458
  - # 11
    frequency:    6.0605061118
  - # 12
    frequency:    6.0613429296
  - # 13
    frequency:    7.5255934611
  - # 14
    frequency:    8.5128078339
  - # 15
    frequency:   10.9622260769
  - # 16
    frequency:   10.9623268098
  - # 17
    frequency:   13.9322515734
  - # 18
    frequency:   13.9325598732
  - # 19
    frequency:   14.7832780121
  - # 20
    frequency:   14.7835266691
  - # 21
    frequency:   15.6855985326
  - # 22
    frequency:   27.0726292577
  - # 23
    frequency:   38.9358501209
  - # 24
    frequency:   57.7348612496

- q-position: [    0.0101010,    0.0000000,    0.0000000 ]
  distance:    0.0033920
  band:
  - # 1
    frequency:   -4.7244720597
  - # 2
    frequency:   -4.7198277553
  - # 3
    frequency:    0.0075893829
  - # 4
    frequency:    0.1128385419
  - # 5
    frequency:    0.1520902731
  - # 6
    frequency:    0.1843680008
  - # 7
    frequency:    0.2268379208
  - # 8
    frequency:    3.5945256715
  - # 9
    frequency:    3.5977333643
  - # 10
    frequency:    5.0697685487
  - # 11
    frequency:    6.0606470008
  - # 12
    frequency:    6.0639902476
  - # 13
    frequency:    7.5249307097
  - # 14
    frequency:    8.5099196194
  - # 15
    frequency:   10.9611179707
  - # 16
    frequency:   10.9615194479
  - # 17
    frequency:   13.9321799099
  - # 18
    frequency:   13.9334132251
  - # 19
    frequency:   14.7827197082
  - # 20
    frequency:   14.7837148917
  - # 21
    frequency:   15.6865588790
  - # 22
    frequency:   27.0723284733
  - # 23
    frequency:   38.9340253040
  - # 24
    frequency:   57.7320796037

- q-position: [    0.0151515,    0.0000000,    0.0000000 ]
  distance:    0.0050880
  band:
  - # 1
    frequency:   -4.7268634926
  - # 2
    frequency:   -4.7164186253
  - # 3
    frequency:    0.0163584548
  - # 4
    frequency:    0.1526246910
  - # 5
    frequency:    0.2183482190
  - # 6
    frequency:    0.2624315183
  - # 7
    frequency:    0.3370172146
  - # 8
    frequency:    3.5968137076
  - # 9
    frequency:    3.6040016923
  - # 10
    frequency:    5.0680792264
  - # 11
    frequency:    6.0608825615
  - # 12
    frequency:    6.0683898436
  - # 13
    frequency:    7.5238269939
  - # 14
    frequency:    8.5051246233
  - # 15
    frequency:   10.9592807175
  - # 16
    frequency:   10.9601785888
  - # 17
    frequency:   13.9320609213
  - # 18
    frequency:   13.9348362911
  - # 19
    frequency:   14.7817901649
  - # 20
    frequency:   14.7840313998
  - # 21
    frequency:   15.6881489056
  - # 22
    frequency:   27.0718276998
  - # 23
    frequency:   38.9309868911
  - # 24
    frequency:   57.7274489984

- q-position: [    0.0202020,    0.0000000,    0.0000000 ]
  distance:    0.0067841
  band:
  - # 1
    frequency:   -4.7302060696
  - # 2
    frequency:   -4.7116493314
  - # 3
    frequency:    0.0284800299
  - # 4
    frequency:    0.1930890004
  - # 5
    frequency:    0.2877028026
  - # 6
    frequency:    0.3425608103
  - # 7
    frequency:    0.4479932875
  - # 8
    frequency:    3.6000103232
  - # 9
    frequency:    3.6127167705
  - # 10
    frequency:    5.0657315254
  - # 11
    frequency:    6.0612139045
  - # 12
    frequency:    6.0745230412
  - # 13
    frequency:    7.5222836278
  - # 14
    frequency:    8.4984507442
  - # 15
    frequency:   10.9567286704
  - # 16
    frequency:   10.9583113208
  - # 17
    frequency:   13.9318952820
  - # 18
    frequency:   13.9368302026
  - # 19
    frequency:   14.7804908283
  - # 20
    frequency:   14.7844803635
  - # 21
    frequency:   15.6903529962
  - # 22
    frequency:   27.0711277369
  - # 23
    frequency:   38.9267392984
  - # 24
    frequency:   57.7209776259

- q-position: [    0.0252525,    0.0000000,    0.0000000 ]
  distance:    0.0084801
  band:
  - # 1
    frequency:   -4.7344943247
  - # 2
    frequency:   -4.7055231554
  - # 3
    frequency:    0.0439295803
  - # 4
    frequency:    0.2346301323
  - # 5
    frequency:    0.3577819127
  - # 6
    frequency:    0.4236761049
  - # 7
    frequency:    0.5590331342
  - # 8
    frequency:    3.6041089253
  - # 9
    frequency:    3.6238197955
  - # 10
    frequency:    5.0627424208
  - # 11
    frequency:    6.0616425677
  - # 12
    frequency:    6.0823641279
  - # 13
    frequency:    7.5203024710
  - # 14
    frequency:    8.4899367535
  - # 15
    frequency:   10.9534818580
  - # 16
    frequency:   10.9559275124
  - # 17
    frequency:   13.9316839316
  - # 18
    frequency:   13.9393963724
  - # 19
    frequency:   14.7788237261
  - # 20
    frequency:   14.7850675524
  - # 21
    frequency:   15.6931496998
  - # 22
    frequency:   27.0702297023
  - # 23
    frequency:   38.9212886958
  - # 24
    frequency:   57.7126769251

- q-position: [    0.0303030,    0.0000000,    0.0000000 ]
  distance:    0.0101761
  band:
  - # 1
    frequency:   -4.7397211791
  - # 2
    frequency:   -4.6980440274
  - # 3
    frequency:    0.0626448935
  - # 4
    frequency:    0.2768512579
  - # 5
    frequency:    0.4280787453
  - # 6
    frequency:    0.5052476783
  - # 7
    frequency:    0.6699400924
  - # 8
    frequency:    3.6091010961
  - # 9
    frequency:    3.6372375855
  - # 10
    frequency:    5.0591332408
  - # 11
    frequency:    6.0621705003
  - # 12
    frequency:    6.0918807548
  - # 13
    frequency:    7.5178859479
  - # 14
    frequency:    8.4796320125
  - # 15
    frequency:   10.9495659186
  - # 16
    frequency:   10.9530397571
  - # 17
    frequency:   13.9314280719
  - # 18
    frequency:   13.9425363307
  - # 19
    frequency:   14.7767914705
  - # 20
    frequency:   14.7858002737
  - # 21
    frequency:   15.6965121259
  - # 22
    frequency:   27.0691350292
  - # 23
    frequency:   38.9146429932
  - # 24
    frequency:   57.7025615525

- q-position: [    0.0353535,    0.0000000,    0.0000000 ]
  distance:    0.0118721
  band:
  - # 1
    frequency:   -4.7458779056
  - # 2
    frequency:   -4.6892163167
  - # 3
    frequency:    0.0845437511
  - # 4
    frequency:    0.3194649670
  - # 5
    frequency:    0.4984131186
  - # 6
    frequency:    0.5870064582
  - # 7
    frequency:    0.7806101846
  - # 8
    frequency:    3.6149766370
  - # 9
    frequency:    3.6528842066
  - # 10
    frequency:    5.0549293581
  - # 11
    frequency:    6.0628000413
  - # 12
    frequency:    6.1030344082
  - # 13
    frequency:    7.5150370739
  - # 14
    frequency:    8.4675961126
  - # 15
    frequency:   10.9450120140
  - # 16
    frequency:   10.9496633042
  - # 17
    frequency:   13.9311291612
  - # 18
    frequency:   13.9462515263
  - # 19
    frequency:   14.7743972617
  - # 20
    frequency:   14.7866873003
  - # 21
    frequency:   15.7004084268
  - # 22
    frequency:   27.0678454644
  - # 23
    frequency:   38.9068118242
  - # 24
    frequency:   57.6906493437

- q-position: [    0.0404040,    0.0000000,    0.0000000 ]
  distance:    0.0135681
  band:
  - # 1
    frequency:   -4.7529540880
  - # 2
    frequency:   -4.6790445858
  - # 3
    frequency:    0.1095302215
  - # 4
    frequency:    0.3622886130
  - # 5
    frequency:    0.5686957892
  - # 6
    frequency:    0.6687973496
  - # 7
    frequency:    0.8909647879
  - # 8
    frequency:    3.6217236204
  - # 9
    frequency:    3.6706627706
  - # 10
    frequency:    5.0501598732
  - # 11
    frequency:    6.0635338937
  - # 12
    frequency:    6.1157809258
  - # 13
    frequency:    7.5117594878
  - # 14
    frequency:    8.4538984421
  - # 15
    frequency:   10.9398567244
  - # 16
    frequency:   10.9458159742
  - # 17
    frequency:   13.9307889078
  - # 18
    frequency:   13.9505430984
  - # 19
    frequency:   14.7716448925
  - # 20
    frequency:   14.7877387958
  - # 21
    frequency:   15.7048023555
  - # 22
    frequency:   27.0663630641
  - # 23
    frequency:   38.8978065257
  - # 24
    frequency:   57.6769612678

- q-position: [    0.0454545,    0.0000000,    0.0000000 ]
  distance:    0.0152641
  band:
  - # 1
    frequency:   -4.7609375768
  - # 2
    frequency:   -4.6675333133
  - # 3
    frequency:    0.1374979874
  - # 4
    frequency:    0.4052025319
  - # 5
    frequency:    0.6388709113
  - # 6
    frequency:    0.7505198462
  - # 7
    frequency:    1.0009329835
  - # 8
    frequency:    3.6293284506
  - # 9
    frequency:    3.6904673201
  - # 10
    frequency:    5.0448573146
  - # 11
    frequency:    6.0643750935
  - # 12
    frequency:    6.1300710363
  - # 13
    frequency:    7.5080574916
  - # 14
    frequency:    8.4386176828
  - # 15
    frequency:   10.9341419222
  - # 16
    frequency:   10.9415180607
  - # 17
    frequency:   13.9304092631
  - # 18
    frequency:   13.9554116280
  - # 19
    frequency:   14.7685387527
  - # 20
    frequency:   14.7889662388
  - # 21
    frequency:   15.7096538781
  - # 22
    frequency:   27.0646901912
  - # 23
    frequency:   38.8876401136
  - # 24
    frequency:   57.6615213724

- q-position: [    0.0505051,    0.0000000,    0.0000000 ]
  distance:    0.0169601
  band:
  - # 1
    frequency:   -4.7698144435
  - # 2
    frequency:   -4.6546865897
  - # 3
    frequency:    0.1683327639
  - # 4
    frequency:    0.4481238385
  - # 5
    frequency:    0.7088971808
  - # 6
    frequency:    0.8321019941
  - # 7
    frequency:    1.1104452668
  - # 8
    frequency:    3.6377759312
  - # 9
    frequency:    3.7121847185
  - # 10
    frequency:    5.0390573790
  - # 11
    frequency:    6.0653269751
  - # 12
    frequency:    6.1458508993
  - # 13
    frequency:    7.5039360976
  - # 14
    frequency:    8.4218412417
  - # 15
    frequency:   10.9279146266
  - # 16
    frequency:   10.9367922191
  - # 17
    frequency:   13.9299924122
  - # 18
    frequency:   13.9608568769
  - # 19
    frequency:   14.7650838349
  - # 20
    frequency:   14.7903823540
  - # 21
    frequency:   15.7149198260
  - # 22
    frequency:   27.0628295102
  - # 23
    frequency:   38.8763272559
  - # 24
    frequency:   57.6443567217

- q-position: [    0.0555556,    0.0000000,    0.0000000 ]
  distance:    0.0186561
  band:
  - # 1
    frequency:   -4.7795689350
  - # 2
    frequency:   -4.6405077955
  - # 3
    frequency:    0.2019143419
  - # 4
    frequency:    0.4909917219
  - # 5
    frequency:    0.7787403451
  - # 6
    frequency:    0.9134879246
  - # 7
    frequency:    1.2194307744
  - # 8
    frequency:    3.6470493407
  - # 9
    frequency:    3.7356964744
  - # 10
    frequency:    5.0327987279
  - # 11
    frequency:    6.0663931309
  - # 12
    frequency:    6.1630626299
  - # 13
    frequency:    7.4994010830
  - # 14
    frequency:    8.4036646201
  - # 15
    frequency:   10.9212268386
  - # 16
    frequency:   10.9316633426
  - # 17
    frequency:   13.9295407639
  - # 18
    frequency:   13.9668775213
  - # 19
    frequency:   14.7612857394
  - # 20
    frequency:   14.7920010523
  - # 21
    frequency:   15.7205545694
  - # 22
    frequency:   27.0607839828
  - # 23
    frequency:   38.8638842411
  - # 24
    frequency:   57.6254973265

- q-position: [    0.0606061,    0.0000000,    0.0000000 ]
  distance:    0.0203522
  band:
  - # 1
    frequency:   -4.7901834307
  - # 2
    frequency:   -4.6249992660
  - # 3
    frequency:    0.2381184017
  - # 4
    frequency:    0.5337591342
  - # 5
    frequency:    0.8483697999
  - # 6
    frequency:    0.9946314152
  - # 7
    frequency:    1.3278158481
  - # 8
    frequency:    3.6571305129
  - # 9
    frequency:    3.7608804384
  - # 10
    frequency:    5.0261228554
  - # 11
    frequency:    6.0675773674
  - # 12
    frequency:    6.1816447967
  - # 13
    frequency:    7.4944590535
  - # 14
    frequency:    8.3841907270
  - # 15
    frequency:   10.9141353570
  - # 16
    frequency:   10.9261584273
  - # 17
    frequency:   13.9290569393
  - # 18
    frequency:   13.9734708885
  - # 19
    frequency:   14.7571506804
  - # 20
    frequency:   14.7938373826
  - # 21
    frequency:   15.7265106964
  - # 22
    frequency:   27.0585568624
  - # 23
    frequency:   38.8503289448
  - # 24
    frequency:   57.6049760667

- q-position: [    0.0656566,    0.0000000,    0.0000000 ]
  distance:    0.0220482
  band:
  - # 1
    frequency:   -4.8016384026
  - # 2
    frequency:   -4.6081619532
  - # 3
    frequency:    0.2768181253
  - # 4
    frequency:    0.5763879468
  - # 5
    frequency:    0.9177568846
  - # 6
    frequency:    1.0754923497
  - # 7
    frequency:    1.4355231923
  - # 8
    frequency:    3.6679999238
  - # 9
    frequency:    3.7876123269
  - # 10
    frequency:    5.0190740344
  - # 11
    frequency:    6.0688836567
  - # 12
    frequency:    6.2015328858
  - # 13
    frequency:    7.4891175147
  - # 14
    frequency:    8.3635291407
  - # 15
    frequency:   10.9067015771
  - # 16
    frequency:   10.9203064256
  - # 17
    frequency:   13.9285437589
  - # 18
    frequency:   13.9806327027
  - # 19
    frequency:   14.7526854913
  - # 20
    frequency:   14.7959074985
  - # 21
    frequency:   15.7327396838
  - # 22
    frequency:   27.0561516884
  - # 23
    frequency:   38.8356807916
  - # 24
    frequency:   57.5828286064

- q-position: [    0.0707071,    0.0000000,    0.0000000 ]
  distance:    0.0237442
  band:
  - # 1
    frequency:   -4.8139123832
  - # 2
    frequency:   -4.5899950890
  - # 3
    frequency:    0.3178856134
  - # 4
    frequency:    0.6188460294
  - # 5
    frequency:    0.9868739644
  - # 6
    frequency:    1.1560346693
  - # 7
    frequency:    1.5424713375
  - # 8
    frequency:    3.6796367824
  - # 9
    frequency:    3.8157670387
  - # 10
    frequency:    5.0116993486
  - # 11
    frequency:    6.0703160833
  - # 12
    frequency:    6.2226597258
  - # 13
    frequency:    7.4833849532
  - # 14
    frequency:    8.3417953251
  - # 15
    frequency:   10.8989912724
  - # 16
    frequency:   10.9141380913
  - # 17
    frequency:   13.9280042283
  - # 18
    frequency:   13.9883568456
  - # 19
    frequency:   14.7478976303
  - # 20
    frequency:   14.7982286373
  - # 21
    frequency:   15.7391925467
  - # 22
    frequency:   27.0535722794
  - # 23
    frequency:   38.8199607149
  - # 24
    frequency:   57.5590933019

- q-position: [    0.0757576,    0.0000000,    0.0000000 ]
  distance:    0.0254402
  band:
  - # 1
    frequency:   -4.8269819400
  - # 2
    frequency:   -4.5704958609
  - # 3
    frequency:    0.3611931064
  - # 4
    frequency:    0.6611054305
  - # 5
    frequency:    1.0556939133
  - # 6
    frequency:    1.2362251346
  - # 7
    frequency:    1.6485742839
  - # 8
    frequency:    3.6920191261
  - # 9
    frequency:    3.8452197413
  - # 10
    frequency:    5.0040488114
  - # 11
    frequency:    6.0718787883
  - # 12
    frequency:    6.2449558749
  - # 13
    frequency:    7.4772709257
  - # 14
    frequency:    8.3191098056
  - # 15
    frequency:   10.8910743630
  - # 16
    frequency:   10.9076858151
  - # 17
    frequency:   13.9274415225
  - # 18
    frequency:   13.9966351367
  - # 19
    frequency:   14.7427951852
  - # 20
    frequency:   14.8008191119
  - # 21
    frequency:   15.7458204570
  - # 22
    frequency:   27.0508227268
  - # 23
    frequency:   38.8031911131
  - # 24
    frequency:   57.5338111033

- q-position: [    0.0808081,    0.0000000,    0.0000000 ]
  distance:    0.0271362
  band:
  - # 1
    frequency:   -4.8408216608
  - # 2
    frequency:   -4.5496591035
  - # 3
    frequency:    0.4066140117
  - # 4
    frequency:    0.7031412093
  - # 5
    frequency:    1.1241898126
  - # 6
    frequency:    1.3160325512
  - # 7
    frequency:    1.7537412701
  - # 8
    frequency:    3.7051239180
  - # 9
    frequency:    3.8758467153
  - # 10
    frequency:    4.9961755743
  - # 11
    frequency:    6.0735759084
  - # 12
    frequency:    6.2683499675
  - # 13
    frequency:    7.4707861572
  - # 14
    frequency:    8.2955973131
  - # 15
    frequency:   10.8830246697
  - # 16
    frequency:   10.9009834530
  - # 17
    frequency:   13.9268589692
  - # 18
    frequency:   14.0054571374
  - # 19
    frequency:   14.7373868781
  - # 20
    frequency:   14.8036983125
  - # 21
    frequency:   15.7525753231
  - # 22
    frequency:   27.0479073874
  - # 23
    frequency:   38.7853958032
  - # 24
    frequency:   57.5070254491

- q-position: [    0.0858586,    0.0000000,    0.0000000 ]
  distance:    0.0288322
  band:
  - # 1
    frequency:   -4.8554041503
  - # 2
    frequency:   -4.5274770158
  - # 3
    frequency:    0.4540237487
  - # 4
    frequency:    0.7449306677
  - # 5
    frequency:    1.1923347783
  - # 6
    frequency:    1.3954272706
  - # 7
    frequency:    1.8578766373
  - # 8
    frequency:    3.7189271475
  - # 9
    frequency:    3.9075259510
  - # 10
    frequency:    4.9881362281
  - # 11
    frequency:    6.0754115127
  - # 12
    frequency:    6.2927690219
  - # 13
    frequency:    7.4639426465
  - # 14
    frequency:    8.2713859024
  - # 15
    frequency:   10.8749196585
  - # 16
    frequency:   10.8940661488
  - # 17
    frequency:   13.9262600299
  - # 18
    frequency:   14.0148099814
  - # 19
    frequency:   14.7316820691
  - # 20
    frequency:   14.8068867129
  - # 21
    frequency:   15.7594103265
  - # 22
    frequency:   27.0448308754
  - # 23
    frequency:   38.7665999716
  - # 24
    frequency:   57.4787821549

- q-position: [    0.0909091,    0.0000000,    0.0000000 ]
  distance:    0.0305282
  band:
  - # 1
    frequency:   -4.8707000390
  - # 2
    frequency:   -4.5039389085
  - # 3
    frequency:    0.5033004235
  - # 4
    frequency:    0.7864528321
  - # 5
    frequency:    1.2601018647
  - # 6
    frequency:    1.4743808608
  - # 7
    frequency:    1.9608797787
  - # 8
    frequency:    3.7334039318
  - # 9
    frequency:    3.9401374934
  - # 10
    frequency:    4.9799911991
  - # 11
    frequency:    6.0773895362
  - # 12
    frequency:    6.3181387069
  - # 13
    frequency:    7.4567537806
  - # 14
    frequency:    8.2466060545
  - # 15
    frequency:   10.8668401745
  - # 16
    frequency:   10.8869701511
  - # 17
    frequency:   13.9256482801
  - # 18
    frequency:   14.0246782338
  - # 19
    frequency:   14.7256907587
  - # 20
    frequency:   14.8104058772
  - # 21
    frequency:   15.7662804099
  - # 22
    frequency:   27.0415980542
  - # 23
    frequency:   38.7468301217
  - # 24
    frequency:   57.4491292962

- q-position: [    0.0959596,    0.0000000,    0.0000000 ]
  distance:    0.0322242
  band:
  - # 1
    frequency:   -4.8866780069
  - # 2
    frequency:   -4.4790309865
  - # 3
    frequency:    0.5543253516
  - # 4
    frequency:    0.8276880984
  - # 5
    frequency:    1.3274640192
  - # 6
    frequency:    1.5528658847
  - # 7
    frequency:    2.0626451694
  - # 8
    frequency:    3.7485286180
  - # 9
    frequency:    3.9735635379
  - # 10
    frequency:    4.9718052478
  - # 11
    frequency:    6.0795137108
  - # 12
    frequency:    6.3443835621
  - # 13
    frequency:    7.4492344542
  - # 14
    frequency:    8.2213897730
  - # 15
    frequency:   10.8588701693
  - # 16
    frequency:   10.8797326268
  - # 17
    frequency:   13.9250273882
  - # 18
    frequency:   14.0350437827
  - # 19
    frequency:   14.7194235900
  - # 20
    frequency:   14.8142784600
  - # 21
    frequency:   15.7731427170
  - # 22
    frequency:   27.0382140281
  - # 23
    frequency:   38.7261140205
  - # 24
    frequency:   57.4181170858

- q-position: [    0.1010101,    0.0000000,    0.0000000 ]
  distance:    0.0339203
  band:
  - # 1
    frequency:   -4.9033048217
  - # 2
    frequency:   -4.4527361708
  - # 3
    frequency:    0.6069834462
  - # 4
    frequency:    0.8686179836
  - # 5
    frequency:    1.3943940717
  - # 6
    frequency:    1.6308557496
  - # 7
    frequency:    2.1630624768
  - # 8
    frequency:    3.7642748853
  - # 9
    frequency:    4.0076882725
  - # 10
    frequency:    4.9636480807
  - # 11
    frequency:    6.0817874949
  - # 12
    frequency:    6.3714271668
  - # 13
    frequency:    7.4414011974
  - # 14
    frequency:    8.1958696864
  - # 15
    frequency:   10.8510964216
  - # 16
    frequency:   10.8723914713
  - # 17
    frequency:   13.9244010928
  - # 18
    frequency:   14.0458857631
  - # 19
    frequency:   14.7128918480
  - # 20
    frequency:   14.8185281927
  - # 21
    frequency:   15.7799569845
  - # 22
    frequency:   27.0346841323
  - # 23
    frequency:   38.7044806407
  - # 24
    frequency:   57.3857977460

- q-position: [    0.1060606,    0.0000000,    0.0000000 ]
  distance:    0.0356163
  band:
  - # 1
    frequency:   -4.9205453931
  - # 2
    frequency:   -4.4250339633
  - # 3
    frequency:    0.6611634922
  - # 4
    frequency:    0.9092249508
  - # 5
    frequency:    1.4608647472
  - # 6
    frequency:    1.7083246021
  - # 7
    frequency:    2.2620167563
  - # 8
    frequency:    3.7806158466
  - # 9
    frequency:    4.0423974624
  - # 10
    frequency:    4.9555950899
  - # 11
    frequency:    6.0842140009
  - # 12
    frequency:    6.3991922438
  - # 13
    frequency:    7.4332723087
  - # 14
    frequency:    8.1701781686
  - # 15
    frequency:   10.8436082515
  - # 16
    frequency:   10.8649851183
  - # 17
    frequency:   13.9237731790
  - # 18
    frequency:   14.0571805172
  - # 19
    frequency:   14.7061074592
  - # 20
    frequency:   14.8231798470
  - # 21
    frequency:   15.7866858862
  - # 22
    frequency:   27.0310139243
  - # 23
    frequency:   38.6819601027
  - # 24
    frequency:   57.3522253763

- q-position: [    0.1111111,    0.0000000,    0.0000000 ]
  distance:    0.0373123
  band:
  - # 1
    frequency:   -4.9383628426
  - # 2
    frequency:   -4.3959003545
  - # 3
    frequency:    0.7167583234
  - # 4
    frequency:    0.9494922830
  - # 5
    frequency:    1.5268486970
  - # 6
    frequency:    1.7852472566
  - # 7
    frequency:    2.3593887376
  - # 8
    frequency:    3.7975241482
  - # 9
    frequency:    4.0775777669
  - # 10
    frequency:    4.9477282404
  - # 11
    frequency:    6.0867959232
  - # 12
    frequency:    6.4276006819
  - # 13
    frequency:    7.4248679985
  - # 14
    frequency:    8.1444464950
  - # 15
    frequency:   10.8364972303
  - # 16
    frequency:   10.8575523482
  - # 17
    frequency:   13.9231474531
  - # 18
    frequency:   14.0689015936
  - # 19
    frequency:   14.6990829875
  - # 20
    frequency:   14.8282591682
  - # 21
    frequency:   15.7932953341
  - # 22
    frequency:   27.0272091730
  - # 23
    frequency:   38.6585836134
  - # 24
    frequency:   57.3174558160

- q-position: [    0.1161616,    0.0000000,    0.0000000 ]
  distance:    0.0390083
  band:
  - # 1
    frequency:   -4.9567185901
  - # 2
    frequency:   -4.3653077765
  - # 3
    frequency:    0.7736649191
  - # 4
    frequency:    0.9894039926
  - # 5
    frequency:    1.5923185426
  - # 6
    frequency:    1.8615991447
  - # 7
    frequency:    2.4550552098
  - # 8
    frequency:    3.8149720678
  - # 9
    frequency:    4.1131157718
  - # 10
    frequency:    4.9401371321
  - # 11
    frequency:    6.0895354653
  - # 12
    frequency:    6.4565734555
  - # 13
    frequency:    7.4162105452
  - # 14
    frequency:    8.1188040487
  - # 15
    frequency:   10.8298568848
  - # 16
    frequency:   10.8501320983
  - # 17
    frequency:   13.9225277170
  - # 18
    frequency:   14.0810197881
  - # 19
    frequency:   14.6918316294
  - # 20
    frequency:   14.8337927663
  - # 21
    frequency:   15.7997547393
  - # 22
    frequency:   27.0232758490
  - # 23
    frequency:   38.6343834032
  - # 24
    frequency:   57.2815465044

- q-position: [    0.1212121,    0.0000000,    0.0000000 ]
  distance:    0.0407043
  band:
  - # 1
    frequency:   -4.9755724563
  - # 2
    frequency:   -4.3332250973
  - # 3
    frequency:    0.8317844376
  - # 4
    frequency:    1.0289447549
  - # 5
    frequency:    1.6572469288
  - # 6
    frequency:    1.9373562812
  - # 7
    frequency:    2.5488895159
  - # 8
    frequency:    3.8329316097
  - # 9
    frequency:    4.1488967146
  - # 10
    frequency:    4.9329202655
  - # 11
    frequency:    6.0924342688
  - # 12
    frequency:    6.4860304103
  - # 13
    frequency:    7.4073244751
  - # 14
    frequency:    8.0933775961
  - # 15
    frequency:   10.8237823942
  - # 16
    frequency:   10.8427632745
  - # 17
    frequency:   13.9219177406
  - # 18
    frequency:   14.0935032313
  - # 19
    frequency:   14.6843672067
  - # 20
    frequency:   14.8398079561
  - # 21
    frequency:   15.8060372363
  - # 22
    frequency:   27.0192201129
  - # 23
    frequency:   38.6093926619
  - # 24
    frequency:   57.2445563361

- q-position: [    0.1262626,    0.0000000,    0.0000000 ]
  distance:    0.0424003
  band:
  - # 1
    frequency:   -4.9948827807
  - # 2
    frequency:   -4.2996176566
  - # 3
    frequency:    0.8910221958
  - # 4
    frequency:    1.0680998602
  - # 5
    frequency:    1.7216065858
  - # 6
    frequency:    2.0124952397
  - # 7
    frequency:    2.6407621665
  - # 8
    frequency:    3.8513745969
  - # 9
    frequency:    4.1848028778
  - # 10
    frequency:    4.9261865438
  - # 11
    frequency:    6.0954933438
  - # 12
    frequency:    6.5158898794
  - # 13
    frequency:    7.3982367808
  - # 14
    frequency:    8.0682906503
  - # 15
    frequency:   10.8183702808
  - # 16
    frequency:   10.8354845661
  - # 17
    frequency:   13.9213212343
  - # 18
    frequency:   14.1063175263
  - # 19
    frequency:   14.6767041560
  - # 20
    frequency:   14.8463325355
  - # 21
    frequency:   15.8121198775
  - # 22
    frequency:   27.0150483047
  - # 23
    frequency:   38.5836454726
  - # 24
    frequency:   57.2065455140

- q-position: [    0.1313131,    0.0000000,    0.0000000 ]
  distance:    0.0440963
  band:
  - # 1
    frequency:   -5.0146065548
  - # 2
    frequency:   -4.2644473375
  - # 3
    frequency:    0.9512876097
  - # 4
    frequency:    1.1068551773
  - # 5
    frequency:    1.7853703955
  - # 6
    frequency:    2.0869931373
  - # 7
    frequency:    2.7305415855
  - # 8
    frequency:    3.8702727593
  - # 9
    frequency:    4.2207116258
  - # 10
    frequency:    4.9200570368
  - # 11
    frequency:    6.0987130021
  - # 12
    frequency:    6.5460680823
  - # 13
    frequency:    7.3889772054
  - # 14
    frequency:    8.0436629402
  - # 15
    frequency:   10.8137180906
  - # 16
    frequency:   10.8283342652
  - # 17
    frequency:   13.9207418206
  - # 18
    frequency:   14.1194259428
  - # 19
    frequency:   14.6688575166
  - # 20
    frequency:   14.8533944914
  - # 21
    frequency:   15.8179838019
  - # 22
    frequency:   27.0107669314
  - # 23
    frequency:   38.5571767444
  - # 24
    frequency:   57.1675753998

- q-position: [    0.1363636,    0.0000000,    0.0000000 ]
  distance:    0.0457924
  band:
  - # 1
    frequency:   -5.0346995695
  - # 2
    frequency:   -4.2276726691
  - # 3
    frequency:    1.0124941006
  - # 4
    frequency:    1.1451971280
  - # 5
    frequency:    1.8485114629
  - # 6
    frequency:    2.1608276243
  - # 7