nqpoint: 300    
npath: 3      
segment_nqpoint:
- 100
- 100
- 100
labels:
- [ 'G', 'M' ]
- [ 'M', 'K' ]
- [ 'K', 'G' ]
reciprocal_lattice:
- [   0.29082050,   0.16790529,   0.00000000 ] # a*
- [   0.00000000,   0.33581059,   0.00000000 ] # b*
- [   0.00000000,   0.00000000,   0.03689398 ] # c*
natom: 8      
lattice:
- [     3.438547140341899,     0.000000000000000,     0.000000000000000 ] # a
- [    -1.719273570170950,     2.977869175633797,     0.000000000000000 ] # b
- [     0.000000000000000,     0.000000000000000,    27.104693627931713 ] # c
points:
- symbol: C # 1
  coordinates: [  0.000000000000000,  0.000000000000000,  0.529469755219633 ]
  mass: 12.010700
- symbol: C # 2
  coordinates: [  0.666666984744047,  0.333332985985145,  0.389387826427151 ]
  mass: 12.010700
- symbol: N # 3
  coordinates: [  0.333332985432215,  0.666666983183674,  0.618925107227791 ]
  mass: 14.006700
- symbol: N # 4
  coordinates: [  0.666666984744047,  0.333332985985145,  0.435616063084054 ]
  mass: 14.006700
- symbol: O # 5
  coordinates: [  0.333332985432215,  0.666666983183674,  0.667954188173321 ]
  mass: 15.999400
- symbol: S # 6
  coordinates: [  0.666666984744047,  0.333332985985145,  0.332045811826679 ]
  mass: 32.065000
- symbol: Zr # 7
  coordinates: [  0.333332985432215,  0.666666983183674,  0.487094416249724 ]
  mass: 91.224000
- symbol: Zr # 8
  coordinates: [  0.666666984744047,  0.333332985985145,  0.582966990172908 ]
  mass: 91.224000

phonon:
- q-position: [    0.0000000,    0.0000000,    0.0000000 ]
  distance:    0.0000000
  band:
  - # 1
    frequency:   -4.7761562711
  - # 2
    frequency:   -4.7761562711
  - # 3
    frequency:   -0.0000027815
  - # 4
    frequency:    0.0000008033
  - # 5
    frequency:    0.0000029994
  - # 6
    frequency:    0.6647289504
  - # 7
    frequency:    0.6647289504
  - # 8
    frequency:    3.6340268751
  - # 9
    frequency:    3.6340268751
  - # 10
    frequency:    4.8518925426
  - # 11
    frequency:    6.0822065218
  - # 12
    frequency:    6.0822065218
  - # 13
    frequency:    7.4827574529
  - # 14
    frequency:    8.5341232666
  - # 15
    frequency:   10.9408557472
  - # 16
    frequency:   10.9408557472
  - # 17
    frequency:   13.9134040980
  - # 18
    frequency:   13.9134040980
  - # 19
    frequency:   14.7046861962
  - # 20
    frequency:   14.7046861962
  - # 21
    frequency:   15.6935991205
  - # 22
    frequency:   27.0761737695
  - # 23
    frequency:   38.9782861886
  - # 24
    frequency:   57.7953661725

- q-position: [    0.0050505,    0.0000000,    0.0000000 ]
  distance:    0.0016960
  band:
  - # 1
    frequency:   -4.7766076832
  - # 2
    frequency:   -4.7755182616
  - # 3
    frequency:   -0.0403178079
  - # 4
    frequency:    0.0633865990
  - # 5
    frequency:    0.1126596113
  - # 6
    frequency:    0.6662943031
  - # 7
    frequency:    0.6706079338
  - # 8
    frequency:    3.6344843253
  - # 9
    frequency:    3.6351753625
  - # 10
    frequency:    4.8517739331
  - # 11
    frequency:    6.0822463750
  - # 12
    frequency:    6.0831475156
  - # 13
    frequency:    7.4826397592
  - # 14
    frequency:    8.5330373175
  - # 15
    frequency:   10.9405996186
  - # 16
    frequency:   10.9406800282
  - # 17
    frequency:   13.9133964819
  - # 18
    frequency:   13.9136912581
  - # 19
    frequency:   14.7045550384
  - # 20
    frequency:   14.7048468065
  - # 21
    frequency:   15.6939347728
  - # 22
    frequency:   27.0760790015
  - # 23
    frequency:   38.9775859577
  - # 24
    frequency:   57.7942985194

- q-position: [    0.0101010,    0.0000000,    0.0000000 ]
  distance:    0.0033920
  band:
  - # 1
    frequency:   -4.7779608362
  - # 2
    frequency:   -4.7736042542
  - # 3
    frequency:   -0.0557399596
  - # 4
    frequency:    0.1266899666
  - # 5
    frequency:    0.2177554996
  - # 6
    frequency:    0.6709827877
  - # 7
    frequency:    0.6879136652
  - # 8
    frequency:    3.6358555387
  - # 9
    frequency:    3.6386135042
  - # 10
    frequency:    4.8514200824
  - # 11
    frequency:    6.0823660234
  - # 12
    frequency:    6.0859648614
  - # 13
    frequency:    7.4822862963
  - # 14
    frequency:    8.5297865487
  - # 15
    frequency:   10.9398328777
  - # 16
    frequency:   10.9401535772
  - # 17
    frequency:   13.9133737157
  - # 18
    frequency:   13.9145535323
  - # 19
    frequency:   14.7041613649
  - # 20
    frequency:   14.7053286899
  - # 21
    frequency:   15.6949382921
  - # 22
    frequency:   27.0757947693
  - # 23
    frequency:   38.9754867720
  - # 24
    frequency:   57.7910981820

- q-position: [    0.0151515,    0.0000000,    0.0000000 ]
  distance:    0.0050880
  band:
  - # 1
    frequency:   -4.7802124868
  - # 2
    frequency:   -4.7704142837
  - # 3
    frequency:   -0.0706275447
  - # 4
    frequency:    0.1898186801
  - # 5
    frequency:    0.3236705350
  - # 6
    frequency:    0.6787743987
  - # 7
    frequency:    0.7157931599
  - # 8
    frequency:    3.6381371108
  - # 9
    frequency:    3.6443195109
  - # 10
    frequency:    4.8508368780
  - # 11
    frequency:    6.0825657341
  - # 12
    frequency:    6.0906417471
  - # 13
    frequency:    7.4816959255
  - # 14
    frequency:    8.5243921241
  - # 15
    frequency:   10.9385604800
  - # 16
    frequency:   10.9392785089
  - # 17
    frequency:   13.9133360441
  - # 18
    frequency:   13.9159932515
  - # 19
    frequency:   14.7035045837
  - # 20
    frequency:   14.7061320061
  - # 21
    frequency:   15.6965994322
  - # 22
    frequency:   27.0753212896
  - # 23
    frequency:   38.9719931468
  - # 24
    frequency:   57.7857730149

- q-position: [    0.0202020,    0.0000000,    0.0000000 ]
  distance:    0.0067841
  band:
  - # 1
    frequency:   -4.7833572539
  - # 2
    frequency:   -4.7659483137
  - # 3
    frequency:   -0.0821850724
  - # 4
    frequency:    0.2526636559
  - # 5
    frequency:    0.4289843305
  - # 6
    frequency:    0.6896449339
  - # 7
    frequency:    0.7532019660
  - # 8
    frequency:    3.6413233934
  - # 9
    frequency:    3.6522576318
  - # 10
    frequency:    4.8500339825
  - # 11
    frequency:    6.0828459567
  - # 12
    frequency:    6.0971504644
  - # 13
    frequency:    7.4808667735
  - # 14
    frequency:    8.5168890791
  - # 15
    frequency:   10.9367907549
  - # 16
    frequency:   10.9380583373
  - # 17
    frequency:   13.9132838692
  - # 18
    frequency:   13.9180141352
  - # 19
    frequency:   14.7025837338
  - # 20
    frequency:   14.7072570286
  - # 21
    frequency:   15.6989013340
  - # 22
    frequency:   27.0746589260
  - # 23
    frequency:   38.9671125848
  - # 24
    frequency:   57.7783360684

- q-position: [    0.0252525,    0.0000000,    0.0000000 ]
  distance:    0.0084801
  band:
  - # 1
    frequency:   -4.7873876553
  - # 2
    frequency:   -4.7602060985
  - # 3
    frequency:   -0.0885125014
  - # 4
    frequency:    0.3150859239
  - # 5
    frequency:    0.5328402914
  - # 6
    frequency:    0.7035800898
  - # 7
    frequency:    0.7992586044
  - # 8
    frequency:    3.6454065310
  - # 9
    frequency:    3.6623789677
  - # 10
    frequency:    4.8490246222
  - # 11
    frequency:    6.0832073292
  - # 12
    frequency:    6.1054528622
  - # 13
    frequency:    7.4797962681
  - # 14
    frequency:    8.5073259688
  - # 15
    frequency:   10.9345355035
  - # 16
    frequency:   10.9364979591
  - # 17
    frequency:   13.9132177426
  - # 18
    frequency:   13.9206210516
  - # 19
    frequency:   14.7013975230
  - # 20
    frequency:   14.7087041569
  - # 21
    frequency:   15.7018208434
  - # 22
    frequency:   27.0738081935
  - # 23
    frequency:   38.9608555436
  - # 24
    frequency:   57.7688055279

- q-position: [    0.0303030,    0.0000000,    0.0000000 ]
  distance:    0.0101761
  band:
  - # 1
    frequency:   -4.7922941561
  - # 2
    frequency:   -4.7531869953
  - # 3
    frequency:   -0.0876988032
  - # 4
    frequency:    0.3768998443
  - # 5
    frequency:    0.6342223707
  - # 6
    frequency:    0.7205961207
  - # 7
    frequency:    0.8535347047
  - # 8
    frequency:    3.6503765134
  - # 9
    frequency:    3.6746225461
  - # 10
    frequency:    4.8478253160
  - # 11
    frequency:    6.0836506859
  - # 12
    frequency:    6.1155009553
  - # 13
    frequency:    7.4784811880
  - # 14
    frequency:    8.4957643881
  - # 15
    frequency:   10.9318101264
  - # 16
    frequency:   10.9346036325
  - # 17
    frequency:   13.9131383539
  - # 18
    frequency:   13.9238196964
  - # 19
    frequency:   14.6999443803
  - # 20
    frequency:   14.7104739342
  - # 21
    frequency:   15.7053289423
  - # 22
    frequency:   27.0727697643
  - # 23
    frequency:   38.9532353894
  - # 24
    frequency:   57.7572046307

- q-position: [    0.0353535,    0.0000000,    0.0000000 ]
  distance:    0.0118721
  band:
  - # 1
    frequency:   -4.7980652315
  - # 2
    frequency:   -4.7448897326
  - # 3
    frequency:   -0.0763555217
  - # 4
    frequency:    0.4378498652
  - # 5
    frequency:    0.7317248239
  - # 6
    frequency:    0.7407679626
  - # 7
    frequency:    0.9162345044
  - # 8
    frequency:    3.6562212408
  - # 9
    frequency:    3.6889166022
  - # 10
    frequency:    4.8464555668
  - # 11
    frequency:    6.0841770670
  - # 12
    frequency:    6.1272376638
  - # 13
    frequency:    7.4769177256
  - # 14
    frequency:    8.4822783723
  - # 15
    frequency:   10.9286337684
  - # 16
    frequency:   10.9323829490
  - # 17
    frequency:   13.9130465170
  - # 18
    frequency:   13.9276162070
  - # 19
    frequency:   14.6982225206
  - # 20
    frequency:   14.7125670720
  - # 21
    frequency:   15.7093912755
  - # 22
    frequency:   27.0715444745
  - # 23
    frequency:   38.9442683383
  - # 24
    frequency:   57.7435615578

- q-position: [    0.0404040,    0.0000000,    0.0000000 ]
  distance:    0.0135681
  band:
  - # 1
    frequency:   -4.8046874389
  - # 2
    frequency:   -4.7353121424
  - # 3
    frequency:   -0.0422637536
  - # 4
    frequency:    0.4975802256
  - # 5
    frequency:    0.7642646009
  - # 6
    frequency:    0.8236772142
  - # 7
    frequency:    0.9880392301
  - # 8
    frequency:    3.6629266024
  - # 9
    frequency:    3.7051800015
  - # 10
    frequency:    4.8449375393
  - # 11
    frequency:    6.0847877287
  - # 12
    frequency:    6.1405976580
  - # 13
    frequency:    7.4751015612
  - # 14
    frequency:    8.4669536917
  - # 15
    frequency:   10.9250294705
  - # 16
    frequency:   10.9298448010
  - # 17
    frequency:   13.9129431546
  - # 18
    frequency:   13.9320167263
  - # 19
    frequency:   14.6962300215
  - # 20
    frequency:   14.7149844822
  - # 21
    frequency:   15.7139687582
  - # 22
    frequency:   27.0701333331
  - # 23
    frequency:   38.9339733851
  - # 24
    frequency:   57.7279093052

- q-position: [    0.0454545,    0.0000000,    0.0000000 ]
  distance:    0.0152641
  band:
  - # 1
    frequency:   -4.8121454999
  - # 2
    frequency:   -4.7244508636
  - # 3
    frequency:    0.0699666032
  - # 4
    frequency:    0.5556029859
  - # 5
    frequency:    0.7913857126
  - # 6
    frequency:    0.9090019329
  - # 7
    frequency:    1.0692139363
  - # 8
    frequency:    3.6704765658
  - # 9
    frequency:    3.7233237388
  - # 10
    frequency:    4.8432957478
  - # 11
    frequency:    6.0854841535
  - # 12
    frequency:    6.1555082811
  - # 13
    frequency:    7.4730279491
  - # 14
    frequency:    8.4498870540
  - # 15
    frequency:   10.9210243166
  - # 16
    frequency:   10.9269993442
  - # 17
    frequency:   13.9128292801
  - # 18
    frequency:   13.9370269353
  - # 19
    frequency:   14.6939649102
  - # 20
    frequency:   14.7177273185
  - # 21
    frequency:   15.7190182446
  - # 22
    frequency:   27.0685375316
  - # 23
    frequency:   38.9223722203
  - # 24
    frequency:   57.7102855328

- q-position: [    0.0505051,    0.0000000,    0.0000000 ]
  distance:    0.0169601
  band:
  - # 1
    frequency:   -4.8204223905
  - # 2
    frequency:   -4.7123010263
  - # 3
    frequency:    0.1211217976
  - # 4
    frequency:    0.6112866448
  - # 5
    frequency:    0.8225769652
  - # 6
    frequency:    0.9882658382
  - # 7
    frequency:    1.1585210523
  - # 8
    frequency:    3.6788532781
  - # 9
    frequency:    3.7432524494
  - # 10
    frequency:    4.8415567781
  - # 11
    frequency:    6.0862680595
  - # 12
    frequency:    6.1718905268
  - # 13
    frequency:    7.4706918115
  - # 14
    frequency:    8.4311852299
  - # 15
    frequency:   10.9166495621
  - # 16
    frequency:   10.9238579558
  - # 17
    frequency:   13.9127059787
  - # 18
    frequency:   13.9426515732
  - # 19
    frequency:   14.6914252586
  - # 20
    frequency:   14.7207970266
  - # 21
    frequency:   15.7244932389
  - # 22
    frequency:   27.0667584545
  - # 23
    frequency:   38.9094891360
  - # 24
    frequency:   57.6907323924

- q-position: [    0.0555556,    0.0000000,    0.0000000 ]
  distance:    0.0186561
  band:
  - # 1
    frequency:   -4.8294994362
  - # 2
    frequency:   -4.6988559260
  - # 3
    frequency:    0.1673392866
  - # 4
    frequency:    0.6639172826
  - # 5
    frequency:    0.8583718853
  - # 6
    frequency:    1.0633201540
  - # 7
    frequency:    1.2535504942
  - # 8
    frequency:    3.6880371762
  - # 9
    frequency:    3.7648658752
  - # 10
    frequency:    4.8397490611
  - # 11
    frequency:    6.0871414090
  - # 12
    frequency:    6.1896600459
  - # 13
    frequency:    7.4680878402
  - # 14
    frequency:    8.4109641147
  - # 15
    frequency:   10.9119407351
  - # 16
    frequency:   10.9204331901
  - # 17
    frequency:   13.9125743883
  - # 18
    frequency:   13.9488939615
  - # 19
    frequency:   14.6886092849
  - # 20
    frequency:   14.7241954041
  - # 21
    frequency:   15.7303446283
  - # 22
    frequency:   27.0647976915
  - # 23
    frequency:   38.8953509209
  - # 24
    frequency:   57.6692963372

- q-position: [    0.0606061,    0.0000000,    0.0000000 ]
  distance:    0.0203522
  band:
  - # 1
    frequency:   -4.8393564123
  - # 2
    frequency:   -4.6841066985
  - # 3
    frequency:    0.2129836076
  - # 4
    frequency:    0.7128918568
  - # 5
    frequency:    0.8992006664
  - # 6
    frequency:    1.1360047694
  - # 7
    frequency:    1.3519910761
  - # 8
    frequency:    3.6980071053
  - # 9
    frequency:    3.7880602353
  - # 10
    frequency:    4.8379027146
  - # 11
    frequency:    6.0881064131
  - # 12
    frequency:    6.2087281666
  - # 13
    frequency:    7.4652106030
  - # 14
    frequency:    8.3893477447
  - # 15
    frequency:   10.9069376998
  - # 16
    frequency:   10.9167387301
  - # 17
    frequency:   13.9124356793
  - # 18
    frequency:   13.9557555496
  - # 19
    frequency:   14.6855154599
  - # 20
    frequency:   14.7279246703
  - # 21
    frequency:   15.7365214206
  - # 22
    frequency:   27.0626570496
  - # 23
    frequency:   38.8799867447
  - # 24
    frequency:   57.6460279123

- q-position: [    0.0656566,    0.0000000,    0.0000000 ]
  distance:    0.0220482
  band:
  - # 1
    frequency:   -4.8499716449
  - # 2
    frequency:   -4.6680420042
  - # 3
    frequency:    0.2592776193
  - # 4
    frequency:    0.7580000591
  - # 5
    frequency:    0.9451096034
  - # 6
    frequency:    1.2075377137
  - # 7
    frequency:    1.4522218882
  - # 8
    frequency:    3.7087404441
  - # 9
    frequency:    3.8127294602
  - # 10
    frequency:    4.8360494663
  - # 11
    frequency:    6.0891655346
  - # 12
    frequency:    6.2290029098
  - # 13
    frequency:    7.4620546525
  - # 14
    frequency:    8.3664672785
  - # 15
    frequency:   10.9016846756
  - # 16
    frequency:   10.9127893372
  - # 17
    frequency:   13.9122910352
  - # 18
    frequency:   13.9632354941
  - # 19
    frequency:   14.6821426163
  - # 20
    frequency:   14.7319875445
  - # 21
    frequency:   15.7429714710
  - # 22
    frequency:   27.0603385658
  - # 23
    frequency:   38.8634280342
  - # 24
    frequency:   57.6209815288

- q-position: [    0.0707071,    0.0000000,    0.0000000 ]
  distance:    0.0237442
  band:
  - # 1
    frequency:   -4.8613221136
  - # 2
    frequency:   -4.6506477329
  - # 3
    frequency:    0.3067030204
  - # 4
    frequency:    0.7995705606
  - # 5
    frequency:    0.9956154664
  - # 6
    frequency:    1.2785871581
  - # 7
    frequency:    1.5532253497
  - # 8
    frequency:    3.7202132364
  - # 9
    frequency:    3.8387662594
  - # 10
    frequency:    4.8342226646
  - # 11
    frequency:    6.0903214853
  - # 12
    frequency:    6.2503899904
  - # 13
    frequency:    7.4586146323
  - # 14
    frequency:    8.3424599600
  - # 15
    frequency:   10.8962302083
  - # 16
    frequency:   10.9086007999
  - # 17
    frequency:   13.9121416337
  - # 18
    frequency:   13.9713302841
  - # 19
    frequency:   14.6784900580
  - # 20
    frequency:   14.7363873324
  - # 21
    frequency:   15.7496421818
  - # 22
    frequency:   27.0578445202
  - # 23
    frequency:   38.8457083395
  - # 24
    frequency:   57.5942152226

- q-position: [    0.0757576,    0.0000000,    0.0000000 ]
  distance:    0.0254402
  band:
  - # 1
    frequency:   -4.8733835512
  - # 2
    frequency:   -4.6319067376
  - # 3
    frequency:    0.3554684288
  - # 4
    frequency:    0.8383161866
  - # 5
    frequency:    1.0498604290
  - # 6
    frequency:    1.3494830074
  - # 7
    frequency:    1.6543639651
  - # 8
    frequency:    3.7324003264
  - # 9
    frequency:    3.8660629984
  - # 10
    frequency:    4.8324573844
  - # 11
    frequency:    6.0915772186
  - # 12
    frequency:    6.2727937929
  - # 13
    frequency:    7.4548853800
  - # 14
    frequency:    8.3174680741
  - # 15
    frequency:   10.8906270900
  - # 16
    frequency:   10.9041898804
  - # 17
    frequency:   13.9119886286
  - # 18
    frequency:   13.9800334208
  - # 19
    frequency:   14.6745576690
  - # 20
    frequency:   14.7411280185
  - # 21
    frequency:   15.7564811648
  - # 22
    frequency:   27.0551774493
  - # 23
    frequency:   38.8268631938
  - # 24
    frequency:   57.5657903984

- q-position: [    0.0808081,    0.0000000,    0.0000000 ]
  distance:    0.0271362
  band:
  - # 1
    frequency:   -4.8861305419
  - # 2
    frequency:   -4.6117986047
  - # 3
    frequency:    0.4056564118
  - # 4
    frequency:    0.8750317894
  - # 5
    frequency:    1.1069139253
  - # 6
    frequency:    1.4203698759
  - # 7
    frequency:    1.7552182417
  - # 8
    frequency:    3.7452754974
  - # 9
    frequency:    3.8945123704
  - # 10
    frequency:    4.8307906306
  - # 11
    frequency:    6.0929359167
  - # 12
    frequency:    6.2961183163
  - # 13
    frequency:    7.4508620198
  - # 14
    frequency:    8.2916379081
  - # 15
    frequency:   10.8849322301
  - # 16
    frequency:   10.8995742608
  - # 17
    frequency:   13.9118331341
  - # 18
    frequency:   13.9893351566
  - # 19
    frequency:   14.6703460187
  - # 20
    frequency:   14.7462143614
  - # 21
    frequency:   15.7634368573
  - # 22
    frequency:   27.0523401583
  - # 23
    frequency:   38.8069299652
  - # 24
    frequency:   57.5357715628

- q-position: [    0.0858586,    0.0000000,    0.0000000 ]
  distance:    0.0288322
  band:
  - # 1
    frequency:   -4.8995366134
  - # 2
    frequency:   -4.5902994699
  - # 3
    frequency:    0.4572824659
  - # 4
    frequency:    0.9103866977
  - # 5
    frequency:    1.1659796834
  - # 6
    frequency:    1.4912945154
  - # 7
    frequency:    1.8554921147
  - # 8
    frequency:    3.7588116124
  - # 9
    frequency:    3.9240078520
  - # 10
    frequency:    4.8292616425
  - # 11
    frequency:    6.0944009700
  - # 12
    frequency:    6.3202680791
  - # 13
    frequency:    7.4465400421
  - # 14
    frequency:    8.2651187292
  - # 15
    frequency:   10.8792064786
  - # 16
    frequency:   10.8947724897
  - # 17
    frequency:   13.9116762092
  - # 18
    frequency:   13.9992222978
  - # 19
    frequency:   14.6658564631
  - # 20
    frequency:   14.7516519906
  - # 21
    frequency:   15.7704590844
  - # 22
    frequency:   27.0493357340
  - # 23
    frequency:   38.7859477033
  - # 24
    frequency:   57.5042260459

- q-position: [    0.0909091,    0.0000000,    0.0000000 ]
  distance:    0.0305282
  band:
  - # 1
    frequency:   -4.9135743246
  - # 2
    frequency:   -4.5673818831
  - # 3
    frequency:    0.5103228468
  - # 4
    frequency:    0.9448660086
  - # 5
    frequency:    1.2264537656
  - # 6
    frequency:    1.5622527313
  - # 7
    frequency:    1.9549604037
  - # 8
    frequency:    3.7729807552
  - # 9
    frequency:    3.9544439357
  - # 10
    frequency:    4.8279123019
  - # 11
    frequency:    6.0959759507
  - # 12
    frequency:    6.3451489800
  - # 13
    frequency:    7.4419153659
  - # 14
    frequency:    8.2380617887
  - # 15
    frequency:   10.8735144082
  - # 16
    frequency:   10.8898039279
  - # 17
    frequency:   13.9115188451
  - # 18
    frequency:   14.0096780701
  - # 19
    frequency:   14.6610912396
  - # 20
    frequency:   14.7574474995
  - # 21
    frequency:   15.7774995636
  - # 22
    frequency:   27.0461675555
  - # 23
    frequency:   38.7639569805
  - # 24
    frequency:   57.4712237145

- q-position: [    0.0959596,    0.0000000,    0.0000000 ]
  distance:    0.0322242
  band:
  - # 1
    frequency:   -4.9282153461
  - # 2
    frequency:   -4.5430147292
  - # 3
    frequency:    0.5647293962
  - # 4
    frequency:    0.9787932347
  - # 5
    frequency:    1.2879011819
  - # 6
    frequency:    1.6332143206
  - # 7
    frequency:    2.0534394303
  - # 8
    frequency:    3.7877543718
  - # 9
    frequency:    3.9857161339
  - # 10
    frequency:    4.8267876488
  - # 11
    frequency:    6.0976645781
  - # 12
    frequency:    6.3706691035
  - # 13
    frequency:    7.4369843803
  - # 14
    frequency:    8.2106193633
  - # 15
    frequency:   10.8679240607
  - # 16
    frequency:   10.8846886949
  - # 17
    frequency:   13.9113619541
  - # 18
    frequency:   14.0206820485
  - # 19
    frequency:   14.6560535544
  - # 20
    frequency:   14.7636085301
  - # 21
    frequency:   15.7845123511
  - # 22
    frequency:   27.0428393056
  - # 23
    frequency:   38.7409997295
  - # 24
    frequency:   57.4368366783

- q-position: [    0.1010101,    0.0000000,    0.0000000 ]
  distance:    0.0339203
  band:
  - # 1
    frequency:   -4.9434305337
  - # 2
    frequency:   -4.5171632057
  - # 3
    frequency:    0.6204382323
  - # 4
    frequency:    1.0123734243
  - # 5
    frequency:    1.3500120103
  - # 6
    frequency:    1.7041364165
  - # 7
    frequency:    2.1507701672
  - # 8
    frequency:    3.8031034089
  - # 9
    frequency:    4.0177207485
  - # 10
    frequency:    4.8259365103
  - # 11
    frequency:    6.0994706759
  - # 12
    frequency:    6.3967394610
  - # 13
    frequency:    7.4317439619
  - # 14
    frequency:    8.1829438410
  - # 15
    frequency:   10.8625066652
  - # 16
    frequency:   10.8794476162
  - # 17
    frequency:   13.9112063603
  - # 18
    frequency:   14.0322101486
  - # 19
    frequency:   14.6507476608
  - # 20
    frequency:   14.7701438456
  - # 21
    frequency:   15.7914542283
  - # 22
    frequency:   27.0393549792
  - # 23
    frequency:   38.7171190779
  - # 24
    frequency:   57.4011389903

- q-position: [    0.1060606,    0.0000000,    0.0000000 ]
  distance:    0.0356163
  band:
  - # 1
    frequency:   -4.9591899940
  - # 2
    frequency:   -4.4897888596
  - # 3
    frequency:    0.6773752458
  - # 4
    frequency:    1.0457312000
  - # 5
    frequency:    1.4125626177
  - # 6
    frequency:    1.7749706828
  - # 7
    frequency:    2.2468082902
  - # 8
    frequency:    3.8189984516
  - # 9
    frequency:    4.0503544006
  - # 10
    frequency:    4.8254122482
  - # 11
    frequency:    6.1013981225
  - # 12
    frequency:    6.4232746512
  - # 13
    frequency:    7.4261914699
  - # 14
    frequency:    8.1551868623
  - # 15
    frequency:   10.8573363350
  - # 16
    frequency:   10.8741021701
  - # 17
    frequency:   13.9110527926
  - # 18
    frequency:   14.0442346764
  - # 19
    frequency:   14.6451789285
  - # 20
    frequency:   14.7770633840
  - # 21
    frequency:   15.7982850313
  - # 22
    frequency:   27.0357188918
  - # 23
    frequency:   38.6923591806
  - # 24
    frequency:   57.3642063448

- q-position: [    0.1111111,    0.0000000,    0.0000000 ]
  distance:    0.0373123
  band:
  - # 1
    frequency:   -4.9754631435
  - # 2
    frequency:   -4.4608496813
  - # 3
    frequency:    0.7354597905
  - # 4
    frequency:    1.0789383468
  - # 5
    frequency:    1.4753873750
  - # 6
    frequency:    1.8456671959
  - # 7
    frequency:    2.3414181630
  - # 8
    frequency:    3.8354098570
  - # 9
    frequency:    4.0835133115
  - # 10
    frequency:    4.8252736356
  - # 11
    frequency:    6.1034507931
  - # 12
    frequency:    6.4501934219
  - # 13
    frequency:    7.4203247213
  - # 14
    frequency:    8.1274985205
  - # 15
    frequency:   10.8524897532
  - # 16
    frequency:   10.8686744362
  - # 17
    frequency:   13.9109018794
  - # 18
    frequency:   14.0567244357
  - # 19
    frequency:   14.6393539016
  - # 20
    frequency:   14.7843782856
  - # 21
    frequency:   15.8049679267
  - # 22
    frequency:   27.0319356851
  - # 23
    frequency:   38.6667650520
  - # 24
    frequency:   57.3261157732

- q-position: [    0.1161616,    0.0000000,    0.0000000 ]
  distance:    0.0390083
  band:
  - # 1
    frequency:   -4.9922187596
  - # 2
    frequency:   -4.4303002552
  - # 3
    frequency:    0.7946072819
  - # 4
    frequency:    1.1120323811
  - # 5
    frequency:    1.5383594460
  - # 6
    frequency:    1.9161765122
  - # 7
    frequency:    2.4344691606
  - # 8
    frequency:    3.8523078830
  - # 9
    frequency:    4.1170923279
  - # 10
    frequency:    4.8255858688
  - # 11
    frequency:    6.1056324943
  - # 12
    frequency:    6.4774191068
  - # 13
    frequency:    7.4141419563
  - # 14
    frequency:    8.1000266280
  - # 15
    frequency:   10.8480458523
  - # 16
    frequency:   10.8631870429
  - # 17
    frequency:   13.9107541452
  - # 18
    frequency:   14.0696448892
  - # 19
    frequency:   14.6332803460
  - # 20
    frequency:   14.7921008882
  - # 21
    frequency:   15.8114696370
  - # 22
    frequency:   27.0280103312
  - # 23
    frequency:   38.6403823980
  - # 24
    frequency:   57.2869453403

- q-position: [    0.1212121,    0.0000000,    0.0000000 ]
  distance:    0.0407043
  band:
  - # 1
    frequency:   -5.0094250256
  - # 2
    frequency:   -4.3980919600
  - # 3
    frequency:    0.8547310927
  - # 4
    frequency:    1.1450287024
  - # 5
    frequency:    1.6013780609
  - # 6
    frequency:    1.9864507290
  - # 7
    frequency:    2.5258334551
  - # 8
    frequency:    3.8696628135
  - # 9
    frequency:    4.1509836886
  - # 10
    frequency:    4.8264217191
  - # 11
    frequency:    6.1079468931
  - # 12
    frequency:    6.5048799061
  - # 13
    frequency:    7.4076418116
  - # 14
    frequency:    8.0729160493
  - # 15
    frequency:   10.8440854958
  - # 16
    frequency:   10.8576631162
  - # 17
    frequency:   13.9106100086
  - # 18
    frequency:   14.0829583732
  - # 19
    frequency:   14.6269672846
  - # 20
    frequency:   14.8002446814
  - # 21
    frequency:   15.8177606225
  - # 22
    frequency:   27.0239481350
  - # 23
    frequency:   38.6132574493
  - # 24
    frequency:   57.2467738426

- q-position: [    0.1262626,    0.0000000,    0.0000000 ]
  distance:    0.0424003
  band:
  - # 1
    frequency:   -5.0270495699
  - # 2
    frequency:   -4.3641732155
  - # 3
    frequency:    0.9157439753
  - # 4
    frequency:    1.1779284851
  - # 5
    frequency:    1.6643601145
  - # 6
    frequency:    2.0564439835
  - # 7
    frequency:    2.6153847742
  - # 8
    frequency:    3.8874450770
  - # 9
    frequency:    4.1850755366
  - # 10
    frequency:    4.8278628175
  - # 11
    frequency:    6.1103974389
  - # 12
    frequency:    6.5325089709
  - # 13
    frequency:    7.4008233290
  - # 14
    frequency:    8.0463080986
  - # 15
    frequency:   10.8406911668
  - # 16
    frequency:   10.8521262276
  - # 17
    frequency:   13.9104697826
  - # 18
    frequency:   14.0966243631
  - # 19
    frequency:   14.6204250205
  - # 20
    frequency:   14.8088242119
  - # 21
    frequency:   15.8238152241
  - # 22
    frequency:   27.0197547334
  - # 23
    frequency:   38.5854367970
  - # 24
    frequency:   57.2056805104

- q-position: [    0.1313131,    0.0000000,    0.0000000 ]
  distance:    0.0440963
  band:
  - # 1
    frequency:   -5.0450595008
  - # 2
    frequency:   -4.3284897661
  - # 3
    frequency:    0.9775591509
  - # 4
    frequency:    1.2107238140
  - # 5
    frequency:    1.7272345871
  - # 6
    frequency:    2.1261126391
  - # 7
    frequency:    2.7029978532
  - # 8
    frequency:    3.9056253591
  - # 9
    frequency:    4.2192502058
  - # 10
    frequency:    4.8300010459
  - # 11
    frequency:    6.1129872810
  - # 12
    frequency:    6.5602442440
  - # 13
    frequency:    7.3936860410
  - # 14
    frequency:    8.0203399943
  - # 15
    frequency:   10.8379466690
  - # 16
    frequency:   10.8466003412
  - # 17
    frequency:   13.9103336757
  - # 18
    frequency:   14.1105997911
  - # 19
    frequency:   14.6136651477
  - # 20
    frequency:   14.8178549310
  - # 21
    frequency:   15.8296117728
  - # 22
    frequency:   27.0154360932
  - # 23
    frequency:   38.5569672320
  - # 24
    frequency:   57.1637447159

- q-position: [    0.1363636,    0.0000000,    0.0000000 ]
  distance:    0.0457924
  band:
  - # 1
    frequency:   -5.0634214383
  - # 2
    frequency:   -4.2909849925
  - # 3
    frequency:    1.0400911558
  - # 4
    frequency:    1.2434010457
  - # 5
    frequency:    1.7899388030
  - # 6
    frequency:    2.1954153000
  - # 7