nqpoint: 300    
npath: 3      
segment_nqpoint:
- 100
- 100
- 100
labels:
- [ 'G', 'M' ]
- [ 'M', 'K' ]
- [ 'K', 'G' ]
reciprocal_lattice:
- [   0.29637590,   0.17111271,   0.00000000 ] # a*
- [   0.00000000,   0.34222541,   0.00000000 ] # b*
- [   0.00000000,   0.00000000,   0.03692186 ] # c*
natom: 8      
lattice:
- [     3.374093495849620,     0.000000000000000,     0.000000000000000 ] # a
- [    -1.687046747924810,     2.922050682128229,     0.000000000000000 ] # b
- [     0.000000000000000,     0.000000000000000,    27.084226017866239 ] # c
points:
- symbol: C # 1
  coordinates: [  0.333332985432215,  0.666666983183674,  0.623762087646857 ]
  mass: 12.010700
- symbol: H # 2
  coordinates: [  0.666666984744047,  0.333332985985145,  0.332296739587947 ]
  mass: 1.007940
- symbol: N # 3
  coordinates: [  0.000000000000000,  0.000000000000000,  0.456135270703637 ]
  mass: 14.006700
- symbol: N # 4
  coordinates: [  0.333332985432215,  0.666666983183674,  0.667703260412053 ]
  mass: 14.006700
- symbol: O # 5
  coordinates: [  0.666666984744047,  0.333332985985145,  0.368675648195392 ]
  mass: 15.999400
- symbol: S # 6
  coordinates: [  0.333332985432215,  0.666666983183674,  0.561968455230871 ]
  mass: 32.065000
- symbol: Sc # 7
  coordinates: [  0.333332985432215,  0.666666983183674,  0.413115176782454 ]
  mass: 44.955912
- symbol: Sc # 8
  coordinates: [  0.666666984744047,  0.333332985985145,  0.501444508998245 ]
  mass: 44.955912

phonon:
- q-position: [    0.0000000,    0.0000000,    0.0000000 ]
  distance:    0.0000000
  band:
  - # 1
    frequency:   -0.0000236070
  - # 2
    frequency:    0.0000002793
  - # 3
    frequency:    0.0000256218
  - # 4
    frequency:    1.6144712436
  - # 5
    frequency:    1.6144712437
  - # 6
    frequency:    3.7581147270
  - # 7
    frequency:    3.7581147271
  - # 8
    frequency:    5.5774011633
  - # 9
    frequency:    7.2754469659
  - # 10
    frequency:    7.2754469659
  - # 11
    frequency:    7.6257461754
  - # 12
    frequency:    7.6257461755
  - # 13
    frequency:    9.7015545984
  - # 14
    frequency:   10.2861890460
  - # 15
    frequency:   10.2861890460
  - # 16
    frequency:   11.7849698071
  - # 17
    frequency:   11.7849698072
  - # 18
    frequency:   11.8582381927
  - # 19
    frequency:   12.7252217240
  - # 20
    frequency:   13.7532946789
  - # 21
    frequency:   13.7532946790
  - # 22
    frequency:   20.7320799961
  - # 23
    frequency:   65.1221203083
  - # 24
    frequency:  113.4481015304

- q-position: [    0.0050505,    0.0000000,    0.0000000 ]
  distance:    0.0017284
  band:
  - # 1
    frequency:   -0.0645609159
  - # 2
    frequency:   -0.0495402973
  - # 3
    frequency:    0.0018102191
  - # 4
    frequency:    1.6174814129
  - # 5
    frequency:    1.6185474005
  - # 6
    frequency:    3.7586286792
  - # 7
    frequency:    3.7597349802
  - # 8
    frequency:    5.5771313109
  - # 9
    frequency:    7.2747794502
  - # 10
    frequency:    7.2752455974
  - # 11
    frequency:    7.6257054375
  - # 12
    frequency:    7.6259006319
  - # 13
    frequency:    9.7010579024
  - # 14
    frequency:   10.2862626705
  - # 15
    frequency:   10.2862943497
  - # 16
    frequency:   11.7783541870
  - # 17
    frequency:   11.7855170193
  - # 18
    frequency:   11.8634031459
  - # 19
    frequency:   12.7254994542
  - # 20
    frequency:   13.7526951875
  - # 21
    frequency:   13.7531893418
  - # 22
    frequency:   20.7320039933
  - # 23
    frequency:   65.1220214635
  - # 24
    frequency:  113.4470261357

- q-position: [    0.0101010,    0.0000000,    0.0000000 ]
  distance:    0.0034568
  band:
  - # 1
    frequency:   -0.1276890540
  - # 2
    frequency:   -0.0982511908
  - # 3
    frequency:    0.0072385458
  - # 4
    frequency:    1.6264213100
  - # 5
    frequency:    1.6306068234
  - # 6
    frequency:    3.7601712999
  - # 7
    frequency:    3.7645841894
  - # 8
    frequency:    5.5763235216
  - # 9
    frequency:    7.2727818419
  - # 10
    frequency:    7.2746410528
  - # 11
    frequency:    7.6255788667
  - # 12
    frequency:    7.6263642362
  - # 13
    frequency:    9.6995673462
  - # 14
    frequency:   10.2864812208
  - # 15
    frequency:   10.2866088500
  - # 16
    frequency:   11.7621385904
  - # 17
    frequency:   11.7871575028
  - # 18
    frequency:   11.8752570099
  - # 19
    frequency:   12.7263270615
  - # 20
    frequency:   13.7509200170
  - # 21
    frequency:   13.7528730454
  - # 22
    frequency:   20.7317760219
  - # 23
    frequency:   65.1217250761
  - # 24
    frequency:  113.4438044475

- q-position: [    0.0151515,    0.0000000,    0.0000000 ]
  distance:    0.0051852
  band:
  - # 1
    frequency:   -0.1880750048
  - # 2
    frequency:   -0.1453578160
  - # 3
    frequency:    0.0162743239
  - # 4
    frequency:    1.6410310095
  - # 5
    frequency:    1.6501749037
  - # 6
    frequency:    3.7627448466
  - # 7
    frequency:    3.7726277780
  - # 8
    frequency:    5.5749830903
  - # 9
    frequency:    7.2694683221
  - # 10
    frequency:    7.2736320506
  - # 11
    frequency:    7.6253539424
  - # 12
    frequency:    7.6271376627
  - # 13
    frequency:    9.6970815348
  - # 14
    frequency:   10.2868377207
  - # 15
    frequency:   10.2871283442
  - # 16
    frequency:   11.7409575856
  - # 17
    frequency:   11.7898877725
  - # 18
    frequency:   11.8891361280
  - # 19
    frequency:   12.7276878403
  - # 20
    frequency:   13.7480390064
  - # 21
    frequency:   13.7523449465
  - # 22
    frequency:   20.7313961943
  - # 23
    frequency:   65.1212315868
  - # 24
    frequency:  113.4384499361

- q-position: [    0.0202020,    0.0000000,    0.0000000 ]
  distance:    0.0069136
  band:
  - # 1
    frequency:   -0.2446198707
  - # 2
    frequency:   -0.1901830386
  - # 3
    frequency:    0.0288999368
  - # 4
    frequency:    1.6609134616
  - # 5
    frequency:    1.6765556905
  - # 6
    frequency:    3.7663529662
  - # 7
    frequency:    3.7838083638
  - # 8
    frequency:    5.5731188084
  - # 9
    frequency:    7.2648604788
  - # 10
    frequency:    7.2722165710
  - # 11
    frequency:    7.6250115644
  - # 12
    frequency:    7.6282219359
  - # 13
    frequency:    9.6935981786
  - # 14
    frequency:   10.2873205189
  - # 15
    frequency:   10.2878459268
  - # 16
    frequency:   11.7169627485
  - # 17
    frequency:   11.7937019326
  - # 18
    frequency:   11.9028408353
  - # 19
    frequency:   12.7295540993
  - # 20
    frequency:   13.7441682730
  - # 21
    frequency:   13.7516036757
  - # 22
    frequency:   20.7308647001
  - # 23
    frequency:   65.1205417290
  - # 24
    frequency:  113.4309849949

- q-position: [    0.0252525,    0.0000000,    0.0000000 ]
  distance:    0.0086421
  band:
  - # 1
    frequency:   -0.2964685668
  - # 2
    frequency:   -0.2321721989
  - # 3
    frequency:    0.0450898106
  - # 4
    frequency:    1.6855781614
  - # 5
    frequency:    1.7089366826
  - # 6
    frequency:    3.7710005228
  - # 7
    frequency:    3.7980461185
  - # 8
    frequency:    5.5707429130
  - # 9
    frequency:    7.2589844666
  - # 10
    frequency:    7.2703920231
  - # 11
    frequency:    7.6245284838
  - # 12
    frequency:    7.6296182876
  - # 13
    frequency:    9.6891141466
  - # 14
    frequency:   10.2879132479
  - # 15
    frequency:   10.2887521347
  - # 16
    frequency:   11.6910440853
  - # 17
    frequency:   11.7985915485
  - # 18
    frequency:   11.9154147468
  - # 19
    frequency:   12.7318874123
  - # 20
    frequency:   13.7394696427
  - # 21
    frequency:   13.7506473926
  - # 22
    frequency:   20.7301818107
  - # 23
    frequency:   65.1196565275
  - # 24
    frequency:  113.4214408545

- q-position: [    0.0303030,    0.0000000,    0.0000000 ]
  distance:    0.0103705
  band:
  - # 1
    frequency:   -0.3429942738
  - # 2
    frequency:   -0.2708985127
  - # 3
    frequency:    0.0648095581
  - # 4
    frequency:    1.7144862090
  - # 5
    frequency:    1.7464838010
  - # 6
    frequency:    3.7766933607
  - # 7
    frequency:    3.8152392547
  - # 8
    frequency:    5.5678710097
  - # 9
    frequency:    7.2518674420
  - # 10
    frequency:    7.2681554669
  - # 11
    frequency:    7.6238803189
  - # 12
    frequency:    7.6313279676
  - # 13
    frequency:    9.6836255464
  - # 14
    frequency:   10.2885947554
  - # 15
    frequency:   10.2898351440
  - # 16
    frequency:   11.6636240062
  - # 17
    frequency:   11.8045454721
  - # 18
    frequency:   11.9263520212
  - # 19
    frequency:   12.7346390214
  - # 20
    frequency:   13.7341495639
  - # 21
    frequency:   13.7494738628
  - # 22
    frequency:   20.7293478840
  - # 23
    frequency:   65.1185772955
  - # 24
    frequency:  113.4098574637

- q-position: [    0.0353535,    0.0000000,    0.0000000 ]
  distance:    0.0120989
  band:
  - # 1
    frequency:   -0.3837520366
  - # 2
    frequency:   -0.3060530298
  - # 3
    frequency:    0.0880149504
  - # 4
    frequency:    1.7470890373
  - # 5
    frequency:    1.7884094954
  - # 6
    frequency:    3.7834380063
  - # 7
    frequency:    3.8352646218
  - # 8
    frequency:    5.5645219658
  - # 9
    frequency:    7.2435335859
  - # 10
    frequency:    7.2655038790
  - # 11
    frequency:    7.6230448651
  - # 12
    frequency:    7.6333520199
  - # 13
    frequency:    9.6771278312
  - # 14
    frequency:   10.2893389980
  - # 15
    frequency:   10.2910810133
  - # 16
    frequency:   11.6349405455
  - # 17
    frequency:   11.8115496244
  - # 18
    frequency:   11.9353161288
  - # 19
    frequency:   12.7377504501
  - # 20
    frequency:   13.7284572203
  - # 21
    frequency:   13.7480805582
  - # 22
    frequency:   20.7283633709
  - # 23
    frequency:   65.1173056326
  - # 24
    frequency:  113.3962833359

- q-position: [    0.0404040,    0.0000000,    0.0000000 ]
  distance:    0.0138273
  band:
  - # 1
    frequency:   -0.4184200620
  - # 2
    frequency:   -0.3374251244
  - # 3
    frequency:    0.1146507670
  - # 4
    frequency:    1.7828569908
  - # 5
    frequency:    1.8340113028
  - # 6
    frequency:    3.7912413143
  - # 7
    frequency:    3.8579783882
  - # 8
    frequency:    5.5607177652
  - # 9
    frequency:    7.2340000173
  - # 10
    frequency:    7.2624344475
  - # 11
    frequency:    7.6220054276
  - # 12
    frequency:    7.6356910354
  - # 13
    frequency:    9.6696159407
  - # 14
    frequency:   10.2901148873
  - # 15
    frequency:   10.2924739647
  - # 16
    frequency:   11.6051506429
  - # 17
    frequency:   11.8195867427
  - # 18
    frequency:   11.9420395730
  - # 19
    frequency:   12.7411544073
  - # 20
    frequency:   13.7226815038
  - # 21
    frequency:   13.7464647804
  - # 22
    frequency:   20.7272288228
  - # 23
    frequency:   65.1158434205
  - # 24
    frequency:  113.3807753634

- q-position: [    0.0454545,    0.0000000,    0.0000000 ]
  distance:    0.0155557
  band:
  - # 1
    frequency:   -0.4467408680
  - # 2
    frequency:   -0.3648790839
  - # 3
    frequency:    0.1446495748
  - # 4
    frequency:    1.8212974029
  - # 5
    frequency:    1.8826867005
  - # 6
    frequency:    3.8001100630
  - # 7
    frequency:    3.8832167792
  - # 8
    frequency:    5.5564833150
  - # 9
    frequency:    7.2232728620
  - # 10
    frequency:    7.2589448837
  - # 11
    frequency:    7.6207539488
  - # 12
    frequency:    7.6383448945
  - # 13
    frequency:    9.6610844779
  - # 14
    frequency:   10.2908860741
  - # 15
    frequency:   10.2939966962
  - # 16
    frequency:   11.5743722271
  - # 17
    frequency:   11.8286360967
  - # 18
    frequency:   11.9462860942
  - # 19
    frequency:   12.7447760744
  - # 20
    frequency:   13.7171464835
  - # 21
    frequency:   13.7446238086
  - # 22
    frequency:   20.7259448990
  - # 23
    frequency:   65.1141928194
  - # 24
    frequency:  113.3633985987

- q-position: [    0.0505051,    0.0000000,    0.0000000 ]
  distance:    0.0172841
  band:
  - # 1
    frequency:   -0.4684669652
  - # 2
    frequency:   -0.3883306982
  - # 3
    frequency:    0.1779304939
  - # 4
    frequency:    1.8619638857
  - # 5
    frequency:    1.9339324906
  - # 6
    frequency:    3.8100505090
  - # 7
    frequency:    3.9107968389
  - # 8
    frequency:    5.5518461886
  - # 9
    frequency:    7.2113437049
  - # 10
    frequency:    7.2550337354
  - # 11
    frequency:    7.6192937534
  - # 12
    frequency:    7.6413125119
  - # 13
    frequency:    9.6515279283
  - # 14
    frequency:   10.2916106573
  - # 15
    frequency:   10.2956307145
  - # 16
    frequency:   11.5427033896
  - # 17
    frequency:   11.8386731810
  - # 18
    frequency:   11.9478373112
  - # 19
    frequency:   12.7485348656
  - # 20
    frequency:   13.7122050377
  - # 21
    frequency:   13.7425550729
  - # 22
    frequency:   20.7245123745
  - # 23
    frequency:   65.1123562628
  - # 24
    frequency:  113.3442260042

- q-position: [    0.0555556,    0.0000000,    0.0000000 ]
  distance:    0.0190125
  band:
  - # 1
    frequency:   -0.4833099388
  - # 2
    frequency:   -0.4077258945
  - # 3
    frequency:    0.2143980034
  - # 4
    frequency:    1.9044592728
  - # 5
    frequency:    1.9873358191
  - # 6
    frequency:    3.8210679091
  - # 7
    frequency:    3.9405171759
  - # 8
    frequency:    5.5468362839
  - # 9
    frequency:    7.1981866209
  - # 10
    frequency:    7.2507006894
  - # 11
    frequency:    7.6176417702
  - # 12
    frequency:    7.6445915958
  - # 13
    frequency:    9.6409409271
  - # 14
    frequency:   10.2922408069
  - # 15
    frequency:   10.2973566805
  - # 16
    frequency:   11.5102320286
  - # 17
    frequency:   11.8496693914
  - # 18
    frequency:   11.9464905817
  - # 19
    frequency:   12.7523467200
  - # 20
    frequency:   13.7082304274
  - # 21
    frequency:   13.7402563525
  - # 22
    frequency:   20.7229321481
  - # 23
    frequency:   65.1103364528
  - # 24
    frequency:  113.3233381706

- q-position: [    0.0606061,    0.0000000,    0.0000000 ]
  distance:    0.0207409
  band:
  - # 1
    frequency:   -0.4908874841
  - # 2
    frequency:   -0.4230219868
  - # 3
    frequency:    0.2539408395
  - # 4
    frequency:    1.9484345273
  - # 5
    frequency:    2.0425617202
  - # 6
    frequency:    3.8331660194
  - # 7
    frequency:    3.9721586542
  - # 8
    frequency:    5.5414853687
  - # 9
    frequency:    7.1837559724
  - # 10
    frequency:    7.2459468517
  - # 11
    frequency:    7.6158301180
  - # 12
    frequency:    7.6481784310
  - # 13
    frequency:    9.6293185790
  - # 14
    frequency:   10.2927222886
  - # 15
    frequency:   10.2991547562
  - # 16
    frequency:   11.4770411448
  - # 17
    frequency:   11.8615916906
  - # 18
    frequency:   11.9420629151
  - # 19
    frequency:   12.7561269093
  - # 20
    frequency:   13.7056058006
  - # 21
    frequency:   13.7377260019
  - # 22
    frequency:   20.7212052491
  - # 23
    frequency:   65.1081363532
  - # 24
    frequency:  113.3008230057

- q-position: [    0.0656566,    0.0000000,    0.0000000 ]
  distance:    0.0224693
  band:
  - # 1
    frequency:   -0.4906583803
  - # 2
    frequency:   -0.4341711146
  - # 3
    frequency:    0.2964310315
  - # 4
    frequency:    1.9935854215
  - # 5
    frequency:    2.0993400527
  - # 6
    frequency:    3.8463465866
  - # 7
    frequency:    4.0054849909
  - # 8
    frequency:    5.5358264724
  - # 9
    frequency:    7.1679851702
  - # 10
    frequency:    7.2407749964
  - # 11
    frequency:    7.6139069457
  - # 12
    frequency:    7.6520676930
  - # 13
    frequency:    9.6166568397
  - # 14
    frequency:   10.2929938843
  - # 15
    frequency:   10.3010049464
  - # 16
    frequency:   11.4432120050
  - # 17
    frequency:   11.8744022710
  - # 18
    frequency:   11.9343985374
  - # 19
    frequency:   12.7597932390
  - # 20
    frequency:   13.7047119221
  - # 21
    frequency:   13.7349632041
  - # 22
    frequency:   20.7193328437
  - # 23
    frequency:   65.1057591840
  - # 24
    frequency:  113.2767753937

- q-position: [    0.0707071,    0.0000000,    0.0000000 ]
  distance:    0.0241978
  band:
  - # 1
    frequency:   -0.4818272166
  - # 2
    frequency:   -0.4411047993
  - # 3
    frequency:    0.3417231132
  - # 4
    frequency:    2.0396482343
  - # 5
    frequency:    2.1574532649
  - # 6
    frequency:    3.8606088423
  - # 7
    frequency:    4.0402432236
  - # 8
    frequency:    5.5298930703
  - # 9
    frequency:    7.1507866102
  - # 10
    frequency:    7.2351897772
  - # 11
    frequency:    7.6119364230
  - # 12
    frequency:    7.6562522989
  - # 13
    frequency:    9.6029529638
  - # 14
    frequency:   10.2929867071
  - # 15
    frequency:   10.3028874236
  - # 16
    frequency:   11.4088262119
  - # 17
    frequency:   11.8880582192
  - # 18
    frequency:   11.9233786333
  - # 19
    frequency:   12.7632693874
  - # 20
    frequency:   13.7059137898
  - # 21
    frequency:   13.7319682528
  - # 22
    frequency:   20.7173162402
  - # 23
    frequency:   65.1032084136
  - # 24
    frequency:  113.2512968261

- q-position: [    0.0757576,    0.0000000,    0.0000000 ]
  distance:    0.0259262
  band:
  - # 1
    frequency:   -0.4631812608
  - # 2
    frequency:   -0.4437180281
  - # 3
    frequency:    0.3896535337
  - # 4
    frequency:    2.0863952407
  - # 5
    frequency:    2.2167255429
  - # 6
    frequency:    3.8759490174
  - # 7
    frequency:    4.0761640212
  - # 8
    frequency:    5.5237179879
  - # 9
    frequency:    7.1320530167
  - # 10
    frequency:    7.2291978970
  - # 11
    frequency:    7.6099977888
  - # 12
    frequency:    7.6607232974
  - # 13
    frequency:    9.5882060309
  - # 14
    frequency:   10.2926234204
  - # 15
    frequency:   10.3047828318
  - # 16
    frequency:   11.3739672147
  - # 17
    frequency:   11.9025111884
  - # 18
    frequency:   11.9089320383
  - # 19
    frequency:   12.7664880186
  - # 20
    frequency:   13.7095471552
  - # 21
    frequency:   13.7287428633
  - # 22
    frequency:   20.7151568922
  - # 23
    frequency:   65.1004877518
  - # 24
    frequency:  113.2244950067

- q-position: [    0.0808081,    0.0000000,    0.0000000 ]
  distance:    0.0276546
  band:
  - # 1
    frequency:   -0.4418505944
  - # 2
    frequency:   -0.4327679099
  - # 3
    frequency:    0.4400402823
  - # 4
    frequency:    2.1336304198
  - # 5
    frequency:    2.2770134167
  - # 6
    frequency:    3.8923598916
  - # 7
    frequency:    4.1129618192
  - # 8
    frequency:    5.5173319258
  - # 9
    frequency:    7.1116604259
  - # 10
    frequency:    7.2228082363
  - # 11
    frequency:    7.6081833904
  - # 12
    frequency:    7.6654697973
  - # 13
    frequency:    9.5724175562
  - # 14
    frequency:   10.2918173849
  - # 15
    frequency:   10.3066725603
  - # 16
    frequency:   11.3387215625
  - # 17
    frequency:   11.8910456769
  - # 18
    frequency:   11.9177070821
  - # 19
    frequency:   12.7693932510
  - # 20
    frequency:   13.7159061980
  - # 21
    frequency:   13.7252905134
  - # 22
    frequency:   20.7128564007
  - # 23
    frequency:   65.0976011410
  - # 24
    frequency:  113.1964834303

- q-position: [    0.0858586,    0.0000000,    0.0000000 ]
  distance:    0.0293830
  band:
  - # 1
    frequency:   -0.4352622054
  - # 2
    frequency:   -0.3871416070
  - # 3
    frequency:    0.4926827275
  - # 4
    frequency:    2.1811855828
  - # 5
    frequency:    2.3381976564
  - # 6
    frequency:    3.9098303946
  - # 7
    frequency:    4.1503347770
  - # 8
    frequency:    5.5107614811
  - # 9
    frequency:    7.0894730207
  - # 10
    frequency:    7.2160319395
  - # 11
    frequency:    7.6065957145
  - # 12
    frequency:    7.6704789322
  - # 13
    frequency:    9.5555921984
  - # 14
    frequency:   10.2904717809
  - # 15
    frequency:   10.3085389841
  - # 16
    frequency:   11.3031800867
  - # 17
    frequency:   11.8697735522
  - # 18
    frequency:   11.9335857526
  - # 19
    frequency:   12.7719421158
  - # 20
    frequency:   13.7216168136
  - # 21
    frequency:   13.7252336320
  - # 22
    frequency:   20.7104165138
  - # 23
    frequency:   65.0945527485
  - # 24
    frequency:  113.1673809372

- q-position: [    0.0909091,    0.0000000,    0.0000000 ]
  distance:    0.0311114
  band:
  - # 1
    frequency:   -0.4235953339
  - # 2
    frequency:   -0.3191143384
  - # 3
    frequency:    0.5473616751
  - # 4
    frequency:    2.2289169809
  - # 5
    frequency:    2.4001761865
  - # 6
    frequency:    3.9283452762
  - # 7
    frequency:    4.1879645737
  - # 8
    frequency:    5.5040265020
  - # 9
    frequency:    7.0653499912
  - # 10
    frequency:    7.2088824628
  - # 11
    frequency:    7.6053434966
  - # 12
    frequency:    7.6757358594
  - # 13
    frequency:    9.5377385745
  - # 14
    frequency:   10.2884787865
  - # 15
    frequency:   10.3103656667
  - # 16
    frequency:   11.2674391256
  - # 17
    frequency:   11.8452432062
  - # 18
    frequency:   11.9500807169
  - # 19
    frequency:   12.7741047980
  - # 20
    frequency:   13.7177299055
  - # 21
    frequency:   13.7377142723
  - # 22
    frequency:   20.7078391248
  - # 23
    frequency:   65.0913469567
  - # 24
    frequency:  113.1373112460

- q-position: [    0.0959596,    0.0000000,    0.0000000 ]
  distance:    0.0328398
  band:
  - # 1
    frequency:   -0.4063141789
  - # 2
    frequency:   -0.2067267687
  - # 3
    frequency:    0.6038396741
  - # 4
    frequency:    2.2767023748
  - # 5
    frequency:    2.4628577078
  - # 6
    frequency:    3.9478848588
  - # 7
    frequency:    4.2255160780
  - # 8
    frequency:    5.4971365812
  - # 9
    frequency:    7.0391545354
  - # 10
    frequency:    7.2013755874
  - # 11
    frequency:    7.6045371095
  - # 12
    frequency:    7.6812237864
  - # 13
    frequency:    9.5188701921
  - # 14
    frequency:   10.2857189387
  - # 15
    frequency:   10.3121375236
  - # 16
    frequency:   11.2316018503
  - # 17
    frequency:   11.8176588146
  - # 18
    frequency:   11.9671188930
  - # 19
    frequency:   12.7758636806
  - # 20
    frequency:   13.7136408882
  - # 21
    frequency:   13.7534726161
  - # 22
    frequency:   20.7051262671
  - # 23
    frequency:   65.0879883541
  - # 24
    frequency:  113.1064024642

- q-position: [    0.1010101,    0.0000000,    0.0000000 ]
  distance:    0.0345682
  band:
  - # 1
    frequency:   -0.3825944886
  - # 2
    frequency:    0.1666542400
  - # 3
    frequency:    0.6618616747
  - # 4
    frequency:    2.3244385105
  - # 5
    frequency:    2.5261557071
  - # 6
    frequency:    3.9684248900
  - # 7
    frequency:    4.2626369543
  - # 8
    frequency:    5.4900864635
  - # 9
    frequency:    7.0107650728
  - # 10
    frequency:    7.1935294034
  - # 11
    frequency:    7.6042835387
  - # 12
    frequency:    7.6869240221
  - # 13
    frequency:    9.4990065082
  - # 14
    frequency:   10.2820608692
  - # 15
    frequency:   10.3138409455
  - # 16
    frequency:   11.1957796827
  - # 17
    frequency:   11.7873004316
  - # 18
    frequency:   11.9846203567
  - # 19
    frequency:   12.7772114412
  - # 20
    frequency:   13.7093642678
  - # 21
    frequency:   13.7725743990
  - # 22
    frequency:   20.7022801087
  - # 23
    frequency:   65.0844817250
  - # 24
    frequency:  113.0747865804

- q-position: [    0.1060606,    0.0000000,    0.0000000 ]
  distance:    0.0362966
  band:
  - # 1
    frequency:   -0.3511017389
  - # 2
    frequency:    0.3316385952
  - # 3
    frequency:    0.7211563242
  - # 4
    frequency:    2.3720389287
  - # 5
    frequency:    2.5899825237
  - # 6
    frequency:    3.9899365036
  - # 7
    frequency:    4.2989572865
  - # 8
    frequency:    5.4828501402
  - # 9
    frequency:    6.9800887200
  - # 10
    frequency:    7.1853642671
  - # 11
    frequency:    7.6046813303
  - # 12
    frequency:    7.6928160455
  - # 13
    frequency:    9.4781741205
  - # 14
    frequency:   10.2773616853
  - # 15
    frequency:   10.3154638818
  - # 16
    frequency:   11.1600937118
  - # 17
    frequency:   11.7545192959
  - # 18
    frequency:   12.0024981234
  - # 19
    frequency:   12.7781486100
  - # 20
    frequency:   13.7049184273
  - # 21
    frequency:   13.7950315282
  - # 22
    frequency:   20.6993029426
  - # 23
    frequency:   65.0808320398
  - # 24
    frequency:  113.0425989388

- q-position: [    0.1111111,    0.0000000,    0.0000000 ]
  distance:    0.0380250
  band:
  - # 1
    frequency:   -0.3094731746
  - # 2
    frequency:    0.4517734846
  - # 3
    frequency:    0.7814385514
  - # 4
    frequency:    2.4194320350
  - # 5
    frequency:    2.6542431255
  - # 6
    frequency:    4.0123863004
  - # 7
    frequency:    4.3340893178
  - # 8
    frequency:    5.4753734492
  - # 9
    frequency:    6.9470770870
  - # 10
    frequency:    7.1769027386
  - # 11
    frequency:    7.6058159134
  - # 12
    frequency:    7.6988775895
  - # 13
    frequency:    9.4564080892
  - # 14
    frequency:   10.2714683588
  - # 15
    frequency:   10.3169958866
  - # 16
    frequency:   11.1246758935
  - # 17
    frequency:   11.7197294619
  - # 18
    frequency:   12.0206579580
  - # 19
    frequency:   12.7786810371
  - # 20
    frequency:   13.7003261082
  - # 21
    frequency:   13.8208094200
  - # 22
    frequency:   20.6961971765
  - # 23
    frequency:   65.0770444437
  - # 24
    frequency:  113.0099776974

- q-position: [    0.1161616,    0.0000000,    0.0000000 ]
  distance:    0.0397535
  band:
  - # 1
    frequency:   -0.2527917838
  - # 2
    frequency:    0.5569633187
  - # 3
    frequency:    0.8424148609
  - # 4
    frequency:    2.4665593654
  - # 5
    frequency:    2.7188282077
  - # 6
    frequency:    4.0357365514
  - # 7
    frequency:    4.3676274121
  - # 8
    frequency:    5.4675651539
  - # 9
    frequency:    6.9117444684
  - # 10
    frequency:    7.1681695019
  - # 11
    frequency:    7.6077556600
  - # 12
    frequency:    7.7050847346
  - # 13
    frequency:    9.4337533793
  - # 14
    frequency:   10.2642205716
  - # 15
    frequency:   10.3184281298
  - # 16
    frequency:   11.0896696742
  - # 17
    frequency:   11.6833962829
  - # 18
    frequency:   12.0389982185
  - # 19
    frequency:   12.7788176512
  - # 20
    frequency:   13.6956148958
  - # 21
    frequency:   13.8498356263
  - # 22
    frequency:   20.6929653205
  - # 23
    frequency:   65.0731242463
  - # 24
    frequency:  112.9770632737

- q-position: [    0.1212121,    0.0000000,    0.0000000 ]
  distance:    0.0414819
  band:
  - # 1
    frequency:   -0.1664415551
  - # 2
    frequency:    0.6543968403
  - # 3
    frequency:    0.9037943225
  - # 4
    frequency:    2.5133739910
  - # 5
    frequency:    2.7836061579
  - # 6
    frequency:    4.0599455268
  - # 7
    frequency:    4.3991483303
  - # 8
    frequency:    5.4592868076
  - # 9
    frequency:    6.8741884507
  - # 10
    frequency:    7.1591912722
  - # 11
    frequency:    7.6105489325
  - # 12
    frequency:    7.7114120084
  - # 13
    frequency:    9.4102663994
  - # 14
    frequency:   10.2554555172
  - # 15
    frequency:   10.3197533759
  - # 16
    frequency:   11.0552295274
  - # 17
    frequency:   11.6460224408
  - # 18
    frequency:   12.0574097419
  - # 19
    frequency:   12.7785687530
  - # 20
    frequency:   13.6908176948
  - # 21
    frequency:   13.8820087178
  - # 22
    frequency:   20.6896099723
  - # 23
    frequency:   65.0690769101
  - # 24
    frequency:  112.9439977785

- q-position: [    0.1262626,    0.0000000,    0.0000000 ]
  distance:    0.0432103
  band:
  - # 1
    frequency:    0.1130112911
  - # 2
    frequency:    0.7468936119
  - # 3
    frequency:    0.9653115177
  - # 4
    frequency:    2.5598390168
  - # 5
    frequency:    2.8484133127
  - # 6
    frequency:    4.0849679436
  - # 7
    frequency:    4.4282119102
  - # 8
    frequency:    5.4503423438
  - # 9
    frequency:    6.8346127033
  - # 10
    frequency:    7.1499966922
  - # 11
    frequency:    7.6142222419
  - # 12
    frequency:    7.7178324908
  - # 13
    frequency:    9.3860165900
  - # 14
    frequency:   10.2450151173
  - # 15
    frequency:   10.3209659349
  - # 16
    frequency:   11.0215187830
  - # 17
    frequency:   11.6081322993
  - # 18
    frequency:   12.0757757853
  - # 19
    frequency:   12.7779449296
  - # 20
    frequency:   13.6859731759
  - # 21
    frequency:   13.9172066270
  - # 22
    frequency:   20.6861338019
  - # 23
    frequency:   65.0649080388
  - # 24
    frequency:  112.9109244393

- q-position: [    0.1313131,    0.0000000,    0.0000000 ]
  distance:    0.0449387
  band:
  - # 1
    frequency:    0.2396783622
  - # 2
    frequency:    0.8356416820
  - # 3
    frequency:    1.0267743664
  - # 4
    frequency:    2.6059261442
  - # 5
    frequency:    2.9130417583
  - # 6
    frequency:    4.1107555253
  - # 7
    frequency:    4.4543622641
  - # 8
    frequency:    5.4404694023
  - # 9
    frequency:    6.7933510841
  - # 10
    frequency:    7.1406162206
  - # 11
    frequency:    7.6187795010
  - # 12
    frequency:    7.7243179209
  - # 13
    frequency:    9.3610879959
  - # 14
    frequency:   10.2327559133
  - # 15
    frequency:   10.3220615893
  - # 16
    frequency:   10.9887051533
  - # 17
    frequency:   11.5702554186
  - # 18
    frequency:   12.0939720408
  - # 19
    frequency:   12.7769565555
  - # 20
    frequency:   13.6811261733
  - # 21
    frequency:   13.9552939354
  - # 22
    frequency:   20.6825395345
  - # 23
    frequency:   65.0606233662
  - # 24
    frequency:  112.8779870181

- q-position: [    0.1363636,    0.0000000,    0.0000000 ]
  distance:    0.0466671
  band:
  - # 1
    frequency:    0.3259306023
  - # 2
    frequency:    0.9209047839
  - # 3
    frequency:    1.0881618579
  - # 4
    frequency:    2.6516142735
  - # 5
    frequency:    2.9772236638
  - # 6
    frequency:    4.1372576596
  - # 7