nqpoint: 300    
npath: 3      
segment_nqpoint:
- 100
- 100
- 100
labels:
- [ 'G', 'M' ]
- [ 'M', 'K' ]
- [ 'K', 'G' ]
reciprocal_lattice:
- [   0.29735395,   0.17167738,   0.00000000 ] # a*
- [   0.00000000,   0.34335477,   0.00000000 ] # b*
- [   0.00000000,   0.00000000,   0.03940082 ] # c*
natom: 7      
lattice:
- [     3.362995520824457,     0.000000000000000,     0.000000000000000 ] # a
- [    -1.681497760412229,     2.912439553839685,     0.000000000000000 ] # b
- [     0.000000000000000,     0.000000000000000,    25.380182640588686 ] # c
points:
- symbol: C # 1
  coordinates: [  0.333332985432215,  0.666666983183674,  0.597937920101094 ]
  mass: 12.010700
- symbol: H # 2
  coordinates: [  0.666666984744047,  0.333332985985145,  0.354607377237977 ]
  mass: 1.007940
- symbol: N # 3
  coordinates: [  0.000000000000000,  0.000000000000000,  0.491394173910979 ]
  mass: 14.006700
- symbol: N # 4
  coordinates: [  0.333332985432215,  0.666666983183674,  0.645392622762022 ]
  mass: 14.006700
- symbol: O # 5
  coordinates: [  0.666666984744047,  0.333332985985145,  0.393530706006718 ]
  mass: 15.999400
- symbol: Zr # 6
  coordinates: [  0.333332985432215,  0.666666983183674,  0.446053977522579 ]
  mass: 91.224000
- symbol: Zr # 7
  coordinates: [  0.666666984744047,  0.333332985985145,  0.538689233770566 ]
  mass: 91.224000

phonon:
- q-position: [    0.0000000,    0.0000000,    0.0000000 ]
  distance:    0.0000000
  band:
  - # 1
    frequency:   -2.9316473572
  - # 2
    frequency:   -2.9316473572
  - # 3
    frequency:   -0.0000182568
  - # 4
    frequency:   -0.0000001597
  - # 5
    frequency:    0.0000100682
  - # 6
    frequency:    3.2095249676
  - # 7
    frequency:    3.2095249677
  - # 8
    frequency:    4.1702376793
  - # 9
    frequency:    7.3629904650
  - # 10
    frequency:    7.3629904650
  - # 11
    frequency:    7.8282894777
  - # 12
    frequency:    7.8282894777
  - # 13
    frequency:    9.1410574931
  - # 14
    frequency:   11.9985249871
  - # 15
    frequency:   13.8361545768
  - # 16
    frequency:   15.2490357232
  - # 17
    frequency:   15.2490357233
  - # 18
    frequency:   16.2653512060
  - # 19
    frequency:   16.2653512060
  - # 20
    frequency:   60.0372208600
  - # 21
    frequency:  110.1221286282

- q-position: [    0.0050505,    0.0000000,    0.0000000 ]
  distance:    0.0017341
  band:
  - # 1
    frequency:   -2.9323863453
  - # 2
    frequency:   -2.9320216474
  - # 3
    frequency:   -0.0687619825
  - # 4
    frequency:   -0.0203935125
  - # 5
    frequency:    0.0027785564
  - # 6
    frequency:    3.2047250468
  - # 7
    frequency:    3.2085853699
  - # 8
    frequency:    4.1752574822
  - # 9
    frequency:    7.3633246714
  - # 10
    frequency:    7.3642956632
  - # 11
    frequency:    7.8285314343
  - # 12
    frequency:    7.8285318014
  - # 13
    frequency:    9.1403683394
  - # 14
    frequency:   11.9980415539
  - # 15
    frequency:   13.8362583475
  - # 16
    frequency:   15.2463807950
  - # 17
    frequency:   15.2485553058
  - # 18
    frequency:   16.2657968472
  - # 19
    frequency:   16.2658400666
  - # 20
    frequency:   60.0372315050
  - # 21
    frequency:  110.1218827233

- q-position: [    0.0101010,    0.0000000,    0.0000000 ]
  distance:    0.0034682
  band:
  - # 1
    frequency:   -2.9346002833
  - # 2
    frequency:   -2.9331459181
  - # 3
    frequency:   -0.1377094787
  - # 4
    frequency:   -0.0406422910
  - # 5
    frequency:    0.0109946637
  - # 6
    frequency:    3.1907277712
  - # 7
    frequency:    3.2057700391
  - # 8
    frequency:    4.1899616557
  - # 9
    frequency:    7.3643200537
  - # 10
    frequency:    7.3681932909
  - # 11
    frequency:    7.8292593157
  - # 12
    frequency:    7.8292604396
  - # 13
    frequency:    9.1383030306
  - # 14
    frequency:   11.9965922900
  - # 15
    frequency:   13.8365664840
  - # 16
    frequency:   15.2384502180
  - # 17
    frequency:   15.2471165021
  - # 18
    frequency:   16.2671086807
  - # 19
    frequency:   16.2673035200
  - # 20
    frequency:   60.0372633171
  - # 21
    frequency:  110.1211457987

- q-position: [    0.0151515,    0.0000000,    0.0000000 ]
  distance:    0.0052023
  band:
  - # 1
    frequency:   -2.9382801373
  - # 2
    frequency:   -2.9350240877
  - # 3
    frequency:   -0.2070193941
  - # 4
    frequency:   -0.0606032224
  - # 5
    frequency:    0.0246481431
  - # 6
    frequency:    3.1686368639
  - # 7
    frequency:    3.2010894210
  - # 8
    frequency:    4.2133870437
  - # 9
    frequency:    7.3659550558
  - # 10
    frequency:    7.3746295713
  - # 11
    frequency:    7.8304790530
  - # 12
    frequency:    7.8304805897
  - # 13
    frequency:    9.1348680460
  - # 14
    frequency:   11.9941802914
  - # 15
    frequency:   13.8370695007
  - # 16
    frequency:   15.2253441945
  - # 17
    frequency:   15.2447266746
  - # 18
    frequency:   16.2692138507
  - # 19
    frequency:   16.2697321716
  - # 20
    frequency:   60.0373159285
  - # 21
    frequency:  110.1199202210

- q-position: [    0.0202020,    0.0000000,    0.0000000 ]
  distance:    0.0069365
  band:
  - # 1
    frequency:   -2.9434110030
  - # 2
    frequency:   -2.9376617740
  - # 3
    frequency:   -0.2768497186
  - # 4
    frequency:   -0.0801364138
  - # 5
    frequency:    0.0436744470
  - # 6
    frequency:    3.1400078838
  - # 7
    frequency:    3.1945611176
  - # 8
    frequency:    4.2442082639
  - # 9
    frequency:    7.3681942643
  - # 10
    frequency:    7.3835152590
  - # 11
    frequency:    7.8322001830
  - # 12
    frequency:    7.8322015817
  - # 13
    frequency:    9.1300742588
  - # 14
    frequency:   11.9908106829
  - # 15
    frequency:   13.8377517247
  - # 16
    frequency:   15.2072221529
  - # 17
    frequency:   15.2413981443
  - # 18
    frequency:   16.2719984893
  - # 19
    frequency:   16.2731103368
  - # 20
    frequency:   60.0373887269
  - # 21
    frequency:  110.1182099254

- q-position: [    0.0252525,    0.0000000,    0.0000000 ]
  distance:    0.0086706
  band:
  - # 1
    frequency:   -2.9499723325
  - # 2
    frequency:   -2.9410650153
  - # 3
    frequency:   -0.3473267340
  - # 4
    frequency:   -0.0991067555
  - # 5
    frequency:    0.0679760898
  - # 6
    frequency:    3.1065791549
  - # 7
    frequency:    3.1862101755
  - # 8
    frequency:    4.2810001481
  - # 9
    frequency:    7.3709891799
  - # 10
    frequency:    7.3947261194
  - # 11
    frequency:    7.8344353217
  - # 12
    frequency:    7.8344379230
  - # 13
    frequency:    9.1239370459
  - # 14
    frequency:   11.9864905636
  - # 15
    frequency:   13.8385914959
  - # 16
    frequency:   15.1842929371
  - # 17
    frequency:   15.2371482580
  - # 18
    frequency:   16.2753175008
  - # 19
    frequency:   16.2774160085
  - # 20
    frequency:   60.0374808576
  - # 21
    frequency:  110.1160204010

- q-position: [    0.0303030,    0.0000000,    0.0000000 ]
  distance:    0.0104047
  band:
  - # 1
    frequency:   -2.9579382506
  - # 2
    frequency:   -2.9452386581
  - # 3
    frequency:   -0.4185293854
  - # 4
    frequency:   -0.1173854303
  - # 5
    frequency:    0.0974177566
  - # 6
    frequency:    3.0700729849
  - # 7
    frequency:    3.1760694900
  - # 8
    frequency:    4.3224263950
  - # 9
    frequency:    7.3742792947
  - # 10
    frequency:    7.4081034171
  - # 11
    frequency:    7.8371994227
  - # 12
    frequency:    7.8372108459
  - # 13
    frequency:    9.1164764391
  - # 14
    frequency:   11.9812289320
  - # 15
    frequency:   13.8395614384
  - # 16
    frequency:   15.1568036552
  - # 17
    frequency:   15.2319994660
  - # 18
    frequency:   16.2790056799
  - # 19
    frequency:   16.2826208262
  - # 20
    frequency:   60.0375912252
  - # 21
    frequency:  110.1133586712

- q-position: [    0.0353535,    0.0000000,    0.0000000 ]
  distance:    0.0121388
  band:
  - # 1
    frequency:   -2.9672779578
  - # 2
    frequency:   -2.9501845781
  - # 3
    frequency:   -0.4904717308
  - # 4
    frequency:   -0.1348513604
  - # 5
    frequency:    0.1318227516
  - # 6
    frequency:    3.0320862613
  - # 7
    frequency:    3.1641803223
  - # 8
    frequency:    4.3673347606
  - # 9
    frequency:    7.3779934686
  - # 10
    frequency:    7.4234542510
  - # 11
    frequency:    7.8405088189
  - # 12
    frequency:    7.8405504306
  - # 13
    frequency:    9.1077173159
  - # 14
    frequency:   11.9750365855
  - # 15
    frequency:   13.8406287943
  - # 16
    frequency:   15.1250288001
  - # 17
    frequency:   15.2259793944
  - # 18
    frequency:   16.2828885506
  - # 19
    frequency:   16.2886900595
  - # 20
    frequency:   60.0377184971
  - # 21
    frequency:  110.1102332681

- q-position: [    0.0404040,    0.0000000,    0.0000000 ]
  distance:    0.0138729
  band:
  - # 1
    frequency:   -2.9779562152
  - # 2
    frequency:   -2.9558999316
  - # 3
    frequency:   -0.5630853386
  - # 4
    frequency:   -0.1513925852
  - # 5
    frequency:    0.1709717191
  - # 6
    frequency:    2.9940465727
  - # 7
    frequency:    3.1505929284
  - # 8
    frequency:    4.4147822873
  - # 9
    frequency:    7.3820515894
  - # 10
    frequency:    7.4405515591
  - # 11
    frequency:    7.8443800586
  - # 12
    frequency:    7.8444983772
  - # 13
    frequency:    9.0976896255
  - # 14
    frequency:   11.9679259982
  - # 15
    frequency:   13.8417558086
  - # 16
    frequency:   15.0892608339
  - # 17
    frequency:   15.2191208993
  - # 18
    frequency:   16.2867917368
  - # 19
    frequency:   16.2955826201
  - # 20
    frequency:   60.0378611065
  - # 21
    frequency:  110.1066542016

- q-position: [    0.0454545,    0.0000000,    0.0000000 ]
  distance:    0.0156070
  band:
  - # 1
    frequency:   -2.9899339061
  - # 2
    frequency:   -2.9623756440
  - # 3
    frequency:   -0.6362041967
  - # 4
    frequency:   -0.1669075731
  - # 5
    frequency:    0.2146041226
  - # 6
    frequency:    2.9572025058
  - # 7
    frequency:    3.1353672955
  - # 8
    frequency:    4.4640220846
  - # 9
    frequency:    7.3863664845
  - # 10
    frequency:    7.4591336515
  - # 11
    frequency:    7.8488285567
  - # 12
    frequency:    7.8491114589
  - # 13
    frequency:    9.0864286515
  - # 14
    frequency:   11.9599111715
  - # 15
    frequency:   13.8429001514
  - # 16
    frequency:   15.0498028774
  - # 17
    frequency:   15.2114620846
  - # 18
    frequency:   16.2905482290
  - # 19
    frequency:   16.3032511144
  - # 20
    frequency:   60.0380172575
  - # 21
    frequency:  110.1026329233

- q-position: [    0.0505051,    0.0000000,    0.0000000 ]
  distance:    0.0173411
  band:
  - # 1
    frequency:   -3.0031686639
  - # 2
    frequency:   -2.9695953331
  - # 3
    frequency:   -0.7095548896
  - # 4
    frequency:   -0.1813064714
  - # 5
    frequency:    0.2624224477
  - # 6
    frequency:    2.9226260193
  - # 7
    frequency:    3.1185739777
  - # 8
    frequency:    4.5144747107
  - # 9
    frequency:    7.3908460360
  - # 10
    frequency:    7.4789032314
  - # 11
    frequency:    7.8538671009
  - # 12
    frequency:    7.8544655834
  - # 13
    frequency:    9.0739753067
  - # 14
    frequency:   11.9510074602
  - # 15
    frequency:   13.8440153625
  - # 16
    frequency:   15.0069636474
  - # 17
    frequency:   15.2030462703
  - # 18
    frequency:   16.2940034034
  - # 19
    frequency:   16.3116419487
  - # 20
    frequency:   60.0381849300
  - # 21
    frequency:  110.0981822844

- q-position: [    0.0555556,    0.0000000,    0.0000000 ]
  distance:    0.0190753
  band:
  - # 1
    frequency:   -3.0176155549
  - # 2
    frequency:   -2.9775348191
  - # 3
    frequency:   -0.7827543735
  - # 4
    frequency:   -0.1945123036
  - # 5
    frequency:    0.3140986652
  - # 6
    frequency:    2.8912160566
  - # 7
    frequency:    3.1002950205
  - # 8
    frequency:    4.5656968690
  - # 9
    frequency:    7.3953954295
  - # 10
    frequency:    7.4995261068
  - # 11
    frequency:    7.8595042753
  - # 12
    frequency:    7.8606601565
  - # 13
    frequency:    9.0603764625
  - # 14
    frequency:   11.9412313712
  - # 15
    frequency:   13.8450512980
  - # 16
    frequency:   14.9610544465
  - # 17
    frequency:   15.1939219002
  - # 18
    frequency:   16.2970179978
  - # 19
    frequency:   16.3206954950
  - # 20
    frequency:   60.0383618857
  - # 21
    frequency:  110.0933164893

- q-position: [    0.0606061,    0.0000000,    0.0000000 ]
  distance:    0.0208094
  band:
  - # 1
    frequency:   -3.0332278010
  - # 2
    frequency:   -2.9861623126
  - # 3
    frequency:   -0.8553166340
  - # 4
    frequency:   -0.2064621256
  - # 5
    frequency:    0.3692822327
  - # 6
    frequency:    2.8637004790
  - # 7
    frequency:    3.0806249582
  - # 8
    frequency:    4.6173530001
  - # 9
    frequency:    7.3999194439
  - # 10
    frequency:    7.5206302238
  - # 11
    frequency:    7.8657428856
  - # 12
    frequency:    7.8678220181
  - # 13
    frequency:    9.0456853155
  - # 14
    frequency:   11.9306003340
  - # 15
    frequency:   13.8459545598
  - # 16
    frequency:   14.9123878268
  - # 17
    frequency:   15.1841423797
  - # 18
    frequency:   16.2994694273
  - # 19
    frequency:   16.3303463238
  - # 20
    frequency:   60.0385456758
  - # 21
    frequency:  110.0880510439

- q-position: [    0.0656566,    0.0000000,    0.0000000 ]
  distance:    0.0225435
  band:
  - # 1
    frequency:   -3.0499575232
  - # 2
    frequency:   -2.9954392725
  - # 3
    frequency:   -0.9266680345
  - # 4
    frequency:   -0.2171081435
  - # 5
    frequency:    0.4276088261
  - # 6
    frequency:    2.8406376046
  - # 7
    frequency:    3.0596718588
  - # 8
    frequency:    4.6691915021
  - # 9
    frequency:    7.4043246717
  - # 10
    frequency:    7.5418063493
  - # 11
    frequency:    7.8725784879
  - # 12
    frequency:    7.8761075393
  - # 13
    frequency:    9.0299617962
  - # 14
    frequency:   11.9191324459
  - # 15
    frequency:   13.8466688828
  - # 16
    frequency:   14.8612775040
  - # 17
    frequency:   15.1737658381
  - # 18
    frequency:   16.3012518694
  - # 19
    frequency:   16.3405235042
  - # 20
    frequency:   60.0387336483
  - # 21
    frequency:  110.0824026986

- q-position: [    0.0707071,    0.0000000,    0.0000000 ]
  distance:    0.0242776
  band:
  - # 1
    frequency:   -3.0677564863
  - # 2
    frequency:   -3.0053218333
  - # 3
    frequency:   -0.9961696084
  - # 4
    frequency:   -0.2264187886
  - # 5
    frequency:    0.4887090437
  - # 6
    frequency:    2.8224200406
  - # 7
    frequency:    3.0375583885
  - # 8
    frequency:    4.7210255785
  - # 9
    frequency:    7.4085215525
  - # 10
    frequency:    7.5626126217
  - # 11
    frequency:    7.8799981341
  - # 12
    frequency:    7.8857005908
  - # 13
    frequency:    9.0132730296
  - # 14
    frequency:   11.9068461902
  - # 15
    frequency:   13.8471354534
  - # 16
    frequency:   14.8080391308
  - # 17
    frequency:   15.1628548139
  - # 18
    frequency:   16.3022755215
  - # 19
    frequency:   16.3511509722
  - # 20
    frequency:   60.0389229578
  - # 21
    frequency:  110.0763893875

- q-position: [    0.0757576,    0.0000000,    0.0000000 ]
  distance:    0.0260117
  band:
  - # 1
    frequency:   -3.0865768211
  - # 2
    frequency:   -3.0157625930
  - # 3
    frequency:   -1.0631433499
  - # 4
    frequency:   -0.2343797196
  - # 5
    frequency:    0.5522164616
  - # 6
    frequency:    2.8092831115
  - # 7
    frequency:    3.0144228496
  - # 8
    frequency:    4.7727180799
  - # 9
    frequency:    7.4124261018
  - # 10
    frequency:    7.5825859373
  - # 11
    frequency:    7.8879794460
  - # 12
    frequency:    7.8968033538
  - # 13
    frequency:    8.9956938648
  - # 14
    frequency:   11.8937601315
  - # 15
    frequency:   13.8472931258
  - # 16
    frequency:   14.7529916116
  - # 17
    frequency:   15.1514758635
  - # 18
    frequency:   16.3024653597
  - # 19
    frequency:   16.3621479621
  - # 20
    frequency:   60.0391105752
  - # 21
    frequency:  110.0700301628

- q-position: [    0.0808081,    0.0000000,    0.0000000 ]
  distance:    0.0277458
  band:
  - # 1
    frequency:   -3.1063717004
  - # 2
    frequency:   -3.0267124825
  - # 3
    frequency:   -1.1268990779
  - # 4
    frequency:   -0.2409946902
  - # 5
    frequency:    0.6177745972
  - # 6
    frequency:    2.8013188606
  - # 7
    frequency:    2.9904201416
  - # 8
    frequency:    4.8241695811
  - # 9
    frequency:    7.4159612383
  - # 10
    frequency:    7.6012629069
  - # 11
    frequency:    7.8964901091
  - # 12
    frequency:    7.9096171905
  - # 13
    frequency:    8.9773074941
  - # 14
    frequency:   11.8798925930
  - # 15
    frequency:   13.8470785004
  - # 16
    frequency:   14.6964587259
  - # 17
    frequency:   15.1396990956
  - # 18
    frequency:   16.3017596482
  - # 19
    frequency:   16.3734294953
  - # 20
    frequency:   60.0392932990
  - # 21
    frequency:  110.0633451244

- q-position: [    0.0858586,    0.0000000,    0.0000000 ]
  distance:    0.0294800
  band:
  - # 1
    frequency:   -3.1270959447
  - # 2
    frequency:   -3.0381223885
  - # 3
    frequency:   -1.1867587707
  - # 4
    frequency:   -0.2462861649
  - # 5
    frequency:    0.6850425147
  - # 6
    frequency:    2.7984950979
  - # 7
    frequency:    2.9657225739
  - # 8
    frequency:    4.8753090044
  - # 9
    frequency:    7.4190576438
  - # 10
    frequency:    7.6182107417
  - # 11
    frequency:    7.9054878520
  - # 12
    frequency:    7.9243131687
  - # 13
    frequency:    8.9582061950
  - # 14
    frequency:   11.8652613207
  - # 15
    frequency:   13.8464258183
  - # 16
    frequency:   14.6387709041
  - # 17
    frequency:   15.1275976370
  - # 18
    frequency:   16.3001083784
  - # 19
    frequency:   16.3849069205
  - # 20
    frequency:   60.0394677684
  - # 21
    frequency:  110.0563553470

- q-position: [    0.0909091,    0.0000000,    0.0000000 ]
  distance:    0.0312141
  band:
  - # 1
    frequency:   -3.1487065335
  - # 2
    frequency:   -3.0499442135
  - # 3
    frequency:   -1.2420762160
  - # 4
    frequency:   -0.2502954939
  - # 5
    frequency:    0.7536989729
  - # 6
    frequency:    2.8006778251
  - # 7
    frequency:    2.9405204486
  - # 8
    frequency:    4.9260862243
  - # 9
    frequency:    7.4216541315
  - # 10
    frequency:    7.6330635126
  - # 11
    frequency:    7.9149209290
  - # 12
    frequency:    7.9409967534
  - # 13
    frequency:    8.9384922396
  - # 14
    frequency:   11.8498831476
  - # 15
    frequency:   13.8452666179
  - # 16
    frequency:   14.5802670697
  - # 17
    frequency:   15.1152470352
  - # 18
    frequency:   16.2974717536
  - # 19
    frequency:   16.3964884950
  - # 20
    frequency:   60.0396304761
  - # 21
    frequency:  110.0490828018

- q-position: [    0.0959596,    0.0000000,    0.0000000 ]
  distance:    0.0329482
  band:
  - # 1
    frequency:   -3.1711630014
  - # 2
    frequency:   -3.0621311170
  - # 3
    frequency:   -1.2922510012
  - # 4
    frequency:   -0.2530823593
  - # 5
    frequency:    0.8234451463
  - # 6
    frequency:    2.8076548609
  - # 7
    frequency:    2.9150223101
  - # 8
    frequency:    4.9764662114
  - # 9
    frequency:    7.4236975457
  - # 10
    frequency:    7.6455538393
  - # 11
    frequency:    7.9247290831
  - # 12
    frequency:    7.9596765559
  - # 13
    frequency:    8.9182790312
  - # 14
    frequency:   11.8337736682
  - # 15
    frequency:   13.8435290875
  - # 16
    frequency:   14.5212965139
  - # 17
    frequency:   15.1027246050
  - # 18
    frequency:   16.2938187929
  - # 19
    frequency:   16.4080800020
  - # 20
    frequency:   60.0397777834
  - # 21
    frequency:  110.0415502761

- q-position: [    0.1010101,    0.0000000,    0.0000000 ]
  distance:    0.0346823
  band:
  - # 1
    frequency:   -3.1944276992
  - # 2
    frequency:   -3.0746367944
  - # 3
    frequency:   -1.3367369072
  - # 4
    frequency:   -0.2547230845
  - # 5
    frequency:    0.8940060516
  - # 6
    frequency:    2.8191586009
  - # 7
    frequency:    2.8894547483
  - # 8
    frequency:    5.0264243820
  - # 9
    frequency:    7.4251422555
  - # 10
    frequency:    7.6555286952
  - # 11
    frequency:    7.9348449234
  - # 12
    frequency:    7.9802483915
  - # 13
    frequency:    8.8976925493
  - # 14
    frequency:   11.8169469431
  - # 15
    frequency:   13.8411370360
  - # 16
    frequency:   14.4622208132
  - # 17
    frequency:   15.0901087263
  - # 18
    frequency:   16.2891260914
  - # 19
    frequency:   16.4195853929
  - # 20
    frequency:   60.0399059367
  - # 21
    frequency:  110.0337812892

- q-position: [    0.1060606,    0.0000000,    0.0000000 ]
  distance:    0.0364164
  band:
  - # 1
    frequency:   -3.2184659066
  - # 2
    frequency:   -3.0874138097
  - # 3
    frequency:   -1.3750454211
  - # 4
    frequency:   -0.2553072617
  - # 5
    frequency:    0.9651308760
  - # 6
    frequency:    2.8348863601
  - # 7
    frequency:    2.8640616242
  - # 8
    frequency:    5.0759428974
  - # 9
    frequency:    7.4259493370
  - # 10
    frequency:    7.6629435969
  - # 11
    frequency:    7.9451956201
  - # 12
    frequency:    8.0025002936
  - # 13
    frequency:    8.8768732070
  - # 14
    frequency:   11.7994152554
  - # 15
    frequency:   13.8380084001
  - # 16
    frequency:   14.4034158246
  - # 17
    frequency:   15.0774781025
  - # 18
    frequency:   16.2833767562
  - # 19
    frequency:   16.4309074488
  - # 20
    frequency:   60.0400110837
  - # 21
    frequency:  110.0258000057

- q-position: [    0.1111111,    0.0000000,    0.0000000 ]
  distance:    0.0381505
  band:
  - # 1
    frequency:   -3.2432457868
  - # 2
    frequency:   -3.1004111683
  - # 3
    frequency:   -1.4067452985
  - # 4
    frequency:   -0.2549320161
  - # 5
    frequency:    1.0365924403
  - # 6
    frequency:    2.8391025858
  - # 7
    frequency:    2.8545174072
  - # 8
    frequency:    5.1250077232
  - # 9
    frequency:    7.4260855562
  - # 10
    frequency:    7.6678389555
  - # 11
    frequency:    7.9557048011
  - # 12
    frequency:    8.0261345950
  - # 13
    frequency:    8.8559782520
  - # 14
    frequency:   11.7811889453
  - # 15
    frequency:   13.8340532176
  - # 16
    frequency:   14.3452737926
  - # 17
    frequency:   15.0649109847
  - # 18
    frequency:   16.2765595190
  - # 19
    frequency:   16.4419484549
  - # 20
    frequency:   60.0400892923
  - # 21
    frequency:  110.0176311462

- q-position: [    0.1161616,    0.0000000,    0.0000000 ]
  distance:    0.0398846
  band:
  - # 1
    frequency:   -3.2687381800
  - # 2
    frequency:   -3.1135714768
  - # 3
    frequency:   -1.4314589768
  - # 4
    frequency:   -0.2536931171
  - # 5
    frequency:    1.1081860364
  - # 6
    frequency:    2.8148507438
  - # 7
    frequency:    2.8777264069
  - # 8
    frequency:    5.1736063047
  - # 9
    frequency:    7.4255222655
  - # 10
    frequency:    7.6703089154
  - # 11
    frequency:    7.9662945344
  - # 12
    frequency:    8.0507966217
  - # 13
    frequency:    8.8351848654
  - # 14
    frequency:   11.7622763544
  - # 15
    frequency:   13.8291710716
  - # 16
    frequency:   14.2882055377
  - # 17
    frequency:   15.0524843739
  - # 18
    frequency:   16.2686680182
  - # 19
    frequency:   16.4526108795
  - # 20
    frequency:   60.0401365697
  - # 21
    frequency:  110.0092998959

- q-position: [    0.1212121,    0.0000000,    0.0000000 ]
  distance:    0.0416188
  band:
  - # 1
    frequency:   -3.2949162411
  - # 2
    frequency:   -3.1268281491
  - # 3
    frequency:   -1.4488563226
  - # 4
    frequency:   -0.2516721018
  - # 5
    frequency:    1.1797278708
  - # 6
    frequency:    2.7915894002
  - # 7
    frequency:    2.9041934304
  - # 8
    frequency:    5.2217257492
  - # 9
    frequency:    7.4242343188
  - # 10
    frequency:    7.6704728615
  - # 11
    frequency:    7.9768872867
  - # 12
    frequency:    8.0760996749
  - # 13
    frequency:    8.8146941193
  - # 14
    frequency:   11.7426839134
  - # 15
    frequency:   13.8232482251
  - # 16
    frequency:   14.2326424869
  - # 17
    frequency:   15.0402732057
  - # 18
    frequency:   16.2597002391
  - # 19
    frequency:   16.4627980560
  - # 20
    frequency:   60.0401488828
  - # 21
    frequency:  110.0008318116

- q-position: [    0.1262626,    0.0000000,    0.0000000 ]
  distance:    0.0433529
  band:
  - # 1
    frequency:   -3.3217549318
  - # 2
    frequency:   -3.1401031478
  - # 3
    frequency:   -1.4586458217
  - # 4
    frequency:   -0.2489186171
  - # 5
    frequency:    1.2510533209
  - # 6
    frequency:    2.7696077627
  - # 7
    frequency:    2.9336109554
  - # 8
    frequency:    5.2693514317
  - # 9
    frequency:    7.4221990908
  - # 10
    frequency:    7.6684551693
  - # 11
    frequency:    7.9874077654
  - # 12
    frequency:    8.1016406263
  - # 13
    frequency:    8.7947359117
  - # 14
    frequency:   11.7224164075
  - # 15
    frequency:   13.8161551904
  - # 16
    frequency:   14.1790377880
  - # 17
    frequency:   15.0283495295
  - # 18
    frequency:   16.2496580950
  - # 19
    frequency:   16.4724148607
  - # 20
    frequency:   60.0401221792
  - # 21
    frequency:  109.9922527271

- q-position: [    0.1313131,    0.0000000,    0.0000000 ]
  distance:    0.0450870
  band:
  - # 1
    frequency:   -3.3492303900
  - # 2
    frequency:   -3.1533056887
  - # 3
    frequency:   -1.4605629902
  - # 4
    frequency:   -0.2454272775
  - # 5
    frequency:    1.3220151806
  - # 6
    frequency:    2.7491956427
  - # 7
    frequency:    2.9656883842
  - # 8
    frequency:    5.3164659613
  - # 9
    frequency:    7.4193956653
  - # 10
    frequency:    7.6643739693
  - # 11
    frequency:    7.9977845755
  - # 12
    frequency:    8.1270053958
  - # 13
    frequency:    8.7755748525
  - # 14
    frequency:   11.7014774524
  - # 15
    frequency:   13.8077466387
  - # 16
    frequency:   14.1278645927
  - # 17
    frequency:   15.0167816886
  - # 18
    frequency:   16.2385471339
  - # 19
    frequency:   16.4813683855
  - # 20
    frequency:   60.0400524092
  - # 21
    frequency:  109.9835886580

- q-position: [    0.1363636,    0.0000000,    0.0000000 ]
  distance:    0.0468211
  band:
  - # 1
    frequency:   -3.3773192019
  - # 2
    frequency:   -3.1663321905
  - # 3
    frequency:   -1.4543554893
  - # 4
    frequency:   -0.2411083121
  - # 5
    frequency:    1.3924820385
  - # 6
    frequency:    2.7306372249
  - # 7
    frequency:    3.0001546135
  - # 8
    frequency:    5.3630484570
  - # 9
    frequency:    7.4158042335
  - # 10
    frequency:    7.6583370014
  - # 11
    frequency:    8.0079516402
  - # 12
    frequency:    8.1517666404
  - # 13
    frequency:    8.7575167048
  - # 14
    frequency:   11.6798702063
  - # 15
    frequency:   13.7978677858
  - # 16
    frequency:   14.0796073807
  - # 17
    frequency:   15.0056335098
  - # 18
    frequency:   16.2263763532
  - # 19
    frequency:   16.4895686015
  - # 20
    frequency:   60.0399355489
  - # 21
    frequency:  109.9748657049

- q-position: [    0.1414141,    0.0000000,    0.0000000 ]
  distance:    0.0485552
  band:
  - # 1
    frequency:   -3.4059976150
  - # 2
    frequency:   -3.1790675518
  - # 3
    frequency:   -1.4397641125
  - # 4
    frequency:   -0.2357506798
  - # 5
    frequency:    1.4623368951
  - # 6
    frequency:    2.7142041011
  - # 7
    frequency:    3.0367591321
  - # 8
    frequency:    5.4090740963
  - # 9
    frequency:    7.4114057260
  - # 10
    frequency:    7.6504419824
  - # 11
    frequency:    8.0178493556
  - # 12
    frequency:    8.1754773858
  - # 13
    frequency:    8.7409142339
  - # 14
    frequency:   11.6575983316
  - # 15
    frequency:   13.7863748316
  - # 16
    frequency:   14.0347387628
  - # 17
    frequency:   14.9949635120
  - # 18
    frequency:   16.2131581065
  - # 19
    frequency:   16.4969290135
  - # 20
    frequency:   60.0397676231
  - # 21
    frequency:  109.9661099578

- q-position: [    0.1464646,    0.0000000,    0.0000000 ]
  distance:    0.0502893
  band:
  - # 1
    frequency:   -3.4352407305
  - # 2
    frequency:   -3.1913876366
  - # 3
    frequency:   -1.4164983265
  - # 4
    frequency:   -0.2289742113
  - # 5
    frequency:    1.5314760965
  - # 6
    frequency:    2.7001478758
  - # 7
    frequency:    3.0752720445
  - # 8
    frequency:    5.4545139016
  - # 9
    frequency:    7.4061816821
  - # 10
    frequency:    7.6407793252
  - # 11
    frequency:    8.0274254647
  - # 12
    frequency:    8.1976652662
  - # 13
    frequency:    8.7261699672
  - # 14
    frequency:   11.6346672016
  - # 15
    frequency:   13.7731799500
  - # 16
    frequency:   13.9936713077
  - # 17
    frequency:   14.9848241409
  - # 18
    frequency:   16.1989080877
  - # 19
    frequency:   16.5033673030
  - # 20
    frequency:   60.0395447290
  - # 21
    frequency:  109.9573473992

- q-position: [    0.1515152,    0.0000000,    0.0000000 ]
  distance:    0.0520234
  band:
  - # 1
    frequency:   -3.4650217235
  - # 2
    frequency:   -3.2031626850
  - # 3
    frequency:   -1.3842041464
  - # 4
    frequency:   -0.2201614544
  - # 5
    frequency:    1.5998086298
  - # 6
    frequency:    2.6886927560
  - # 7
    frequency:    3.1154833354
  - # 8
    frequency:    5.4993347407
  - # 9
    frequency:    7.4001143515
  - # 10
    frequency:    7.6294357456
  - # 11
    frequency:    8.0366356494
  - # 12
    frequency:    8.2178333383
  - # 13
    frequency:    8.7137313597
  - # 14
    frequency:   11.6110853243
  - # 15
    frequency:   13.7583273270
  - # 16
    frequency:   13.9566779594
  - # 17
    frequency:   14.9752610373
  - # 18
    frequency:   16.1836453775
  - # 19
    frequency:   16.5088059607
  - # 20
    frequency:   60.0392630604
  - # 21
    frequency:  109.9486038090
