nqpoint: 300    
npath: 3      
segment_nqpoint:
- 100
- 100
- 100
labels:
- [ 'G', 'M' ]
- [ 'M', 'K' ]
- [ 'K', 'G' ]
reciprocal_lattice:
- [   0.29870877,   0.17245959,   0.00000000 ] # a*
- [   0.00000000,   0.34491917,   0.00000000 ] # b*
- [   0.00000000,   0.00000000,   0.04069557 ] # c*
natom: 6      
lattice:
- [     3.347742394769124,     0.000000000000000,     0.000000000000000 ] # a
- [    -1.673871197384562,     2.899229959185061,     0.000000000000000 ] # b
- [     0.000000000000000,     0.000000000000000,    24.572698242391560 ] # c
points:
- symbol: Cl # 1
  coordinates: [  0.666666984744048,  0.333332985985145,  0.366260144133202 ]
  mass: 35.453000
- symbol: N # 2
  coordinates: [  0.000000000000000,  0.000000000000000,  0.479048179708289 ]
  mass: 14.006700
- symbol: N # 3
  coordinates: [  0.333332985432215,  0.666666983183674,  0.579882973088396 ]
  mass: 14.006700
- symbol: O # 4
  coordinates: [  0.333332985432215,  0.666666983183674,  0.633739855866798 ]
  mass: 15.999400
- symbol: Sc # 5
  coordinates: [  0.333332985432215,  0.666666983183674,  0.436212957718210 ]
  mass: 44.955912
- symbol: Sc # 6
  coordinates: [  0.666666984744048,  0.333332985985145,  0.540249703728617 ]
  mass: 44.955912

phonon:
- q-position: [    0.0000000,    0.0000000,    0.0000000 ]
  distance:    0.0000000
  band:
  - # 1
    frequency:   -3.9306090673
  - # 2
    frequency:   -3.9306090673
  - # 3
    frequency:   -0.0000228115
  - # 4
    frequency:   -0.0000003522
  - # 5
    frequency:    0.0000210648
  - # 6
    frequency:    3.2873764888
  - # 7
    frequency:    3.2873764889
  - # 8
    frequency:    5.6752895418
  - # 9
    frequency:    5.7537671725
  - # 10
    frequency:    5.7537671725
  - # 11
    frequency:    8.8842744953
  - # 12
    frequency:    9.1980196404
  - # 13
    frequency:    9.1980196405
  - # 14
    frequency:   10.6939782386
  - # 15
    frequency:   11.6924256822
  - # 16
    frequency:   11.6924256822
  - # 17
    frequency:   15.5662913010
  - # 18
    frequency:   39.3329871331

- q-position: [    0.0050505,    0.0000000,    0.0000000 ]
  distance:    0.0017420
  band:
  - # 1
    frequency:   -3.9302514670
  - # 2
    frequency:   -3.9289139372
  - # 3
    frequency:    0.0019691468
  - # 4
    frequency:    0.0530056432
  - # 5
    frequency:    0.1168840422
  - # 6
    frequency:    3.2877595938
  - # 7
    frequency:    3.2896509203
  - # 8
    frequency:    5.6679452958
  - # 9
    frequency:    5.7539702366
  - # 10
    frequency:    5.7620771574
  - # 11
    frequency:    8.8816341175
  - # 12
    frequency:    9.1984656865
  - # 13
    frequency:    9.2011374119
  - # 14
    frequency:   10.6929294243
  - # 15
    frequency:   11.6922488640
  - # 16
    frequency:   11.6954012099
  - # 17
    frequency:   15.5655251630
  - # 18
    frequency:   39.3322320241

- q-position: [    0.0101010,    0.0000000,    0.0000000 ]
  distance:    0.0034840
  band:
  - # 1
    frequency:   -3.9291800293
  - # 2
    frequency:   -3.9238389781
  - # 3
    frequency:    0.0078624055
  - # 4
    frequency:    0.1059865909
  - # 5
    frequency:    0.2338347000
  - # 6
    frequency:    3.2889096116
  - # 7
    frequency:    3.2964550441
  - # 8
    frequency:    5.6513229844
  - # 9
    frequency:    5.7545792650
  - # 10
    frequency:    5.7815953901
  - # 11
    frequency:    8.8739664780
  - # 12
    frequency:    9.1998028110
  - # 13
    frequency:    9.2102389749
  - # 14
    frequency:   10.6898111839
  - # 15
    frequency:   11.6917190215
  - # 16
    frequency:   11.7042884939
  - # 17
    frequency:   15.5632286087
  - # 18
    frequency:   39.3299679095

- q-position: [    0.0151515,    0.0000000,    0.0000000 ]
  distance:    0.0052260
  band:
  - # 1
    frequency:   -3.9273988472
  - # 2
    frequency:   -3.9154154358
  - # 3
    frequency:    0.0176340358
  - # 4
    frequency:    0.1589185029
  - # 5
    frequency:    0.3509165533
  - # 6
    frequency:    3.2908286348
  - # 7
    frequency:    3.3077320429
  - # 8
    frequency:    5.6315481839
  - # 9
    frequency:    5.7555937652
  - # 10
    frequency:    5.8061924225
  - # 11
    frequency:    8.8619189952
  - # 12
    frequency:    9.2020279740
  - # 13
    frequency:    9.2246819834
  - # 14
    frequency:   10.6847045625
  - # 15
    frequency:   11.6908379929
  - # 16
    frequency:   11.7189734589
  - # 17
    frequency:   15.5594072115
  - # 18
    frequency:   39.3261984236

- q-position: [    0.0202020,    0.0000000,    0.0000000 ]
  distance:    0.0069681
  band:
  - # 1
    frequency:   -3.9249147547
  - # 2
    frequency:   -3.9036952230
  - # 3
    frequency:    0.0312104680
  - # 4
    frequency:    0.2117777287
  - # 5
    frequency:    0.4681901033
  - # 6
    frequency:    3.2935200958
  - # 7
    frequency:    3.3233894763
  - # 8
    frequency:    5.6110331741
  - # 9
    frequency:    5.7570129159
  - # 10
    frequency:    5.8334495733
  - # 11
    frequency:    8.8462935743
  - # 12
    frequency:    9.2051361102
  - # 13
    frequency:    9.2436724844
  - # 14
    frequency:   10.6777336606
  - # 15
    frequency:   11.6896088439
  - # 16
    frequency:   11.7392778037
  - # 17
    frequency:   15.5540702407
  - # 18
    frequency:   39.3209296146

- q-position: [    0.0252525,    0.0000000,    0.0000000 ]
  distance:    0.0087101
  band:
  - # 1
    frequency:   -3.9217373448
  - # 2
    frequency:   -3.8887506523
  - # 3
    frequency:    0.0484927716
  - # 4
    frequency:    0.2645416491
  - # 5
    frequency:    0.5857096868
  - # 6
    frequency:    3.2969886845
  - # 7
    frequency:    3.3433024672
  - # 8
    frequency:    5.5906428434
  - # 9
    frequency:    5.7588355658
  - # 10
    frequency:    5.8624930976
  - # 11
    frequency:    8.8278484864
  - # 12
    frequency:    9.2091201308
  - # 13
    frequency:    9.2664623448
  - # 14
    frequency:   10.6690519358
  - # 15
    frequency:   11.6880358726
  - # 16
    frequency:   11.7649739095
  - # 17
    frequency:   15.5472306320
  - # 18
    frequency:   39.3141699299

- q-position: [    0.0303030,    0.0000000,    0.0000000 ]
  distance:    0.0104521
  band:
  - # 1
    frequency:   -3.9178789922
  - # 2
    frequency:   -3.8706740242
  - # 3
    frequency:    0.0693602977
  - # 4
    frequency:    0.3171890008
  - # 5
    frequency:    0.7035213527
  - # 6
    frequency:    3.3012402335
  - # 7
    frequency:    3.3673177999
  - # 8
    frequency:    5.5707278859
  - # 9
    frequency:    5.7610602324
  - # 10
    frequency:    5.8929610895
  - # 11
    frequency:    8.8072084083
  - # 12
    frequency:    9.2139709267
  - # 13
    frequency:    9.2924383446
  - # 14
    frequency:   10.6588274468
  - # 15
    frequency:   11.6861246145
  - # 16
    frequency:   11.7958011703
  - # 17
    frequency:   15.5389049465
  - # 18
    frequency:   39.3059301972

- q-position: [    0.0353535,    0.0000000,    0.0000000 ]
  distance:    0.0121941
  band:
  - # 1
    frequency:   -3.9133548807
  - # 2
    frequency:   -3.8495770321
  - # 3
    frequency:    0.0936748258
  - # 4
    frequency:    0.3697001844
  - # 5
    frequency:    0.8216607014
  - # 6
    frequency:    3.3062815731
  - # 7
    frequency:    3.3952586317
  - # 8
    frequency:    5.5514473293
  - # 9
    frequency:    5.7636851009
  - # 10
    frequency:    5.9246810763
  - # 11
    frequency:    8.7848551912
  - # 12
    frequency:    9.2196773717
  - # 13
    frequency:    9.3211304593
  - # 14
    frequency:   10.6472295094
  - # 15
    frequency:   11.6838818498
  - # 16
    frequency:   11.8314811740
  - # 17
    frequency:   15.5291133184
  - # 18
    frequency:   39.2962235989

- q-position: [    0.0404040,    0.0000000,    0.0000000 ]
  distance:    0.0139361
  band:
  - # 1
    frequency:   -3.9081830314
  - # 2
    frequency:   -3.8255899458
  - # 3
    frequency:    0.1212849218
  - # 4
    frequency:    0.4220575513
  - # 5
    frequency:    0.9401507021
  - # 6
    frequency:    3.3121203546
  - # 7
    frequency:    3.4269295094
  - # 8
    frequency:    5.5328781922
  - # 9
    frequency:    5.7667080230
  - # 10
    frequency:    5.9575604986
  - # 11
    frequency:    8.7611536589
  - # 12
    frequency:    9.2262263276
  - # 13
    frequency:    9.3521851204
  - # 14
    frequency:   10.6344183093
  - # 15
    frequency:   11.6813156118
  - # 16
    frequency:   11.8717300815
  - # 17
    frequency:   15.5178793904
  - # 18
    frequency:   39.2850656421

- q-position: [    0.0454545,    0.0000000,    0.0000000 ]
  distance:    0.0156781
  band:
  - # 1
    frequency:   -3.9023843301
  - # 2
    frequency:   -3.7988605316
  - # 3
    frequency:    0.1520302376
  - # 4
    frequency:    0.4742456622
  - # 5
    frequency:    1.0589995230
  - # 6
    frequency:    3.3187648473
  - # 7
    frequency:    3.4621214089
  - # 8
    frequency:    5.5150581923
  - # 9
    frequency:    5.7701265159
  - # 10
    frequency:    5.9915441502
  - # 11
    frequency:    8.7363840322
  - # 12
    frequency:    9.2336026498
  - # 13
    frequency:    9.3853319439
  - # 14
    frequency:   10.6205380159
  - # 15
    frequency:   11.6784351958
  - # 16
    frequency:   11.9162675573
  - # 17
    frequency:   15.5052302398
  - # 18
    frequency:   39.2724741221

- q-position: [    0.0505051,    0.0000000,    0.0000000 ]
  distance:    0.0174202
  band:
  - # 1
    frequency:   -3.8959825510
  - # 2
    frequency:   -3.7695526738
  - # 3
    frequency:    0.1857455313
  - # 4
    frequency:    0.5262515132
  - # 5
    frequency:    1.1781984221
  - # 6
    frequency:    3.3262237080
  - # 7
    frequency:    3.5006165605
  - # 8
    frequency:    5.4980044996
  - # 9
    frequency:    5.7739377622
  - # 10
    frequency:    6.0265955763
  - # 11
    frequency:    8.7107696341
  - # 12
    frequency:    9.2417891938
  - # 13
    frequency:    9.4203553367
  - # 14
    frequency:   10.6057131766
  - # 15
    frequency:   11.6752511702
  - # 16
    frequency:   11.9648223843
  - # 17
    frequency:   15.4911962923
  - # 18
    frequency:   39.2584690816

- q-position: [    0.0555556,    0.0000000,    0.0000000 ]
  distance:    0.0191622
  band:
  - # 1
    frequency:   -3.8890043722
  - # 2
    frequency:   -3.7378446749
  - # 3
    frequency:    0.2222642476
  - # 4
    frequency:    0.5780647214
  - # 5
    frequency:    1.2977197678
  - # 6
    frequency:    3.3345057286
  - # 7
    frequency:    3.5421928882
  - # 8
    frequency:    5.4817228307
  - # 9
    frequency:    5.7781386105
  - # 10
    frequency:    6.0626881272
  - # 11
    frequency:    8.6844973983
  - # 12
    frequency:    9.2507668235
  - # 13
    frequency:    9.4570735025
  - # 14
    frequency:   10.5900477611
  - # 15
    frequency:   11.6717753872
  - # 16
    frequency:   12.0171353288
  - # 17
    frequency:   15.4758112268
  - # 18
    frequency:   39.2430727643

- q-position: [    0.0606061,    0.0000000,    0.0000000 ]
  distance:    0.0209042
  band:
  - # 1
    frequency:   -3.8814793800
  - # 2
    frequency:   -3.7039272296
  - # 3
    frequency:    0.2614215610
  - # 4
    frequency:    0.6296776645
  - # 5
    frequency:    1.4175152691
  - # 6
    frequency:    3.3436195633
  - # 7
    frequency:    3.5866279541
  - # 8
    frequency:    5.4662122414
  - # 9
    frequency:    5.7827255770
  - # 10
    frequency:    6.0998003013
  - # 11
    frequency:    8.6577319838
  - # 12
    frequency:    9.2605144206
  - # 13
    frequency:    9.4953240581
  - # 14
    frequency:   10.5736261029
  - # 15
    frequency:   11.6680209948
  - # 16
    frequency:   12.0729599731
  - # 17
    frequency:   15.4591118696
  - # 18
    frequency:   39.2263095630

- q-position: [    0.0656566,    0.0000000,    0.0000000 ]
  distance:    0.0226462
  band:
  - # 1
    frequency:   -3.8734400573
  - # 2
    frequency:   -3.6680010916
  - # 3
    frequency:    0.3030568377
  - # 4
    frequency:    0.6810855653
  - # 5
    frequency:    1.5375145070
  - # 6
    frequency:    3.3535734408
  - # 7
    frequency:    3.6337023555
  - # 8
    frequency:    5.4514678371
  - # 9
    frequency:    5.7876948485
  - # 10
    frequency:    6.1379131524
  - # 11
    frequency:    8.6306250564
  - # 12
    frequency:    9.2710088954
  - # 13
    frequency:    9.5349546820
  - # 14
    frequency:   10.5565150566
  - # 15
    frequency:   11.6640024484
  - # 16
    frequency:   12.1320621898
  - # 17
    frequency:   15.4411380811
  - # 18
    frequency:   39.2082059636

- q-position: [    0.0707071,    0.0000000,    0.0000000 ]
  distance:    0.0243882
  band:
  - # 1
    frequency:   -3.8649217519
  - # 2
    frequency:   -3.6302744814
  - # 3
    frequency:    0.3470155220
  - # 4
    frequency:    0.7322865178
  - # 5
    frequency:    1.6576238585
  - # 6
    frequency:    3.3643748663
  - # 7
    frequency:    3.6832025729
  - # 8
    frequency:    5.4374824024
  - # 9
    frequency:    5.7930422866
  - # 10
    frequency:    6.1770087467
  - # 11
    frequency:    8.6033211759
  - # 12
    frequency:    9.2822251992
  - # 13
    frequency:    9.5758173059
  - # 14
    frequency:   10.5387668449
  - # 15
    frequency:   11.6597355224
  - # 16
    frequency:   12.1942188118
  - # 17
    frequency:   15.4219326332
  - # 18
    frequency:   39.1887904838

- q-position: [    0.0757576,    0.0000000,    0.0000000 ]
  distance:    0.0261302
  band:
  - # 1
    frequency:   -3.8559626196
  - # 2
    frequency:   -3.5909603141
  - # 3
    frequency:    0.3931504790
  - # 4
    frequency:    0.7832814441
  - # 5
    frequency:    1.7777258964
  - # 6
    frequency:    3.3760303183
  - # 7
    frequency:    3.7349232986
  - # 8
    frequency:    5.4242474375
  - # 9
    frequency:    5.7987634344
  - # 10
    frequency:    6.2170691792
  - # 11
    frequency:    8.5759613956
  - # 12
    frequency:    9.2941363389
  - # 13
    frequency:    9.6177646573
  - # 14
    frequency:   10.5204222527
  - # 15
    frequency:   11.6552373221
  - # 16
    frequency:   12.2592159060
  - # 17
    frequency:   15.4015410816
  - # 18
    frequency:   39.1680936066

- q-position: [    0.0808081,    0.0000000,    0.0000000 ]
  distance:    0.0278723
  band:
  - # 1
    frequency:   -3.8466035376
  - # 2
    frequency:   -3.5502733487
  - # 3
    frequency:    0.4413228525
  - # 4
    frequency:    0.8340739799
  - # 5
    frequency:    1.8976793324
  - # 6
    frequency:    3.3885449467
  - # 7
    frequency:    3.7886692963
  - # 8
    frequency:    5.4117538487
  - # 9
    frequency:    5.8048535240
  - # 10
    frequency:    6.2580758875
  - # 11
    frequency:    8.5486853638
  - # 12
    frequency:    9.3067133940
  - # 13
    frequency:    9.6606482326
  - # 14
    frequency:   10.5015139969
  - # 15
    frequency:   11.6505262929
  - # 16
    frequency:   12.3268469309
  - # 17
    frequency:   15.3800116318
  - # 18
    frequency:   39.1461477105

- q-position: [    0.0858586,    0.0000000,    0.0000000 ]
  distance:    0.0296143
  band:
  - # 1
    frequency:   -3.8368879826
  - # 2
    frequency:   -3.5084273840
  - # 3
    frequency:    0.4914025011
  - # 4
    frequency:    0.8846702822
  - # 5
    frequency:    2.0173195405
  - # 6
    frequency:    3.4019222786
  - # 7
    frequency:    3.8442568537
  - # 8
    frequency:    5.3999924305
  - # 9
    frequency:    5.8113074873
  - # 10
    frequency:    6.3000091205
  - # 11
    frequency:    8.5216324662
  - # 12
    frequency:    9.3199255350
  - # 13
    frequency:    9.7043169641
  - # 14
    frequency:   10.4820702719
  - # 15
    frequency:   11.6456222300
  - # 16
    frequency:   12.3969109551
  - # 17
    frequency:   15.3573950033
  - # 18
    frequency:   39.1229869943

- q-position: [    0.0909091,    0.0000000,    0.0000000 ]
  distance:    0.0313563
  band:
  - # 1
    frequency:   -3.8268618709
  - # 2
    frequency:   -3.4656326315
  - # 3
    frequency:    0.5432680803
  - # 4
    frequency:    0.9350787571
  - # 5
    frequency:    2.1364596691
  - # 6
    frequency:    3.4161639382
  - # 7
    frequency:    3.9015148844
  - # 8
    frequency:    5.3889542156
  - # 9
    frequency:    5.8181199675
  - # 10
    frequency:    6.3428474731
  - # 11
    frequency:    8.4949423725
  - # 12
    frequency:    9.3337400464
  - # 13
    frequency:    9.7486159133
  - # 14
    frequency:   10.4621186524
  - # 15
    frequency:   11.6405462843
  - # 16
    frequency:   12.4692110439
  - # 17
    frequency:   15.3337442937
  - # 18
    frequency:   39.0986473983

- q-position: [    0.0959596,    0.0000000,    0.0000000 ]
  distance:    0.0330983
  band:
  - # 1
    frequency:   -3.8165733543
  - # 2
    frequency:   -3.4220933883
  - # 3
    frequency:    0.5968068357
  - # 4
    frequency:    0.9853097067
  - # 5
    frequency:    2.2548923145
  - # 6
    frequency:    3.4312693886
  - # 7
    frequency:    3.9602857314
  - # 8
    frequency:    5.3786307407
  - # 9
    frequency:    5.8252853338
  - # 10
    frequency:    6.3865674335
  - # 11
    frequency:    8.4687552230
  - # 12
    frequency:    9.3481223510
  - # 13
    frequency:    9.7933842438
  - # 14
    frequency:   10.4416907969
  - # 15
    frequency:   11.6353209669
  - # 16
    frequency:   12.5435528664
  - # 17
    frequency:   15.3091148454
  - # 18
    frequency:   39.0731665214

- q-position: [    0.1010101,    0.0000000,    0.0000000 ]
  distance:    0.0348403
  band:
  - # 1
    frequency:   -3.8060725701
  - # 2
    frequency:   -3.3780061170
  - # 3
    frequency:    0.6519141650
  - # 4
    frequency:    1.0353748969
  - # 5
    frequency:    2.3723917001
  - # 6
    frequency:    3.4472356999
  - # 7
    frequency:    4.0204257056
  - # 8
    frequency:    5.3690142556
  - # 9
    frequency:    5.8327976978
  - # 10
    frequency:    6.4311429018
  - # 11
    frequency:    8.4432116073
  - # 12
    frequency:    9.3630360403
  - # 13
    frequency:    9.8384513935
  - # 14
    frequency:   10.4208288399
  - # 15
    frequency:   11.6299701493
  - # 16
    frequency:   12.6197435427
  - # 17
    frequency:   15.2835641216
  - # 18
    frequency:   39.0465835346

- q-position: [    0.1060606,    0.0000000,    0.0000000 ]
  distance:    0.0365823
  band:
  - # 1
    frequency:   -3.7954113411
  - # 2
    frequency:   -3.3335580027
  - # 3
    frequency:    0.7084929997
  - # 4
    frequency:    1.0852870516
  - # 5
    frequency:    2.4887162894
  - # 6
    frequency:    3.4640573522
  - # 7
    frequency:    4.0818053764
  - # 8
    frequency:    5.3600978979
  - # 9
    frequency:    5.8406509318
  - # 10
    frequency:    6.4765446553
  - # 11
    frequency:    8.4184524295
  - # 12
    frequency:    9.3784429073
  - # 13
    frequency:    9.8836295378
  - # 14
    frequency:   10.3995952831
  - # 15
    frequency:   11.6245190595
  - # 16
    frequency:   12.6975907293
  - # 17
    frequency:   15.2571515961
  - # 18
    frequency:   39.0189390908

- q-position: [    0.1111111,    0.0000000,    0.0000000 ]
  distance:    0.0383244
  band:
  - # 1
    frequency:   -3.7846428267
  - # 2
    frequency:   -3.2889260202
  - # 3
    frequency:    0.7664530514
  - # 4
    frequency:    1.1350592792
  - # 5
    frequency:    2.6036117530
  - # 6
    frequency:    3.4817260765
  - # 7
    frequency:    4.1443096067
  - # 8
    frequency:    5.3518758452
  - # 9
    frequency:    5.8488386890
  - # 10
    frequency:    6.5227397350
  - # 11
    frequency:    8.3946187189
  - # 12
    frequency:    9.3943029865
  - # 13
    frequency:    9.9286984212
  - # 14
    frequency:   10.3780902504
  - # 15
    frequency:   11.6189942728
  - # 16
    frequency:   12.7769019231
  - # 17
    frequency:   15.2299386665
  - # 18
    frequency:   38.9902752314

- q-position: [    0.1161616,    0.0000000,    0.0000000 ]
  distance:    0.0400664
  band:
  - # 1
    frequency:   -3.7738211223
  - # 2
    frequency:   -3.2442765010
  - # 3
    frequency:    0.8257099603
  - # 4
    frequency:    1.1847044456
  - # 5
    frequency:    2.7168142202
  - # 6
    frequency:    3.5002307383
  - # 7
    frequency:    4.2078373039
  - # 8
    frequency:    5.3443434592
  - # 9
    frequency:    5.8573544260
  - # 10
    frequency:    6.5696907410
  - # 11
    frequency:    8.3718514171
  - # 12
    frequency:    9.4105745987
  - # 13
    frequency:    9.9733736225
  - # 14
    frequency:   10.3564850287
  - # 15
    frequency:   11.6134236965
  - # 16
    frequency:   12.8574839556
  - # 17
    frequency:   15.2019886004
  - # 18
    frequency:   38.9606352905

- q-position: [    0.1212121,    0.0000000,    0.0000000 ]
  distance:    0.0418084
  band:
  - # 1
    frequency:   -3.7630008116
  - # 2
    frequency:   -3.1997651500
  - # 3
    frequency:    0.8861843808
  - # 4
    frequency:    1.2342345037
  - # 5
    frequency:    2.8280537683
  - # 6
    frequency:    3.5195572687
  - # 7
    frequency:    4.2723008327
  - # 8
    frequency:    5.3374974302
  - # 9
    frequency:    5.8661914256
  - # 10
    frequency:    6.6173550219
  - # 11
    frequency:    8.3502911612
  - # 12
    frequency:    9.4272144038
  - # 13
    frequency:   10.0172358439
  - # 14
    frequency:   10.3350943084
  - # 15
    frequency:   11.6078365458
  - # 16
    frequency:   12.9391426366
  - # 17
    frequency:   15.1733665332
  - # 18
    frequency:   38.9300637951

- q-position: [    0.1262626,    0.0000000,    0.0000000 ]
  distance:    0.0435504
  band:
  - # 1
    frequency:   -3.7522364736
  - # 2
    frequency:   -3.1555374313
  - # 3
    frequency:    0.9478010340
  - # 4
    frequency:    1.2836598007
  - # 5
    frequency:    2.9370581293
  - # 6
    frequency:    3.5396886409
  - # 7
    frequency:    4.3376250197
  - # 8
    frequency:    5.3313359357
  - # 9
    frequency:    5.8753428217
  - # 10
    frequency:    6.6656837529
  - # 11
    frequency:    8.3300780685
  - # 12
    frequency:    9.4441774623
  - # 13
    frequency:   10.0595598591
  - # 14
    frequency:   10.3145485102
  - # 15
    frequency:   11.6022633121
  - # 16
    frequency:   13.0216825018
  - # 17
    frequency:   15.1441395357
  - # 18
    frequency:   38.8986063645

- q-position: [    0.1313131,    0.0000000,    0.0000000 ]
  distance:    0.0452924
  band:
  - # 1
    frequency:   -3.7415821517
  - # 2
    frequency:   -3.1117292215
  - # 3
    frequency:    1.0104877573
  - # 4
    frequency:    1.3329883780
  - # 5
    frequency:    3.0435566223
  - # 6
    frequency:    3.5606048967
  - # 7
    frequency:    4.4037456621
  - # 8
    frequency:    5.3258588277
  - # 9
    frequency:    5.8848016251
  - # 10
    frequency:    6.7146209020
  - # 11
    frequency:    8.3113515241
  - # 12
    frequency:    9.4614173062
  - # 13
    frequency:   10.0988662355
  - # 14
    frequency:   10.2962431123
  - # 15
    frequency:   11.5967357197
  - # 16
    frequency:   13.1049066058
  - # 17
    frequency:   15.1143767854
  - # 18
    frequency:   38.8663096060

- q-position: [    0.1363636,    0.0000000,    0.0000000 ]
  distance:    0.0470344
  band:
  - # 1
    frequency:   -3.7310907908
  - # 2
    frequency:   -3.0684676229
  - # 3
    frequency:    1.0741745799
  - # 4
    frequency:    1.3822252885
  - # 5
    frequency:    3.1472843334
  - # 6
    frequency:    3.5822832181
  - # 7
    frequency:    4.4706074545
  - # 8
    frequency:    5.3210678730
  - # 9
    frequency:    5.8945607487
  - # 10
    frequency:    6.7641020922
  - # 11
    frequency:    8.2942499622
  - # 12
    frequency:    9.4788860215
  - # 13
    frequency:   10.1317686699
  - # 14
    frequency:   10.2834921727
  - # 15
    frequency:   11.5912866703
  - # 16
    frequency:   13.1886162891
  - # 17
    frequency:   15.0841498839
  - # 18
    frequency:   38.8332210101

- q-position: [    0.1414141,    0.0000000,    0.0000000 ]
  distance:    0.0487764
  band:
  - # 1
    frequency:   -3.7208136547
  - # 2
    frequency:   -3.0258718295
  - # 3
    frequency:    1.1387928520
  - # 4
    frequency:    1.4313719487
  - # 5
    frequency:    3.2479865644
  - # 6
    frequency:    3.6046980440
  - # 7
    frequency:    4.5381612535
  - # 8
    frequency:    5.3169670840
  - # 9
    frequency:    5.9046130345
  - # 10
    frequency:    6.8140533789
  - # 11
    frequency:    8.2789106292
  - # 12
    frequency:    9.4965343444
  - # 13
    frequency:   10.1514431683
  - # 14
    frequency:   10.2830598542
  - # 15
    frequency:   11.5859501736
  - # 16
    frequency:   13.2726108287
  - # 17
    frequency:   15.0535333870
  - # 18
    frequency:   38.7993888432

- q-position: [    0.1464646,    0.0000000,    0.0000000 ]
  distance:    0.0505185
  band:
  - # 1
    frequency:   -3.7107997326
  - # 2
    frequency:   -2.9840539571
  - # 3
    frequency:    1.2042744560
  - # 4
    frequency:    1.4804255492
  - # 5
    frequency:    3.3454235382
  - # 6
    frequency:    3.6278212272
  - # 7
    frequency:    4.6063606153
  - # 8
    frequency:    5.3135632111
  - # 9
    frequency:    5.9149512785
  - # 10
    frequency:    6.8643899769
  - # 11
    frequency:    8.2654692994
  - # 12
    frequency:    9.5143117716
  - # 13
    frequency:   10.1523482614
  - # 14
    frequency:   10.3004407981
  - # 15
    frequency:   11.5807612617
  - # 16
    frequency:   13.3566868502
  - # 17
    frequency:   15.0226056443
  - # 18
    frequency:   38.7648620395

- q-position: [    0.1515152,    0.0000000,    0.0000000 ]
  distance:    0.0522605
  band:
  - # 1
    frequency:   -3.7010951501
  - # 2
    frequency:   -2.9431197627
  - # 3
    frequency:    1.2705511262
  - # 4
    frequency:    1.5293785421
  - # 5
    frequency:    3.4393752926
  - # 6
    frequency:    3.6516222261
  - # 7
    frequency:    4.6751575516
  - # 8
    frequency:    5.3108665281
  - # 9
    frequency:    5.9255682564
  - # 10
    frequency:    6.9150149926
  - # 11
    frequency:    8.2540599049
  - # 12
    frequency:    9.5321666890
  - # 13
    frequency:   10.1390466045
  - # 14
    frequency:   10.3310390360
  - # 15
    frequency:   11.5757558849
  - # 16
    frequency:   13.4406373297
  - # 17
    frequency:   14.9914501001
  - # 18
    frequency:   38.7296900923

- q-position: [    0.1565657,    0.0000000,    0.0000000 ]
  distance:    0.0540025
  band:
  - # 1
    frequency:   -3.6917425978
  - # 2
    frequency:   -2.9031692076
  - # 3
    frequency:    1.3375539008
  - # 4
    frequency:    1.5782182219
  - # 5
    frequency:    3.5296466096
  - # 6
    frequency:    3.6760683278
  - # 7
    frequency:    4.7444973991
  - # 8
    frequency:    5.3088921769
  - # 9
    frequency:    5.9364567473
  - # 10
    frequency:    6.9658182429
  - # 11
    frequency:    8.2448140121
  - # 12
    frequency:    9.5500465181
  - # 13
    frequency:   10.1186069408
  - # 14
    frequency:   10.3677664989
  - # 15
    frequency:   11.5709707881
  - # 16
    frequency:   13.5242499309
  - # 17
    frequency:   14.9601572894
  - # 18
    frequency:   38.6939229443

- q-position: [    0.1616162,    0.0000000,    0.0000000 ]
  distance:    0.0557445
  band:
  - # 1
    frequency:   -3.6827807914
  - # 2
    frequency:   -2.8642968375
  - # 3
    frequency:    1.4052127234
  - # 4
    frequency:    1.6269264142
  - # 5
    frequency:    3.6160717434
  - # 6
    frequency:    3.7011248931
  - # 7
    frequency:    4.8143124859
  - # 8
    frequency:    5.3076626407
  - # 9
    frequency:    5.9476095558
  - # 10
    frequency:    7.0166752777
  - # 11
    frequency:    8.2378600505
  - # 12
    frequency:    9.5678978847
  - # 13
    frequency:   10.0946890842
  - # 14
    frequency:   10.4069585055
  - # 15
    frequency:   11.5664433637
  - # 16
    frequency:   13.6073042815
  - # 17
    frequency:   14.9288279095
  - # 18
    frequency:   38.6576108780

- q-position: [    0.1666667,    0.0000000,    0.0000000 ]
  distance:    0.0574865
  band:
  - # 1
    frequency:   -3.6742439787
  - # 2
    frequency:   -2.8265919794
  - # 3
    frequency:    1.4734562090
  - # 4
    frequency:    1.6754792824
  - # 5
    frequency:    3.6985186329
  - # 6
    frequency:    3.7267556203
  - # 7
    frequency:    4.8845136072
  - # 8
    frequency:    5.3072126566
  - # 9
    frequency:    5.9590195327
  - # 10
    frequency:    7.0674467649
  - # 11
    frequency:    8.2333221554
  - # 12
    frequency:    9.5856668101
  - # 13
    frequency:   10.0688600569
  - # 14
    frequency:   10.4470581312
  - # 15
    frequency:   11.5622114815
  - # 16
    frequency:   13.6895675487
  - # 17
    frequency:   14.8975775937
  - # 18
    frequency:   38.6208044064

- q-position: [    0.1717172,    0.0000000,    0.0000000 ]
  distance:    0.0592285
  band:
  - # 1
    frequency:   -3.6661615060
  - # 2
    frequency:   -2.7901387695
  - # 3
    frequency:    1.5422115749
  - # 4
    frequency:    1.7238472562
  - # 5
    frequency:    3.7529228182
  - # 6
    frequency:    3.7768922543
  - # 7
    frequency:    4.9549763346
  - # 8
    frequency:    5.3075998944
  - # 9
    frequency:    5.9706795926
  - # 10
    frequency:    7.1179784418
  - # 11
    frequency:    8.2313184385
  - # 12
    frequency:    9.6032989277
  - # 13
    frequency:   10.0418512191
  - # 14
    frequency:   10.4873596587
  - # 15
    frequency:   11.5583132912
  - # 16
    frequency:   13.7707872361
  - # 17
    frequency:   14.8665444556
  - # 18
    frequency:   38.5835541640

- q-position: [    0.1767677,    0.0000000,    0.0000000 ]
  distance:    0.0609706
  band:
  - # 1
    frequency:   -3.6585574568
  - # 2
    frequency:   -2.7550160404
  - # 3
    frequency:    1.6114047337
  - # 4
    frequency:    1.7719950840
  - # 5
    frequency:    3.7795876846
  - # 6
    frequency:    3.8511367955
  - # 7
    frequency:    5.0255129306
  - # 8
    frequency:    5.3089309490
  - # 9
    frequency:    5.9825827291
  - # 10
    frequency:    7.1681018861
  - # 11
    frequency:    8.2319584514
  - # 12
    frequency:    9.6207397250
  - # 13
    frequency:   10.0140589106
  - # 14