nqpoint: 300    
npath: 3      
segment_nqpoint:
- 100
- 100
- 100
labels:
- [ 'G', 'M' ]
- [ 'M', 'K' ]
- [ 'K', 'G' ]
reciprocal_lattice:
- [   0.31726685,   0.18317410,   0.00000000 ] # a*
- [   0.00000000,   0.36634820,   0.00000000 ] # b*
- [   0.00000000,   0.00000000,   0.03644464 ] # c*
natom: 6      
lattice:
- [     3.151920898565029,     0.000000000000000,     0.000000000000000 ] # a
- [    -1.575960449282514,     2.729643568887802,     0.000000000000000 ] # b
- [     0.000000000000000,     0.000000000000000,    27.438880837576651 ] # c
points:
- symbol: Cl # 1
  coordinates: [  0.333332985432215,  0.666666983183674,  0.671998283994339 ]
  mass: 35.453000
- symbol: F # 2
  coordinates: [  0.666666984744047,  0.333332985985145,  0.328001716005661 ]
  mass: 18.998403
- symbol: N # 3
  coordinates: [  0.000000000000000,  0.000000000000000,  0.411715050157116 ]
  mass: 14.006700
- symbol: O # 4
  coordinates: [  0.333332985432215,  0.666666983183674,  0.489881054391261 ]
  mass: 15.999400
- symbol: Ti # 5
  coordinates: [  0.333332985432215,  0.666666983183674,  0.372373447589035 ]
  mass: 47.867000
- symbol: Ti # 6
  coordinates: [  0.666666984744047,  0.333332985985145,  0.458400828575005 ]
  mass: 47.867000

phonon:
- q-position: [    0.0000000,    0.0000000,    0.0000000 ]
  distance:    0.0000000
  band:
  - # 1
    frequency:   -6.6387097466
  - # 2
    frequency:   -6.6387097466
  - # 3
    frequency:   -0.2538040084
  - # 4
    frequency:   -0.0750705308
  - # 5
    frequency:   -0.0750705308
  - # 6
    frequency:   -0.0000040374
  - # 7
    frequency:   -0.0000019539
  - # 8
    frequency:    0.0000045308
  - # 9
    frequency:    4.9664508162
  - # 10
    frequency:    4.9664508162
  - # 11
    frequency:    7.4923433163
  - # 12
    frequency:    8.6583159330
  - # 13
    frequency:    8.6583159330
  - # 14
    frequency:   12.4464662761
  - # 15
    frequency:   13.2510681410
  - # 16
    frequency:   13.2510681410
  - # 17
    frequency:   14.0849815821
  - # 18
    frequency:   15.5350297399

- q-position: [    0.0050505,    0.0000000,    0.0000000 ]
  distance:    0.0018502
  band:
  - # 1
    frequency:   -6.6315121320
  - # 2
    frequency:   -6.6310400433
  - # 3
    frequency:   -0.4496210323
  - # 4
    frequency:   -0.2235292509
  - # 5
    frequency:   -0.1872672166
  - # 6
    frequency:   -0.1351979801
  - # 7
    frequency:    0.0570221097
  - # 8
    frequency:    0.4468003634
  - # 9
    frequency:    4.9679571804
  - # 10
    frequency:    4.9683280853
  - # 11
    frequency:    7.4925956762
  - # 12
    frequency:    8.6581978678
  - # 13
    frequency:    8.6586845923
  - # 14
    frequency:   12.4447305430
  - # 15
    frequency:   13.2517619045
  - # 16
    frequency:   13.2537391115
  - # 17
    frequency:   14.0875702724
  - # 18
    frequency:   15.5345038354

- q-position: [    0.0101010,    0.0000000,    0.0000000 ]
  distance:    0.0037005
  band:
  - # 1
    frequency:   -6.6099242308
  - # 2
    frequency:   -6.6080311572
  - # 3
    frequency:   -0.6173357435
  - # 4
    frequency:   -0.3579198395
  - # 5
    frequency:   -0.2420382833
  - # 6
    frequency:   -0.2161260561
  - # 7
    frequency:    0.1244385501
  - # 8
    frequency:    0.6450710789
  - # 9
    frequency:    4.9724719232
  - # 10
    frequency:    4.9739555440
  - # 11
    frequency:    7.4933554183
  - # 12
    frequency:    8.6578400248
  - # 13
    frequency:    8.6597922251
  - # 14
    frequency:   12.4396086213
  - # 15
    frequency:   13.2538287115
  - # 16
    frequency:   13.2616487596
  - # 17
    frequency:   14.0953151720
  - # 18
    frequency:   15.5329324596

- q-position: [    0.0151515,    0.0000000,    0.0000000 ]
  distance:    0.0055507
  band:
  - # 1
    frequency:   -6.5739608215
  - # 2
    frequency:   -6.5696834907
  - # 3
    frequency:   -0.7401226889
  - # 4
    frequency:   -0.5306158830
  - # 5
    frequency:   -0.3546500523
  - # 6
    frequency:   -0.2033363405
  - # 7
    frequency:    0.1903638783
  - # 8
    frequency:    0.8029799672
  - # 9
    frequency:    4.9799820304
  - # 10
    frequency:    4.9833203860
  - # 11
    frequency:    7.4946303740
  - # 12
    frequency:    8.6572317017
  - # 13
    frequency:    8.6616438003
  - # 14
    frequency:   12.4313421794
  - # 15
    frequency:   13.2572253028
  - # 16
    frequency:   13.2745014749
  - # 17
    frequency:   14.1081530027
  - # 18
    frequency:   15.5303347533

- q-position: [    0.0202020,    0.0000000,    0.0000000 ]
  distance:    0.0074010
  band:
  - # 1
    frequency:   -6.5236463629
  - # 2
    frequency:   -6.5159967993
  - # 3
    frequency:   -0.8371523468
  - # 4
    frequency:   -0.7037712915
  - # 5
    frequency:   -0.4684256884
  - # 6
    frequency:   -0.1833051503
  - # 7
    frequency:    0.2560933805
  - # 8
    frequency:    0.9409033156
  - # 9
    frequency:    4.9904659260
  - # 10
    frequency:    4.9964020532
  - # 11
    frequency:    7.4964330759
  - # 12
    frequency:    8.6563558611
  - # 13
    frequency:    8.6642476090
  - # 14
    frequency:   12.4202918543
  - # 15
    frequency:   13.2618802115
  - # 16
    frequency:   13.2918468074
  - # 17
    frequency:   14.1259790201
  - # 18
    frequency:   15.5267430569

- q-position: [    0.0252525,    0.0000000,    0.0000000 ]
  distance:    0.0092512
  band:
  - # 1
    frequency:   -6.4590147239
  - # 2
    frequency:   -6.4469687489
  - # 3
    frequency:   -0.9161956928
  - # 4
    frequency:   -0.8764256309
  - # 5
    frequency:   -0.5822743650
  - # 6
    frequency:   -0.1533956006
  - # 7
    frequency:    0.3220994791
  - # 8
    frequency:    1.0666366608
  - # 9
    frequency:    5.0038936352
  - # 10
    frequency:    5.0131733673
  - # 11
    frequency:    7.4987799738
  - # 12
    frequency:    8.6551903346
  - # 13
    frequency:    8.6676152822
  - # 14
    frequency:   12.4068887529
  - # 15
    frequency:   13.2676946975
  - # 16
    frequency:   13.3131282334
  - # 17
    frequency:   14.1486478810
  - # 18
    frequency:   15.5222036169

- q-position: [    0.0303030,    0.0000000,    0.0000000 ]
  distance:    0.0111015
  band:
  - # 1
    frequency:   -6.3801087710
  - # 2
    frequency:   -6.3625927467
  - # 3
    frequency:   -1.0482004742
  - # 4
    frequency:   -0.9811043130
  - # 5
    frequency:   -0.6957349945
  - # 6
    frequency:   -0.1053798854
  - # 7
    frequency:    0.3886218006
  - # 8
    frequency:    1.1841571126
  - # 9
    frequency:    5.0202269942
  - # 10
    frequency:    5.0336020242
  - # 11
    frequency:    7.5016903307
  - # 12
    frequency:    8.6537095173
  - # 13
    frequency:    8.6717618166
  - # 14
    frequency:   12.3915876718
  - # 15
    frequency:   13.2745440283
  - # 16
    frequency:   13.3377305446
  - # 17
    frequency:   14.1759744592
  - # 18
    frequency:   15.5167776756

- q-position: [    0.0353535,    0.0000000,    0.0000000 ]
  distance:    0.0129517
  band:
  - # 1
    frequency:   -6.2869797778
  - # 2
    frequency:   -6.2628548757
  - # 3
    frequency:   -1.2186525021
  - # 4
    frequency:   -1.0342259665
  - # 5
    frequency:   -0.8085302297
  - # 6
    frequency:    0.0610504139
  - # 7
    frequency:    0.4558145464
  - # 8
    frequency:    1.2958377571
  - # 9
    frequency:    5.0394198868
  - # 10
    frequency:    5.0576523606
  - # 11
    frequency:    7.5051847857
  - # 12
    frequency:    8.6518865636
  - # 13
    frequency:    8.6767056120
  - # 14
    frequency:   12.3748303862
  - # 15
    frequency:   13.2822790810
  - # 16
    frequency:   13.3650176740
  - # 17
    frequency:   14.2077342691
  - # 18
    frequency:   15.5105430590

- q-position: [    0.0404040,    0.0000000,    0.0000000 ]
  distance:    0.0148019
  band:
  - # 1
    frequency:   -6.1796865914
  - # 2
    frequency:   -6.1477296788
  - # 3
    frequency:   -1.3875699806
  - # 4
    frequency:   -1.0768267355
  - # 5
    frequency:   -0.9204531291
  - # 6
    frequency:    0.1450216741
  - # 7
    frequency:    0.5237880648
  - # 8
    frequency:    1.4032478200
  - # 9
    frequency:    5.0614184761
  - # 10
    frequency:    5.0852872824
  - # 11
    frequency:    7.5092835687
  - # 12
    frequency:    8.6496960988
  - # 13
    frequency:    8.6824685209
  - # 14
    frequency:   12.3570217057
  - # 15
    frequency:   13.2907282356
  - # 16
    frequency:   13.3943583972
  - # 17
    frequency:   14.2436631255
  - # 18
    frequency:   15.5035964290

- q-position: [    0.0454545,    0.0000000,    0.0000000 ]
  distance:    0.0166522
  band:
  - # 1
    frequency:   -6.0582944562
  - # 2
    frequency:   -6.0171744210
  - # 3
    frequency:   -1.5546964784
  - # 4
    frequency:   -1.1097016275
  - # 5
    frequency:   -1.0313292608
  - # 6
    frequency:    0.2021955514
  - # 7
    frequency:    0.5926233192
  - # 8
    frequency:    1.5075042552
  - # 9
    frequency:    5.0861613904
  - # 10
    frequency:    5.1164702199
  - # 11
    frequency:    7.5140043376
  - # 12
    frequency:    8.6471174697
  - # 13
    frequency:    8.6890759096
  - # 14
    frequency:   12.3385169621
  - # 15
    frequency:   13.2996995236
  - # 16
    frequency:   13.4251413056
  - # 17
    frequency:   14.2834556564
  - # 18
    frequency:   15.4960564364

- q-position: [    0.0505051,    0.0000000,    0.0000000 ]
  distance:    0.0185024
  band:
  - # 1
    frequency:   -5.9228733422
  - # 2
    frequency:   -5.8711212873
  - # 3
    frequency:   -1.7197954681
  - # 4
    frequency:   -1.1410016317
  - # 5
    frequency:   -1.1332808229
  - # 6
    frequency:    0.2517277508
  - # 7
    frequency:    0.6623780775
  - # 8
    frequency:    1.6094467365
  - # 9
    frequency:    5.1135798081
  - # 10
    frequency:    5.1511669516
  - # 11
    frequency:    7.5193595994
  - # 12
    frequency:    8.6441385631
  - # 13
    frequency:    8.6965567276
  - # 14
    frequency:   12.3196178709
  - # 15
    frequency:   13.3089829951
  - # 16
    frequency:   13.4567820789
  - # 17
    frequency:   14.3267622871
  - # 18
    frequency:   15.4880681043

- q-position: [    0.0555556,    0.0000000,    0.0000000 ]
  distance:    0.0203527
  band:
  - # 1
    frequency:   -5.7734955386
  - # 2
    frequency:   -5.7094667227
  - # 3
    frequency:   -1.8826407284
  - # 4
    frequency:   -1.2493239501
  - # 5
    frequency:   -1.1477301293
  - # 6
    frequency:    0.2976156461
  - # 7
    frequency:    0.7330903675
  - # 8
    frequency:    1.7097323822
  - # 9
    frequency:    5.1435973723
  - # 10
    frequency:    5.1893471139
  - # 11
    frequency:    7.5253536569
  - # 12
    frequency:    8.6407602314
  - # 13
    frequency:    8.7049435798
  - # 14
    frequency:   12.3005736242
  - # 15
    frequency:   13.3183532671
  - # 16
    frequency:   13.4887260648
  - # 17
    frequency:   14.3731842904
  - # 18
    frequency:   15.4798088883

- q-position: [    0.0606061,    0.0000000,    0.0000000 ]
  distance:    0.0222029
  band:
  - # 1
    frequency:   -5.6102321465
  - # 2
    frequency:   -5.5320567359
  - # 3
    frequency:   -2.0430138314
  - # 4
    frequency:   -1.3561573679
  - # 5
    frequency:   -1.1529991513
  - # 6
    frequency:    0.3414776865
  - # 7
    frequency:    0.8047811154
  - # 8
    frequency:    1.8088899672
  - # 9
    frequency:    5.1761298523
  - # 10
    frequency:    5.2309851826
  - # 11
    frequency:    7.5319790068
  - # 12
    frequency:    8.6370013726
  - # 13
    frequency:    8.7142727891
  - # 14
    frequency:   12.2815847495
  - # 15
    frequency:   13.3275722121
  - # 16
    frequency:   13.5204484180
  - # 17
    frequency:   14.4222664399
  - # 18
    frequency:   15.4714970033

- q-position: [    0.0656566,    0.0000000,    0.0000000 ]
  distance:    0.0240532
  band:
  - # 1
    frequency:   -5.4331479089
  - # 2
    frequency:   -5.3386663976
  - # 3
    frequency:   -2.2007031199
  - # 4
    frequency:   -1.4613688280
  - # 5
    frequency:   -1.1488372002
  - # 6
    frequency:    0.3841460008
  - # 7
    frequency:    0.8774567308
  - # 8
    frequency:    1.9073519555
  - # 9
    frequency:    5.2110844565
  - # 10
    frequency:    5.2760606851
  - # 11
    frequency:    7.5392120997
  - # 12
    frequency:    8.6329047114
  - # 13
    frequency:    8.7245844311
  - # 14
    frequency:   12.2628080750
  - # 15
    frequency:   13.3363917523
  - # 16
    frequency:   13.5514531914
  - # 17
    frequency:   14.4734867154
  - # 18
    frequency:   15.4634027462

- q-position: [    0.0707071,    0.0000000,    0.0000000 ]
  distance:    0.0259034
  band:
  - # 1
    frequency:   -5.2422935181
  - # 2
    frequency:   -5.1289708187
  - # 3
    frequency:   -2.3555033046
  - # 4
    frequency:   -1.5648302125
  - # 5
    frequency:   -1.1347815353
  - # 6
    frequency:    0.4261094313
  - # 7
    frequency:    0.9511119958
  - # 8
    frequency:    2.0054735689
  - # 9
    frequency:    5.2483586940
  - # 10
    frequency:    5.3245573639
  - # 11
    frequency:    7.5470083666
  - # 12
    frequency:    8.6285433195
  - # 13
    frequency:    8.7359223173
  - # 14
    frequency:   12.2443618202
  - # 15
    frequency:   13.3445567232
  - # 16
    frequency:   13.5812720935
  - # 17
    frequency:   14.5262424606
  - # 18
    frequency:   15.4558636039

- q-position: [    0.0757576,    0.0000000,    0.0000000 ]
  distance:    0.0277537
  band:
  - # 1
    frequency:   -5.0376940768
  - # 2
    frequency:   -4.9025033597
  - # 3
    frequency:   -2.5072153673
  - # 4
    frequency:   -1.6664179140
  - # 5
    frequency:   -1.1101135776
  - # 6
    frequency:    0.4676809547
  - # 7
    frequency:    1.0257335008
  - # 8
    frequency:    2.1035438715
  - # 9
    frequency:    5.2878386813
  - # 10
    frequency:    5.3764609916
  - # 11
    frequency:    7.5552964329
  - # 12
    frequency:    8.6240278742
  - # 13
    frequency:    8.7483338891
  - # 14
    frequency:   12.2263302989
  - # 15
    frequency:   13.3518077742
  - # 16
    frequency:   13.6094631926
  - # 17
    frequency:   14.5798325767
  - # 18
    frequency:   15.4493037219

- q-position: [    0.0808081,    0.0000000,    0.0000000 ]
  distance:    0.0296039
  band:
  - # 1
    frequency:   -4.8193316734
  - # 2
    frequency:   -4.6585942244
  - # 3
    frequency:   -2.6556466255
  - # 4
    frequency:   -1.7660126424
  - # 5
    frequency:   -1.0737675300
  - # 6
    frequency:    0.5090732626
  - # 7
    frequency:    1.1013038814
  - # 8
    frequency:    2.2017917577
  - # 9
    frequency:    5.3293968053
  - # 10
    frequency:    5.4317555169
  - # 11
    frequency:    7.5639715032
  - # 12
    frequency:    8.6195145689
  - # 13
    frequency:    8.7618699794
  - # 14
    frequency:   12.2087680190
  - # 15
    frequency:   13.3578842785
  - # 16
    frequency:   13.6356096229
  - # 17
    frequency:   14.6334362270
  - # 18
    frequency:   15.4442573597

- q-position: [    0.0858586,    0.0000000,    0.0000000 ]
  distance:    0.0314541
  band:
  - # 1
    frequency:   -4.5871188869
  - # 2
    frequency:   -4.3962780451
  - # 3
    frequency:   -2.8006108850
  - # 4
    frequency:   -1.8634993671
  - # 5
    frequency:   -1.0241545155
  - # 6
    frequency:    0.5504372503
  - # 7
    frequency:    1.1778072199
  - # 8
    frequency:    2.3003886731
  - # 9
    frequency:    5.3728886867
  - # 10
    frequency:    5.4904172473
  - # 11
    frequency:    7.5728880330
  - # 12
    frequency:    8.6152134324
  - # 13
    frequency:    8.7765843799
  - # 14
    frequency:   12.1917031326
  - # 15
    frequency:   13.3625272267
  - # 16
    frequency:   13.6593182625
  - # 17
    frequency:   14.6860910209
  - # 18
    frequency:   15.4413933890

- q-position: [    0.0909091,    0.0000000,    0.0000000 ]
  distance:    0.0333044
  band:
  - # 1
    frequency:   -4.3408581683
  - # 2
    frequency:   -4.1141507327
  - # 3
    frequency:   -2.9419286375
  - # 4
    frequency:   -1.9587673367
  - # 5
    frequency:   -0.9588144325
  - # 6
    frequency:    0.5918835209
  - # 7
    frequency:    1.2552361939
  - # 8
    frequency:    2.3994493835
  - # 9
    frequency:    5.4181494497
  - # 10
    frequency:    5.5524068384
  - # 11
    frequency:    7.5818520515
  - # 12
    frequency:    8.6113965430
  - # 13
    frequency:    8.7925331445
  - # 14
    frequency:   12.1751402837
  - # 15
    frequency:   13.3654820830
  - # 16
    frequency:   13.6802183494
  - # 17
    frequency:   14.7366791361
  - # 18
    frequency:   15.4415323296

- q-position: [    0.0959596,    0.0000000,    0.0000000 ]
  distance:    0.0351546
  band:
  - # 1
    frequency:   -4.0801788511
  - # 2
    frequency:   -3.8101398079
  - # 3
    frequency:   -3.0794272751
  - # 4
    frequency:   -2.0517101468
  - # 5
    frequency:   -0.8736631264
  - # 6
    frequency:    0.6334955310
  - # 7
    frequency:    1.3336019253
  - # 8
    frequency:    2.4990319315
  - # 9
    frequency:    5.4649894017
  - # 10
    frequency:    5.6176590180
  - # 11
    frequency:    7.5906138981
  - # 12
    frequency:    8.6084052089
  - # 13
    frequency:    8.8097735418
  - # 14
    frequency:   12.1590629426
  - # 15
    frequency:   13.3665015875
  - # 16
    frequency:   13.6979600400
  - # 17
    frequency:   14.7839393818
  - # 18
    frequency:   15.4456378035

- q-position: [    0.1010101,    0.0000000,    0.0000000 ]
  distance:    0.0370049
  band:
  - # 1
    frequency:   -3.8044377829
  - # 2
    frequency:   -3.4811197485
  - # 3
    frequency:   -3.2129412130
  - # 4
    frequency:   -2.1422258324
  - # 5
    frequency:   -0.7610972635
  - # 6
    frequency:    0.6753388296
  - # 7
    frequency:    1.4129481250
  - # 8
    frequency:    2.5991380016
  - # 9
    frequency:    5.5131893713
  - # 10
    frequency:    5.6860702290
  - # 11
    frequency:    7.5988627114
  - # 12
    frequency:    8.6066546151
  - # 13
    frequency:    8.8283625582
  - # 14
    frequency:   12.1434353369
  - # 15
    frequency:   13.3653484888
  - # 16
    frequency:   13.7122129578
  - # 17
    frequency:   14.8265341240
  - # 18
    frequency:   15.4547533221

- q-position: [    0.1060606,    0.0000000,    0.0000000 ]
  distance:    0.0388551
  band:
  - # 1
    frequency:   -3.5125583808
  - # 2
    frequency:   -3.3423134915
  - # 3
    frequency:   -3.1222313046
  - # 4
    frequency:   -2.2302169739
  - # 5
    frequency:   -0.6037806956
  - # 6
    frequency:    0.7174700762
  - # 7
    frequency:    1.4933722367
  - # 8
    frequency:    2.6997152742
  - # 9
    frequency:    5.5624961342
  - # 10
    frequency:    5.7574847557
  - # 11
    frequency:    7.6062247079
  - # 12
    frequency:    8.6066337644
  - # 13
    frequency:    8.8483548473
  - # 14
    frequency:   12.1282040936
  - # 15
    frequency:   13.3617981984
  - # 16
    frequency:   13.7226648380
  - # 17
    frequency:   14.8631995210
  - # 18
    frequency:   15.4698557510

- q-position: [    0.1111111,    0.0000000,    0.0000000 ]
  distance:    0.0407054
  band:
  - # 1
    frequency:   -3.4673916813
  - # 2
    frequency:   -3.2027592167
  - # 3
    frequency:   -2.7256114672
  - # 4
    frequency:   -2.3155908005
  - # 5
    frequency:   -0.3369042088
  - # 6
    frequency:    0.7599543174
  - # 7
    frequency:    1.5750582323
  - # 8
    frequency:    2.8006640852
  - # 9
    frequency:    5.6126185796
  - # 10
    frequency:    5.8316803822
  - # 11
    frequency:    7.6122679463
  - # 12
    frequency:    8.6088979583
  - # 13
    frequency:    8.8698000210
  - # 14
    frequency:   12.1132997048
  - # 15
    frequency:   13.3556413559
  - # 16
    frequency:   13.7290204145
  - # 17
    frequency:   14.8929728244
  - # 18
    frequency:   15.4916314590

- q-position: [    0.1161616,    0.0000000,    0.0000000 ]
  distance:    0.0425556
  band:
  - # 1
    frequency:   -3.5880343896
  - # 2
    frequency:   -2.8720674074
  - # 3
    frequency:   -2.3982592303
  - # 4
    frequency:   -2.2778598186
  - # 5
    frequency:    0.4327504392
  - # 6
    frequency:    0.8029427016
  - # 7
    frequency:    1.6583291780
  - # 8
    frequency:    2.9018520819
  - # 9
    frequency:    5.6632254877
  - # 10
    frequency:    5.9083551549
  - # 11
    frequency:    7.6165165088
  - # 12
    frequency:    8.6140509427
  - # 13
    frequency:    8.8927391916
  - # 14
    frequency:   12.0986379267
  - # 15
    frequency:   13.3466863001
  - # 16
    frequency:   13.7310007407
  - # 17
    frequency:   14.9154183439
  - # 18
    frequency:   15.5202532981

- q-position: [    0.1212121,    0.0000000,    0.0000000 ]
  distance:    0.0444058
  band:
  - # 1
    frequency:   -3.7041067946
  - # 2
    frequency:   -2.5153671501
  - # 3
    frequency:   -2.4781333390
  - # 4
    frequency:   -1.7551570751
  - # 5
    frequency:    0.7576340048
  - # 6
    frequency:    0.8480764274
  - # 7
    frequency:    1.7437337295
  - # 8
    frequency:    3.0031430823
  - # 9
    frequency:    5.7139459710
  - # 10
    frequency:    5.9871172652
  - # 11
    frequency:    7.6184763251
  - # 12
    frequency:    8.6227147322
  - # 13
    frequency:    8.9172007094
  - # 14
    frequency:   12.0841212088
  - # 15
    frequency:   13.3347614394
  - # 16
    frequency:   13.7283431559
  - # 17
    frequency:   14.9307259155
  - # 18
    frequency:   15.5552843143

- q-position: [    0.1262626,    0.0000000,    0.0000000 ]
  distance:    0.0462561
  band:
  - # 1
    frequency:   -3.8154824696
  - # 2
    frequency:   -2.5551547349
  - # 3
    frequency:   -2.1232026656
  - # 4
    frequency:   -1.1181433278
  - # 5
    frequency:    0.8873224533
  - # 6
    frequency:    1.0920168792
  - # 7
    frequency:    1.8321903569
  - # 8
    frequency:    3.1044509787
  - # 9
    frequency:    5.7643737021
  - # 10
    frequency:    6.0674802594
  - # 11
    frequency:    7.6176727535
  - # 12
    frequency:    8.6354874540
  - # 13
    frequency:    8.9431951016
  - # 14
    frequency:   12.0696402468
  - # 15
    frequency:   13.3197175171
  - # 16
    frequency:   13.7208021147
  - # 17
    frequency:   14.9396151934
  - # 18
    frequency:   15.5957746296

- q-position: [    0.1313131,    0.0000000,    0.0000000 ]
  distance:    0.0481063
  band:
  - # 1
    frequency:   -3.9220433883
  - # 2
    frequency:   -2.6292291029
  - # 3
    frequency:   -1.6757184915
  - # 4
    frequency:   -0.1180815214
  - # 5
    frequency:    0.9319480073
  - # 6
    frequency:    1.5251645135
  - # 7
    frequency:    1.9252236936
  - # 8
    frequency:    3.2058379412
  - # 9
    frequency:    5.8140759585
  - # 10
    frequency:    6.1488655570
  - # 11
    frequency:    7.6136966098
  - # 12
    frequency:    8.6528931974
  - # 13
    frequency:    8.9707093065
  - # 14
    frequency:   12.0550757323
  - # 15
    frequency:   13.3014297640
  - # 16
    frequency:   13.7081510554
  - # 17
    frequency:   14.9431091795
  - # 18
    frequency:   15.6404879004

- q-position: [    0.1363636,    0.0000000,    0.0000000 ]
  distance:    0.0499566
  band:
  - # 1
    frequency:   -4.0236800677
  - # 2
    frequency:   -2.7002966146
  - # 3
    frequency:   -1.1164133504
  - # 4
    frequency:    0.8141938922
  - # 5
    frequency:    0.9767577315
  - # 6
    frequency:    1.9835062376
  - # 7
    frequency:    2.0253142440
  - # 8
    frequency:    3.3076901220
  - # 9
    frequency:    5.8626082198
  - # 10
    frequency:    6.2306135225
  - # 11
    frequency:    7.6062516791
  - # 12
    frequency:    8.6753316747
  - # 13
    frequency:    8.9997004209
  - # 14
    frequency:   12.0403003599
  - # 15
    frequency:   13.2797999315
  - # 16
    frequency:   13.6901854078
  - # 17
    frequency:   14.9423034959
  - # 18
    frequency:   15.6881307673

- q-position: [    0.1414141,    0.0000000,    0.0000000 ]
  distance:    0.0518068
  band:
  - # 1
    frequency:   -4.1202917015
  - # 2
    frequency:   -2.7682946394
  - # 3
    frequency:    0.3903026922
  - # 4
    frequency:    1.0176075300
  - # 5
    frequency:    1.0709006793
  - # 6
    frequency:    2.1362314634
  - # 7
    frequency:    2.3749381145
  - # 8
    frequency:    3.4110192246
  - # 9
    frequency:    5.9095345899
  - # 10
    frequency:    6.3120031356
  - # 11
    frequency:    7.5951947285
  - # 12
    frequency:    8.7030375276
  - # 13
    frequency:    9.0300893222
  - # 14
    frequency:   12.0251811291
  - # 15
    frequency:   13.2547581938
  - # 16
    frequency:   13.6667267152
  - # 17
    frequency:   14.9382121586
  - # 18
    frequency:   15.7375045975

- q-position: [    0.1464646,    0.0000000,    0.0000000 ]
  distance:    0.0536571
  band:
  - # 1
    frequency:   -4.2117862755
  - # 2
    frequency:   -2.8331660467
  - # 3
    frequency:    1.0642463348
  - # 4
    frequency:    1.1652429532
  - # 5
    frequency:    1.2511384266
  - # 6
    frequency:    2.2626252936
  - # 7
    frequency:    2.6963881073
  - # 8
    frequency:    3.5179123998
  - # 9
    frequency:    5.9544537644
  - # 10
    frequency:    6.3922788880
  - # 11
    frequency:    7.5805601856
  - # 12
    frequency:    8.7360577464
  - # 13
    frequency:    9.0617546753
  - # 14
    frequency:   12.0095819544
  - # 15
    frequency:   13.2262649039
  - # 16
    frequency:   13.6376276975
  - # 17
    frequency:   14.9316975457
  - # 18
    frequency:   15.7875720566

- q-position: [    0.1515152,    0.0000000,    0.0000000 ]
  distance:    0.0555073
  band:
  - # 1
    frequency:   -4.2980806640
  - # 2
    frequency:   -2.8948591574
  - # 3
    frequency:    1.1094826951
  - # 4
    frequency:    1.4053782028
  - # 5
    frequency:    1.5312678127
  - # 6
    frequency:    2.4072726040
  - # 7
    frequency:    2.9570026301
  - # 8
    frequency:    3.6319031689
  - # 9
    frequency:    5.9970297427
  - # 10
    frequency:    6.4706822328
  - # 11
    frequency:    7.5625657552
  - # 12
    frequency:    8.7742510513
  - # 13
    frequency:    9.0945279614
  - # 14
    frequency:   11.9933665699
  - # 15
    frequency:   13.1943121822
  - # 16
    frequency:   13.6027779348
  - # 17
    frequency:   14.9234562213
  - # 18
    frequency:   15.8374672355

- q-position: [    0.1565657,    0.0000000,    0.0000000 ]
  distance:    0.0573575
  band:
  - # 1
    frequency:   -4.3791007049
  - # 2
    frequency:   -2.9533277843
  - # 3
    frequency:    1.1548378099
  - # 4
    frequency:    1.5450732127
  - # 5
    frequency:    1.7656652471
  - # 6
    frequency:    2.5665647727
  - # 7
    frequency:    3.1619704123
  - # 8
    frequency:    3.7572472605
  - # 9
    frequency:    6.0370260645
  - # 10
    frequency:    6.5464840986
  - # 11
    frequency:    7.5416002419
  - # 12
    frequency:    8.8173073255
  - # 13
    frequency:    9.1281902307
  - # 14
    frequency:   11.9764016841
  - # 15
    frequency:   13.1589253080
  - # 16
    frequency:   13.5621097463
  - # 17
    frequency:   14.9140313980
  - # 18
    frequency:   15.8864790534

- q-position: [    0.1616162,    0.0000000,    0.0000000 ]
  distance:    0.0592078
  band:
  - # 1
    frequency:   -4.4547812548
  - # 2
    frequency:   -3.0085312731
  - # 3
    frequency:    1.2004039547
  - # 4
    frequency:    1.6754919803
  - # 5
    frequency:    1.9282216010
  - # 6
    frequency:    2.7308193833
  - # 7
    frequency:    3.3154395798
  - # 8
    frequency:    3.8958131871
  - # 9
    frequency:    6.0743419507
  - # 10
    frequency:    6.6190148491
  - # 11
    frequency:    7.5181982399
  - # 12
    frequency:    8.8647809082
  - # 13
    frequency:    9.1624712569
  - # 14
    frequency:   11.9585603137
  - # 15
    frequency:   13.1201638789
  - # 16
    frequency:   13.5156038068
  - # 17
    frequency:   14.9038339304
  - # 18
    frequency:   15.9340265813

- q-position: [    0.1666667,    0.0000000,    0.0000000 ]
  distance:    0.0610580
  band:
  - # 1
    frequency:   -4.5250662225
  - # 2
    frequency:   -3.0604345348
  - # 3
    frequency:    1.2461870001
  - # 4
    frequency:    1.7993007647
  - # 5
    frequency:    2.0492973765
  - # 6
    frequency:    2.8906242816
  - # 7
    frequency:    3.4244981513
  - # 8
    frequency:    4.0441179794
  - # 9
    frequency:    6.1090480691
  - # 10
    frequency:    6.6876886325
  - # 11
    frequency:    7.4930070319
  - # 12
    frequency:    8.9161301119
  - # 13
    frequency:    9.1970516246
  - # 14
    frequency:   11.9397251973
  - # 15
    frequency:   13.0781226874
  - # 16
    frequency:   13.4632940996
  - # 17
    frequency:   14.8931635185
  - # 18
    frequency:   15.9796350870

- q-position: [    0.1717172,    0.0000000,    0.0000000 ]
  distance:    0.0629083
  band:
  - # 1
    frequency:   -4.5899085814
  - # 2
    frequency:   -3.1090080684
  - # 3
    frequency:    1.2921728397
  - # 4
    frequency:    1.9180070604
  - # 5
    frequency:    2.1455150299
  - # 6
    frequency:    3.0406834663
  - # 7
    frequency:    3.4978151722
  - # 8
    frequency:    4.1953923761
  - # 9
    frequency:    6.1414182997
  - # 10
    frequency:    6.7520201268
  - # 11
    frequency:    7.4667497232
  - # 12
    frequency:    8.9707563390
  - # 13
    frequency:    9.2315680355
  - # 14
    frequency:   11.9197921680
  - # 15
    frequency:   13.0329322562
  - # 16
    frequency:   13.4052719345
  - # 17
    frequency:   14.8822273890
  - # 18
    frequency:   16.0229158730

- q-position: [    0.1767677,    0.0000000,    0.0000000 ]
  distance:    0.0647585
  band:
  - # 1
    frequency:   -4.6492703601
  - # 2
    frequency:   -3.1542279719
  - # 3
    frequency:    1.3383395957
  - # 4
    frequency:    2.0325140901
  - # 5
    frequency:    2.2256747309
  - # 6
    frequency:    3.1792222865
  - # 7
    frequency:    3.5419343285
  - # 8
    frequency:    4.3437142722
  - # 9
    frequency:    6.1719515137
  - # 10
    frequency:    6.8116329492
  - # 11
    frequency:    7.4401869221
  - # 12
    frequency:    9.0280383311
  - # 13
    frequency:    9.2656217874
  - # 14