nqpoint: 300    
npath: 3      
segment_nqpoint:
- 100
- 100
- 100
labels:
- [ 'G', 'M' ]
- [ 'M', 'K' ]
- [ 'K', 'G' ]
reciprocal_lattice:
- [   0.27743535,   0.16017737,  -0.00000000 ] # a*
- [  -0.00000000,   0.32035475,  -0.00000000 ] # b*
- [   0.00000000,   0.00000000,   0.03727244 ] # c*
natom: 5      
lattice:
- [     3.604443328438062,     0.000000000000000,     0.000000000000000 ] # a
- [    -1.802221664219031,     3.121539488943261,     0.000000000000000 ] # b
- [     0.000000000000001,     0.000000000000003,    26.829478127686070 ] # c
points:
- symbol: C # 1
  coordinates: [  0.000000000000000,  0.000000000000000,  0.511039543105893 ]
  mass: 12.010700
- symbol: Cl # 2
  coordinates: [  0.666666984744048,  0.333332985985145,  0.395643192463368 ]
  mass: 35.453000
- symbol: O # 3
  coordinates: [  0.333332985432215,  0.666666983183674,  0.604532426400846 ]
  mass: 15.999400
- symbol: Y # 4
  coordinates: [  0.333332985432215,  0.666666983183674,  0.462908039195557 ]
  mass: 88.905850
- symbol: Y # 5
  coordinates: [  0.666666984744048,  0.333332985985145,  0.578716889900501 ]
  mass: 88.905850

phonon:
- q-position: [    0.0000000,    0.0000000,    0.0000000 ]
  distance:    0.0000000
  band:
  - # 1
    frequency:   -0.0000150939
  - # 2
    frequency:    0.0000001216
  - # 3
    frequency:    0.0000234483
  - # 4
    frequency:    2.0980153519
  - # 5
    frequency:    2.0980153521
  - # 6
    frequency:    4.0637776398
  - # 7
    frequency:    4.6459754109
  - # 8
    frequency:    4.6459754109
  - # 9
    frequency:    8.2759924966
  - # 10
    frequency:    9.2451319876
  - # 11
    frequency:    9.2451319877
  - # 12
    frequency:   11.8876881449
  - # 13
    frequency:   12.2100785785
  - # 14
    frequency:   12.2100785785
  - # 15
    frequency:   14.3732006679

- q-position: [    0.0050505,    0.0000000,    0.0000000 ]
  distance:    0.0016180
  band:
  - # 1
    frequency:   -0.0409573566
  - # 2
    frequency:    0.0016778583
  - # 3
    frequency:    0.0678032368
  - # 4
    frequency:    2.0984989030
  - # 5
    frequency:    2.1001652463
  - # 6
    frequency:    4.0630465130
  - # 7
    frequency:    4.6460310906
  - # 8
    frequency:    4.6464595071
  - # 9
    frequency:    8.2749581428
  - # 10
    frequency:    9.2447367911
  - # 11
    frequency:    9.2466451736
  - # 12
    frequency:   11.8835625793
  - # 13
    frequency:   12.2098040637
  - # 14
    frequency:   12.2126887079
  - # 15
    frequency:   14.3732815120

- q-position: [    0.0101010,    0.0000000,    0.0000000 ]
  distance:    0.0032359
  band:
  - # 1
    frequency:   -0.0818417187
  - # 2
    frequency:    0.0066925937
  - # 3
    frequency:    0.1355669523
  - # 4
    frequency:    2.0999479444
  - # 5
    frequency:    2.1065939512
  - # 6
    frequency:    4.0608577940
  - # 7
    frequency:    4.6461982081
  - # 8
    frequency:    4.6479103705
  - # 9
    frequency:    8.2718708483
  - # 10
    frequency:    9.2435531731
  - # 11
    frequency:    9.2511548654
  - # 12
    frequency:   11.8716011101
  - # 13
    frequency:   12.2089812171
  - # 14
    frequency:   12.2201173349
  - # 15
    frequency:   14.3735241033

- q-position: [    0.0151515,    0.0000000,    0.0000000 ]
  distance:    0.0048539
  band:
  - # 1
    frequency:   -0.1225803772
  - # 2
    frequency:    0.0149850759
  - # 3
    frequency:    0.2032512307
  - # 4
    frequency:    2.1023576846
  - # 5
    frequency:    2.1172396003
  - # 6
    frequency:    4.0572254308
  - # 7
    frequency:    4.6464769987
  - # 8
    frequency:    4.6503237355
  - # 9
    frequency:    8.2667765707
  - # 10
    frequency:    9.2415870420
  - # 11
    frequency:    9.2585728741
  - # 12
    frequency:   11.8528447007
  - # 13
    frequency:   12.2076121284
  - # 14
    frequency:   12.2313638945
  - # 15
    frequency:   14.3739286480

- q-position: [    0.0202020,    0.0000000,    0.0000000 ]
  distance:    0.0064718
  band:
  - # 1
    frequency:   -0.1631011691
  - # 2
    frequency:    0.0264606607
  - # 3
    frequency:    0.2708153568
  - # 4
    frequency:    2.1057202788
  - # 5
    frequency:    2.1320025072
  - # 6
    frequency:    4.0521725490
  - # 7
    frequency:    4.6468678551
  - # 8
    frequency:    4.6536925272
  - # 9
    frequency:    8.2597476768
  - # 10
    frequency:    9.2388482212
  - # 11
    frequency:    9.2687566671
  - # 12
    frequency:   11.8285478520
  - # 13
    frequency:   12.2057002669
  - # 14
    frequency:   12.2452412156
  - # 15
    frequency:   14.3744955853

- q-position: [    0.0252525,    0.0000000,    0.0000000 ]
  distance:    0.0080898
  band:
  - # 1
    frequency:   -0.2033327015
  - # 2
    frequency:    0.0409933495
  - # 3
    frequency:    0.3382174580
  - # 4
    frequency:    2.1100250312
  - # 5
    frequency:    2.1507498724
  - # 6
    frequency:    4.0457312812
  - # 7
    frequency:    4.6473713271
  - # 8
    frequency:    4.6580069125
  - # 9
    frequency:    8.2508773920
  - # 10
    frequency:    9.2353504145
  - # 11
    frequency:    9.2815152411
  - # 12
    frequency:   11.7998707185
  - # 13
    frequency:   12.2032504616
  - # 14
    frequency:   12.2606834014
  - # 15
    frequency:   14.3752257254

- q-position: [    0.0303030,    0.0000000,    0.0000000 ]
  distance:    0.0097077
  band:
  - # 1
    frequency:   -0.2432045165
  - # 2
    frequency:    0.0584313578
  - # 3
    frequency:    0.4054141766
  - # 4
    frequency:    2.1152586616
  - # 5
    frequency:    2.1733216010
  - # 6
    frequency:    4.0379425485
  - # 7
    frequency:    4.6479881228
  - # 8
    frequency:    4.6632543739
  - # 9
    frequency:    8.2402733724
  - # 10
    frequency:    9.2311111559
  - # 11
    frequency:    9.2966159909
  - # 12
    frequency:   11.7677640630
  - # 13
    frequency:   12.2002688738
  - # 14
    frequency:   12.2768608645
  - # 15
    frequency:   14.3761204349

- q-position: [    0.0353535,    0.0000000,    0.0000000 ]
  distance:    0.0113257
  band:
  - # 1
    frequency:   -0.2826471883
  - # 2
    frequency:    0.0786031528
  - # 3
    frequency:    0.4723603919
  - # 4
    frequency:    2.1214056192
  - # 5
    frequency:    2.1995366445
  - # 6
    frequency:    4.0288558149
  - # 7
    frequency:    4.6487191081
  - # 8
    frequency:    4.6694198031
  - # 9
    frequency:    8.2280512910
  - # 10
    frequency:    9.2261517465
  - # 11
    frequency:    9.3137916755
  - # 12
    frequency:   11.7329745555
  - # 13
    frequency:   12.1967629615
  - # 14
    frequency:   12.2931750034
  - # 15
    frequency:   14.3771818605

- q-position: [    0.0404040,    0.0000000,    0.0000000 ]
  distance:    0.0129436
  band:
  - # 1
    frequency:   -0.3215923431
  - # 2
    frequency:    0.1013234105
  - # 3
    frequency:    0.5390090022
  - # 4
    frequency:    2.1284484290
  - # 5
    frequency:    2.2291993106
  - # 6
    frequency:    4.0185288364
  - # 7
    frequency:    4.6495653076
  - # 8
    frequency:    4.6764856175
  - # 9
    frequency:    8.2143291414
  - # 10
    frequency:    9.2204971756
  - # 11
    frequency:    9.3327467786
  - # 12
    frequency:   11.6960912529
  - # 13
    frequency:   12.1927414383
  - # 14
    frequency:   12.3092116672
  - # 15
    frequency:   14.3784131808

- q-position: [    0.0454545,    0.0000000,    0.0000000 ]
  distance:    0.0145616
  band:
  - # 1
    frequency:   -0.3599725991
  - # 2
    frequency:    0.1263984520
  - # 3
    frequency:    0.6053107736
  - # 4
    frequency:    2.1363680497
  - # 5
    frequency:    2.2621050894
  - # 6
    frequency:    4.0070274349
  - # 7
    frequency:    4.6505279037
  - # 8
    frequency:    4.6844318954
  - # 9
    frequency:    8.1992226867
  - # 10
    frequency:    9.2141760284
  - # 11
    frequency:    9.3531628429
  - # 12
    frequency:   11.6575939511
  - # 13
    frequency:   12.1882142246
  - # 14
    frequency:   12.3246926889
  - # 15
    frequency:   14.3798188742

- q-position: [    0.0505051,    0.0000000,    0.0000000 ]
  distance:    0.0161795
  band:
  - # 1
    frequency:   -0.3977214292
  - # 2
    frequency:    0.1536308545
  - # 3
    frequency:    0.6712142673
  - # 4
    frequency:    2.1451442309
  - # 5
    frequency:    2.2980456770
  - # 6
    frequency:    3.9944253229
  - # 7
    frequency:    4.6516082364
  - # 8
    frequency:    4.6932365312
  - # 9
    frequency:    8.1828422128
  - # 10
    frequency:    9.2072203780
  - # 11
    frequency:    9.3747026459
  - # 12
    frequency:   11.6178914592
  - # 13
    frequency:   12.1831923934
  - # 14
    frequency:   12.3394373944
  - # 15
    frequency:   14.3814049918

- q-position: [    0.0555556,    0.0000000,    0.0000000 ]
  distance:    0.0177975
  band:
  - # 1
    frequency:   -0.4347729516
  - # 2
    frequency:    0.1828230750
  - # 3
    frequency:    0.7366658477
  - # 4
    frequency:    2.1547558505
  - # 5
    frequency:    2.3368130245
  - # 6
    frequency:    3.9808040132
  - # 7
    frequency:    4.6528078019
  - # 8
    frequency:    4.7028754062
  - # 9
    frequency:    8.1652905307
  - # 10
    frequency:    9.1996656640
  - # 11
    frequency:    9.3970133250
  - # 12
    frequency:   11.5773489993
  - # 13
    frequency:   12.1776881108
  - # 14
    frequency:   12.3533348130
  - # 15
    frequency:   14.3831794199

- q-position: [    0.0606061,    0.0000000,    0.0000000 ]
  distance:    0.0194154
  band:
  - # 1
    frequency:   -0.4710616556
  - # 2
    frequency:    0.2137800462
  - # 3
    frequency:    0.8016097817
  - # 4
    frequency:    2.1651812237
  - # 5
    frequency:    2.3782023561
  - # 6
    frequency:    3.9662528411
  - # 7
    frequency:    4.6541282503
  - # 8
    frequency:    4.7133225740
  - # 9
    frequency:    8.1466620437
  - # 10
    frequency:    9.1915505556
  - # 11
    frequency:    9.4197287182
  - # 12
    frequency:   11.5363069400
  - # 13
    frequency:   12.1717145714
  - # 14
    frequency:   12.3663242826
  - # 15
    frequency:   14.3851521192

- q-position: [    0.0656566,    0.0000000,    0.0000000 ]
  distance:    0.0210334
  band:
  - # 1
    frequency:   -0.5065220742
  - # 2
    frequency:    0.2463107937
  - # 3
    frequency:    0.8659884319
  - # 4
    frequency:    2.1763983732
  - # 5
    frequency:    2.4220141891
  - # 6
    frequency:    3.9508691343
  - # 7
    frequency:    4.6555713826
  - # 8
    frequency:    4.7245504565
  - # 9
    frequency:    8.1270426388
  - # 10
    frequency:    9.1829167998
  - # 11
    frequency:    9.4424712900
  - # 12
    frequency:   11.4950931878
  - # 13
    frequency:   12.1652859306
  - # 14
    frequency:   12.3783819806
  - # 15
    frequency:   14.3873353286

- q-position: [    0.0707071,    0.0000000,    0.0000000 ]
  distance:    0.0226513
  band:
  - # 1
    frequency:   -0.5410884142
  - # 2
    frequency:    0.2802291822
  - # 3
    frequency:    0.9297425504
  - # 4
    frequency:    2.1883852550
  - # 5
    frequency:    2.4680554425
  - # 6
    frequency:    3.9347585592
  - # 7
    frequency:    4.6571391463
  - # 8
    frequency:    4.7365300477
  - # 9
    frequency:    8.1065101605
  - # 10
    frequency:    9.1738090568
  - # 11
    frequency:    9.4648540633
  - # 12
    frequency:   11.4540309552
  - # 13
    frequency:   12.1584172320
  - # 14
    frequency:   12.3895114743
  - # 15
    frequency:   14.3897437179

- q-position: [    0.0757576,    0.0000000,    0.0000000 ]
  distance:    0.0242693
  band:
  - # 1
    frequency:   -0.5746941539
  - # 2
    frequency:    0.3153539209
  - # 3
    frequency:    0.9928116789
  - # 4
    frequency:    2.2011199382
  - # 5
    frequency:    2.5161397409
  - # 6
    frequency:    3.9180356803
  - # 7
    frequency:    4.6588336301
  - # 8
    frequency:    4.7492311234
  - # 9
    frequency:    8.0851352538
  - # 10
    frequency:    9.1642747196
  - # 11
    frequency:    9.4864830028
  - # 12
    frequency:   11.4134429935
  - # 13
    frequency:   12.1511243338
  - # 14
    frequency:   12.3997369586
  - # 15
    frequency:   14.3923944811

- q-position: [    0.0808081,    0.0000000,    0.0000000 ]
  distance:    0.0258873
  band:
  - # 1
    frequency:   -0.6072716193
  - # 2
    frequency:    0.3515079704
  - # 3
    frequency:    1.0551346611
  - # 4
    frequency:    2.2145807372
  - # 5
    frequency:    2.5660870169
  - # 6
    frequency:    3.9008247702
  - # 7
    frequency:    4.6606570565
  - # 8
    frequency:    4.7626224517
  - # 9
    frequency:    8.0629824041
  - # 10
    frequency:    9.1543637215
  - # 11
    frequency:    9.5069603049
  - # 12
    frequency:   11.3736528916
  - # 13
    frequency:   12.1434238318
  - # 14
    frequency:   12.4090982911
  - # 15
    frequency:   14.3953073567

- q-position: [    0.0858586,    0.0000000,    0.0000000 ]
  distance:    0.0275052
  band:
  - # 1
    frequency:   -0.6387515472
  - # 2
    frequency:    0.3885174817
  - # 3
    frequency:    1.1166502756
  - # 4
    frequency:    2.2287463003
  - # 5
    frequency:    2.6177224897
  - # 6
    frequency:    3.8832609178
  - # 7
    frequency:    4.6626117732
  - # 8
    frequency:    4.7766720047
  - # 9
    frequency:    8.0401110497
  - # 10
    frequency:    9.1441283293
  - # 11
    frequency:    9.5258890335
  - # 12
    frequency:   11.3349837134
  - # 13
    frequency:   12.1353329817
  - # 14
    frequency:   12.4176472334
  - # 15
    frequency:   14.3985045682

- q-position: [    0.0909091,    0.0000000,    0.0000000 ]
  distance:    0.0291232
  band:
  - # 1
    frequency:   -0.6690626412
  - # 2
    frequency:    0.4262103846
  - # 3
    frequency:    1.1772979991
  - # 4
    frequency:    2.2435956572
  - # 5
    frequency:    2.6708750595
  - # 6
    frequency:    3.8654915003
  - # 7
    frequency:    4.6647002429
  - # 8
    frequency:    4.7913471664
  - # 9
    frequency:    8.0165766762
  - # 10
    frequency:    9.1336229256
  - # 11
    frequency:    9.5428794858
  - # 12
    frequency:   11.2977540623
  - # 13
    frequency:   12.1268696208
  - # 14
    frequency:   12.4254445113
  - # 15
    frequency:   14.4020106774

- q-position: [    0.0959596,    0.0000000,    0.0000000 ]
  distance:    0.0307411
  band:
  - # 1
    frequency:   -0.6981311259
  - # 2
    frequency:    0.4644147284
  - # 3
    frequency:    1.2370189103
  - # 4
    frequency:    2.2591082314
  - # 5
    frequency:    2.7253750955
  - # 6
    frequency:    3.8476781111
  - # 7
    frequency:    4.6669250311
  - # 8
    frequency:    4.8066149376
  - # 9
    frequency:    7.9924318404
  - # 10
    frequency:    9.1229037786
  - # 11
    frequency:    9.5575575559
  - # 12
    frequency:   11.2622716199
  - # 13
    frequency:   12.1180520889
  - # 14
    frequency:   12.4325574343
  - # 15
    frequency:   14.4058523458

- q-position: [    0.1010101,    0.0000000,    0.0000000 ]
  distance:    0.0323591
  band:
  - # 1
    frequency:   -0.7258802998
  - # 2
    frequency:    0.5029568636
  - # 3
    frequency:    1.2957567466
  - # 4
    frequency:    2.2752638218
  - # 5
    frequency:    2.7810515213
  - # 6
    frequency:    3.8299990867
  - # 7
    frequency:    4.6692887919
  - # 8
    frequency:    4.8224421339
  - # 9
    frequency:    7.9677270876
  - # 10
    frequency:    9.1120288021
  - # 11
    frequency:    9.5695751464
  - # 12
    frequency:   11.2288243107
  - # 13
    frequency:   12.1088991503
  - # 14
    frequency:   12.4390579024
  - # 15
    frequency:   14.4100580015

- q-position: [    0.1060606,    0.0000000,    0.0000000 ]
  distance:    0.0339770
  band:
  - # 1
    frequency:   -0.7522300864
  - # 2
    frequency:    0.5416595462
  - # 3
    frequency:    1.3534591259
  - # 4
    frequency:    2.2920425619
  - # 5
    frequency:    2.8377279861
  - # 6
    frequency:    3.8126528565
  - # 7
    frequency:    4.6717942525
  - # 8
    frequency:    4.8387955774
  - # 9
    frequency:    7.9425117507
  - # 10
    frequency:    9.1010573062
  - # 11
    frequency:    9.5786223521
  - # 12
    frequency:   11.1976695004
  - # 13
    frequency:   12.0994299161
  - # 14
    frequency:   12.4450206842
  - # 15
    frequency:   14.4146574132

- q-position: [    0.1111111,    0.0000000,    0.0000000 ]
  distance:    0.0355950
  band:
  - # 1
    frequency:   -0.7770965798
  - # 2
    frequency:    0.5803400446
  - # 3
    frequency:    1.4100789437
  - # 4
    frequency:    2.3094248590
  - # 5
    frequency:    2.8952177500
  - # 6
    frequency:    3.7958624738
  - # 7
    frequency:    4.6744441956
  - # 8
    frequency:    4.8556422808
  - # 9
    frequency:    7.9168346230
  - # 10
    frequency:    9.0900497405
  - # 11
    frequency:    9.5844407113
  - # 12
    frequency:   11.1690220094
  - # 13
    frequency:   12.0896637685
  - # 14
    frequency:   12.4505218918
  - # 15
    frequency:   14.4196811745

- q-position: [    0.1161616,    0.0000000,    0.0000000 ]
  distance:    0.0372129
  band:
  - # 1
    frequency:   -0.8003915761
  - # 2
    frequency:    0.6188083357
  - # 3
    frequency:    1.4655759469
  - # 4
    frequency:    2.3273913221
  - # 5
    frequency:    2.9533166647
  - # 6
    frequency:    3.7798819072
  - # 7
    frequency:    4.6772414395
  - # 8
    frequency:    4.8729496227
  - # 9
    frequency:    7.8907445115
  - # 10
    frequency:    9.0790674306
  - # 11
    frequency:    9.5868363666
  - # 12
    frequency:   11.1430421431
  - # 13
    frequency:   12.0796202864
  - # 14
    frequency:   12.4556376032
  - # 15
    frequency:   14.4251601040

- q-position: [    0.1212121,    0.0000000,    0.0000000 ]
  distance:    0.0388309
  band:
  - # 1
    frequency:   -0.8220220807
  - # 2
    frequency:    0.6568654926
  - # 3
    frequency:    1.5199184760
  - # 4
    frequency:    2.3459226822
  - # 5
    frequency:    3.0117932559
  - # 6
    frequency:    3.7650050265
  - # 7
    frequency:    4.6801888176
  - # 8
    frequency:    4.8906855152
  - # 9
    frequency:    7.8642906741
  - # 10
    frequency:    9.0681723094
  - # 11
    frequency:    9.5856916075
  - # 12
    frequency:   11.1198252852
  - # 13
    frequency:   12.0693191731
  - # 14
    frequency:   12.4604426044
  - # 15
    frequency:   14.4311245730

- q-position: [    0.1262626,    0.0000000,    0.0000000 ]
  distance:    0.0404488
  band:
  - # 1
    frequency:   -0.8418897755
  - # 2
    frequency:    0.6943023889
  - # 3
    frequency:    1.5730853453
  - # 4
    frequency:    2.3649997091
  - # 5
    frequency:    3.0703743395
  - # 6
    frequency:    3.7515787686
  - # 7
    frequency:    4.6832891548
  - # 8
    frequency:    4.9088185626
  - # 9
    frequency:    7.8375231513
  - # 10
    frequency:    9.0574266464
  - # 11
    frequency:    9.5809731454
  - # 12
    frequency:   11.0993946979
  - # 13
    frequency:   12.0587801870
  - # 14
    frequency:   12.4650092385
  - # 15
    frequency:   14.4376037723

- q-position: [    0.1313131,    0.0000000,    0.0000000 ]
  distance:    0.0420668
  band:
  - # 1
    frequency:   -0.8598904251
  - # 2
    frequency:    0.7308988751
  - # 3
    frequency:    1.6250678016
  - # 4
    frequency:    2.3846031294
  - # 5
    frequency:    3.1287238092
  - # 6
    frequency:    3.7400227607
  - # 7
    frequency:    4.6865452441
  - # 8
    frequency:    4.9273182118
  - # 9
    frequency:    7.8104930003
  - # 10
    frequency:    9.0468927743
  - # 11
    frequency:    9.5727357111
  - # 12
    frequency:   11.0816989270
  - # 13
    frequency:   12.0480230746
  - # 14
    frequency:   12.4694063616
  - # 15
    frequency:   14.4446249357

- q-position: [    0.1363636,    0.0000000,    0.0000000 ]
  distance:    0.0436847
  band:
  - # 1
    frequency:   -0.8759131951
  - # 2
    frequency:    0.7664236157
  - # 3
    frequency:    1.6758714606
  - # 4
    frequency:    2.4047135486
  - # 5
    frequency:    3.1864113321
  - # 6
    frequency:    3.7308585728
  - # 7
    frequency:    4.6899598205
  - # 8
    frequency:    4.9461548953
  - # 9
    frequency:    7.7832524409
  - # 10
    frequency:    9.0366328163
  - # 11
    frequency:    9.5611201734
  - # 12
    frequency:   11.0666145821
  - # 13
    frequency:   12.0370675059
  - # 14
    frequency:   12.4736984124
  - # 15
    frequency:   14.4522125387

- q-position: [    0.1414141,    0.0000000,    0.0000000 ]
  distance:    0.0453027
  band:
  - # 1
    frequency:   -0.8898398464
  - # 2
    frequency:    0.8006348106
  - # 3
    frequency:    1.7255180695
  - # 4
    frequency:    2.4253113795
  - # 5
    frequency:    3.2428675526
  - # 6
    frequency:    3.7247519254
  - # 7
    frequency:    4.6935355344
  - # 8
    frequency:    4.9653001662
  - # 9
    frequency:    7.7558549203
  - # 10
    frequency:    9.0267084154
  - # 11
    frequency:    9.5463462434
  - # 12
    frequency:   11.0539543954
  - # 13
    frequency:   12.0259330143
  - # 14
    frequency:   12.4779446104
  - # 15
    frequency:   14.4603874956

- q-position: [    0.1464646,    0.0000000,    0.0000000 ]
  distance:    0.0469206
  band:
  - # 1
    frequency:   -0.9015437594
  - # 2
    frequency:    0.8332820419
  - # 3
    frequency:    1.7740468946
  - # 4
    frequency:    2.4463767789
  - # 5
    frequency:    3.2973261248
  - # 6
    frequency:    3.7225674843
  - # 7
    frequency:    4.6972749238
  - # 8
    frequency:    4.9847268267
  - # 9
    frequency:    7.7283551047
  - # 10
    frequency:    9.0171804668
  - # 11
    frequency:    9.5287006907
  - # 12
    frequency:   11.0434795924
  - # 13
    frequency:   12.0146389378
  - # 14
    frequency:   12.4821982992
  - # 15
    frequency:   14.4691663781

- q-position: [    0.1515152,    0.0000000,    0.0000000 ]
  distance:    0.0485386
  band:
  - # 1
    frequency:   -0.9108887249
  - # 2
    frequency:    0.8641094893
  - # 3
    frequency:    1.8215154785
  - # 4
    frequency:    2.4678895947
  - # 5
    frequency:    3.3487691105
  - # 6
    frequency:    3.7254197107
  - # 7
    frequency:    4.7011803860
  - # 8
    frequency:    5.0044090503
  - # 9
    frequency:    7.7008088023
  - # 10
    frequency:    9.0081088562
  - # 11
    frequency:    9.5085226345
  - # 12
    frequency:   11.0349149747
  - # 13
    frequency:   12.0032043651
  - # 14
    frequency:   12.4865064528
  - # 15
    frequency:   14.4785606825

- q-position: [    0.1565657,    0.0000000,    0.0000000 ]
  distance:    0.0501566
  band:
  - # 1
    frequency:   -0.9177274194
  - # 2
    frequency:    0.8928607171
  - # 3
    frequency:    1.8679994914
  - # 4
    frequency:    2.4898293230
  - # 5
    frequency:    3.3959361903
  - # 6
    frequency:    3.7346593872
  - # 7
    frequency:    4.7052541486
  - # 8
    frequency:    5.0243224980
  - # 9
    frequency:    7.6732728239
  - # 10
    frequency:    8.9995522040
  - # 11
    frequency:    9.4861877061
  - # 12
    frequency:   11.0279648806
  - # 13
    frequency:   11.9916480841
  - # 14
    frequency:   12.4909093585
  - # 15
    frequency:   14.4885761692

- q-position: [    0.1616162,    0.0000000,    0.0000000 ]
  distance:    0.0517745
  band:
  - # 1
    frequency:   -0.9218994504
  - # 2
    frequency:    0.9192851439
  - # 3
    frequency:    1.9135914077
  - # 4
    frequency:    2.5121750758
  - # 5
    frequency:    3.4375246084
  - # 6
    frequency:    3.7516690474
  - # 7
    frequency:    4.7094982401
  - # 8
    frequency:    5.0444444299
  - # 9
    frequency:    7.6458047859
  - # 10
    frequency:    8.9915676177
  - # 11
    frequency:    9.4620927326
  - # 12
    frequency:   11.0223283473
  - # 13
    frequency:   11.9799885340
  - # 14
    frequency:   12.4954404862
  - # 15
    frequency:   14.4992123018

- q-position: [    0.1666667,    0.0000000,    0.0000000 ]
  distance:    0.0533925
  band:
  - # 1
    frequency:   -0.9232288155
  - # 2
    frequency:    0.9431461580
  - # 3
    frequency:    1.9583978114
  - # 4
    frequency:    2.5349055607
  - # 5
    frequency:    3.4726777667
  - # 6
    frequency:    3.7773696253
  - # 7
    frequency:    4.7139144605
  - # 8
    frequency:    5.0647538114
  - # 9
    frequency:    7.6184628589
  - # 10
    frequency:    8.9842104536
  - # 11
    frequency:    9.4366421621
  - # 12
    frequency:   11.0177122341
  - # 13
    frequency:   11.9682437605
  - # 14
    frequency:   12.5001265438
  - # 15
    frequency:   14.5104618063

- q-position: [    0.1717172,    0.0000000,    0.0000000 ]
  distance:    0.0550104
  band:
  - # 1
    frequency:   -0.9215205511
  - # 2
    frequency:    0.9642306336
  - # 3
    frequency:    2.0025352685
  - # 4
    frequency:    2.5579990706
  - # 5
    frequency:    3.5015375290
  - # 6
    frequency:    3.8116635652
  - # 7
    frequency:    4.7185043522
  - # 8
    frequency:    5.0852314153
  - # 9
    frequency:    7.5913054672
  - # 10
    frequency:    8.9775340886
  - # 11
    frequency:    9.4102369301
  - # 12
    frequency:   11.0138416032
  - # 13
    frequency:   11.9564313749
  - # 14
    frequency:   12.5049877100
  - # 15
    frequency:   14.5223103719

- q-position: [    0.1767677,    0.0000000,    0.0000000 ]
  distance:    0.0566284
  band:
  - # 1
    frequency:   -0.9165562502
  - # 2
    frequency:    0.9823593686
  - # 3
    frequency:    2.0461248971
  - # 4
    frequency:    2.5814334832
  - # 5
    frequency:    3.5253153341
  - # 6
    frequency:    3.8533596381
  - # 7
    frequency:    4.7232691709
  - # 8
    frequency:    5.1058599188
  - # 9
    frequency:    7.5643909437
  - # 10
    frequency:    8.9715897031
  - # 11
    frequency:    9.3832659783
  - # 12
    frequency:   11.0104671538
  - # 13
    frequency:   11.9445685156
  - # 14
    frequency:   12.5100380243
  - # 15
    frequency:   14.5347365064

- q-position: [    0.1818182,    0.0000000,    0.0000000 ]
  distance:    0.0582463
  band:
  - # 1
    frequency:   -0.9080879700
  - # 2
    frequency:    0.9973977424
  - # 3
    frequency:    2.0892859893
  - # 4
    frequency:    2.6051862702
  - # 5
    frequency:    3.5457592992
  - # 6
    frequency:    3.9007026245
  - # 7
    frequency:    4.7282098574
  - # 8
    frequency:    5.1266239961
  - # 9
    frequency:    7.5377771449
  - # 10
    frequency:    8.9664260757
  - # 11
    frequency:    9.3561002850
  - # 12
    frequency:   11.0073698734
  - # 13
    frequency:   11.9326718139
  - # 14
    frequency:   12.5152859072
  - # 15
    frequency:   14.5477115570

- q-position: [    0.1868687,    0.0000000,    0.0000000 ]
  distance:    0.0598643
  band:
  - # 1
    frequency:   -0.8958298007
  - # 2
    frequency:    1.0092657398
  - # 3
    frequency:    2.1321292418
  - # 4
    frequency:    2.6292345148
  - # 5
    frequency:    3.5645448291
  - # 6
    frequency:    3.9519806376
  - # 7
    frequency:    4.7333270097
  - # 8
    frequency:    5.1475104038
  - # 9
    frequency:    7.5115210319
  - # 10
    frequency:    8.9620893894
  - # 11
    frequency:    9.3290890491
  - # 12
    frequency:   11.0043632985
  - # 13
    frequency:   11.9207573617
  - # 14
    frequency:   12.5207347711
  - # 15
    frequency:   14.5611998985

- q-position: [    0.1919192,    0.0000000,    0.0000000 ]
  distance:    0.0614822
  band:
  - # 1
    frequency:   -0.8794459481
  - # 2
    frequency:    1.0179464573
  - # 3
    frequency:    2.1747502774
  - # 4
    frequency:    2.6535549366
  - # 5
    frequency:    3.5829807768
  - # 6
    frequency:    4.0058182248
  - # 7
    frequency:    4.7386208566
  - # 8
    frequency:    5.1685080601
  - # 9
    frequency:    7.4856782254
  - # 10
    frequency:    8.9586230515
  - # 11
    frequency:    9.3025575892
  - # 12
    frequency:   11.0012938670
  - # 13
    frequency:   11.9088406837
  - # 14
    frequency:   12.5263836839
  - # 15
    frequency:   14.5751592861

- q-position: [    0.1969697,    0.0000000,    0.0000000 ]
  distance:    0.0631002
  band:
  - # 1
    frequency:   -0.8585334534
  - # 2
    frequency:    1.0234923280
  - # 3
    frequency:    2.2172241497
  - # 4
    frequency:    2.6781239230
  - # 5
    frequency:    3.6019848875
  - # 6
    frequency:    4.0612015619
  - # 7
    frequency:    4.7440912319
  - # 8
    frequency:    5.1896081128
  - # 9
    frequency:    7.4603025404
  - # 10
    frequency:    8.9560675246
  - # 11
    frequency:    9.2768065166
  - # 12
    frequency:   10.9980398545
  - # 13
    frequency:   11.8969367114
  - # 14
    frequency:   12.5322280406
  - # 15
    frequency:   14.5895413633

- q-position: [    0.2020202,    0.0000000,    0.0000000 ]
  distance:    0.0647181
  band:
  - # 1
    frequency:   -0.8325963538
  - # 2
    frequency:    1.0260285523
  - # 3
    frequency:    2.2596014002
  - # 4
    frequency:    2.7029175648
  - # 5
    frequency:    3.6221623413
  - # 6
    frequency:    4.1174018224
  - # 7
    frequency:    4.7497375499
  - # 8
    frequency:    5.2108039946
  - # 9
    frequency:    7.4354455113
  - # 10
    frequency:    8.9544601711
  - # 11
    frequency:    9.2521117941
  - # 12
    frequency:   10.9945093331
  - # 13
    frequency:   11.8850597614
  - # 14
    frequency:   12.5382602039
  - # 15
    frequency:   14.6042923091

- q-position: [    0.2070707,    0.0000000,    0.0000000 ]
  distance:    0.0663361
  band:
  - # 1
    frequency:   -0.8010055536
  - # 2
    frequency:    1.0257535515
  - # 3
    frequency:    2.3019060149
  - # 4
    frequency:    2.7279116975
  - # 5
    frequency:    3.6438933278
  - # 6
    frequency:    4.1738905536
  - # 7
    frequency:    4.7555587830
  - # 8
    frequency:    5.2320914604
  - # 9
    frequency:    7.4111559173
  - # 10
    frequency:    8.9538351090
  - # 11
    frequency:    9.2287253629
  - # 12
    frequency:   10.9906375233
  - # 13
    frequency:   11.8732235153
  - # 14
    frequency:   12.5444700777
  - # 15
    frequency:   14.6193536054

- q-position: [    0.2121212,    0.0000000,    0.0000000 ]
  distance:    0.0679540
  band:
  - # 1
    frequency:   -0.7629334827
  - # 2