nqpoint: 300    
npath: 3      
segment_nqpoint:
- 100
- 100
- 100
labels:
- [ 'G', 'M' ]
- [ 'M', 'K' ]
- [ 'K', 'G' ]
reciprocal_lattice:
- [   0.30327112,   0.17509366,   0.00000000 ] # a*
- [   0.00000000,   0.35018732,   0.00000000 ] # b*
- [   0.00000000,   0.00000000,   0.03808896 ] # c*
natom: 6      
lattice:
- [     3.297379597674354,     0.000000000000000,     0.000000000000000 ] # a
- [    -1.648689798837177,     2.855614497506737,     0.000000000000000 ] # b
- [     0.000000000000000,     0.000000000000000,    26.254328019481733 ] # c
points:
- symbol: C # 1
  coordinates: [  0.000000000000000,  0.000000000000000,  0.430570321438475 ]
  mass: 12.010700
- symbol: Cl # 2
  coordinates: [  0.333332985432215,  0.666666983183674,  0.657199377058074 ]
  mass: 35.453000
- symbol: H # 3
  coordinates: [  0.666666984744048,  0.333332985985145,  0.342800622941926 ]
  mass: 1.007940
- symbol: O # 4
  coordinates: [  0.333332985432215,  0.666666983183674,  0.521262072911420 ]
  mass: 15.999400
- symbol: Zr # 5
  coordinates: [  0.333332985432215,  0.666666983183674,  0.382493523802027 ]
  mass: 91.224000
- symbol: Zr # 6
  coordinates: [  0.666666984744048,  0.333332985985145,  0.485979332163067 ]
  mass: 91.224000

phonon:
- q-position: [    0.0000000,    0.0000000,    0.0000000 ]
  distance:    0.0000000
  band:
  - # 1
    frequency:   -0.4245965166
  - # 2
    frequency:   -0.4245965166
  - # 3
    frequency:   -0.0000004043
  - # 4
    frequency:    0.0000001776
  - # 5
    frequency:    0.0000004667
  - # 6
    frequency:    1.0273392027
  - # 7
    frequency:    3.7659684284
  - # 8
    frequency:    3.7659684284
  - # 9
    frequency:    6.6658905807
  - # 10
    frequency:   10.7682319905
  - # 11
    frequency:   10.7682319905
  - # 12
    frequency:   14.2196921610
  - # 13
    frequency:   14.2196921610
  - # 14
    frequency:   14.2647654563
  - # 15
    frequency:   18.3793793543
  - # 16
    frequency:   27.5996926316
  - # 17
    frequency:   28.9297964213
  - # 18
    frequency:   28.9297964213

- q-position: [    0.0050505,    0.0000000,    0.0000000 ]
  distance:    0.0017686
  band:
  - # 1
    frequency:   -0.4499539905
  - # 2
    frequency:   -0.4325950984
  - # 3
    frequency:   -0.3087036703
  - # 4
    frequency:    0.0822551687
  - # 5
    frequency:    0.3347266831
  - # 6
    frequency:    1.0279273442
  - # 7
    frequency:    3.7664075753
  - # 8
    frequency:    3.7680927297
  - # 9
    frequency:    6.6655540186
  - # 10
    frequency:   10.7645108317
  - # 11
    frequency:   10.7669161700
  - # 12
    frequency:   14.2016394357
  - # 13
    frequency:   14.2180291640
  - # 14
    frequency:   14.2804067977
  - # 15
    frequency:   18.3788186776
  - # 16
    frequency:   27.5986518035
  - # 17
    frequency:   28.9293547502
  - # 18
    frequency:   28.9295877271

- q-position: [    0.0101010,    0.0000000,    0.0000000 ]
  distance:    0.0035372
  band:
  - # 1
    frequency:   -0.5139444268
  - # 2
    frequency:   -0.4578681406
  - # 3
    frequency:   -0.4277706603
  - # 4
    frequency:    0.1702856745
  - # 5
    frequency:    0.4949759791
  - # 6
    frequency:    1.0298220791
  - # 7
    frequency:    3.7677214547
  - # 8
    frequency:    3.7744395877
  - # 9
    frequency:    6.6645437014
  - # 10
    frequency:   10.7533398684
  - # 11
    frequency:   10.7629683288
  - # 12
    frequency:   14.1690773877
  - # 13
    frequency:   14.2130500952
  - # 14
    frequency:   14.3057487607
  - # 15
    frequency:   18.3771354690
  - # 16
    frequency:   27.5955322875
  - # 17
    frequency:   28.9280320738
  - # 18
    frequency:   28.9289636728

- q-position: [    0.0151515,    0.0000000,    0.0000000 ]
  distance:    0.0053059
  band:
  - # 1
    frequency:   -0.6052492246
  - # 2
    frequency:   -0.5141144514
  - # 3
    frequency:   -0.5007316672
  - # 4
    frequency:    0.2638620803
  - # 5
    frequency:    0.6328624833
  - # 6
    frequency:    1.0335392877
  - # 7
    frequency:    3.7698994060
  - # 8
    frequency:    3.7849319129
  - # 9
    frequency:    6.6628577281
  - # 10
    frequency:   10.7346969819
  - # 11
    frequency:   10.7563874054
  - # 12
    frequency:   14.1322649920
  - # 13
    frequency:   14.2047846740
  - # 14
    frequency:   14.3305743052
  - # 15
    frequency:   18.3743262425
  - # 16
    frequency:   27.5903429690
  - # 17
    frequency:   28.9258353712
  - # 18
    frequency:   28.9279303262

- q-position: [    0.0202020,    0.0000000,    0.0000000 ]
  distance:    0.0070745
  band:
  - # 1
    frequency:   -0.7194871616
  - # 2
    frequency:   -0.5763989495
  - # 3
    frequency:   -0.5579914816
  - # 4
    frequency:    0.3599752813
  - # 5
    frequency:    0.7600854407
  - # 6
    frequency:    1.0406054449
  - # 7
    frequency:    3.7729237391
  - # 8
    frequency:    3.7994446058
  - # 9
    frequency:    6.6604928998
  - # 10
    frequency:   10.7085464460
  - # 11
    frequency:   10.7471718890
  - # 12
    frequency:   14.0927570907
  - # 13
    frequency:   14.1932822732
  - # 14
    frequency:   14.3533976023
  - # 15
    frequency:   18.3703853557
  - # 16
    frequency:   27.5830985939
  - # 17
    frequency:   28.9227761726
  - # 18
    frequency:   28.9264977454

- q-position: [    0.0252525,    0.0000000,    0.0000000 ]
  distance:    0.0088431
  band:
  - # 1
    frequency:   -0.8456874615
  - # 2
    frequency:   -0.6253458776
  - # 3
    frequency:   -0.6250353074
  - # 4
    frequency:    0.4565160634
  - # 5
    frequency:    0.8759252520
  - # 6
    frequency:    1.0563544518
  - # 7
    frequency:    3.7767698521
  - # 8
    frequency:    3.8178092604
  - # 9
    frequency:    6.6574446710
  - # 10
    frequency:   10.6748406255
  - # 11
    frequency:   10.7353202120
  - # 12
    frequency:   14.0510291042
  - # 13
    frequency:   14.1786116730
  - # 14
    frequency:   14.3738380305
  - # 15
    frequency:   18.3653052569
  - # 16
    frequency:   27.5738196747
  - # 17
    frequency:   28.9188704091
  - # 18
    frequency:   28.9246798974

- q-position: [    0.0303030,    0.0000000,    0.0000000 ]
  distance:    0.0106117
  band:
  - # 1
    frequency:   -0.9775809123
  - # 2
    frequency:   -0.6993253556
  - # 3
    frequency:   -0.6656499679
  - # 4
    frequency:    0.5525340457
  - # 5
    frequency:    0.9625821922
  - # 6
    frequency:    1.1005708869
  - # 7
    frequency:    3.7814063972
  - # 8
    frequency:    3.8398200737
  - # 9
    frequency:    6.6537070740
  - # 10
    frequency:   10.6335223383
  - # 11
    frequency:   10.7208313071
  - # 12
    frequency:   14.0073415747
  - # 13
    frequency:   14.1608607008
  - # 14
    frequency:   14.3917538696
  - # 15
    frequency:   18.3590768251
  - # 16
    frequency:   27.5625323602
  - # 17
    frequency:   28.9141382068
  - # 18
    frequency:   28.9224945453

- q-position: [    0.0353535,    0.0000000,    0.0000000 ]
  distance:    0.0123804
  band:
  - # 1
    frequency:   -1.1123126726
  - # 2
    frequency:   -0.7775422883
  - # 3
    frequency:   -0.7006192171
  - # 4
    frequency:    0.6476445982
  - # 5
    frequency:    1.0012939509
  - # 6
    frequency:    1.1928982888
  - # 7
    frequency:    3.7867954971
  - # 8
    frequency:    3.8652404230
  - # 9
    frequency:    6.6492726081
  - # 10
    frequency:   10.5845278610
  - # 11
    frequency:   10.7037053361
  - # 12
    frequency:   13.9618945381
  - # 13
    frequency:   14.1401357454
  - # 14
    frequency:   14.4070857509
  - # 15
    frequency:   18.3516897953
  - # 16
    frequency:   27.5492682714
  - # 17
    frequency:   28.9086036301
  - # 18
    frequency:   28.9199631062

- q-position: [    0.0404040,    0.0000000,    0.0000000 ]
  distance:    0.0141490
  band:
  - # 1
    frequency:   -1.2483261113
  - # 2
    frequency:   -0.8584039980
  - # 3
    frequency:   -0.7310575733
  - # 4
    frequency:    0.7416758232
  - # 5
    frequency:    1.0174268719
  - # 6
    frequency:    1.3083140422
  - # 7
    frequency:    3.7928930142
  - # 8
    frequency:    3.8938095760
  - # 9
    frequency:    6.6441320834
  - # 10
    frequency:   10.5277905563
  - # 11
    frequency:   10.6839445987
  - # 12
    frequency:   13.9148675491
  - # 13
    frequency:   14.1165611274
  - # 14
    frequency:   14.4198141081
  - # 15
    frequency:   18.3431332611
  - # 16
    frequency:   27.5340643041
  - # 17
    frequency:   28.9022943790
  - # 18
    frequency:   28.9171104810

- q-position: [    0.0454545,    0.0000000,    0.0000000 ]
  distance:    0.0159176
  band:
  - # 1
    frequency:   -1.3846447344
  - # 2
    frequency:   -0.9408303197
  - # 3
    frequency:   -0.7574626845
  - # 4
    frequency:    0.8345264242
  - # 5
    frequency:    1.0278107685
  - # 6
    frequency:    1.4300476837
  - # 7
    frequency:    3.7996488773
  - # 8
    frequency:    3.9252490662
  - # 9
    frequency:    6.6382744032
  - # 10
    frequency:   10.4632450977
  - # 11
    frequency:   10.6615546280
  - # 12
    frequency:   13.8664319634
  - # 13
    frequency:   14.0902783110
  - # 14
    frequency:   14.4299441151
  - # 15
    frequency:   18.3333962452
  - # 16
    frequency:   27.5169624022
  - # 17
    frequency:   28.8952414476
  - # 18
    frequency:   28.9139648591

- q-position: [    0.0505051,    0.0000000,    0.0000000 ]
  distance:    0.0176862
  band:
  - # 1
    frequency:   -1.5205941600
  - # 2
    frequency:   -1.0240636788
  - # 3
    frequency:   -0.7799735548
  - # 4
    frequency:    0.9261148177
  - # 5
    frequency:    1.0368213831
  - # 6
    frequency:    1.5536230160
  - # 7
    frequency:    3.8070074686
  - # 8
    frequency:    3.9592683696
  - # 9
    frequency:    6.6316862627
  - # 10
    frequency:   10.3908322685
  - # 11
    frequency:   10.6365454783
  - # 12
    frequency:   13.8167545138
  - # 13
    frequency:   14.0614449375
  - # 14
    frequency:   14.4374991817
  - # 15
    frequency:   18.3224683264
  - # 16
    frequency:   27.4980093035
  - # 17
    frequency:   28.8874787497
  - # 18
    frequency:   28.9105574987

- q-position: [    0.0555556,    0.0000000,    0.0000000 ]
  distance:    0.0194549
  band:
  - # 1
    frequency:   -1.6556735008
  - # 2
    frequency:   -1.1075519256
  - # 3
    frequency:   -0.7985022986
  - # 4
    frequency:    1.0163620657
  - # 5
    frequency:    1.0458096092
  - # 6
    frequency:    1.6774928045
  - # 7
    frequency:    3.8149080804
  - # 8
    frequency:    3.9955696436
  - # 9
    frequency:    6.6243517385
  - # 10
    frequency:   10.3105043303
  - # 11
    frequency:   10.6089332086
  - # 12
    frequency:   13.7659976863
  - # 13
    frequency:   14.0302336683
  - # 14
    frequency:   14.4425176214
  - # 15
    frequency:   18.3103403107
  - # 16
    frequency:   27.4772562618
  - # 17
    frequency:   28.8790427204
  - # 18
    frequency:   28.9069224871

- q-position: [    0.0606061,    0.0000000,    0.0000000 ]
  distance:    0.0212235
  band:
  - # 1
    frequency:   -1.7894886990
  - # 2
    frequency:   -1.1908769371
  - # 3
    frequency:   -0.8128089214
  - # 4
    frequency:    1.0553162987
  - # 5
    frequency:    1.1051867555
  - # 6
    frequency:    1.8008566532
  - # 7
    frequency:    3.8232854464
  - # 8
    frequency:    4.0338514059
  - # 9
    frequency:    6.6162517279
  - # 10
    frequency:   10.2222309790
  - # 11
    frequency:   10.5787415568
  - # 12
    frequency:   13.7143188614
  - # 13
    frequency:   13.9968308222
  - # 14
    frequency:   14.4450506583
  - # 15
    frequency:   18.2970049340
  - # 16
    frequency:   27.4547587493
  - # 17
    frequency:   28.8699719007
  - # 18
    frequency:   28.9030964811

- q-position: [    0.0656566,    0.0000000,    0.0000000 ]
  distance:    0.0229921
  band:
  - # 1
    frequency:   -1.9217152986
  - # 2
    frequency:   -1.2737105656
  - # 3
    frequency:   -0.8225434378
  - # 4
    frequency:    1.0656004047
  - # 5
    frequency:    1.1925039157
  - # 6
    frequency:    1.9231483745
  - # 7
    frequency:    3.8320703610
  - # 8
    frequency:    4.0738111303
  - # 9
    frequency:    6.6073631918
  - # 10
    frequency:   10.1260059596
  - # 11
    frequency:   10.5460037975
  - # 12
    frequency:   13.6618690645
  - # 13
    frequency:   13.9614348037
  - # 14
    frequency:   14.4451610560
  - # 15
    frequency:   18.2824575813
  - # 16
    frequency:   27.4305761429
  - # 17
    frequency:   28.8603065126
  - # 18
    frequency:   28.8991184325

- q-position: [    0.0707071,    0.0000000,    0.0000000 ]
  distance:    0.0247607
  band:
  - # 1
    frequency:   -2.0520765101
  - # 2
    frequency:   -1.3557868901
  - # 3
    frequency:   -0.8272660301
  - # 4
    frequency:    1.0768000301
  - # 5
    frequency:    1.2782251289
  - # 6
    frequency:    2.0438803205
  - # 7
    frequency:    3.8411903952
  - # 8
    frequency:    4.1151468183
  - # 9
    frequency:    6.5976581327
  - # 10
    frequency:   10.0218544795
  - # 11
    frequency:   10.5107647635
  - # 12
    frequency:   13.6087917551
  - # 13
    frequency:   13.9242543220
  - # 14
    frequency:   14.4429220621
  - # 15
    frequency:   18.2666970103
  - # 16
    frequency:   27.4047713979
  - # 17
    frequency:   28.8500880341
  - # 18
    frequency:   28.8950292991

- q-position: [    0.0757576,    0.0000000,    0.0000000 ]
  distance:    0.0265293
  band:
  - # 1
    frequency:   -2.1803297419
  - # 2
    frequency:   -1.4368843333
  - # 3
    frequency:   -0.8264502542
  - # 4
    frequency:    1.0889924647
  - # 5
    frequency:    1.3622588307
  - # 6
    frequency:    2.1625821122
  - # 7
    frequency:    3.8505707270
  - # 8
    frequency:    4.1575576605
  - # 9
    frequency:    6.5871022263
  - # 10
    frequency:    9.9098416649
  - # 11
    frequency:   10.4730830027
  - # 12
    frequency:   13.5552219021
  - # 13
    frequency:   13.8855064098
  - # 14
    frequency:   14.4384165204
  - # 15
    frequency:   18.2497260617
  - # 16
    frequency:   27.3774107158
  - # 17
    frequency:   28.8393587805
  - # 18
    frequency:   28.8908717456

- q-position: [    0.0808081,    0.0000000,    0.0000000 ]
  distance:    0.0282980
  band:
  - # 1
    frequency:   -2.3062580536
  - # 2
    frequency:   -1.5168138766
  - # 3
    frequency:   -0.8194707238
  - # 4
    frequency:    1.1022202859
  - # 5
    frequency:    1.4445104478
  - # 6
    frequency:    2.2787682964
  - # 7
    frequency:    3.8601350996
  - # 8
    frequency:    4.2007439521
  - # 9
    frequency:    6.5756529961
  - # 10
    frequency:    9.7900824373
  - # 11
    frequency:   10.4330330291
  - # 12
    frequency:   13.5012854961
  - # 13
    frequency:   13.8454142648
  - # 14
    frequency:   14.4317360751
  - # 15
    frequency:   18.2315523447
  - # 16
    frequency:   27.3485632076
  - # 17
    frequency:   28.8281614980
  - # 18
    frequency:   28.8866898354

- q-position: [    0.0858586,    0.0000000,    0.0000000 ]
  distance:    0.0300666
  band:
  - # 1
    frequency:   -2.4296645867
  - # 2
    frequency:   -1.5954111308
  - # 3
    frequency:   -0.8055732267
  - # 4
    frequency:    1.1165041008
  - # 5
    frequency:    1.5248822683
  - # 6
    frequency:    2.3919148210
  - # 7
    frequency:    3.8698069271
  - # 8
    frequency:    4.2444064680
  - # 9
    frequency:    6.5632573987
  - # 10
    frequency:    9.6627533625
  - # 11
    frequency:   10.3907076157
  - # 12
    frequency:   13.4470995826
  - # 13
    frequency:   13.8042049427
  - # 14
    frequency:   14.4229804252
  - # 15
    frequency:   18.2121888809
  - # 16
    frequency:   27.3183005591
  - # 17
    frequency:   28.8165389788
  - # 18
    frequency:   28.8825287172

- q-position: [    0.0909091,    0.0000000,    0.0000000 ]
  distance:    0.0318352
  band:
  - # 1
    frequency:   -2.5503688585
  - # 2
    frequency:   -1.6725308996
  - # 3
    frequency:   -0.7838202338
  - # 4
    frequency:    1.1318492741
  - # 5
    frequency:    1.6032730268
  - # 6
    frequency:    2.5014366701
  - # 7
    frequency:    3.8795105664
  - # 8
    frequency:    4.2882455636
  - # 9
    frequency:    6.5498486563
  - # 10
    frequency:    9.5281072287
  - # 11
    frequency:   10.3462200613
  - # 12
    frequency:   13.3927728485
  - # 13
    frequency:   13.7621069455
  - # 14
    frequency:   14.4122566022
  - # 15
    frequency:   18.1916546935
  - # 16
    frequency:   27.2866967006
  - # 17
    frequency:   28.8045337001
  - # 18
    frequency:   28.8784343081

- q-position: [    0.0959596,    0.0000000,    0.0000000 ]
  distance:    0.0336038
  band:
  - # 1
    frequency:   -2.6682042539
  - # 2
    frequency:   -1.7480433900
  - # 3
    frequency:   -0.7529954323
  - # 4
    frequency:    1.1482495785
  - # 5
    frequency:    1.6795772128
  - # 6
    frequency:    2.6066627636
  - # 7
    frequency:    3.8891727746
  - # 8
    frequency:    4.3319603463
  - # 9
    frequency:    6.5353421623
  - # 10
    frequency:    9.3864913499
  - # 11
    frequency:   10.2997063545
  - # 12
    frequency:   13.3384067539
  - # 13
    frequency:   13.7193477578
  - # 14
    frequency:   14.3996782533
  - # 15
    frequency:   18.1699753286
  - # 16
    frequency:   27.2538274862
  - # 17
    frequency:   28.7921874936
  - # 18
    frequency:   28.8744529775

- q-position: [    0.1010101,    0.0000000,    0.0000000 ]
  distance:    0.0353725
  band:
  - # 1
    frequency:   -2.7830163085
  - # 2
    frequency:   -1.8218315306
  - # 3
    frequency:   -0.7114300206
  - # 4
    frequency:    1.1656890210
  - # 5
    frequency:    1.7536841252
  - # 6
    frequency:    2.7068052629
  - # 7
    frequency:    3.8987243690
  - # 8
    frequency:    4.3752483905
  - # 9
    frequency:    6.5196302928
  - # 10
    frequency:    9.2383708391
  - # 11
    frequency:   10.2513271457
  - # 12
    frequency:   13.2840971625
  - # 13
    frequency:   13.6761513903
  - # 14
    frequency:   14.3853649182
  - # 15
    frequency:   18.1471832961
  - # 16
    frequency:   27.2197703842
  - # 17
    frequency:   28.7795412480
  - # 18
    frequency:   28.8706312322

- q-position: [    0.1060606,    0.0000000,    0.0000000 ]
  distance:    0.0371411
  band:
  - # 1
    frequency:   -2.8946615228
  - # 2
    frequency:   -1.8937890500
  - # 3
    frequency:   -0.6566589078
  - # 4
    frequency:    1.1841423636
  - # 5
    frequency:    1.8254767013
  - # 6
    frequency:    2.8009204548
  - # 7
    frequency:    3.9081021036
  - # 8
    frequency:    4.4178066468
  - # 9
    frequency:    6.5025760464
  - # 10
    frequency:    9.0843582900
  - # 11
    frequency:   10.2012694321
  - # 12
    frequency:   13.2299364012
  - # 13
    frequency:   13.6327359980
  - # 14
    frequency:   14.3694412917
  - # 15
    frequency:   18.1233184178
  - # 16
    frequency:   27.1846041815
  - # 17
    frequency:   28.7666346480
  - # 18
    frequency:   28.8670154080

- q-position: [    0.1111111,    0.0000000,    0.0000000 ]
  distance:    0.0389097
  band:
  - # 1
    frequency:   -3.0030065412
  - # 2
    frequency:   -1.9638190844
  - # 3
    frequency:   -0.5846444067
  - # 4
    frequency:    1.2035744444
  - # 5
    frequency:    1.8948301591
  - # 6
    frequency:    2.8878580362
  - # 7
    frequency:    3.9172507678
  - # 8
    frequency:    4.4593344340
  - # 9
    frequency:    6.4840056744
  - # 10
    frequency:    8.9252513306
  - # 11
    frequency:   10.1497478567
  - # 12
    frequency:   13.1760156566
  - # 13
    frequency:   13.5893116389
  - # 14
    frequency:   14.3520364668
  - # 15
    frequency:   18.0984280745
  - # 16
    frequency:   27.1484087056
  - # 17
    frequency:   28.7535059504
  - # 18
    frequency:   28.8636513691

- q-position: [    0.1161616,    0.0000000,    0.0000000 ]
  distance:    0.0406783
  band:
  - # 1
    frequency:   -3.1079275841
  - # 2
    frequency:   -2.0318331584
  - # 3
    frequency:   -0.4876171069
  - # 4
    frequency:    1.2239380781
  - # 5
    frequency:    1.9616105028
  - # 6
    frequency:    2.9661952427
  - # 7
    frequency:    3.9261254995
  - # 8
    frequency:    4.4995396520
  - # 9
    frequency:    6.4637010119
  - # 10
    frequency:    8.7620790858
  - # 11
    frequency:   10.0970055235
  - # 12
    frequency:   13.1224276070
  - # 13
    frequency:   13.5460782388
  - # 14
    frequency:   14.3332831566
  - # 15
    frequency:   18.0725673426
  - # 16
    frequency:   27.1112645625
  - # 17
    frequency:   28.7401917983
  - # 18
    frequency:   28.8605842193

- q-position: [    0.1212121,    0.0000000,    0.0000000 ]
  distance:    0.0424469
  band:
  - # 1
    frequency:   -3.2093100579
  - # 2
    frequency:   -2.0977504337
  - # 3
    frequency:   -0.3452135629
  - # 4
    frequency:    1.2451699231
  - # 5
    frequency:    2.0256729647
  - # 6
    frequency:    3.0341523744
  - # 7
    frequency:    3.9346942852
  - # 8
    frequency:    4.5381495008
  - # 9
    frequency:    6.4413933430
  - # 10
    frequency:    8.5961572055
  - # 11
    frequency:   10.0433142392
  - # 12
    frequency:   13.0692691836
  - # 13
    frequency:   13.5032238192
  - # 14
    frequency:   14.3133168963
  - # 15
    frequency:   18.0457990144
  - # 16
    frequency:   27.0732528934
  - # 17
    frequency:   28.7267270731
  - # 18
    frequency:   28.8578580265

- q-position: [    0.1262626,    0.0000000,    0.0000000 ]
  distance:    0.0442156
  band:
  - # 1
    frequency:   -3.3070482924
  - # 2
    frequency:   -2.1614971495
  - # 3
    frequency:    0.1163099400
  - # 4
    frequency:    1.2671830923
  - # 5
    frequency:    2.0868604852
  - # 6
    frequency:    3.0894878175
  - # 7
    frequency:    3.9429405923
  - # 8
    frequency:    4.5749267572
  - # 9
    frequency:    6.4167627187
  - # 10
    frequency:    8.4291479071
  - # 11
    frequency:    9.9889740989
  - # 12
    frequency:   13.0166443507
  - # 13
    frequency:   13.4609230352
  - # 14
    frequency:   14.2922752302
  - # 15
    frequency:   18.0181934968
  - # 16
    frequency:   27.0344551492
  - # 17
    frequency:   28.7131447829
  - # 18
    frequency:   28.8555155645

- q-position: [    0.1313131,    0.0000000,    0.0000000 ]
  distance:    0.0459842
  band:
  - # 1
    frequency:   -3.4010453697
  - # 2
    frequency:   -2.2230062039
  - # 3
    frequency:    0.3991884791
  - # 4
    frequency:    1.2898542559
  - # 5
    frequency:    2.1450023682
  - # 6
    frequency:    3.1293754530
  - # 7
    frequency:    3.9508660384
  - # 8
    frequency:    4.6096915232
  - # 9
    frequency:    6.3894501031
  - # 10
    frequency:    8.2631151769
  - # 11
    frequency:    9.9343123555
  - # 12
    frequency:   12.9646667994
  - # 13
    frequency:   13.4193360573
  - # 14
    frequency:   14.2702968907
  - # 15
    frequency:   17.9898285877
  - # 16
    frequency:   26.9949528809
  - # 17
    frequency:   28.6994759848
  - # 18
    frequency:   28.8535980746

- q-position: [    0.1363636,    0.0000000,    0.0000000 ]
  distance:    0.0477528
  band:
  - # 1
    frequency:   -3.4912130204
  - # 2
    frequency:   -2.2822168378
  - # 3
    frequency:    0.5626167060
  - # 4
    frequency:    1.3130012774
  - # 5
    frequency:    2.1999133017
  - # 6
    frequency:    3.1502784694
  - # 7
    frequency:    3.9584929519
  - # 8
    frequency:    4.6423456520
  - # 9
    frequency:    6.3590944943
  - # 10
    frequency:    8.1005547322
  - # 11
    frequency:    9.8796815252
  - # 12
    frequency:   12.9134624509
  - # 13
    frequency:   13.3786078130
  - # 14
    frequency:   14.2475209804
  - # 15
    frequency:   17.9607891291
  - # 16
    frequency:   26.9548275468
  - # 17
    frequency:   28.6857497393
  - # 18
    frequency:   28.8521450477

- q-position: [    0.1414141,    0.0000000,    0.0000000 ]
  distance:    0.0495214
  band:
  - # 1
    frequency:   -3.5774715730
  - # 2
    frequency:   -2.3390743940
  - # 3
    frequency:    0.6943164052
  - # 4
    frequency:    1.3363450965
  - # 5
    frequency:    2.2513929837
  - # 6
    frequency:    3.1478558915
  - # 7
    frequency:    3.9658666205
  - # 8
    frequency:    4.6728923735
  - # 9
    frequency:    6.3254113486
  - # 10
    frequency:    7.9443642570
  - # 11
    frequency:    9.8254567133
  - # 12
    frequency:   12.8631716668
  - # 13
    frequency:   13.3388675894
  - # 14
    frequency:   14.2240861691
  - # 15
    frequency:   17.9311665401
  - # 16
    frequency:   26.9141603318
  - # 17
    frequency:   28.6719930926
  - # 18
    frequency:   28.8511940315

- q-position: [    0.1464646,    0.0000000,    0.0000000 ]
  distance:    0.0512901
  band:
  - # 1
    frequency:   -3.6597499459
  - # 2
    frequency:   -2.3935301319
  - # 3
    frequency:    0.8067062345
  - # 4
    frequency:    1.3594491605
  - # 5
    frequency:    2.2992266562
  - # 6
    frequency:    3.1169795198
  - # 7
    frequency:    3.9730569535
  - # 8
    frequency:    4.7014381296
  - # 9
    frequency:    6.2883261301
  - # 10
    frequency:    7.7977082881
  - # 11
    frequency:    9.7720321640
  - # 12
    frequency:   12.8139510656
  - # 13
    frequency:   13.3002289822
  - # 14
    frequency:   14.2001299225
  - # 15
    frequency:   17.9010582349
  - # 16
    frequency:   26.8730319788
  - # 17
    frequency:   28.6582310844
  - # 18
    frequency:   28.8507804614

- q-position: [    0.1515152,    0.0000000,    0.0000000 ]
  distance:    0.0530587
  band:
  - # 1
    frequency:   -3.7379856834
  - # 2
    frequency:   -2.4455410821
  - # 3
    frequency:    0.9017967209
  - # 4
    frequency:    1.3816469676
  - # 5
    frequency:    2.3431869001
  - # 6
    frequency:    3.0520184658
  - # 7
    frequency:    3.9801592246
  - # 8
    frequency:    4.7281614026
  - # 9
    frequency:    6.2481563164
  - # 10
    frequency:    7.6637404507
  - # 11
    frequency:    9.7198170688
  - # 12
    frequency:   12.7659748487
  - # 13
    frequency:   13.2627901621
  - # 14
    frequency:   14.1757877767
  - # 15
    frequency:   17.8705669324
  - # 16
    frequency:   26.8315226278
  - # 17
    frequency:   28.6444867759
  - # 18
    frequency:   28.8509375194

- q-position: [    0.1565657,    0.0000000,    0.0000000 ]
  distance:    0.0548273
  band:
  - # 1
    frequency:   -3.8121250419
  - # 2
    frequency:   -2.4950699301
  - # 3
    frequency:    0.9751297523
  - # 4
    frequency:    1.4020756608
  - # 5
    frequency:    2.3830370686
  - # 6
    frequency:    2.9477341591
  - # 7
    frequency:    3.9872935166
  - # 8
    frequency:    4.7532407245
  - # 9
    frequency:    6.2057884006
  - # 10
    frequency:    7.5451952742
  - # 11
    frequency:    9.6692306991
  - # 12
    frequency:   12.7194355332
  - # 13
    frequency:   13.2266344192
  - # 14
    frequency:   14.1511926769
  - # 15
    frequency:   17.8397998685
  - # 16
    frequency:   26.7897116608
  - # 17
    frequency:   28.6307812956
  - # 18
    frequency:   28.8516960179

- q-position: [    0.1616162,    0.0000000,    0.0000000 ]
  distance:    0.0565959
  band:
  - # 1
    frequency:   -3.8821231513
  - # 2
    frequency:   -2.5420849211
  - # 3
    frequency:    1.0113143716
  - # 4
    frequency:    1.4203464559
  - # 5
    frequency:    2.4185367209
  - # 6
    frequency:    2.8016598437
  - # 7
    frequency:    3.9946024920
  - # 8
    frequency:    4.7767534987
  - # 9
    frequency:    6.1627424527
  - # 10
    frequency:    7.4439518057
  - # 11
    frequency:    9.6206969521
  - # 12
    frequency:   12.6745439977
  - # 13
    frequency:   13.1918309378
  - # 14
    frequency:   14.1264743963
  - # 15
    frequency:   17.8088679218
  - # 16
    frequency:   26.7476775500
  - # 17
    frequency:   28.6171338982
  - # 18
    frequency:   28.8530843125

- q-position: [    0.1666667,    0.0000000,    0.0000000 ]
  distance:    0.0583646
  band:
  - # 1
    frequency:   -3.9479442990
  - # 2
    frequency:   -2.5865597789
  - # 3
    frequency:    0.9663121518
  - # 4
    frequency:    1.4387922019
  - # 5
    frequency:    2.4494493195
  - # 6
    frequency:    2.6202171190
  - # 7
    frequency:    4.0022471858
  - # 8
    frequency:    4.7985790722
  - # 9
    frequency:    6.1210183711
  - # 10
    frequency:    7.3607427174
  - # 11
    frequency:    9.5746384325
  - # 12
    frequency:   12.6315287460
  - # 13
    frequency:   13.1584357528
  - # 14
    frequency:   14.1017590507
  - # 15
    frequency:   17.7778846651
  - # 16
    frequency:   26.7054977049
  - # 17
    frequency:   28.6035620328
  - # 18
    frequency:   28.8551282397

- q-position: [    0.1717172,    0.0000000,    0.0000000 ]
  distance:    0.0601332
  band:
  - # 1
    frequency:   -4.0095624443
  - # 2
    frequency:   -2.6284736332
  - # 3
    frequency:    0.7019832967
  - # 4
    frequency:    1.4632260751
  - # 5
    frequency:    2.4311704521
  - # 6
    frequency:    2.4755522613
  - # 7
    frequency:    4.0104006875
  - # 8
    frequency:    4.8183452441
  - # 9
    frequency:    6.0827268931
  - # 10
    frequency:    7.2951462745
  - # 11
    frequency:    9.5314702147
  - # 12
    frequency:   12.5906343053
  - # 13
    frequency:   13.1264928338
  - # 14
    frequency:   14.0771687240
  - # 15
    frequency:   17.7469653605
  - # 16
    frequency:   26.6632483187
  - # 17
    frequency:   28.5900814179
  - # 18
    frequency:   28.8578510805

- q-position: [    0.1767677,    0.0000000,    0.0000000 ]
  distance:    0.0619018
  band:
  - # 1
    frequency:   -4.0669621880
  - # 2
    frequency:   -2.6678109537
  - # 3
    frequency:   -0.7324467539
  - # 4
    frequency:    1.4957899300
  - # 5
    frequency:    2.2868312777
  - # 6
    frequency:    2.4966490157
  - # 7
    frequency:    4.0192398546
  - # 8
    frequency:    4.8354389801
  - # 9
    frequency:    6.0496607184
  - # 10
    frequency:    7.2458500979
  - # 11
    frequency:    9.4915934533
  - # 12
    frequency:   12.5521186892
  - # 13
    frequency:   13.0960352497
  - # 14