nqpoint: 300    
npath: 3      
segment_nqpoint:
- 100
- 100
- 100
labels:
- [ 'G', 'M' ]
- [ 'M', 'K' ]
- [ 'K', 'G' ]
reciprocal_lattice:
- [   0.27371434,   0.15802905,  -0.00000000 ] # a*
- [   0.00000000,   0.31605809,  -0.00000000 ] # b*
- [   0.00000000,   0.00000000,   0.03829272 ] # c*
natom: 5      
lattice:
- [     3.653443962457759,    -0.000000000000000,     0.000000000000000 ] # a
- [    -1.826721981228880,     3.163975282808028,     0.000000000000000 ] # b
- [     0.000000000000001,     0.000000000000003,    26.114621013840356 ] # c
points:
- symbol: C # 1
  coordinates: [  0.000000000000000,  0.000000000000000,  0.485964680866274 ]
  mass: 12.010700
- symbol: Cl # 2
  coordinates: [  0.333332985432215,  0.666666983183674,  0.605623764508505 ]
  mass: 35.453000
- symbol: H # 3
  coordinates: [  0.666666984744048,  0.333332985985145,  0.394091365834164 ]
  mass: 1.007940
- symbol: Y # 4
  coordinates: [  0.333332985432215,  0.666666983183674,  0.433955398081690 ]
  mass: 88.905850
- symbol: Y # 5
  coordinates: [  0.666666984744048,  0.333332985985145,  0.537735228479823 ]
  mass: 88.905850

phonon:
- q-position: [    0.0000000,    0.0000000,    0.0000000 ]
  distance:    0.0000000
  band:
  - # 1
    frequency:   -0.0000180108
  - # 2
    frequency:    0.0000001409
  - # 3
    frequency:    0.0000205114
  - # 4
    frequency:    3.5176032143
  - # 5
    frequency:    3.5176032144
  - # 6
    frequency:    4.7650914901
  - # 7
    frequency:    4.7650914901
  - # 8
    frequency:    5.6753526890
  - # 9
    frequency:    8.5817787456
  - # 10
    frequency:    8.9119401278
  - # 11
    frequency:    8.9119401279
  - # 12
    frequency:   16.3884393007
  - # 13
    frequency:   24.0734305771
  - # 14
    frequency:   24.0734305773
  - # 15
    frequency:   24.3659136745

- q-position: [    0.0050505,    0.0000000,    0.0000000 ]
  distance:    0.0015963
  band:
  - # 1
    frequency:    0.0012404678
  - # 2
    frequency:    0.0598671095
  - # 3
    frequency:    0.0961407450
  - # 4
    frequency:    3.5174998558
  - # 5
    frequency:    3.5185220021
  - # 6
    frequency:    4.7650891667
  - # 7
    frequency:    4.7659155555
  - # 8
    frequency:    5.6754980442
  - # 9
    frequency:    8.5802676319
  - # 10
    frequency:    8.9116809773
  - # 11
    frequency:    8.9205273088
  - # 12
    frequency:   16.3863535555
  - # 13
    frequency:   24.0716186572
  - # 14
    frequency:   24.0731605860
  - # 15
    frequency:   24.3680361291

- q-position: [    0.0101010,    0.0000000,    0.0000000 ]
  distance:    0.0031925
  band:
  - # 1
    frequency:    0.0053995394
  - # 2
    frequency:    0.1197009773
  - # 3
    frequency:    0.1922785376
  - # 4
    frequency:    3.5171903768
  - # 5
    frequency:    3.5212732422
  - # 6
    frequency:    4.7650825934
  - # 7
    frequency:    4.7683588261
  - # 8
    frequency:    5.6759393895
  - # 9
    frequency:    8.5760093660
  - # 10
    frequency:    8.9109052156
  - # 11
    frequency:    8.9459525789
  - # 12
    frequency:   16.3801022962
  - # 13
    frequency:   24.0662885246
  - # 14
    frequency:   24.0723515181
  - # 15
    frequency:   24.3742962819

- q-position: [    0.0151515,    0.0000000,    0.0000000 ]
  distance:    0.0047888
  band:
  - # 1
    frequency:    0.0122464576
  - # 2
    frequency:    0.1794684160
  - # 3
    frequency:    0.2884126877
  - # 4
    frequency:    3.5166765662
  - # 5
    frequency:    3.5258417197
  - # 6
    frequency:    4.7650729560
  - # 7
    frequency:    4.7723367217
  - # 8
    frequency:    5.6766921757
  - # 9
    frequency:    8.5696327729
  - # 10
    frequency:    8.9096179066
  - # 11
    frequency:    8.9874044059
  - # 12
    frequency:   16.3697034079
  - # 13
    frequency:   24.0577201179
  - # 14
    frequency:   24.0710060877
  - # 15
    frequency:   24.3844094708

- q-position: [    0.0202020,    0.0000000,    0.0000000 ]
  distance:    0.0063850
  band:
  - # 1
    frequency:    0.0217891975
  - # 2
    frequency:    0.2391363568
  - # 3
    frequency:    0.3845403514
  - # 4
    frequency:    3.5159614037
  - # 5
    frequency:    3.5322025755
  - # 6
    frequency:    4.7650622160
  - # 7
    frequency:    4.7777153069
  - # 8
    frequency:    5.6777809055
  - # 9
    frequency:    8.5617649329
  - # 10
    frequency:    8.9078274696
  - # 11
    frequency:    9.0439541848
  - # 12
    frequency:   16.3551865520
  - # 13
    frequency:   24.0462822138
  - # 14
    frequency:   24.0691288076
  - # 15
    frequency:   24.3979991343

- q-position: [    0.0252525,    0.0000000,    0.0000000 ]
  distance:    0.0079813
  band:
  - # 1
    frequency:    0.0339971997
  - # 2
    frequency:    0.2986719055
  - # 3
    frequency:    0.4806579681
  - # 4
    frequency:    3.5150490559
  - # 5
    frequency:    3.5403220132
  - # 6
    frequency:    4.7650530884
  - # 7
    frequency:    4.7843208901
  - # 8
    frequency:    5.6792374168
  - # 9
    frequency:    8.5528337949
  - # 10
    frequency:    8.9055456486
  - # 11
    frequency:    9.1147582155
  - # 12
    frequency:   16.3365929508
  - # 13
    frequency:   24.0323476963
  - # 14
    frequency:   24.0667259740
  - # 15
    frequency:   24.4146816704

- q-position: [    0.0303030,    0.0000000,    0.0000000 ]
  distance:    0.0095775
  band:
  - # 1
    frequency:    0.0488280332
  - # 2
    frequency:    0.3580424022
  - # 3
    frequency:    0.5767608095
  - # 4
    frequency:    3.5139448722
  - # 5
    frequency:    3.5501582123
  - # 6
    frequency:    4.7650490109
  - # 7
    frequency:    4.7919517533
  - # 8
    frequency:    5.6810987596
  - # 9
    frequency:    8.5430588775
  - # 10
    frequency:    8.9027874692
  - # 11
    frequency:    9.1990735822
  - # 12
    frequency:   16.3139750966
  - # 13
    frequency:   24.0162404020
  - # 14
    frequency:   24.0638056446
  - # 15
    frequency:   24.4341197603

- q-position: [    0.0353535,    0.0000000,    0.0000000 ]
  distance:    0.0111738
  band:
  - # 1
    frequency:    0.0662301030
  - # 2
    frequency:    0.4172154816
  - # 3
    frequency:    0.6728426172
  - # 4
    frequency:    3.5126553794
  - # 5
    frequency:    3.5616623850
  - # 6
    frequency:    4.7650541049
  - # 7
    frequency:    4.8003906981
  - # 8
    frequency:    5.6834048850
  - # 9
    frequency:    8.5325178439
  - # 10
    frequency:    8.8995711823
  - # 11
    frequency:    9.2962001695
  - # 12
    frequency:   16.2873963930
  - # 13
    frequency:   23.9982155979
  - # 14
    frequency:   24.0603776104
  - # 15
    frequency:   24.4560420931

- q-position: [    0.0404040,    0.0000000,    0.0000000 ]
  distance:    0.0127700
  band:
  - # 1
    frequency:    0.0861436965
  - # 2
    frequency:    0.4761591337
  - # 3
    frequency:    0.7688952355
  - # 4
    frequency:    3.5111882745
  - # 5
    frequency:    3.5747799176
  - # 6
    frequency:    4.7650731297
  - # 7
    frequency:    4.8094171587
  - # 8
    frequency:    5.6861963581
  - # 9
    frequency:    8.5212124995
  - # 10
    frequency:    8.8959181945
  - # 11
    frequency:    9.4054251606
  - # 12
    frequency:   16.2569307429
  - # 13
    frequency:   23.9784620867
  - # 14
    frequency:   24.0564533619
  - # 15
    frequency:   24.4802414860

- q-position: [    0.0454545,    0.0000000,    0.0000000 ]
  distance:    0.0143663
  band:
  - # 1
    frequency:    0.1085018348
  - # 2
    frequency:    0.5348417662
  - # 3
    frequency:    0.8649082347
  - # 4
    frequency:    3.5095524177
  - # 5
    frequency:    3.5894515401
  - # 6
    frequency:    4.7651114289
  - # 7
    frequency:    4.8188178758
  - # 8
    frequency:    5.6895122708
  - # 9
    frequency:    8.5091125677
  - # 10
    frequency:    8.8918529856
  - # 11
    frequency:    9.5259913937
  - # 12
    frequency:   16.2226620941
  - # 13
    frequency:   23.9571138026
  - # 14
    frequency:   24.0520460494
  - # 15
    frequency:   24.5065635249

- q-position: [    0.0505051,    0.0000000,    0.0000000 ]
  distance:    0.0159625
  band:
  - # 1
    frequency:    0.1332311350
  - # 2
    frequency:    0.5932322681
  - # 3
    frequency:    0.9608685305
  - # 4
    frequency:    3.5077578239
  - # 5
    frequency:    3.6056144785
  - # 6
    frequency:    4.7651748711
  - # 7
    frequency:    4.8283954656
  - # 8
    frequency:    5.6933884838
  - # 9
    frequency:    8.4961797010
  - # 10
    frequency:    8.8874030109
  - # 11
    frequency:    9.6570867017
  - # 12
    frequency:   16.1846839595
  - # 13
    frequency:   23.9342634052
  - # 14
    frequency:   24.0471704372
  - # 15
    frequency:   24.5348932074

- q-position: [    0.0555556,    0.0000000,    0.0000000 ]
  distance:    0.0175588
  band:
  - # 1
    frequency:    0.1602527096
  - # 2
    frequency:    0.6513000742
  - # 3
    frequency:    1.0567600070
  - # 4
    frequency:    3.5058156534
  - # 5
    frequency:    3.6232035587
  - # 6
    frequency:    4.7652697851
  - # 7
    frequency:    4.8379745796
  - # 8
    frequency:    5.6978562708
  - # 9
    frequency:    8.4823789021
  - # 10
    frequency:    8.8825985901
  - # 11
    frequency:    9.7978465282
  - # 12
    frequency:   16.1430989269
  - # 13
    frequency:   23.9099744569
  - # 14
    frequency:   24.0418428525
  - # 15
    frequency:   24.5651429885

- q-position: [    0.0606061,    0.0000000,    0.0000000 ]
  distance:    0.0191550
  band:
  - # 1
    frequency:    0.1894830882
  - # 2
    frequency:    0.7090152305
  - # 3
    frequency:    1.1525631495
  - # 4
    frequency:    3.5037382020
  - # 5
    frequency:    3.6421522368
  - # 6
    frequency:    4.7654028913
  - # 7
    frequency:    4.8474056686
  - # 8
    frequency:    5.7029413924
  - # 9
    frequency:    8.4676830614
  - # 10
    frequency:    8.8774727804
  - # 11
    frequency:    9.9473635356
  - # 12
    frequency:   16.0980181775
  - # 13
    frequency:   23.8842911374
  - # 14
    frequency:   24.0360811289
  - # 15
    frequency:   24.5972432670

- q-position: [    0.0656566,    0.0000000,    0.0000000 ]
  distance:    0.0207513
  band:
  - # 1
    frequency:    0.2208351384
  - # 2
    frequency:    0.7663484616
  - # 3
    frequency:    1.2482546955
  - # 4
    frequency:    3.5015388907
  - # 5
    frequency:    3.6623935432
  - # 6
    frequency:    4.7655812290
  - # 7
    frequency:    4.8565666021
  - # 8
    frequency:    5.7086635828
  - # 9
    frequency:    8.4520741025
  - # 10
    frequency:    8.8720612349
  - # 11
    frequency:   10.1047001547
  - # 12
    frequency:   16.0495610303
  - # 13
    frequency:   23.8572455185
  - # 14
    frequency:   24.0299045447
  - # 15
    frequency:   24.6311352762

- q-position: [    0.0707071,    0.0000000,    0.0000000 ]
  distance:    0.0223475
  band:
  - # 1
    frequency:    0.2542189599
  - # 2
    frequency:    0.8232712380
  - # 3
    frequency:    1.3438073067
  - # 4
    frequency:    3.4992322534
  - # 5
    frequency:    3.6838609337
  - # 6
    frequency:    4.7658120817
  - # 7
    frequency:    4.8653625301
  - # 8
    frequency:    5.7150364062
  - # 9
    frequency:    8.4355426271
  - # 10
    frequency:    8.8664020445
  - # 11
    frequency:   10.2689017017
  - # 12
    frequency:   15.9978545347
  - # 13
    frequency:   23.8288627997
  - # 14
    frequency:   24.0233337560
  - # 15
    frequency:   24.6667659712

- q-position: [    0.0757576,    0.0000000,    0.0000000 ]
  distance:    0.0239438
  band:
  - # 1
    frequency:    0.2895427300
  - # 2
    frequency:    0.8797558451
  - # 3
    frequency:    1.4391892676
  - # 4
    frequency:    3.4968339245
  - # 5
    frequency:    3.7064890451
  - # 6
    frequency:    4.7661029020
  - # 7
    frequency:    4.8737244340
  - # 8
    frequency:    5.7220674233
  - # 9
    frequency:    8.4180870074
  - # 10
    frequency:    8.8605355640
  - # 11
    frequency:   10.4390087431
  - # 12
    frequency:   15.9430331337
  - # 13
    frequency:   23.7991649663
  - # 14
    frequency:   24.0163907255
  - # 15
    frequency:   24.7040844447

- q-position: [    0.0808081,    0.0000000,    0.0000000 ]
  distance:    0.0255400
  band:
  - # 1
    frequency:    0.3267134834
  - # 2
    frequency:    0.9357754519
  - # 3
    frequency:    1.5343642108
  - # 4
    frequency:    3.4943606249
  - # 5
    frequency:    3.7302143563
  - # 6
    frequency:    4.7664612358
  - # 7
    frequency:    4.8816067973
  - # 8
    frequency:    5.7297585964
  - # 9
    frequency:    8.3997123680
  - # 10
    frequency:    8.8545042226
  - # 11
    frequency:   10.6140680218
  - # 12
    frequency:   15.8852384261
  - # 13
    frequency:   23.7681732760
  - # 14
    frequency:   24.0090986461
  - # 15
    frequency:   24.7430394592

- q-position: [    0.0858586,    0.0000000,    0.0000000 ]
  distance:    0.0271363
  band:
  - # 1
    frequency:    0.3656378129
  - # 2
    frequency:    0.9913041803
  - # 3
    frequency:    1.6292908719
  - # 4
    frequency:    3.4918301460
  - # 5
    frequency:    3.7549757595
  - # 6
    frequency:    4.7668946485
  - # 7
    frequency:    4.8889847757
  - # 8
    frequency:    5.7381068637
  - # 9
    frequency:    8.3804296397
  - # 10
    frequency:    8.8483523168
  - # 11
    frequency:   10.7931416292
  - # 12
    frequency:   15.8246190603
  - # 13
    frequency:   23.7359098964
  - # 14
    frequency:   24.0014818609
  - # 15
    frequency:   24.7835777712

- q-position: [    0.0909091,    0.0000000,    0.0000000 ]
  distance:    0.0287326
  band:
  - # 1
    frequency:    0.4062224849
  - # 2
    frequency:    1.0463171742
  - # 3
    frequency:    1.7239228728
  - # 4
    frequency:    3.4892613312
  - # 5
    frequency:    3.7807150454
  - # 6
    frequency:    4.7674106534
  - # 7
    frequency:    4.8958511720
  - # 8
    frequency:    5.7471048187
  - # 9
    frequency:    8.3602547511
  - # 10
    frequency:    8.8421257884
  - # 11
    frequency:   10.9753143270
  - # 12
    frequency:   15.7613308052
  - # 13
    frequency:   23.7023989399
  - # 14
    frequency:   23.9935657789
  - # 15
    frequency:   24.8256430017

- q-position: [    0.0959596,    0.0000000,    0.0000000 ]
  distance:    0.0303288
  band:
  - # 1
    frequency:    0.4483749670
  - # 2
    frequency:    1.1007906678
  - # 3
    frequency:    1.8182085342
  - # 4
    frequency:    3.4866740550
  - # 5
    frequency:    3.8073773078
  - # 6
    frequency:    4.7680166439
  - # 7
    frequency:    4.9022134431
  - # 8
    frequency:    5.7567414348
  - # 9
    frequency:    8.3392079644
  - # 10
    frequency:    8.8358719857
  - # 11
    frequency:   11.1596990363
  - # 12
    frequency:   15.6955368564
  - # 13
    frequency:   23.6676670728
  - # 14
    frequency:   23.9853767868
  - # 15
    frequency:   24.8691748776

- q-position: [    0.1010101,    0.0000000,    0.0000000 ]
  distance:    0.0319251
  band:
  - # 1
    frequency:    0.4920038687
  - # 2
    frequency:    1.1547020526
  - # 3
    frequency:    1.9120907169
  - # 4
    frequency:    3.4840891978
  - # 5
    frequency:    3.8349112737
  - # 6
    frequency:    4.7687198312
  - # 7
    frequency:    4.9080908939
  - # 8
    frequency:    5.7670027902
  - # 9
    frequency:    8.3173133416
  - # 10
    frequency:    8.8296394103
  - # 11
    frequency:   11.3454405660
  - # 12
    frequency:   15.6274084613
  - # 13
    frequency:   23.6317438305
  - # 14
    frequency:   23.9769421580
  - # 15
    frequency:   24.9141087181

- q-position: [    0.1060606,    0.0000000,    0.0000000 ]
  distance:    0.0335213
  band:
  - # 1
    frequency:    0.5370192994
  - # 2
    frequency:    1.2080299432
  - # 3
    frequency:    2.0055066930
  - # 4
    frequency:    3.4815286168
  - # 5
    frequency:    3.8632695629
  - # 6
    frequency:    4.7695271865
  - # 7
    frequency:    4.9135121551
  - # 8
    frequency:    5.7778727552
  - # 9
    frequency:    8.2945983217
  - # 10
    frequency:    8.8234774483
  - # 11
    frequency:   11.5317176462
  - # 12
    frequency:   15.5571259841
  - # 13
    frequency:   23.5946617292
  - # 14
    frequency:   23.9682899576
  - # 15
    frequency:   24.9603750809

- q-position: [    0.1111111,    0.0000000,    0.0000000 ]
  distance:    0.0351176
  band:
  - # 1
    frequency:    0.5833331509
  - # 2
    frequency:    1.2607542405
  - # 3
    frequency:    2.0983880469
  - # 4
    frequency:    3.4790151101
  - # 5
    frequency:    3.8924088804
  - # 6
    frequency:    4.7704453912
  - # 7
    frequency:    4.9185129916
  - # 8
    frequency:    5.7893336163
  - # 9
    frequency:    8.2710933877
  - # 10
    frequency:    8.8174360897
  - # 11
    frequency:   11.7177432813
  - # 12
    frequency:   15.4848805900
  - # 13
    frequency:   23.5564562426
  - # 14
    frequency:   23.9594489453
  - # 15
    frequency:   25.0078995112

- q-position: [    0.1161616,    0.0000000,    0.0000000 ]
  distance:    0.0367138
  band:
  - # 1
    frequency:    0.6308593103
  - # 2
    frequency:    1.3128561924
  - # 3
    frequency:    2.1906606101
  - # 4
    frequency:    3.4765723753
  - # 5
    frequency:    3.9222901441
  - # 6
    frequency:    4.7714807939
  - # 7
    frequency:    4.9231344577
  - # 8
    frequency:    5.8013666202
  - # 9
    frequency:    8.2468318059
  - # 10
    frequency:    8.8115656343
  - # 11
    frequency:   11.9027633387
  - # 12
    frequency:   15.4108768227
  - # 13
    frequency:   23.5171656880
  - # 14
    frequency:   23.9504484751
  - # 15
    frequency:   25.0566023588

- q-position: [    0.1212121,    0.0000000,    0.0000000 ]
  distance:    0.0383101
  band:
  - # 1
    frequency:    0.6795138136
  - # 2
    frequency:    1.3643184505
  - # 3
    frequency:    2.2822444335
  - # 4
    frequency:    3.4742249593
  - # 5
    frequency:    3.9528785456
  - # 6
    frequency:    4.7726393748
  - # 7
    frequency:    4.9274213895
  - # 8
    frequency:    5.8139524289
  - # 9
    frequency:    8.2218494228
  - # 10
    frequency:    8.8059163890
  - # 11
    frequency:   12.0860531110
  - # 12
    frequency:   15.3353365032
  - # 13
    frequency:   23.4768310543
  - # 14
    frequency:   23.9413183937
  - # 15
    frequency:   25.1063986419

- q-position: [    0.1262626,    0.0000000,    0.0000000 ]
  distance:    0.0399063
  band:
  - # 1
    frequency:    0.7292149460
  - # 2
    frequency:    1.4151251244
  - # 3
    frequency:    2.3730538034
  - # 4
    frequency:    3.4719981986
  - # 5
    frequency:    3.9841435403
  - # 6
    frequency:    4.7739267190
  - # 7
    frequency:    4.9314212136
  - # 8
    frequency:    5.8270714824
  - # 9
    frequency:    8.1961845090
  - # 10
    frequency:    8.8005383553
  - # 11
    frequency:   12.2669113165
  - # 12
    frequency:   15.2585046327
  - # 13
    frequency:   23.4354957970
  - # 14
    frequency:   23.9320889356
  - # 15
    frequency:   25.1571979502

- q-position: [    0.1313131,    0.0000000,    0.0000000 ]
  distance:    0.0415026
  band:
  - # 1
    frequency:    0.7798833003
  - # 2
    frequency:    1.4652618295
  - # 3
    frequency:    2.4629973110
  - # 4
    frequency:    3.4699181498
  - # 5
    frequency:    4.0160587575
  - # 6
    frequency:    4.7753479973
  - # 7
    frequency:    4.9351830421
  - # 8
    frequency:    5.8407042718
  - # 9
    frequency:    8.1698776392
  - # 10
    frequency:    8.7954809128
  - # 11
    frequency:   12.4446505370
  - # 12
    frequency:   15.1806584230
  - # 13
    frequency:   23.3932056121
  - # 14
    frequency:   23.9227906182
  - # 15
    frequency:   25.2089043847

- q-position: [    0.1363636,    0.0000000,    0.0000000 ]
  distance:    0.0430988
  band:
  - # 1
    frequency:    0.8314417969
  - # 2
    frequency:    1.5147157318
  - # 3
    frequency:    2.5519779893
  - # 4
    frequency:    3.4680115072
  - # 5
    frequency:    4.0486018159
  - # 6
    frequency:    4.7769079550
  - # 7
    frequency:    4.9387570240
  - # 8
    frequency:    5.8548315261
  - # 9
    frequency:    8.1429716039
  - # 10
    frequency:    8.7907924983
  - # 11
    frequency:   12.6185823032
  - # 12
    frequency:   15.1021213404
  - # 13
    frequency:   23.3500082036
  - # 14
    frequency:   23.9134541341
  - # 15
    frequency:   25.2614165383

- q-position: [    0.1414141,    0.0000000,    0.0000000 ]
  distance:    0.0446951
  band:
  - # 1
    frequency:    0.8838156777
  - # 2
    frequency:    1.5634755862
  - # 3
    frequency:    2.6398935335
  - # 4
    frequency:    3.4663055071
  - # 5
    frequency:    4.0817540235
  - # 6
    frequency:    4.7786109082
  - # 7
    frequency:    4.9421939243
  - # 8
    frequency:    5.8694343186
  - # 9
    frequency:    8.1155113461
  - # 10
    frequency:    8.7865202856
  - # 11
    frequency:   12.7879936364
  - # 12
    frequency:   15.0232854342
  - # 13
    frequency:   23.3059530485
  - # 14
    frequency:   23.9041102438
  - # 15
    frequency:   25.3146275246

- q-position: [    0.1464646,    0.0000000,    0.0000000 ]
  distance:    0.0462913
  band:
  - # 1
    frequency:    0.9369324753
  - # 2
    frequency:    1.6115317691
  - # 3
    frequency:    2.7266366268
  - # 4
    frequency:    3.4648278179
  - # 5
    frequency:    4.1154999337
  - # 6
    frequency:    4.7804607466
  - # 7
    frequency:    4.9455449077
  - # 8
    frequency:    5.8844941008
  - # 9
    frequency:    8.0875439205
  - # 10
    frequency:    8.7827098676
  - # 11
    frequency:   12.9521092834
  - # 12
    frequency:   14.9446477700
  - # 13
    frequency:   23.2610911674
  - # 14
    frequency:   23.8947896665
  - # 15
    frequency:   25.3684250639

- q-position: [    0.1515152,    0.0000000,    0.0000000 ]
  distance:    0.0478876
  band:
  - # 1
    frequency:    0.9907219673
  - # 2
    frequency:    1.6588763059
  - # 3
    frequency:    2.8120954010
  - # 4
    frequency:    3.4636064138
  - # 5
    frequency:    4.1498267179
  - # 6
    frequency:    4.7824609419
  - # 7
    frequency:    4.9488615096
  - # 8
    frequency:    5.8999926679
  - # 9
    frequency:    8.0591184723
  - # 10
    frequency:    8.7794049461
  - # 11
    frequency:   13.1100290515
  - # 12
    frequency:   14.8668716060
  - # 13
    frequency:   23.2154749011
  - # 14
    frequency:   23.8855229715
  - # 15
    frequency:   25.4226916356

- q-position: [    0.1565657,    0.0000000,    0.0000000 ]
  distance:    0.0494838
  band:
  - # 1
    frequency:    1.0451161184
  - # 2
    frequency:    1.7055028905
  - # 3
    frequency:    2.8961540605
  - # 4
    frequency:    3.4626694316
  - # 5
    frequency:    4.1847233091
  - # 6
    frequency:    4.7846145609
  - # 7
    frequency:    4.9521957873
  - # 8
    frequency:    5.9159120622
  - # 9
    frequency:    8.0302862343
  - # 10
    frequency:    8.7766470301
  - # 11
    frequency:   13.2606204950
  - # 12
    frequency:   14.7908920939
  - # 13
    frequency:   23.1691576982
  - # 14
    frequency:   23.8763404693
  - # 15
    frequency:   25.4773047051

- q-position: [    0.1616162,    0.0000000,    0.0000000 ]
  distance:    0.0510801
  band:
  - # 1
    frequency:    1.1000490159
  - # 2
    frequency:    1.7514068999
  - # 3
    frequency:    2.9786937096
  - # 4
    frequency:    3.4620450105
  - # 5
    frequency:    4.2201792555
  - # 6
    frequency:    4.7869242815
  - # 7
    frequency:    4.9556006532
  - # 8
    frequency:    5.9322344189
  - # 9
    frequency:    8.0011005415
  - # 10
    frequency:    8.7744751487
  - # 11
    frequency:   13.4023304001
  - # 12
    frequency:   14.7181030792
  - # 13
    frequency:   23.1221939127
  - # 14
    frequency:   23.8672721030
  - # 15
    frequency:   25.5321370346

- q-position: [    0.1666667,    0.0000000,    0.0000000 ]
  distance:    0.0526763
  band:
  - # 1
    frequency:    1.1554568012
  - # 2
    frequency:    1.7965854007
  - # 3
    frequency:    3.0595934168
  - # 4
    frequency:    3.4617611131
  - # 5
    frequency:    4.2561832179
  - # 6
    frequency:    4.7893924112
  - # 7
    frequency:    4.9591304063
  - # 8
    frequency:    5.9489417559
  - # 9
    frequency:    7.9716168627
  - # 10
    frequency:    8.7729255803
  - # 11
    frequency:   13.5328521426
  - # 12
    frequency:   14.6506879458
  - # 13
    frequency:   23.0746386141
  - # 14
    frequency:   23.8583473402
  - # 15
    frequency:   25.5870570816

- q-position: [    0.1717172,    0.0000000,    0.0000000 ]
  distance:    0.0542726
  band:
  - # 1
    frequency:    1.2112776012
  - # 2
    frequency:    1.8410371497
  - # 3
    frequency:    3.1387315548
  - # 4
    frequency:    3.4618453290
  - # 5
    frequency:    4.2927210292
  - # 6
    frequency:    4.7920209052
  - # 7
    frequency:    4.9628414905
  - # 8
    frequency:    5.9660157106
  - # 9
    frequency:    7.9418928499
  - # 10
    frequency:    8.7720316028
  - # 11
    frequency:   13.6485705007
  - # 12
    frequency:   14.5921729340
  - # 13
    frequency:   23.0265474103
  - # 14
    frequency:   23.8495950664
  - # 15
    frequency:   25.6419294893

- q-position: [    0.1767677,    0.0000000,    0.0000000 ]
  distance:    0.0558689
  band:
  - # 1
    frequency:    1.2674514625
  - # 2
    frequency:    1.8847625868
  - # 3
    frequency:    3.2159874414
  - # 4
    frequency:    3.4623246602
  - # 5
    frequency:    4.3297732314
  - # 6
    frequency:    4.7948113833
  - # 7
    frequency:    4.9667935300
  - # 8
    frequency:    5.9834372228
  - # 9
    frequency:    7.9119884052
  - # 10
    frequency:    8.7718232673
  - # 11
    frequency:   13.7438409742
  - # 12
    frequency:   14.5481458906
  - # 13
    frequency:   22.9779762835
  - # 14
    frequency:   23.8410434794
  - # 15
    frequency:   25.6966156700

- q-position: [    0.1818182,    0.0000000,    0.0000000 ]
  distance:    0.0574651
  band:
  - # 1
    frequency:    1.3239202892
  - # 2
    frequency:    1.9277638208
  - # 3
    frequency:    3.2912432929
  - # 4
    frequency:    3.4632252900
  - # 5
    frequency:    4.3673119991
  - # 6
    frequency:    4.7977651453
  - # 7
    frequency:    4.9710507154
  - # 8
    frequency:    6.0011861650
  - # 9
    frequency:    7.8819657670
  - # 10
    frequency:    8.7723271981
  - # 11
    frequency:   13.8109172262
  - # 12
    frequency:   14.5263268475
  - # 13
    frequency:   22.9289814392
  - # 14
    frequency:   23.8327199853
  - # 15
    frequency:   25.7509744777

- q-position: [    0.1868687,    0.0000000,    0.0000000 ]
  distance:    0.0590614
  band:
  - # 1
    frequency:    1.3806277864
  - # 2
    frequency:    1.9700446084
  - # 3
    frequency:    3.3643864756
  - # 4
    frequency:    3.4645723367
  - # 5
    frequency:    4.4052973546
  - # 6
    frequency:    4.8008831815
  - # 7
    frequency:    4.9756836384
  - # 8
    frequency:    6.0192409175
  - # 9
    frequency:    7.8518896158
  - # 10
    frequency:    8.7735664228
  - # 11
    frequency:   13.8427751856
  - # 12
    frequency:   14.5337418962
  - # 13
    frequency:   22.8796191686
  - # 14
    frequency:   23.8246510969
  - # 15
    frequency:   25.8048629662

- q-position: [    0.1919192,    0.0000000,    0.0000000 ]
  distance:    0.0606576
  band:
  - # 1
    frequency:    1.4375194115
  - # 2
    frequency:    2.0116103247
  - # 3
    frequency:    3.4353120036
  - # 4
    frequency:    3.4663895944
  - # 5
    frequency:    4.4436725893
  - # 6
    frequency:    4.8041661788
  - # 7
    frequency:    4.9807717148
  - # 8
    frequency:    6.0375778898
  - # 9
    frequency:    7.8218271997
  - # 10
    frequency:    8.7755602324
  - # 11
    frequency:   13.8389027158
  - # 12
    frequency:   14.5709314659
  - # 13
    frequency:   22.8299457250
  - # 14
    frequency:   23.8168623339
  - # 15
    frequency:   25.8581372240

- q-position: [    0.1969697,    0.0000000,    0.0000000 ]
  distance:    0.0622539
  band:
  - # 1
    frequency:    1.4945423324
  - # 2
    frequency:    2.0524679263
  - # 3
    frequency:    3.4686992625
  - # 4
    frequency:    3.5039251877
  - # 5
    frequency:    4.4823588108
  - # 6
    frequency:    4.8076145208
  - # 7
    frequency:    4.9864063625
  - # 8
    frequency:    6.0561709851
  - # 9
    frequency:    7.7918484821
  - # 10
    frequency:    8.7783240761
  - # 11
    frequency:   13.8066039118
  - # 12
    frequency:   14.6306439525
  - # 13
    frequency:   22.7800172131
  - # 14
    frequency:   23.8093781268
  - # 15
    frequency:   25.9106532760

- q-position: [    0.2020202,    0.0000000,    0.0000000 ]
  distance:    0.0638501
  band:
  - # 1
    frequency:    1.5516453942
  - # 2
    frequency:    2.0926259056
  - # 3
    frequency:    3.4715216698
  - # 4
    frequency:    3.5701442927
  - # 5
    frequency:    4.5212485618
  - # 6
    frequency:    4.8112282825
  - # 7
    frequency:    4.9926951307
  - # 8
    frequency:    6.0749910122
  - # 9
    frequency:    7.7620263085
  - # 10
    frequency:    8.7818694888
  - # 11
    frequency:   13.7553803488
  - # 12
    frequency:   14.7034523892
  - # 13
    frequency:   22.7298894919
  - # 14
    frequency:   23.8022217228
  - # 15
    frequency:   25.9622680386

- q-position: [    0.2070707,    0.0000000,    0.0000000 ]
  distance:    0.0654464
  band:
  - # 1
    frequency:    1.6087790944
  - # 2
    frequency:    2.1320942362
  - # 3
    frequency:    3.4748749942
  - # 4
    frequency:    3.6339030151
  - # 5
    frequency:    4.5601985164
  - # 6
    frequency:    4.8150072165
  - # 7
    frequency:    4.9997669584
  - # 8
    frequency:    6.0940050450
  - # 9
    frequency:    7.7324365935
  - # 10
    frequency:    8.7862040537
  - # 11
    frequency:   13.6925571606
  - # 12
    frequency:   14.7821262931
  - # 13
    frequency:   22.6796180901
  - # 14
    frequency:   23.7954150959
  - # 15
    frequency:   26.0128403143

- q-position: [    0.2121212,    0.0000000,    0.0000000 ]
  distance:    0.0670426
  band:
  - # 1
    frequency:    1.6658955656
  - # 2