nqpoint: 300    
npath: 3      
segment_nqpoint:
- 100
- 100
- 100
labels:
- [ 'G', 'M' ]
- [ 'M', 'K' ]
- [ 'K', 'G' ]
reciprocal_lattice:
- [   0.26920862,   0.15542767,   0.00000000 ] # a*
- [   0.00000000,   0.31085534,   0.00000000 ] # b*
- [   0.00000000,   0.00000000,   0.03695765 ] # c*
natom: 7      
lattice:
- [     3.714591319265046,     0.000000000000000,     0.000000000000000 ] # a
- [    -1.857295659632523,     3.216930447191471,     0.000000000000000 ] # b
- [     0.000000000000000,     0.000000000000000,    27.057995021792063 ] # c
points:
- symbol: Cl # 1
  coordinates: [  0.333332985432215,  0.666666983183674,  0.667381119970214 ]
  mass: 35.453000
- symbol: N # 2
  coordinates: [  0.000000000000000,  0.000000000000000,  0.491913060351493 ]
  mass: 14.006700
- symbol: O # 3
  coordinates: [  0.333332985432215,  0.666666983183674,  0.567144046272979 ]
  mass: 15.999400
- symbol: O # 4
  coordinates: [  0.666666984744047,  0.333332985985145,  0.332618880029786 ]
  mass: 15.999400
- symbol: P # 5
  coordinates: [  0.666666984744047,  0.333332985985145,  0.387702146439537 ]
  mass: 30.973762
- symbol: Y # 6
  coordinates: [  0.333332985432215,  0.666666983183674,  0.477034785620751 ]
  mass: 88.905850
- symbol: Y # 7
  coordinates: [  0.666666984744047,  0.333332985985145,  0.594584354773610 ]
  mass: 88.905850

phonon:
- q-position: [    0.0000000,    0.0000000,    0.0000000 ]
  distance:    0.0000000
  band:
  - # 1
    frequency:   -3.3577852846
  - # 2
    frequency:   -3.3577852845
  - # 3
    frequency:   -0.4902144699
  - # 4
    frequency:   -0.4902144695
  - # 5
    frequency:   -0.0000159232
  - # 6
    frequency:    0.0000002856
  - # 7
    frequency:    0.0000370809
  - # 8
    frequency:    2.0071395725
  - # 9
    frequency:    2.0071395728
  - # 10
    frequency:    2.5144927194
  - # 11
    frequency:    3.3692596579
  - # 12
    frequency:    3.3692596579
  - # 13
    frequency:    3.4819163447
  - # 14
    frequency:    7.9223000530
  - # 15
    frequency:    9.4509094468
  - # 16
    frequency:    9.7052022634
  - # 17
    frequency:    9.7052022634
  - # 18
    frequency:   14.7220524178
  - # 19
    frequency:   15.9825554656
  - # 20
    frequency:   15.9825554657
  - # 21
    frequency:   34.6024534791

- q-position: [    0.0050505,    0.0000000,    0.0000000 ]
  distance:    0.0015700
  band:
  - # 1
    frequency:   -3.3577804496
  - # 2
    frequency:   -3.3572939903
  - # 3
    frequency:   -0.4906551249
  - # 4
    frequency:   -0.4869390235
  - # 5
    frequency:    0.0014127153
  - # 6
    frequency:    0.0378443348
  - # 7
    frequency:    0.0791982608
  - # 8
    frequency:    2.0075922778
  - # 9
    frequency:    2.0093194683
  - # 10
    frequency:    2.5144740000
  - # 11
    frequency:    3.3689131365
  - # 12
    frequency:    3.3691162503
  - # 13
    frequency:    3.4819924061
  - # 14
    frequency:    7.9210824427
  - # 15
    frequency:    9.4368391560
  - # 16
    frequency:    9.7049384772
  - # 17
    frequency:    9.7195322852
  - # 18
    frequency:   14.7213219898
  - # 19
    frequency:   15.9823350680
  - # 20
    frequency:   15.9834318716
  - # 21
    frequency:   34.6022124934

- q-position: [    0.0101010,    0.0000000,    0.0000000 ]
  distance:    0.0031400
  band:
  - # 1
    frequency:   -3.3577761222
  - # 2
    frequency:   -3.3558225591
  - # 3
    frequency:   -0.4919964991
  - # 4
    frequency:   -0.4769401518
  - # 5
    frequency:    0.0057092266
  - # 6
    frequency:    0.0758616552
  - # 7
    frequency:    0.1582791120
  - # 8
    frequency:    2.0089505738
  - # 9
    frequency:    2.0158240258
  - # 10
    frequency:    2.5144226247
  - # 11
    frequency:    3.3678459976
  - # 12
    frequency:    3.3686874452
  - # 13
    frequency:    3.4822552368
  - # 14
    frequency:    7.9174239135
  - # 15
    frequency:    9.4013927033
  - # 16
    frequency:    9.7041473577
  - # 17
    frequency:    9.7557661677
  - # 18
    frequency:   14.7191338492
  - # 19
    frequency:   15.9816741127
  - # 20
    frequency:   15.9860580772
  - # 21
    frequency:   34.6014898025

- q-position: [    0.0151515,    0.0000000,    0.0000000 ]
  distance:    0.0047099
  band:
  - # 1
    frequency:   -3.3578027190
  - # 2
    frequency:   -3.3533783476
  - # 3
    frequency:   -0.4942897369
  - # 4
    frequency:   -0.4596846100
  - # 5
    frequency:    0.0130969630
  - # 6
    frequency:    0.1141955791
  - # 7
    frequency:    0.2371538196
  - # 8
    frequency:    2.0112149842
  - # 9
    frequency:    2.0265482690
  - # 10
    frequency:    2.5143534445
  - # 11
    frequency:    3.3659786966
  - # 12
    frequency:    3.3679774926
  - # 13
    frequency:    3.4828056550
  - # 14
    frequency:    7.9113075859
  - # 15
    frequency:    9.3548611126
  - # 16
    frequency:    9.7028296223
  - # 17
    frequency:    9.8036374014
  - # 18
    frequency:   14.7154973580
  - # 19
    frequency:   15.9805733098
  - # 20
    frequency:   15.9904251159
  - # 21
    frequency:   34.6002862044

- q-position: [    0.0202020,    0.0000000,    0.0000000 ]
  distance:    0.0062799
  band:
  - # 1
    frequency:   -3.3579105436
  - # 2
    frequency:   -3.3499736243
  - # 3
    frequency:   -0.4975991239
  - # 4
    frequency:   -0.4342168284
  - # 5
    frequency:    0.0240373934
  - # 6
    frequency:    0.1529393865
  - # 7
    frequency:    0.3157775084
  - # 8
    frequency:    2.0143863261
  - # 9
    frequency:    2.0413184339
  - # 10
    frequency:    2.5142929688
  - # 11
    frequency:    3.3631895623
  - # 12
    frequency:    3.3669934651
  - # 13
    frequency:    3.4838009806
  - # 14
    frequency:    7.9027060654
  - # 15
    frequency:    9.3032047217
  - # 16
    frequency:    9.7009864680
  - # 17
    frequency:    9.8572258309
  - # 18
    frequency:   14.7104278928
  - # 19
    frequency:   15.9790338369
  - # 20
    frequency:   15.9965182748
  - # 21
    frequency:   34.5986030281

- q-position: [    0.0252525,    0.0000000,    0.0000000 ]
  distance:    0.0078499
  band:
  - # 1
    frequency:   -3.3581691842
  - # 2
    frequency:   -3.3456255798
  - # 3
    frequency:   -0.5019787195
  - # 4
    frequency:   -0.3990152157
  - # 5
    frequency:    0.0395251899
  - # 6
    frequency:    0.1921284871
  - # 7
    frequency:    0.3941476688
  - # 8
    frequency:    2.0184656255
  - # 9
    frequency:    2.0598931372
  - # 10
    frequency:    2.5142823048
  - # 11
    frequency:    3.3593314888
  - # 12
    frequency:    3.3657452413
  - # 13
    frequency:    3.4854386269
  - # 14
    frequency:    7.8915826117
  - # 15
    frequency:    9.2492446751
  - # 16
    frequency:    9.6986195728
  - # 17
    frequency:    9.9137650868
  - # 18
    frequency:   14.7039465229
  - # 19
    frequency:   15.9770573299
  - # 20
    frequency:   16.0043174232
  - # 21
    frequency:   34.5964421318

- q-position: [    0.0303030,    0.0000000,    0.0000000 ]
  distance:    0.0094199
  band:
  - # 1
    frequency:   -3.3586666362
  - # 2
    frequency:   -3.3403563371
  - # 3
    frequency:   -0.5074519475
  - # 4
    frequency:   -0.3517639823
  - # 5
    frequency:    0.0618515205
  - # 6
    frequency:    0.2317461405
  - # 7
    frequency:    0.4722921194
  - # 8
    frequency:    2.0234539993
  - # 9
    frequency:    2.0819637566
  - # 10
    frequency:    2.5143819539
  - # 11
    frequency:    3.3542538603
  - # 12
    frequency:    3.3642454827
  - # 13
    frequency:    3.4879345595
  - # 14
    frequency:    7.8778928918
  - # 15
    frequency:    9.1943857647
  - # 16
    frequency:    9.6957310982
  - # 17
    frequency:    9.9719181239
  - # 18
    frequency:   14.6960795904
  - # 19
    frequency:   15.9746458708
  - # 20
    frequency:   16.0137974413
  - # 21
    frequency:   34.5938059004

- q-position: [    0.0353535,    0.0000000,    0.0000000 ]
  distance:    0.0109898
  band:
  - # 1
    frequency:   -3.3595081240
  - # 2
    frequency:   -3.3341929613
  - # 3
    frequency:   -0.5139995066
  - # 4
    frequency:   -0.2896031126
  - # 5
    frequency:    0.0969086753
  - # 6
    frequency:    0.2717379037
  - # 7
    frequency:    0.5502545858
  - # 8
    frequency:    2.0293525032
  - # 9
    frequency:    2.1071527291
  - # 10
    frequency:    2.5146793118
  - # 11
    frequency:    3.3478252530
  - # 12
    frequency:    3.3625096034
  - # 13
    frequency:    3.4915010642
  - # 14
    frequency:    7.8615874101
  - # 15
    frequency:    9.1394143731
  - # 16
    frequency:    9.6923236921
  - # 17
    frequency:   10.0309770148
  - # 18
    frequency:   14.6868582195
  - # 19
    frequency:   15.9718019723
  - # 20
    frequency:   16.0249287216
  - # 21
    frequency:   34.5906972427

- q-position: [    0.0404040,    0.0000000,    0.0000000 ]
  distance:    0.0125598
  band:
  - # 1
    frequency:   -3.3608145914
  - # 2
    frequency:   -3.3271674632
  - # 3
    frequency:   -0.5215568797
  - # 4
    frequency:   -0.2154524601
  - # 5
    frequency:    0.1591500465
  - # 6
    frequency:    0.3120286817
  - # 7
    frequency:    0.6280828473
  - # 8
    frequency:    2.0361619444
  - # 9
    frequency:    2.1350079808
  - # 10
    frequency:    2.5153002326
  - # 11
    frequency:    3.3399508812
  - # 12
    frequency:    3.3605557318
  - # 13
    frequency:    3.4963298293
  - # 14
    frequency:    7.8426147017
  - # 15
    frequency:    9.0848284775
  - # 16
    frequency:    9.6884004916
  - # 17
    frequency:   10.0905299554
  - # 18
    frequency:   14.6763177839
  - # 19
    frequency:   15.9685285593
  - # 20
    frequency:   16.0376777125
  - # 21
    frequency:   34.5871195874

- q-position: [    0.0454545,    0.0000000,    0.0000000 ]
  distance:    0.0141298
  band:
  - # 1
    frequency:   -3.3627208351
  - # 2
    frequency:   -3.3193167928
  - # 3
    frequency:   -0.5300192880
  - # 4
    frequency:   -0.1565915161
  - # 5
    frequency:    0.2549829204
  - # 6
    frequency:    0.3525375073
  - # 7
    frequency:    0.7058207815
  - # 8
    frequency:    2.0438826612
  - # 9
    frequency:    2.1649910997
  - # 10
    frequency:    2.5164267021
  - # 11
    frequency:    3.3305804861
  - # 12
    frequency:    3.3584046647
  - # 13
    frequency:    3.5025846099
  - # 14
    frequency:    7.8209253357
  - # 15
    frequency:    9.0309790952
  - # 16
    frequency:    9.6839651270
  - # 17
    frequency:   10.1503160520
  - # 18
    frequency:   14.6644973589
  - # 19
    frequency:   15.9648289486
  - # 20
    frequency:   16.0520074783
  - # 21
    frequency:   34.5830768787

- q-position: [    0.0505051,    0.0000000,    0.0000000 ]
  distance:    0.0156998
  band:
  - # 1
    frequency:   -3.3653732639
  - # 2
    frequency:   -3.3106828165
  - # 3
    frequency:   -0.5392505221
  - # 4
    frequency:   -0.1248624590
  - # 5
    frequency:    0.3551068000
  - # 6
    frequency:    0.3931877467
  - # 7
    frequency:    0.7835036619
  - # 8
    frequency:    2.0525142697
  - # 9
    frequency:    2.1964562907
  - # 10
    frequency:    2.5183233479
  - # 11
    frequency:    3.3197065870
  - # 12
    frequency:    3.3560798132
  - # 13
    frequency:    3.5104034992
  - # 14
    frequency:    7.7964767036
  - # 15
    frequency:    8.9781340493
  - # 16
    frequency:    9.6790217254
  - # 17
    frequency:   10.2101570337
  - # 18
    frequency:   14.6514391828
  - # 19
    frequency:   15.9607068264
  - # 20
    frequency:   16.0678782484
  - # 21
    frequency:   34.5785735713

- q-position: [    0.0555556,    0.0000000,    0.0000000 ]
  distance:    0.0172697
  band:
  - # 1
    frequency:   -3.3689272842
  - # 2
    frequency:   -3.3013122718
  - # 3
    frequency:   -0.5490924913
  - # 4
    frequency:   -0.1042776209
  - # 5
    frequency:    0.4339126715
  - # 6
    frequency:    0.4472581016
  - # 7
    frequency:    0.8611555160
  - # 8
    frequency:    2.0620553783
  - # 9
    frequency:    2.2286175563
  - # 10
    frequency:    2.5213752423
  - # 11
    frequency:    3.3073566515
  - # 12
    frequency:    3.3536071402
  - # 13
    frequency:    3.5199071834
  - # 14
    frequency:    7.7692384584
  - # 15
    frequency:    8.9265074213
  - # 16
    frequency:    9.6735749144
  - # 17
    frequency:   10.2699226561
  - # 18
    frequency:   14.6371881465
  - # 19
    frequency:   15.9561662237
  - # 20
    frequency:   16.0852479379
  - # 21
    frequency:   34.5736146245

- q-position: [    0.0606061,    0.0000000,    0.0000000 ]
  distance:    0.0188397
  band:
  - # 1
    frequency:   -3.3735443283
  - # 2
    frequency:   -3.2912566902
  - # 3
    frequency:   -0.5593735579
  - # 4
    frequency:   -0.0852624060
  - # 5
    frequency:    0.4746575159
  - # 6
    frequency:    0.5328453773
  - # 7
    frequency:    0.9387874989
  - # 8
    frequency:    2.0725032740
  - # 9
    frequency:    2.2605061160
  - # 10
    frequency:    2.5261350044
  - # 11
    frequency:    3.2935836766
  - # 12
    frequency:    3.3510150880
  - # 13
    frequency:    3.5312086066
  - # 14
    frequency:    7.7391983346
  - # 15
    frequency:    8.8762727889
  - # 16
    frequency:    9.6676298259
  - # 17
    frequency:   10.3295119630
  - # 18
    frequency:   14.6217913245
  - # 19
    frequency:   15.9512114918
  - # 20
    frequency:   16.1040726245
  - # 21
    frequency:   34.5682054956

- q-position: [    0.0656566,    0.0000000,    0.0000000 ]
  distance:    0.0204097
  band:
  - # 1
    frequency:   -3.3793885751
  - # 2
    frequency:   -3.2805722809
  - # 3
    frequency:   -0.5699149001
  - # 4
    frequency:   -0.0616045682
  - # 5
    frequency:    0.5153793716
  - # 6
    frequency:    0.6139517276
  - # 7
    frequency:    1.0163965528
  - # 8
    frequency:    2.0838535835
  - # 9
    frequency:    2.2909368520
  - # 10
    frequency:    2.5333605338
  - # 11
    frequency:    3.2784583988
  - # 12
    frequency:    3.3483344988
  - # 13
    frequency:    3.5444207392
  - # 14
    frequency:    7.7063679440
  - # 15
    frequency:    8.8275685310
  - # 16
    frequency:    9.6611920994
  - # 17
    frequency:   10.3888425229
  - # 18
    frequency:   14.6052975551
  - # 19
    frequency:   15.9458472762
  - # 20
    frequency:   16.1243069732
  - # 21
    frequency:   34.5623521331

- q-position: [    0.0707071,    0.0000000,    0.0000000 ]
  distance:    0.0219797
  band:
  - # 1
    frequency:   -3.3866234332
  - # 2
    frequency:   -3.2693197631
  - # 3
    frequency:   -0.5805349043
  - # 4
    frequency:   -0.0076245371
  - # 5
    frequency:    0.5560460134
  - # 6
    frequency:    0.6919674152
  - # 7
    frequency:    1.0939638961
  - # 8
    frequency:    2.0960999130
  - # 9
    frequency:    2.3185420226
  - # 10
    frequency:    2.5439853090
  - # 11
    frequency:    3.2620645628
  - # 12
    frequency:    3.3455985242
  - # 13
    frequency:    3.5596609658
  - # 14
    frequency:    7.6707880396
  - # 15
    frequency:    8.7804994164
  - # 16
    frequency:    9.6542678854
  - # 17
    frequency:   10.4478439279
  - # 18
    frequency:   14.5877570748
  - # 19
    frequency:   15.9400784909
  - # 20
    frequency:   16.1459046047
  - # 21
    frequency:   34.5560609684

- q-position: [    0.0757576,    0.0000000,    0.0000000 ]
  distance:    0.0235496
  band:
  - # 1
    frequency:   -3.3954078913
  - # 2
    frequency:   -3.2575641376
  - # 3
    frequency:   -0.5910519404
  - # 4
    frequency:    0.0642702705
  - # 5
    frequency:    0.5966343603
  - # 6
    frequency:    0.7677733053
  - # 7
    frequency:    1.1714530672
  - # 8
    frequency:    2.1092334741
  - # 9
    frequency:    2.3419728831
  - # 10
    frequency:    2.5589207774
  - # 11
    frequency:    3.2444974814
  - # 12
    frequency:    3.3428425270
  - # 13
    frequency:    3.5770518776
  - # 14
    frequency:    7.6325327059
  - # 15
    frequency:    8.7351368704
  - # 16
    frequency:    9.6468638474
  - # 17
    frequency:   10.5064536924
  - # 18
    frequency:   14.5692212028
  - # 19
    frequency:   15.9339102936
  - # 20
    frequency:   16.1688184089
  - # 21
    frequency:   34.5493389076

- q-position: [    0.0808081,    0.0000000,    0.0000000 ]
  distance:    0.0251196
  band:
  - # 1
    frequency:   -3.4058928596
  - # 2
    frequency:   -3.2453743854
  - # 3
    frequency:   -0.6012859595
  - # 4
    frequency:    0.0942042018
  - # 5
    frequency:    0.6371289575
  - # 6
    frequency:    0.8419341650
  - # 7
    frequency:    1.2488073299
  - # 8
    frequency:    2.1232427022
  - # 9
    frequency:    2.3602989428
  - # 10
    frequency:    2.5786611754
  - # 11
    frequency:    3.2258657203
  - # 12
    frequency:    3.3401039741
  - # 13
    frequency:    3.5967188319
  - # 14
    frequency:    7.5917120048
  - # 15
    frequency:    8.6915193597
  - # 16
    frequency:    9.6389871641
  - # 17
    frequency:   10.5646145723
  - # 18
    frequency:   14.5497420757
  - # 19
    frequency:   15.9273480614
  - # 20
    frequency:   16.1930008045
  - # 21
    frequency:   34.5421933220

- q-position: [    0.0858586,    0.0000000,    0.0000000 ]
  distance:    0.0266896
  band:
  - # 1
    frequency:   -3.4182176454
  - # 2
    frequency:   -3.2328230814
  - # 3
    frequency:   -0.6110593059
  - # 4
    frequency:    0.1192988489
  - # 5
    frequency:    0.6775206402
  - # 6
    frequency:    0.9148161005
  - # 7
    frequency:    1.3259462602
  - # 8
    frequency:    2.1381128748
  - # 9
    frequency:    2.3733628070
  - # 10
    frequency:    2.6029326493
  - # 11
    frequency:    3.2062958984
  - # 12
    frequency:    3.3374223197
  - # 13
    frequency:    3.6187848075
  - # 14
    frequency:    7.5484727731
  - # 15
    frequency:    8.6496537310
  - # 16
    frequency:    9.6306455301
  - # 17
    frequency:   10.6222727634
  - # 18
    frequency:   14.5293724254
  - # 19
    frequency:   15.9203973685
  - # 20
    frequency:   16.2184039527
  - # 21
    frequency:   34.5346320386

- q-position: [    0.0909091,    0.0000000,    0.0000000 ]
  distance:    0.0282596
  band:
  - # 1
    frequency:   -3.4325067088
  - # 2
    frequency:   -3.2199859124
  - # 3
    frequency:   -0.6201970513
  - # 4
    frequency:    0.1422559564
  - # 5
    frequency:    0.7178054219
  - # 6
    frequency:    0.9866552859
  - # 7
    frequency:    1.4027612690
  - # 8
    frequency:    2.1538257413
  - # 9
    frequency:    2.3817368995
  - # 10
    frequency:    2.6307397673
  - # 11
    frequency:    3.1859410895
  - # 12
    frequency:    3.3348388813
  - # 13
    frequency:    3.6433631448
  - # 14
    frequency:    7.5029975066
  - # 15
    frequency:    8.6095178642
  - # 16
    frequency:    9.6218471564
  - # 17
    frequency:   10.6793766661
  - # 18
    frequency:   14.5081653935
  - # 19
    frequency:   15.9130639650
  - # 20
    frequency:   16.2449799276
  - # 21
    frequency:   34.5266633295

- q-position: [    0.0959596,    0.0000000,    0.0000000 ]
  distance:    0.0298296
  band:
  - # 1
    frequency:   -3.4488668390
  - # 2
    frequency:   -3.2069410898
  - # 3
    frequency:   -0.6285270632
  - # 4
    frequency:    0.1640211553
  - # 5
    frequency:    0.7579835841
  - # 6
    frequency:    1.0575993551
  - # 7
    frequency:    1.4791096745
  - # 8
    frequency:    2.1703591717
  - # 9
    frequency:    2.3863339863
  - # 10
    frequency:    2.6607561758
  - # 11
    frequency:    3.1649940752
  - # 12
    frequency:    3.3323967055
  - # 13
    frequency:    3.6705488716
  - # 14
    frequency:    7.4555015200
  - # 15
    frequency:    8.5710646232
  - # 16
    frequency:    9.6126007683
  - # 17
    frequency:   10.7358760309
  - # 18
    frequency:   14.4861743795
  - # 19
    frequency:   15.9053537597
  - # 20
    frequency:   16.2726808523
  - # 21
    frequency:   34.5182959007

- q-position: [    0.1010101,    0.0000000,    0.0000000 ]
  distance:    0.0313995
  band:
  - # 1
    frequency:   -3.4673848698
  - # 2
    frequency:   -3.1937686481
  - # 3
    frequency:   -0.6358799492
  - # 4
    frequency:    0.1850194298
  - # 5
    frequency:    0.7980589245
  - # 6
    frequency:    1.1277332911
  - # 7
    frequency:    1.5548066793
  - # 8
    frequency:    2.1876868368
  - # 9
    frequency:    2.3880442090
  - # 10
    frequency:    2.6916843130
  - # 11
    frequency:    3.1437078440
  - # 12
    frequency:    3.3301404266
  - # 13
    frequency:    3.7004095045
  - # 14
    frequency:    7.4062287746
  - # 15
    frequency:    8.5342268082
  - # 16
    frequency:    9.6029156045
  - # 17
    frequency:   10.7917213672
  - # 18
    frequency:   14.4634529126
  - # 19
    frequency:   15.8972728036
  - # 20
    frequency:   16.3014590046
  - # 21
    frequency:   34.5095388804

- q-position: [    0.1060606,    0.0000000,    0.0000000 ]
  distance:    0.0329695
  band:
  - # 1
    frequency:   -3.4881260237
  - # 2
    frequency:   -3.1805496270
  - # 3
    frequency:   -0.6420889517
  - # 4
    frequency:    0.2054625618
  - # 5
    frequency:    0.8380381121
  - # 6
    frequency:    1.1970960631
  - # 7
    frequency:    1.6296141723
  - # 8
    frequency:    2.2057779306
  - # 9
    frequency:    2.3875804547
  - # 10
    frequency:    2.7223984936
  - # 11
    frequency:    3.1224274679
  - # 12
    frequency:    3.3281161137
  - # 13
    frequency:    3.7329764144
  - # 14
    frequency:    7.3554468801
  - # 15
    frequency:    8.4989226550
  - # 16
    frequency:    9.5928014122
  - # 17
    frequency:   10.8468635431
  - # 18
    frequency:   14.4400545466
  - # 19
    frequency:   15.8888272787
  - # 20
    frequency:   16.3312668988
  - # 21
    frequency:   34.5004018066

- q-position: [    0.1111111,    0.0000000,    0.0000000 ]
  distance:    0.0345395
  band:
  - # 1
    frequency:   -3.5111329335
  - # 2
    frequency:   -3.1673651364
  - # 3
    frequency:   -0.6469898249
  - # 4
    frequency:    0.2254583745
  - # 5
    frequency:    0.8779301068
  - # 6
    frequency:    1.2656912724
  - # 7
    frequency:    1.7032245361
  - # 8
    frequency:    2.2245969453
  - # 9
    frequency:    2.3854738428
  - # 10
    frequency:    2.7519240140
  - # 11
    frequency:    3.1016398963
  - # 12
    frequency:    3.3263711083
  - # 13
    frequency:    3.7682379361
  - # 14
    frequency:    7.3034417811
  - # 15
    frequency:    8.4650613965
  - # 16
    frequency:    9.5822684432
  - # 17
    frequency:   10.9012535249
  - # 18
    frequency:   14.4160327707
  - # 19
    frequency:   15.8800234884
  - # 20
    frequency:   16.3620573473
  - # 21
    frequency:   34.4908946146

- q-position: [    0.1161616,    0.0000000,    0.0000000 ]
  distance:    0.0361095
  band:
  - # 1
    frequency:   -3.5364253491
  - # 2
    frequency:   -3.1542953113
  - # 3
    frequency:   -0.6504206814
  - # 4
    frequency:    0.2450574177
  - # 5
    frequency:    0.9177456050
  - # 6
    frequency:    1.3334934122
  - # 7
    frequency:    1.7752363666
  - # 8
    frequency:    2.2441035109
  - # 9
    frequency:    2.3821273292
  - # 10
    frequency:    2.7793383824
  - # 11
    frequency:    3.0820500202
  - # 12
    frequency:    3.3249538481
  - # 13
    frequency:    3.8061352875
  - # 14
    frequency:    7.2505125595
  - # 15
    frequency:    8.4325484617
  - # 16
    frequency:    9.5713274472
  - # 17
    frequency:   10.9548422234
  - # 18
    frequency:   14.3914409347
  - # 19
    frequency:   15.8708678519
  - # 20
    frequency:   16.3937835069
  - # 21
    frequency:   34.4810276228

- q-position: [    0.1212121,    0.0000000,    0.0000000 ]
  distance:    0.0376794
  band:
  - # 1
    frequency:   -3.5640004999
  - # 2
    frequency:   -3.1414181702
  - # 3
    frequency:   -0.6522217626
  - # 4
    frequency:    0.2642750689
  - # 5
    frequency:    0.9574964874
  - # 6
    frequency:    1.4004503025
  - # 7
    frequency:    1.8451167894
  - # 8
    frequency:    2.2642523097
  - # 9
    frequency:    2.3778844195
  - # 10
    frequency:    2.8036406254
  - # 11
    frequency:    3.0646853011
  - # 12
    frequency:    3.3239136750
  - # 13
    frequency:    3.8465620005
  - # 14
    frequency:    7.1969666448
  - # 15
    frequency:    8.4012900139
  - # 16
    frequency:    9.5599896641
  - # 17
    frequency:   11.0075804231
  - # 18
    frequency:   14.3663321858
  - # 19
    frequency:   15.8613669031
  - # 20
    frequency:   16.4263989116
  - # 21
    frequency:   34.4708115196

- q-position: [    0.1262626,    0.0000000,    0.0000000 ]
  distance:    0.0392494
  band:
  - # 1
    frequency:   -3.5938340435
  - # 2
    frequency:   -3.1288083986
  - # 3
    frequency:   -0.6522350508
  - # 4
    frequency:    0.2831023676
  - # 5
    frequency:    0.9971952474
  - # 6
    frequency:    1.4664813969
  - # 7
    frequency:    1.9121413132
  - # 8
    frequency:    2.2849930751
  - # 9
    frequency:    2.3731085002
  - # 10
    frequency:    2.8236410291
  - # 11
    frequency:    3.0509910445
  - # 12
    frequency:    3.3233006229
  - # 13
    frequency:    3.8893670183
  - # 14
    frequency:    7.1431155843
  - # 15
    frequency:    8.3711966638
  - # 16
    frequency:    9.5482668152
  - # 17
    frequency:   11.0594187754
  - # 18
    frequency:   14.3407594146
  - # 19
    frequency:   15.8515272917
  - # 20
    frequency:   16.4598574954
  - # 21
    frequency:   34.4602573483

- q-position: [    0.1313131,    0.0000000,    0.0000000 ]
  distance:    0.0408194
  band:
  - # 1
    frequency:   -3.6258815123
  - # 2
    frequency:   -3.1165360883
  - # 3
    frequency:   -0.6503036010
  - # 4
    frequency:    0.3015109602
  - # 5
    frequency:    1.0368543958
  - # 6
    frequency:    1.5314705890
  - # 7
    frequency:    1.9752967976
  - # 8
    frequency:    2.3062706858
  - # 9
    frequency:    2.3682883550
  - # 10
    frequency:    2.8380342566
  - # 11
    frequency:    3.0427545069
  - # 12
    frequency:    3.3231651793
  - # 13
    frequency:    3.9343610300
  - # 14
    frequency:    7.0892713898
  - # 15
    frequency:    8.3421863205
  - # 16
    frequency:    9.5361710921
  - # 17
    frequency:   11.1103078434
  - # 18
    frequency:   14.3147752101
  - # 19
    frequency:   15.8413557893
  - # 20
    frequency:   16.4941136064
  - # 21
    frequency:   34.4493764923

- q-position: [    0.1363636,    0.0000000,    0.0000000 ]
  distance:    0.0423894
  band:
  - # 1
    frequency:   -3.6600801472
  - # 2
    frequency:   -3.1046654683
  - # 3
    frequency:   -0.6462704274
  - # 4
    frequency:    0.3194544945
  - # 5
    frequency:    1.0764858367
  - # 6
    frequency:    1.5952503422
  - # 7
    frequency:    2.0331310495
  - # 8
    frequency:    2.3280253624
  - # 9
    frequency:    2.3641940673
  - # 10
    frequency:    2.8459468607
  - # 11
    frequency:    3.0415635225
  - # 12
    frequency:    3.3235580152
  - # 13
    frequency:    3.9813251504
  - # 14
    frequency:    7.0357433887
  - # 15
    frequency:    8.3141862318
  - # 16
    frequency:    9.5237151456
  - # 17
    frequency:   11.1601981877
  - # 18
    frequency:   14.2884318224
  - # 19
    frequency:   15.8308592980
  - # 20
    frequency:   16.5291220139
  - # 21
    frequency:   34.4381806600

- q-position: [    0.1414141,    0.0000000,    0.0000000 ]
  distance:    0.0439593
  band:
  - # 1
    frequency:   -3.6963510080
  - # 2
    frequency:   -3.0932536737
  - # 3
    frequency:   -0.6399767132
  - # 4
    frequency:    0.3368674615
  - # 5
    frequency:    1.1161002241
  - # 6
    frequency:    1.6575703450
  - # 7
    frequency:    2.0835643673
  - # 8
    frequency:    2.3501929754
  - # 9
    frequency:    2.3620831497
  - # 10
    frequency:    2.8478562919
  - # 11
    frequency:    3.0478955756
  - # 12
    frequency:    3.3245296740
  - # 13
    frequency:    4.0300208395
  - # 14
    frequency:    6.9828354470
  - # 15
    frequency:    8.2871343219
  - # 16
    frequency:    9.5109120716
  - # 17
    frequency:   11.2090404839
  - # 18
    frequency:   14.2617811320
  - # 19
    frequency:   15.8200448627
  - # 20
    frequency:   16.5648379095
  - # 21
    frequency:   34.4266818691

- q-position: [    0.1464646,    0.0000000,    0.0000000 ]
  distance:    0.0455293
  band:
  - # 1
    frequency:   -3.7346012482
  - # 2
    frequency:   -3.0823495990
  - # 3
    frequency:   -0.6312590319
  - # 4
    frequency:    0.3536617965
  - # 5
    frequency:    1.1557063109
  - # 6
    frequency:    1.7180360204
  - # 7
    frequency:    2.1238569490
  - # 8
    frequency:    2.3637932781
  - # 9
    frequency:    2.3727054709
  - # 10
    frequency:    2.8458648590
  - # 11
    frequency:    3.0608395822
  - # 12
    frequency:    3.3261302109
  - # 13
    frequency:    4.0801999936
  - # 14
    frequency:    6.9308434147
  - # 15
    frequency:    8.2609799590
  - # 16
    frequency:    9.4977753974
  - # 17
    frequency:   11.2567856652
  - # 18
    frequency:   14.2348746264
  - # 19
    frequency:   15.8089196869
  - # 20
    frequency:   16.6012169039
  - # 21
    frequency:   34.4148924301

- q-position: [    0.1515152,    0.0000000,    0.0000000 ]
  distance:    0.0470993
  band:
  - # 1
    frequency:   -3.7747264527
  - # 2
    frequency:   -3.0719928884
  - # 3
    frequency:   -0.6199451335
  - # 4
    frequency:    0.3697210920
  - # 5
    frequency:    1.1953103078
  - # 6
    frequency:    1.7759843715
  - # 7
    frequency:    2.1513755745
  - # 8
    frequency:    2.3711392149
  - # 9
    frequency:    2.3954914194
  - # 10
    frequency:    2.8428600104
  - # 11
    frequency:    3.0788916578
  - # 12
    frequency:    3.3284087733
  - # 13
    frequency:    4.1316143731
  - # 14
    frequency:    6.8800526407
  - # 15
    frequency:    8.2356842839
  - # 16
    frequency:    9.4843190654
  - # 17
    frequency:   11.3033850846
  - # 18
    frequency:   14.2077633819
  - # 19
    frequency:   15.7974911505
  - # 20
    frequency:   16.6382150185
  - # 21
    frequency:   34.4028249304
