nqpoint: 300    
npath: 3      
segment_nqpoint:
- 100
- 100
- 100
labels:
- [ 'G', 'M' ]
- [ 'M', 'K' ]
- [ 'K', 'G' ]
reciprocal_lattice:
- [   0.29596587,   0.17087598,   0.00000000 ] # a*
- [   0.00000000,   0.34175195,   0.00000000 ] # b*
- [   0.00000000,   0.00000000,   0.04314874 ] # c*
natom: 5      
lattice:
- [     3.378767957804135,     0.000000000000000,     0.000000000000000 ] # a
- [    -1.689383978902067,     2.926098884946601,     0.000000000000000 ] # b
- [     0.000000000000000,     0.000000000000000,    23.175645321148259 ] # c
points:
- symbol: C # 1
  coordinates: [  0.000000000000000,  0.000000000000000,  0.484650685270113 ]
  mass: 12.010700
- symbol: Cl # 2
  coordinates: [  0.333332985432215,  0.666666983183674,  0.611661298950441 ]
  mass: 35.453000
- symbol: H # 3
  coordinates: [  0.666666984744047,  0.333332985985145,  0.388338701049559 ]
  mass: 1.007940
- symbol: Sc # 4
  coordinates: [  0.333332985432215,  0.666666983183674,  0.431129906282732 ]
  mass: 44.955912
- symbol: Sc # 5
  coordinates: [  0.666666984744047,  0.333332985985145,  0.538392584746817 ]
  mass: 44.955912

phonon:
- q-position: [    0.0000000,    0.0000000,    0.0000000 ]
  distance:    0.0000000
  band:
  - # 1
    frequency:   -0.0000021256
  - # 2
    frequency:    0.0000011133
  - # 3
    frequency:    0.0000019391
  - # 4
    frequency:    4.2623615583
  - # 5
    frequency:    4.2623615583
  - # 6
    frequency:    6.1106086536
  - # 7
    frequency:    6.1106086536
  - # 8
    frequency:    7.1979471694
  - # 9
    frequency:   10.7508792534
  - # 10
    frequency:   10.7508792534
  - # 11
    frequency:   11.7140448335
  - # 12
    frequency:   18.7224967790
  - # 13
    frequency:   24.3806324053
  - # 14
    frequency:   24.3806324053
  - # 15
    frequency:   26.7973273905

- q-position: [    0.0050505,    0.0000000,    0.0000000 ]
  distance:    0.0017260
  band:
  - # 1
    frequency:   -0.0228069273
  - # 2
    frequency:    0.0882227584
  - # 3
    frequency:    0.1356100627
  - # 4
    frequency:    4.2628068296
  - # 5
    frequency:    4.2651394803
  - # 6
    frequency:    6.1108586984
  - # 7
    frequency:    6.1115476794
  - # 8
    frequency:    7.1984314632
  - # 9
    frequency:   10.7517139118
  - # 10
    frequency:   10.7611767240
  - # 11
    frequency:   11.7132075832
  - # 12
    frequency:   18.7198373104
  - # 13
    frequency:   24.3806945774
  - # 14
    frequency:   24.3828276175
  - # 15
    frequency:   26.7962771710

- q-position: [    0.0101010,    0.0000000,    0.0000000 ]
  distance:    0.0034520
  band:
  - # 1
    frequency:   -0.0435631104
  - # 2
    frequency:    0.1763917304
  - # 3
    frequency:    0.2709762405
  - # 4
    frequency:    4.2641410816
  - # 5
    frequency:    4.2734231036
  - # 6
    frequency:    6.1116071470
  - # 7
    frequency:    6.1143128656
  - # 8
    frequency:    7.1999036451
  - # 9
    frequency:   10.7542115690
  - # 10
    frequency:   10.7919381673
  - # 11
    frequency:   11.7107255584
  - # 12
    frequency:   18.7118710611
  - # 13
    frequency:   24.3808801560
  - # 14
    frequency:   24.3894020679
  - # 15
    frequency:   26.7931330757

- q-position: [    0.0151515,    0.0000000,    0.0000000 ]
  distance:    0.0051781
  band:
  - # 1
    frequency:   -0.0628114279
  - # 2
    frequency:    0.2644533565
  - # 3
    frequency:    0.4062940216
  - # 4
    frequency:    4.2663596422
  - # 5
    frequency:    4.2870661238
  - # 6
    frequency:    6.1128489638
  - # 7
    frequency:    6.1187530213
  - # 8
    frequency:    7.2024195758
  - # 9
    frequency:   10.7583533361
  - # 10
    frequency:   10.8427621217
  - # 11
    frequency:   11.7066978477
  - # 12
    frequency:   18.6986342911
  - # 13
    frequency:   24.3811863377
  - # 14
    frequency:   24.4003222554
  - # 15
    frequency:   26.7879148722

- q-position: [    0.0202020,    0.0000000,    0.0000000 ]
  distance:    0.0069041
  band:
  - # 1
    frequency:   -0.0793893733
  - # 2
    frequency:    0.3523545294
  - # 3
    frequency:    0.5414843282
  - # 4
    frequency:    4.2694547709
  - # 5
    frequency:    4.3058377680
  - # 6
    frequency:    6.1145758297
  - # 7
    frequency:    6.1246305383
  - # 8
    frequency:    7.2060658367
  - # 9
    frequency:   10.7641079481
  - # 10
    frequency:   10.9129441127
  - # 11
    frequency:   11.7013296152
  - # 12
    frequency:   18.6801867474
  - # 13
    frequency:   24.3816084817
  - # 14
    frequency:   24.4155325182
  - # 15
    frequency:   26.7806557717

- q-position: [    0.0252525,    0.0000000,    0.0000000 ]
  distance:    0.0086301
  band:
  - # 1
    frequency:   -0.0921357168
  - # 2
    frequency:    0.4400428124
  - # 3
    frequency:    0.6764941291
  - # 4
    frequency:    4.2734157279
  - # 5
    frequency:    4.3294401982
  - # 6
    frequency:    6.1167762500
  - # 7
    frequency:    6.1316410719
  - # 8
    frequency:    7.2109508761
  - # 9
    frequency:   10.7714320859
  - # 10
    frequency:   11.0013910334
  - # 11
    frequency:   11.6950250830
  - # 12
    frequency:   18.6566106790
  - # 13
    frequency:   24.3821401563
  - # 14
    frequency:   24.4349552309
  - # 15
    frequency:   26.7714028450

- q-position: [    0.0303030,    0.0000000,    0.0000000 ]
  distance:    0.0103561
  band:
  - # 1
    frequency:   -0.0996098082
  - # 2
    frequency:    0.5274666510
  - # 3
    frequency:    0.8112744628
  - # 4
    frequency:    4.2782288688
  - # 5
    frequency:    4.3575290475
  - # 6
    frequency:    6.1194357019
  - # 7
    frequency:    6.1394376440
  - # 8
    frequency:    7.2171942830
  - # 9
    frequency:   10.7802708214
  - # 10
    frequency:   11.1063885274
  - # 11
    frequency:   11.6886310885
  - # 12
    frequency:   18.6280095422
  - # 13
    frequency:   24.3827732047
  - # 14
    frequency:   24.4584909596
  - # 15
    frequency:   26.7602176460

- q-position: [    0.0353535,    0.0000000,    0.0000000 ]
  distance:    0.0120821
  band:
  - # 1
    frequency:   -0.0996992628
  - # 2
    frequency:    0.6145755740
  - # 3
    frequency:    0.9457771266
  - # 4
    frequency:    4.2838777644
  - # 5
    frequency:    4.3897343831
  - # 6
    frequency:    6.1225368170
  - # 7
    frequency:    6.1476563920
  - # 8
    frequency:    7.2249154915
  - # 9
    frequency:   10.7905581805
  - # 10
    frequency:   11.2248871031
  - # 11
    frequency:   11.6841657749
  - # 12
    frequency:   18.5945064712
  - # 13
    frequency:   24.3834978271
  - # 14
    frequency:   24.4860184604
  - # 15
    frequency:   26.7471770842

- q-position: [    0.0404040,    0.0000000,    0.0000000 ]
  distance:    0.0138082
  band:
  - # 1
    frequency:   -0.0884379701
  - # 2
    frequency:    0.7013203821
  - # 3
    frequency:    1.0799536794
  - # 4
    frequency:    4.2903433431
  - # 5
    frequency:    4.4256797938
  - # 6
    frequency:    6.1260595950
  - # 7
    frequency:    6.1559412157
  - # 8
    frequency:    7.2342231789
  - # 9
    frequency:   10.8022178169
  - # 10
    frequency:   11.3499351677
  - # 11
    frequency:   11.6874042233
  - # 12
    frequency:   18.5562426014
  - # 13
    frequency:   24.3843026815
  - # 14
    frequency:   24.5173943800
  - # 15
    frequency:   26.7323746075

- q-position: [    0.0454545,    0.0000000,    0.0000000 ]
  distance:    0.0155342
  band:
  - # 1
    frequency:   -0.0529628466
  - # 2
    frequency:    0.7876533225
  - # 3
    frequency:    1.2137549370
  - # 4
    frequency:    4.2976040538
  - # 5
    frequency:    4.4649980327
  - # 6
    frequency:    6.1299816431
  - # 7
    frequency:    6.1639649934
  - # 8
    frequency:    7.2452064215
  - # 9
    frequency:   10.8151637890
  - # 10
    frequency:   11.4614661996
  - # 11
    frequency:   11.7171134039
  - # 12
    frequency:   18.5133753341
  - # 13
    frequency:   24.3851749991
  - # 14
    frequency:   24.5524524981
  - # 15
    frequency:   26.7159217760

- q-position: [    0.0505051,    0.0000000,    0.0000000 ]
  distance:    0.0172602
  band:
  - # 1
    frequency:    0.0767640057
  - # 2
    frequency:    0.8735282481
  - # 3
    frequency:    1.3471306027
  - # 4
    frequency:    4.3056360489
  - # 5
    frequency:    4.5073424858
  - # 6
    frequency:    6.1342784362
  - # 7
    frequency:    6.1714457400
  - # 8
    frequency:    7.2579283529
  - # 9
    frequency:   10.8293014296
  - # 10
    frequency:   11.5218872793
  - # 11
    frequency:   11.8094884106
  - # 12
    frequency:   18.4660766346
  - # 13
    frequency:   24.3861007168
  - # 14
    frequency:   24.5910023294
  - # 15
    frequency:   26.6979503357

- q-position: [    0.0555556,    0.0000000,    0.0000000 ]
  distance:    0.0189862
  band:
  - # 1
    frequency:    0.1380755706
  - # 2
    frequency:    0.9589007592
  - # 3
    frequency:    1.4800289427
  - # 4
    frequency:    4.3144133817
  - # 5
    frequency:    4.5523944642
  - # 6
    frequency:    6.1389235914
  - # 7
    frequency:    6.1781569224
  - # 8
    frequency:    7.2724226939
  - # 9
    frequency:   10.8445282981
  - # 10
    frequency:   11.5334966834
  - # 11
    frequency:   11.9607611450
  - # 12
    frequency:   18.4145314502
  - # 13
    frequency:   24.3870646223
  - # 14
    frequency:   24.6328268797
  - # 15
    frequency:   26.6786149302

- q-position: [    0.0606061,    0.0000000,    0.0000000 ]
  distance:    0.0207122
  band:
  - # 1
    frequency:    0.1936528172
  - # 2
    frequency:    1.0437283282
  - # 3
    frequency:    1.6123964816
  - # 4
    frequency:    4.3239082194
  - # 5
    frequency:    4.5998668357
  - # 6
    frequency:    6.1438891520
  - # 7
    frequency:    6.1839319712
  - # 8
    frequency:    7.2886931333
  - # 9
    frequency:   10.8607352054
  - # 10
    frequency:   11.5245843455
  - # 11
    frequency:   12.1411263636
  - # 12
    frequency:   18.3589363288
  - # 13
    frequency:   24.3880505137
  - # 14
    frequency:   24.6776793309
  - # 15
    frequency:   26.6580966326

- q-position: [    0.0656566,    0.0000000,    0.0000000 ]
  distance:    0.0224383
  band:
  - # 1
    frequency:    0.2489585556
  - # 2
    frequency:    1.1279704052
  - # 3
    frequency:    1.7441777100
  - # 4
    frequency:    4.3340910673
  - # 5
    frequency:    4.6495047816
  - # 6
    frequency:    6.1491458765
  - # 7
    frequency:    6.1886636982
  - # 8
    frequency:    7.3067152053
  - # 9
    frequency:   10.8778072959
  - # 10
    frequency:   11.5071175831
  - # 11
    frequency:   12.3370814352
  - # 12
    frequency:   18.2994983172
  - # 13
    frequency:   24.3890413700
  - # 14
    frequency:   24.7252783993
  - # 15
    frequency:   26.6366075196

- q-position: [    0.0707071,    0.0000000,    0.0000000 ]
  distance:    0.0241643
  band:
  - # 1
    frequency:    0.3053856775
  - # 2
    frequency:    1.2115885056
  - # 3
    frequency:    1.8753148044
  - # 4
    frequency:    4.3449310017
  - # 5
    frequency:    4.7010845267
  - # 6
    frequency:    6.1546635265
  - # 7
    frequency:    6.1922997717
  - # 8
    frequency:    7.3264400635
  - # 9
    frequency:   10.8956251777
  - # 10
    frequency:   11.4849662647
  - # 11
    frequency:   12.5432245578
  - # 12
    frequency:   18.2364342167
  - # 13
    frequency:   24.3900195323
  - # 14
    frequency:   24.7753020840
  - # 15
    frequency:   26.6143965625

- q-position: [    0.0757576,    0.0000000,    0.0000000 ]
  distance:    0.0258903
  band:
  - # 1
    frequency:    0.3634216581
  - # 2
    frequency:    1.2945462778
  - # 3
    frequency:    2.0057473595
  - # 4
    frequency:    4.3563959106
  - # 5
    frequency:    4.7544108136
  - # 6
    frequency:    6.1604111505
  - # 7
    frequency:    6.1948355826
  - # 8
    frequency:    7.3477994377
  - # 9
    frequency:   10.9140660852
  - # 10
    frequency:   11.4596180242
  - # 11
    frequency:   12.7565600148
  - # 12
    frequency:   18.1699702807
  - # 13
    frequency:   24.3909668934
  - # 14
    frequency:   24.8273795038
  - # 15
    frequency:   26.5917571447

- q-position: [    0.0808081,    0.0000000,    0.0000000 ]
  distance:    0.0276163
  band:
  - # 1
    frequency:    0.4232368304
  - # 2
    frequency:    1.3768095534
  - # 3
    frequency:    2.1354121318
  - # 4
    frequency:    4.3684527391
  - # 5
    frequency:    4.8093137413
  - # 6
    frequency:    6.1663573600
  - # 7
    frequency:    6.1963057888
  - # 8
    frequency:    7.3707110668
  - # 9
    frequency:   10.9330050622
  - # 10
    frequency:   11.4317656478
  - # 11
    frequency:   12.9749278102
  - # 12
    frequency:   18.1003424581
  - # 13
    frequency:   24.3918650952
  - # 14
    frequency:   24.8810805333
  - # 15
    frequency:   26.5690365215

- q-position: [    0.0858586,    0.0000000,    0.0000000 ]
  distance:    0.0293423
  band:
  - # 1
    frequency:    0.4848653348
  - # 2
    frequency:    1.4583463779
  - # 3
    frequency:    2.2642427970
  - # 4
    frequency:    4.3810677373
  - # 5
    frequency:    4.8656454118
  - # 6
    frequency:    6.1724705953
  - # 7
    frequency:    6.1967756221
  - # 8
    frequency:    7.3950840108
  - # 9
    frequency:   10.9523161520
  - # 10
    frequency:   11.4017887876
  - # 11
    frequency:   13.1965352346
  - # 12
    frequency:   18.0277973232
  - # 13
    frequency:   24.3926957305
  - # 14
    frequency:   24.9359030491
  - # 15
    frequency:   26.5466474565

- q-position: [    0.0909091,    0.0000000,    0.0000000 ]
  distance:    0.0310684
  band:
  - # 1
    frequency:    0.5482759752
  - # 2
    frequency:    1.5391270240
  - # 3
    frequency:    2.3921697217
  - # 4
    frequency:    4.3942067096
  - # 5
    frequency:    4.9232766749
  - # 6
    frequency:    6.1787193787
  - # 7
    frequency:    6.1963327534
  - # 8
    frequency:    7.4208234118
  - # 9
    frequency:   10.9718735821
  - # 10
    frequency:   11.3699266486
  - # 11
    frequency:   13.4197935782
  - # 12
    frequency:   17.9525938891
  - # 13
    frequency:   24.3934405488
  - # 14
    frequency:   24.9912578700
  - # 15
    frequency:   26.5250820064

- q-position: [    0.0959596,    0.0000000,    0.0000000 ]
  distance:    0.0327944
  band:
  - # 1
    frequency:    0.6134043421
  - # 2
    frequency:    1.6191239871
  - # 3
    frequency:    2.5191197502
  - # 4
    frequency:    4.4078352631
  - # 5
    frequency:    4.9820941258
  - # 6
    frequency:    6.1850725547
  - # 7
    frequency:    6.1950802132
  - # 8
    frequency:    7.4478344524
  - # 9
    frequency:   10.9915529304
  - # 10
    frequency:   11.3363491826
  - # 11
    frequency:   13.6432523663
  - # 12
    frequency:   17.8750066098
  - # 13
    frequency:   24.3940816636
  - # 14
    frequency:   25.0464521090
  - # 15
    frequency:   26.5049268069

- q-position: [    0.1010101,    0.0000000,    0.0000000 ]
  distance:    0.0345204
  band:
  - # 1
    frequency:    0.6801688709
  - # 2
    frequency:    1.6983119649
  - # 3
    frequency:    2.6450160109
  - # 4
    frequency:    4.4219190532
  - # 5
    frequency:    5.0419974179
  - # 6
    frequency:    6.1914995161
  - # 7
    frequency:    6.1931306111
  - # 8
    frequency:    7.4760254183
  - # 9
    frequency:   11.0112322612
  - # 10
    frequency:   11.3011898305
  - # 11
    frequency:   13.8655679070
  - # 12
    frequency:   17.7953300339
  - # 13
    frequency:   24.3946017594
  - # 14
    frequency:   25.1006728862
  - # 15
    frequency:   26.4868779889

- q-position: [    0.1060606,    0.0000000,    0.0000000 ]
  distance:    0.0362464
  band:
  - # 1
    frequency:    0.7484794314
  - # 2
    frequency:    1.7766678200
  - # 3
    frequency:    2.7697777443
  - # 4
    frequency:    4.4364240262
  - # 5
    frequency:    5.1028968818
  - # 6
    frequency:    6.1906017025
  - # 7
    frequency:    6.1979704155
  - # 8
    frequency:    7.5053098928
  - # 9
    frequency:   11.0307932213
  - # 10
    frequency:   11.2645619259
  - # 11
    frequency:   14.0854836297
  - # 12
    frequency:   17.7138858456
  - # 13
    frequency:   24.3949842956
  - # 14
    frequency:   25.1529755094
  - # 15
    frequency:   26.4717516993

- q-position: [    0.1111111,    0.0000000,    0.0000000 ]
  distance:    0.0379724
  band:
  - # 1
    frequency:    0.8182421450
  - # 2
    frequency:    1.8541705286
  - # 3
    frequency:    2.8933201585
  - # 4
    frequency:    4.4513166554
  - # 5
    frequency:    5.1647114001
  - # 6
    frequency:    6.1876132330
  - # 7
    frequency:    6.2044563648
  - # 8
    frequency:    7.5356081795
  - # 9
    frequency:   11.0501220835
  - # 10
    frequency:   11.2265674884
  - # 11
    frequency:   14.3018126277
  - # 12
    frequency:   17.6310334723
  - # 13
    frequency:   24.3952137071
  - # 14
    frequency:   25.2022834380
  - # 15
    frequency:   26.4604829950

- q-position: [    0.1161616,    0.0000000,    0.0000000 ]
  distance:    0.0396985
  band:
  - # 1
    frequency:    0.8893621687
  - # 2
    frequency:    1.9308011143
  - # 3
    frequency:    3.0155543186
  - # 4
    frequency:    4.4665641714
  - # 5
    frequency:    5.2273664506
  - # 6
    frequency:    6.1842849335
  - # 7
    frequency:    6.2109296208
  - # 8
    frequency:    7.5668480910
  - # 9
    frequency:   11.0691107309
  - # 10
    frequency:   11.1873021998
  - # 11
    frequency:   14.5134169773
  - # 12
    frequency:   17.5471861813
  - # 13
    frequency:   24.3952755970
  - # 14
    frequency:   25.2474110262
  - # 15
    frequency:   26.4541021978

- q-position: [    0.1212121,    0.0000000,    0.0000000 ]
  distance:    0.0414245
  band:
  - # 1
    frequency:    0.9617453305
  - # 2
    frequency:    2.0065425699
  - # 3
    frequency:    3.1363870759
  - # 4
    frequency:    4.4821347838
  - # 5
    frequency:    5.2907922046
  - # 6
    frequency:    6.1807355359
  - # 7
    frequency:    6.2173637604
  - # 8
    frequency:    7.5989652410
  - # 9
    frequency:   11.0876575712
  - # 10
    frequency:   11.1468583450
  - # 11
    frequency:   14.7191791036
  - # 12
    frequency:   17.4628358677
  - # 13
    frequency:   24.3951569222
  - # 14
    frequency:   25.2871218626
  - # 15
    frequency:   26.4536759633

- q-position: [    0.1262626,    0.0000000,    0.0000000 ]
  distance:    0.0431505
  band:
  - # 1
    frequency:    1.0352990881
  - # 2
    frequency:    2.0813797661
  - # 3
    frequency:    3.2557210448
  - # 4
    frequency:    4.4979978947
  - # 5
    frequency:    5.3549215276
  - # 6
    frequency:    6.1770827213
  - # 7
    frequency:    6.2237338451
  - # 8
    frequency:    7.6319029712
  - # 9
    frequency:   11.1053266150
  - # 10
    frequency:   11.1056683757
  - # 11
    frequency:   14.9179591008
  - # 12
    frequency:   17.3785919386
  - # 13
    frequency:   24.3948461675
  - # 14
    frequency:   25.3202309464
  - # 15
    frequency:   26.4602048921

- q-position: [    0.1313131,    0.0000000,    0.0000000 ]
  distance:    0.0448765
  band:
  - # 1
    frequency:    1.1099330773
  - # 2
    frequency:    2.1552993510
  - # 3
    frequency:    3.3734546371
  - # 4
    frequency:    4.5141243010
  - # 5
    frequency:    5.4196876650
  - # 6
    frequency:    6.1734440033
  - # 7
    frequency:    6.2300165773
  - # 8
    frequency:    7.6656120174
  - # 9
    frequency:   11.0627972448
  - # 10
    frequency:   11.1230570354
  - # 11
    frequency:   15.1085284729
  - # 12
    frequency:   17.2952435295
  - # 13
    frequency:   24.3943335079
  - # 14
    frequency:   25.3457432940
  - # 15
    frequency:   26.4744851357

- q-position: [    0.1363636,    0.0000000,    0.0000000 ]
  distance:    0.0466025
  band:
  - # 1
    frequency:    1.1855594057
  - # 2
    frequency:    2.2282896387
  - # 3
    frequency:    3.4894821589
  - # 4
    frequency:    4.5304863857
  - # 5
    frequency:    5.4850212735
  - # 6
    frequency:    6.1699387027
  - # 7
    frequency:    6.2361904480
  - # 8
    frequency:    7.7000499994
  - # 9
    frequency:   11.0193607556
  - # 10
    frequency:   11.1397462290
  - # 11
    frequency:   15.2894644568
  - # 12
    frequency:   17.2138607691
  - # 13
    frequency:   24.3936109566
  - # 14
    frequency:   25.3629970683
  - # 15
    frequency:   26.4969659388

- q-position: [    0.1414141,    0.0000000,    0.0000000 ]
  distance:    0.0483286
  band:
  - # 1
    frequency:    1.2620927859
  - # 2
    frequency:    2.3003404912
  - # 3
    frequency:    3.6036939802
  - # 4
    frequency:    4.5470582976
  - # 5
    frequency:    5.5508462107
  - # 6
    frequency:    6.1666914585
  - # 7
    frequency:    6.2422358791
  - # 8
    frequency:    7.7351807924
  - # 9
    frequency:   10.9751084545
  - # 10
    frequency:   11.1556679993
  - # 11
    frequency:   15.4589791695
  - # 12
    frequency:   17.1359608226
  - # 13
    frequency:   24.3926724972
  - # 14
    frequency:   25.3717613749
  - # 15
    frequency:   26.5276529853

- q-position: [    0.1464646,    0.0000000,    0.0000000 ]
  distance:    0.0500546
  band:
  - # 1
    frequency:    1.3394505667
  - # 2
    frequency:    2.3714431918
  - # 3
    frequency:    3.7159767800
  - # 4
    frequency:    4.5638161159
  - # 5
    frequency:    5.6170729722
  - # 6
    frequency:    6.1638382739
  - # 7
    frequency:    6.2481353583
  - # 8
    frequency:    7.7709738178
  - # 9
    frequency:   10.9301327896
  - # 10
    frequency:   11.1707642333
  - # 11
    frequency:   15.6146469715
  - # 12
    frequency:   17.0637753407
  - # 13
    frequency:   24.3915141985
  - # 14
    frequency:   25.3722479268
  - # 15
    frequency:   26.5660983414

- q-position: [    0.1515152,    0.0000000,    0.0000000 ]
  distance:    0.0517806
  band:
  - # 1
    frequency:    1.4175526990
  - # 2
    frequency:    2.4415903150
  - # 3
    frequency:    3.8262138716
  - # 4
    frequency:    4.5807380022
  - # 5
    frequency:    5.6835874941
  - # 6
    frequency:    6.1615373006
  - # 7
    frequency:    6.2538735695
  - # 8
    frequency:    7.8074032755
  - # 9
    frequency:   10.8845276220
  - # 10
    frequency:   11.1849870437
  - # 11
    frequency:   15.7530024587
  - # 12
    frequency:   17.0006469468
  - # 13
    frequency:   24.3901343104
  - # 14
    frequency:   25.3650333395
  - # 15
    frequency:   26.6114802009

- q-position: [    0.1565657,    0.0000000,    0.0000000 ]
  distance:    0.0535066
  band:
  - # 1
    frequency:    1.4963216626
  - # 2
    frequency:    2.5107755904
  - # 3
    frequency:    3.9342856073
  - # 4
    frequency:    4.5978043359
  - # 5
    frequency:    5.7502302468
  - # 6
    frequency:    6.1599893831
  - # 7
    frequency:    6.2594375170
  - # 8
    frequency:    7.8444473223
  - # 9
    frequency:   10.8383884577
  - # 10
    frequency:   11.1982990516
  - # 11
    frequency:   15.8690950286
  - # 12
    frequency:   16.9514688812
  - # 13
    frequency:   24.3885333402
  - # 14
    frequency:   25.3509282312
  - # 15
    frequency:   26.6627362156

- q-position: [    0.1616162,    0.0000000,    0.0000000 ]
  distance:    0.0552326
  band:
  - # 1
    frequency:    1.5756823679
  - # 2
    frequency:    2.5789937652
  - # 3
    frequency:    4.0400698578
  - # 4
    frequency:    4.6149978335
  - # 5
    frequency:    5.8167533173
  - # 6
    frequency:    6.1594806367
  - # 7
    frequency:    6.2648166437
  - # 8
    frequency:    7.8820871933
  - # 9
    frequency:   10.7918126723
  - # 10
    frequency:   11.2106735665
  - # 11
    frequency:   15.9565073717
  - # 12
    frequency:   16.9226605291
  - # 13
    frequency:   24.3867141074
  - # 14
    frequency:   25.3308422559
  - # 15
    frequency:   26.7187012163

- q-position: [    0.1666667,    0.0000000,    0.0000000 ]
  distance:    0.0569587
  band:
  - # 1
    frequency:    1.6555620456
  - # 2
    frequency:    2.6462404650
  - # 3
    frequency:    4.1434425571
  - # 4
    frequency:    4.6323036510
  - # 5
    frequency:    5.8827227878
  - # 6
    frequency:    6.1604797397
  - # 7
    frequency:    6.2700029419
  - # 8
    frequency:    7.9203062530
  - # 9
    frequency:   10.7448997541
  - # 10
    frequency:   11.2220946666
  - # 11
    frequency:   16.0090369181
  - # 12
    frequency:   16.9204798824
  - # 13
    frequency:   24.3846817767
  - # 14
    frequency:   25.3056792513
  - # 15
    frequency:   26.7782150672

- q-position: [    0.1717172,    0.0000000,    0.0000000 ]
  distance:    0.0586847
  band:
  - # 1
    frequency:    1.7358901306
  - # 2
    frequency:    2.7125120547
  - # 3
    frequency:    4.2442783029
  - # 4
    frequency:    4.6497094672
  - # 5
    frequency:    5.9472716188
  - # 6
    frequency:    6.1638847360
  - # 7
    frequency:    6.2749910556
  - # 8
    frequency:    7.9590889552
  - # 9
    frequency:   10.6977515898
  - # 10
    frequency:   11.2325571781
  - # 11
    frequency:   16.0244610490
  - # 12
    frequency:   16.9472522190
  - # 13
    frequency:   24.3824438690
  - # 14
    frequency:   25.2762729993
  - # 15
    frequency:   26.8401900718

- q-position: [    0.1767677,    0.0000000,    0.0000000 ]
  distance:    0.0604107
  band:
  - # 1
    frequency:    1.8165981455
  - # 2
    frequency:    2.7778055002
  - # 3
    frequency:    4.3424509958
  - # 4
    frequency:    4.6672055479
  - # 5
    frequency:    6.0084243365
  - # 6
    frequency:    6.1716980608
  - # 7
    frequency:    6.2797783728
  - # 8
    frequency:    7.9984196877
  - # 9
    frequency:   10.6504728153
  - # 10
    frequency:   11.2420665545
  - # 11
    frequency:   16.0069473276
  - # 12
    frequency:   16.9989538278
  - # 13
    frequency:   24.3800102490
  - # 14
    frequency:   25.2433577529
  - # 15
    frequency:   26.9036436869

- q-position: [    0.1818182,    0.0000000,    0.0000000 ]
  distance:    0.0621367
  band:
  - # 1
    frequency:    1.8976195874
  - # 2
    frequency:    2.8421182334
  - # 3
    frequency:    4.4378345090
  - # 4
    frequency:    4.6847847901
  - # 5
    frequency:    6.0615051115
  - # 6
    frequency:    6.1886182188
  - # 7
    frequency:    6.2843651040
  - # 8
    frequency:    8.0382814687
  - # 9
    frequency:   10.6031712559
  - # 10
    frequency:   11.2506386604
  - # 11
    frequency:   15.9646206197
  - # 12
    frequency:   17.0676389979
  - # 13
    frequency:   24.3773930902
  - # 14
    frequency:   25.2075620271
  - # 15
    frequency:   26.9677079586

- q-position: [    0.1868687,    0.0000000,    0.0000000 ]
  distance:    0.0638627
  band:
  - # 1
    frequency:    1.9788898206
  - # 2
    frequency:    2.9054480209
  - # 3
    frequency:    4.5303033832
  - # 4
    frequency:    4.7024427442
  - # 5
    frequency:    6.0990833958
  - # 6
    frequency:    6.2220939609
  - # 7
    frequency:    6.2887543457
  - # 8
    frequency:    8.0786544648
  - # 9
    frequency:   10.5559584817
  - # 10
    frequency:   11.2582994594
  - # 11
    frequency:   15.9054496893
  - # 12
    frequency:   17.1455477633
  - # 13
    frequency:   24.3746068165
  - # 14
    frequency:   25.1694151668
  - # 15
    frequency:   27.0316260859

- q-position: [    0.1919192,    0.0000000,    0.0000000 ]
  distance:    0.0655888
  band:
  - # 1
    frequency:    2.0603459760
  - # 2
    frequency:    2.9677928364
  - # 3
    frequency:    4.6197335587
  - # 4
    frequency:    4.7201776138
  - # 5
    frequency:    6.1204877151
  - # 6
    frequency:    6.2728103575
  - # 7
    frequency:    6.2929521255
  - # 8
    frequency:    8.1195142900
  - # 9
    frequency:   10.5089505083
  - # 10
    frequency:   11.2650846122
  - # 11
    frequency:   15.8353658202
  - # 12
    frequency:   17.2269819213
  - # 13
    frequency:   24.3716680220
  - # 14
    frequency:   25.1293594409
  - # 15
    frequency:   27.0947432837

- q-position: [    0.1969697,    0.0000000,    0.0000000 ]
  distance:    0.0673148
  band:
  - # 1
    frequency:    2.1419268583
  - # 2
    frequency:    3.0291507403
  - # 3
    frequency:    4.7060031839
  - # 4
    frequency:    4.7379902315
  - # 5
    frequency:    6.1333746656
  - # 6
    frequency:    6.2969674243
  - # 7
    frequency:    6.3331196921
  - # 8
    frequency:    8.1608300481
  - # 9
    frequency:   10.4622686757
  - # 10
    frequency:   11.2710389880
  - # 11
    frequency:   15.7583180019
  - # 12
    frequency:   17.3082448447
  - # 13
    frequency:   24.3685953679
  - # 14
    frequency:   25.0877634520
  - # 15
    frequency:   27.1564960946

- q-position: [    0.2020202,    0.0000000,    0.0000000 ]
  distance:    0.0690408
  band:
  - # 1
    frequency:    2.2235728616
  - # 2
    frequency:    3.0895197652
  - # 3
    frequency:    4.7558840107
  - # 4
    frequency:    4.7889935699
  - # 5
    frequency:    6.1432522835
  - # 6
    frequency:    6.3008121736
  - # 7
    frequency:    6.3975179415
  - # 8
    frequency:    8.2025620788
  - # 9
    frequency:   10.4160407444
  - # 10
    frequency:   11.2762160940
  - # 11
    frequency:   15.6768628411
  - # 12
    frequency:   17.3870469733
  - # 13
    frequency:   24.3654094590
  - # 14
    frequency:   25.0449347690
  - # 15
    frequency:   27.2164021834

- q-position: [    0.2070707,    0.0000000,    0.0000000 ]
  distance:    0.0707668
  band:
  - # 1
    frequency:    2.3052258939
  - # 2
    frequency:    3.1488978087
  - # 3
    frequency:    4.7738648700
  - # 4
    frequency:    4.8685904090
  - # 5
    frequency:    6.1525030080
  - # 6
    frequency:    6.3045012233
  - # 7
    frequency:    6.4636215066
  - # 8
    frequency:    8.2446593657
  - # 9
    frequency:   10.3704022510
  - # 10
    frequency:   11.2806774295
  - # 11
    frequency:   15.5926748889
  - # 12
    frequency:   17.4619913245
  - # 13
    frequency:   24.3621326990
  - # 14
    frequency:   25.0011309489
  - # 15
    frequency:   27.2740514137

- q-position: [    0.2121212,    0.0000000,    0.0000000 ]
  distance:    0.0724928
  band:
  - # 1
    frequency:    2.3868293086
  - # 2