nqpoint: 300    
npath: 3      
segment_nqpoint:
- 100
- 100
- 100
labels:
- [ 'G', 'M' ]
- [ 'M', 'K' ]
- [ 'K', 'G' ]
reciprocal_lattice:
- [   0.32165223,   0.18570600,   0.00000000 ] # a*
- [   0.00000000,   0.37141201,   0.00000000 ] # b*
- [   0.00000000,   0.00000000,   0.03691461 ] # c*
natom: 7      
lattice:
- [     3.108947805950553,     0.000000000000000,     0.000000000000000 ] # a
- [    -1.554473902975276,     2.692427778982023,     0.000000000000000 ] # b
- [     0.000000000000000,     0.000000000000000,    27.089543618724015 ] # c
points:
- symbol: C # 1
  coordinates: [  0.000000000000000,  0.000000000000000,  0.500000035677536 ]
  mass: 12.010700
- symbol: O # 2
  coordinates: [  0.333332985432215,  0.666666983183674,  0.667768489322969 ]
  mass: 15.999400
- symbol: O # 3
  coordinates: [  0.666666984744047,  0.333332985985145,  0.332231510677031 ]
  mass: 15.999400
- symbol: P # 4
  coordinates: [  0.333332985432215,  0.666666983183674,  0.612731452576885 ]
  mass: 30.973762
- symbol: P # 5
  coordinates: [  0.666666984744047,  0.333332985985145,  0.387268547423115 ]
  mass: 30.973762
- symbol: Ti # 6
  coordinates: [  0.333332985432215,  0.666666983183674,  0.456478447843323 ]
  mass: 47.867000
- symbol: Ti # 7
  coordinates: [  0.666666984744047,  0.333332985985145,  0.543521551624167 ]
  mass: 47.867000

phonon:
- q-position: [    0.0000000,    0.0000000,    0.0000000 ]
  distance:    0.0000000
  band:
  - # 1
    frequency:   -0.0000025893
  - # 2
    frequency:    0.0000007079
  - # 3
    frequency:    0.0000025202
  - # 4
    frequency:    1.1361083172
  - # 5
    frequency:    1.1361083172
  - # 6
    frequency:    1.6915743630
  - # 7
    frequency:    1.6915743630
  - # 8
    frequency:    4.8099192252
  - # 9
    frequency:    4.8099192252
  - # 10
    frequency:    5.0808664788
  - # 11
    frequency:    5.0808664788
  - # 12
    frequency:    5.3122112207
  - # 13
    frequency:    6.9747359911
  - # 14
    frequency:    6.9747359911
  - # 15
    frequency:    9.2862279284
  - # 16
    frequency:   12.3242253044
  - # 17
    frequency:   17.6016430907
  - # 18
    frequency:   17.9138613912
  - # 19
    frequency:   17.9138613913
  - # 20
    frequency:   34.4142444541
  - # 21
    frequency:   34.4313343207

- q-position: [    0.0050505,    0.0000000,    0.0000000 ]
  distance:    0.0018758
  band:
  - # 1
    frequency:   -0.0986514844
  - # 2
    frequency:    0.0636197917
  - # 3
    frequency:    0.1131026726
  - # 4
    frequency:    1.1347753908
  - # 5
    frequency:    1.1384378328
  - # 6
    frequency:    1.6903765897
  - # 7
    frequency:    1.6909006694
  - # 8
    frequency:    4.8096960211
  - # 9
    frequency:    4.8102312724
  - # 10
    frequency:    5.0779142993
  - # 11
    frequency:    5.0809057169
  - # 12
    frequency:    5.3155538602
  - # 13
    frequency:    6.9749660453
  - # 14
    frequency:    6.9751059036
  - # 15
    frequency:    9.2861985605
  - # 16
    frequency:   12.3232600352
  - # 17
    frequency:   17.6015579968
  - # 18
    frequency:   17.9132523813
  - # 19
    frequency:   17.9138592425
  - # 20
    frequency:   34.4139995824
  - # 21
    frequency:   34.4310754647

- q-position: [    0.0101010,    0.0000000,    0.0000000 ]
  distance:    0.0037516
  band:
  - # 1
    frequency:   -0.1978240986
  - # 2
    frequency:    0.1260078142
  - # 3
    frequency:    0.2229621114
  - # 4
    frequency:    1.1307899856
  - # 5
    frequency:    1.1457726124
  - # 6
    frequency:    1.6870279997
  - # 7
    frequency:    1.6889773213
  - # 8
    frequency:    4.8090305915
  - # 9
    frequency:    4.8111712180
  - # 10
    frequency:    5.0695241111
  - # 11
    frequency:    5.0810247807
  - # 12
    frequency:    5.3251230280
  - # 13
    frequency:    6.9756554992
  - # 14
    frequency:    6.9762157784
  - # 15
    frequency:    9.2861102117
  - # 16
    frequency:   12.3203664349
  - # 17
    frequency:   17.6013023286
  - # 18
    frequency:   17.9114298257
  - # 19
    frequency:   17.9138520027
  - # 20
    frequency:   34.4132655603
  - # 21
    frequency:   34.4302995068

- q-position: [    0.0151515,    0.0000000,    0.0000000 ]
  distance:    0.0056275
  band:
  - # 1
    frequency:   -0.2980416761
  - # 2
    frequency:    0.1858605783
  - # 3
    frequency:    0.3260965279
  - # 4
    frequency:    1.1241885632
  - # 5
    frequency:    1.1590605133
  - # 6
    frequency:    1.6823318571
  - # 7
    frequency:    1.6861047190
  - # 8
    frequency:    4.8079353756
  - # 9
    frequency:    4.8127491533
  - # 10
    frequency:    5.0568103750
  - # 11
    frequency:    5.0812276969
  - # 12
    frequency:    5.3398279113
  - # 13
    frequency:    6.9768022308
  - # 14
    frequency:    6.9780659915
  - # 15
    frequency:    9.2859621403
  - # 16
    frequency:   12.3155511132
  - # 17
    frequency:   17.6008749261
  - # 18
    frequency:   17.9084071242
  - # 19
    frequency:   17.9138373117
  - # 20
    frequency:   34.4120441642
  - # 21
    frequency:   34.4290082761

- q-position: [    0.0202020,    0.0000000,    0.0000000 ]
  distance:    0.0075033
  band:
  - # 1
    frequency:   -0.3998290077
  - # 2
    frequency:    0.2417323194
  - # 3
    frequency:    0.4187401369
  - # 4
    frequency:    1.1150184808
  - # 5
    frequency:    1.1794615299
  - # 6
    frequency:    1.6778797860
  - # 7
    frequency:    1.6828061975
  - # 8
    frequency:    4.8064307484
  - # 9
    frequency:    4.8149772196
  - # 10
    frequency:    5.0410141834
  - # 11
    frequency:    5.0815211053
  - # 12
    frequency:    5.3584699603
  - # 13
    frequency:    6.9784027195
  - # 14
    frequency:    6.9806570512
  - # 15
    frequency:    9.2857530867
  - # 16
    frequency:   12.3088250460
  - # 17
    frequency:   17.6002738535
  - # 18
    frequency:   17.9042065369
  - # 19
    frequency:   17.9138113058
  - # 20
    frequency:   34.4103383456
  - # 21
    frequency:   34.4272048138

- q-position: [    0.0252525,    0.0000000,    0.0000000 ]
  distance:    0.0093791
  band:
  - # 1
    frequency:   -0.5037013144
  - # 2
    frequency:    0.2919693382
  - # 3
    frequency:    0.4972469700
  - # 4
    frequency:    1.1033139131
  - # 5
    frequency:    1.2073604604
  - # 6
    frequency:    1.6764980316
  - # 7
    frequency:    1.6798562895
  - # 8
    frequency:    4.8045444975
  - # 9
    frequency:    4.8178614422
  - # 10
    frequency:    5.0231899179
  - # 11
    frequency:    5.0819141520
  - # 12
    frequency:    5.3800621839
  - # 13
    frequency:    6.9804520740
  - # 14
    frequency:    6.9839894275
  - # 15
    frequency:    9.2854812414
  - # 16
    frequency:   12.3002035163
  - # 17
    frequency:   17.5994963941
  - # 18
    frequency:   17.8988590740
  - # 19
    frequency:   17.9137687190
  - # 20
    frequency:   34.4081522162
  - # 21
    frequency:   34.4248933627

- q-position: [    0.0303030,    0.0000000,    0.0000000 ]
  distance:    0.0112549
  band:
  - # 1
    frequency:   -0.6101413869
  - # 2
    frequency:    0.3346570164
  - # 3
    frequency:    0.5590630243
  - # 4
    frequency:    1.0890559277
  - # 5
    frequency:    1.2406692868
  - # 6
    frequency:    1.6783051390
  - # 7
    frequency:    1.6828880067
  - # 8
    frequency:    4.8023111200
  - # 9
    frequency:    4.8213871277
  - # 10
    frequency:    5.0041499391
  - # 11
    frequency:    5.0824183431
  - # 12
    frequency:    5.4038961717
  - # 13
    frequency:    6.9829440747
  - # 14
    frequency:    6.9880633272
  - # 15
    frequency:    9.2851442010
  - # 16
    frequency:   12.2897060338
  - # 17
    frequency:   17.5985390439
  - # 18
    frequency:   17.8924043436
  - # 19
    frequency:   17.9137030222
  - # 20
    frequency:   34.4054910285
  - # 21
    frequency:   34.4220793523

- q-position: [    0.0353535,    0.0000000,    0.0000000 ]
  distance:    0.0131307
  band:
  - # 1
    frequency:   -0.7195631442
  - # 2
    frequency:    0.3675881553
  - # 3
    frequency:    0.6037752335
  - # 4
    frequency:    1.0721166611
  - # 5
    frequency:    1.2734656430
  - # 6
    frequency:    1.6794766366
  - # 7
    frequency:    1.7038844069
  - # 8
    frequency:    4.7997709628
  - # 9
    frequency:    4.8254918167
  - # 10
    frequency:    4.9845353991
  - # 11
    frequency:    5.0830473605
  - # 12
    frequency:    5.4294949569
  - # 13
    frequency:    6.9858712388
  - # 14
    frequency:    6.9928784258
  - # 15
    frequency:    9.2847389189
  - # 16
    frequency:   12.2773562354
  - # 17
    frequency:   17.5973975007
  - # 18
    frequency:   17.8848903575
  - # 19
    frequency:   17.9136065937
  - # 20
    frequency:   34.4023611501
  - # 21
    frequency:   34.4187693804

- q-position: [    0.0404040,    0.0000000,    0.0000000 ]
  distance:    0.0150065
  band:
  - # 1
    frequency:   -0.8322648180
  - # 2
    frequency:    0.3882461519
  - # 3
    frequency:    0.6332862862
  - # 4
    frequency:    1.0522002599
  - # 5
    frequency:    1.2976421272
  - # 6
    frequency:    1.6849072062
  - # 7
    frequency:    1.7465858778
  - # 8
    frequency:    4.7969692383
  - # 9
    frequency:    4.8300110572
  - # 10
    frequency:    4.9649329751
  - # 11
    frequency:    5.0838168452
  - # 12
    frequency:    5.4565468793
  - # 13
    frequency:    6.9892249105
  - # 14
    frequency:    6.9984335717
  - # 15
    frequency:    9.2842616512
  - # 16
    frequency:   12.2631817689
  - # 17
    frequency:   17.5960666499
  - # 18
    frequency:   17.8763732967
  - # 19
    frequency:   17.9134709181
  - # 20
    frequency:   34.3987700331
  - # 21
    frequency:   34.4149711903

- q-position: [    0.0454545,    0.0000000,    0.0000000 ]
  distance:    0.0168824
  band:
  - # 1
    frequency:   -0.9483808985
  - # 2
    frequency:    0.3937394405
  - # 3
    frequency:    0.6509206171
  - # 4
    frequency:    1.0288144513
  - # 5
    frequency:    1.3081842542
  - # 6
    frequency:    1.6961942481
  - # 7
    frequency:    1.8139180337
  - # 8
    frequency:    4.7939549519
  - # 9
    frequency:    4.8345605196
  - # 10
    frequency:    4.9460423463
  - # 11
    frequency:    5.0847441535
  - # 12
    frequency:    5.4848523519
  - # 13
    frequency:    6.9929953843
  - # 14
    frequency:    7.0047264759
  - # 15
    frequency:    9.2837079032
  - # 16
    frequency:   12.2472141634
  - # 17
    frequency:   17.5945405451
  - # 18
    frequency:   17.8669172372
  - # 19
    frequency:   17.9132868067
  - # 20
    frequency:   34.3947261777
  - # 21
    frequency:   34.4106936448

- q-position: [    0.0505051,    0.0000000,    0.0000000 ]
  distance:    0.0187582
  band:
  - # 1
    frequency:   -1.0678466439
  - # 2
    frequency:    0.3804754575
  - # 3
    frequency:    0.6603143763
  - # 4
    frequency:    1.0013199595
  - # 5
    frequency:    1.3060563710
  - # 6
    frequency:    1.7147563932
  - # 7
    frequency:    1.9027872921
  - # 8
    frequency:    4.7907797756
  - # 9
    frequency:    4.8382746115
  - # 10
    frequency:    4.9289708787
  - # 11
    frequency:    5.0858480939
  - # 12
    frequency:    5.5142871468
  - # 13
    frequency:    6.9971720666
  - # 14
    frequency:    7.0117534032
  - # 15
    frequency:    9.2830723810
  - # 16
    frequency:   12.2294886894
  - # 17
    frequency:   17.5928123839
  - # 18
    frequency:   17.8565938387
  - # 19
    frequency:   17.9130446330
  - # 20
    frequency:   34.3902390909
  - # 21
    frequency:   34.4059466964

- q-position: [    0.0555556,    0.0000000,    0.0000000 ]
  distance:    0.0206340
  band:
  - # 1
    frequency:   -1.1903884321
  - # 2
    frequency:    0.3429410441
  - # 3
    frequency:    0.6647808654
  - # 4
    frequency:    0.9690799361
  - # 5
    frequency:    1.2954363857
  - # 6
    frequency:    1.7415712954
  - # 7
    frequency:    2.0073934531
  - # 8
    frequency:    4.7874969089
  - # 9
    frequency:    4.8393533488
  - # 10
    frequency:    4.9157077802
  - # 11
    frequency:    5.0871486537
  - # 12
    frequency:    5.5447784016
  - # 13
    frequency:    7.0017436809
  - # 14
    frequency:    7.0195088774
  - # 15
    frequency:    9.2823489523
  - # 16
    frequency:   12.2100442118
  - # 17
    frequency:   17.5908744774
  - # 18
    frequency:   17.8454819956
  - # 19
    frequency:   17.9127345784
  - # 20
    frequency:   34.3853192400
  - # 21
    frequency:   34.4007413549

- q-position: [    0.0606061,    0.0000000,    0.0000000 ]
  distance:    0.0225098
  band:
  - # 1
    frequency:   -1.3155457008
  - # 2
    frequency:    0.2688526635
  - # 3
    frequency:    0.6671475653
  - # 4
    frequency:    0.9316633508
  - # 5
    frequency:    1.2804793583
  - # 6
    frequency:    1.7770031168
  - # 7
    frequency:    2.1225324062
  - # 8
    frequency:    4.7841599615
  - # 9
    frequency:    4.8351640634
  - # 10
    frequency:    4.9090355147
  - # 11
    frequency:    5.0886667242
  - # 12
    frequency:    5.5762891584
  - # 13
    frequency:    7.0066985217
  - # 14
    frequency:    7.0279854121
  - # 15
    frequency:    9.2815306208
  - # 16
    frequency:   12.1889230387
  - # 17
    frequency:   17.5887182169
  - # 18
    frequency:   17.8336674526
  - # 19
    frequency:   17.9123468785
  - # 20
    frequency:   34.3799780012
  - # 21
    frequency:   34.3950896520

- q-position: [    0.0656566,    0.0000000,    0.0000000 ]
  distance:    0.0243856
  band:
  - # 1
    frequency:   -1.4427188345
  - # 2
    frequency:    0.0914816589
  - # 3
    frequency:    0.6698018427
  - # 4
    frequency:    0.8890009643
  - # 5
    frequency:    1.2642999824
  - # 6
    frequency:    1.8207998306
  - # 7
    frequency:    2.2444701195
  - # 8
    frequency:    4.7808218939
  - # 9
    frequency:    4.8246443960
  - # 10
    frequency:    4.9101352375
  - # 11
    frequency:    5.0904238359
  - # 12
    frequency:    5.6088083558
  - # 13
    frequency:    7.0120247617
  - # 14
    frequency:    7.0371732778
  - # 15
    frequency:    9.2806095196
  - # 16
    frequency:   12.1661707701
  - # 17
    frequency:   17.5863340382
  - # 18
    frequency:   17.8212423815
  - # 19
    frequency:   17.9118720656
  - # 20
    frequency:   34.3742276030
  - # 21
    frequency:   34.3890046037

- q-position: [    0.0707071,    0.0000000,    0.0000000 ]
  distance:    0.0262615
  band:
  - # 1
    frequency:   -1.5712287979
  - # 2
    frequency:   -0.2718374562
  - # 3
    frequency:    0.6747627622
  - # 4
    frequency:    0.8414101014
  - # 5
    frequency:    1.2490697223
  - # 6
    frequency:    1.8722431060
  - # 7
    frequency:    2.3706780385
  - # 8
    frequency:    4.7775340443
  - # 9
    frequency:    4.8096612132
  - # 10
    frequency:    4.9172337192
  - # 11
    frequency:    5.0924419125
  - # 12
    frequency:    5.6423442482
  - # 13
    frequency:    7.0177108156
  - # 14
    frequency:    7.0470603105
  - # 15
    frequency:    9.2795769268
  - # 16
    frequency:   12.1418361477
  - # 17
    frequency:   17.5837113903
  - # 18
    frequency:   17.8083049175
  - # 19
    frequency:   17.9113012003
  - # 20
    frequency:   34.3680810652
  - # 21
    frequency:   34.3825001711

- q-position: [    0.0757576,    0.0000000,    0.0000000 ]
  distance:    0.0281373
  band:
  - # 1
    frequency:   -1.7003731948
  - # 2
    frequency:   -0.4168554327
  - # 3
    frequency:    0.6837111189
  - # 4
    frequency:    0.7894769220
  - # 5
    frequency:    1.2362973677
  - # 6
    frequency:    1.9303599867
  - # 7
    frequency:    2.4994281583
  - # 8
    frequency:    4.7743452685
  - # 9
    frequency:    4.7924581161
  - # 10
    frequency:    4.9281604090
  - # 11
    frequency:    5.0947430530
  - # 12
    frequency:    5.6769199647
  - # 13
    frequency:    7.0237457622
  - # 14
    frequency:    7.0576317675
  - # 15
    frequency:    9.2784233075
  - # 16
    frequency:   12.1159709100
  - # 17
    frequency:   17.5808387189
  - # 18
    frequency:   17.7949586466
  - # 19
    frequency:   17.9106260852
  - # 20
    frequency:   34.3615521322
  - # 21
    frequency:   34.3755912201

- q-position: [    0.0808081,    0.0000000,    0.0000000 ]
  distance:    0.0300131
  band:
  - # 1
    frequency:   -1.8294687455
  - # 2
    frequency:   -0.5385246410
  - # 3
    frequency:    0.6979739311
  - # 4
    frequency:    0.7338503798
  - # 5
    frequency:    1.2270498532
  - # 6
    frequency:    1.9941088682
  - # 7
    frequency:    2.6294964081
  - # 8
    frequency:    4.7713012088
  - # 9
    frequency:    4.7743604988
  - # 10
    frequency:    4.9416465020
  - # 11
    frequency:    5.0973493506
  - # 12
    frequency:    5.7125703838
  - # 13
    frequency:    7.0301198298
  - # 14
    frequency:    7.0688702320
  - # 15
    frequency:    9.2771383844
  - # 16
    frequency:   12.0886296527
  - # 17
    frequency:   17.5777034801
  - # 18
    frequency:   17.7813120298
  - # 19
    frequency:   17.9098394561
  - # 20
    frequency:   34.3546552022
  - # 21
    frequency:   34.3682934802

- q-position: [    0.0858586,    0.0000000,    0.0000000 ]
  distance:    0.0318889
  band:
  - # 1
    frequency:   -1.9578773434
  - # 2
    frequency:   -0.6487366989
  - # 3
    frequency:    0.6750277118
  - # 4
    frequency:    0.7184869360
  - # 5
    frequency:    1.2220998852
  - # 6
    frequency:    2.0625007034
  - # 7
    frequency:    2.7599742581
  - # 8
    frequency:    4.7560553266
  - # 9
    frequency:    4.7684437060
  - # 10
    frequency:    4.9570493660
  - # 11
    frequency:    5.1002827546
  - # 12
    frequency:    5.7493397900
  - # 13
    frequency:    7.0368249444
  - # 14
    frequency:    7.0807555664
  - # 15
    frequency:    9.2757112409
  - # 16
    frequency:   12.0598696985
  - # 17
    frequency:   17.5742922106
  - # 18
    frequency:   17.7674777431
  - # 19
    frequency:   17.9089351466
  - # 20
    frequency:   34.3474052502
  - # 21
    frequency:   34.3606235045

- q-position: [    0.0909091,    0.0000000,    0.0000000 ]
  distance:    0.0337647
  band:
  - # 1
    frequency:   -2.0850180177
  - # 2
    frequency:   -0.7510675093
  - # 3
    frequency:    0.6131901550
  - # 4
    frequency:    0.7457649463
  - # 5
    frequency:    1.2220232167
  - # 6
    frequency:    2.1346582088
  - # 7
    frequency:    2.8901519594
  - # 8
    frequency:    4.7379260231
  - # 9
    frequency:    4.7658103570
  - # 10
    frequency:    4.9740223254
  - # 11
    frequency:    5.1035649803
  - # 12
    frequency:    5.7872799446
  - # 13
    frequency:    7.0438553467
  - # 14
    frequency:    7.0932649125
  - # 15
    frequency:    9.2741304565
  - # 16
    frequency:   12.0297509742
  - # 17
    frequency:   17.5705906919
  - # 18
    frequency:   17.7535718981
  - # 19
    frequency:   17.9079082196
  - # 20
    frequency:   34.3398177461
  - # 21
    frequency:   34.3525986306

- q-position: [    0.0959596,    0.0000000,    0.0000000 ]
  distance:    0.0356405
  band:
  - # 1
    frequency:   -2.2103691932
  - # 2
    frequency:   -0.8468815378
  - # 3
    frequency:    0.5480866221
  - # 4
    frequency:    0.7799014351
  - # 5
    frequency:    1.2272654777
  - # 6
    frequency:    2.2098327288
  - # 7
    frequency:    3.0194448472
  - # 8
    frequency:    4.7202195614
  - # 9
    frequency:    4.7634342177
  - # 10
    frequency:    4.9923530709
  - # 11
    frequency:    5.1072174723
  - # 12
    frequency:    5.8264483091
  - # 13
    frequency:    7.0512082821
  - # 14
    frequency:    7.1063727367
  - # 15
    frequency:    9.2723842760
  - # 16
    frequency:   11.9983358998
  - # 17
    frequency:   17.5665842599
  - # 18
    frequency:   17.7397130958
  - # 19
    frequency:   17.9067550657
  - # 20
    frequency:   34.3319085658
  - # 21
    frequency:   34.3442369447

- q-position: [    0.1010101,    0.0000000,    0.0000000 ]
  distance:    0.0375164
  band:
  - # 1
    frequency:   -2.3334654705
  - # 2
    frequency:   -0.9367583969
  - # 3
    frequency:    0.4788851500
  - # 4
    frequency:    0.8206017538
  - # 5
    frequency:    1.2381923771
  - # 6
    frequency:    2.2873981001
  - # 7
    frequency:    3.1473447412
  - # 8
    frequency:    4.7031239906
  - # 9
    frequency:    4.7613436424
  - # 10
    frequency:    5.0118929326
  - # 11
    frequency:    5.1112614215
  - # 12
    frequency:    5.8669062144
  - # 13
    frequency:    7.0588847713
  - # 14
    frequency:    7.1200509149
  - # 15
    frequency:    9.2704608105
  - # 16
    frequency:   11.9656892862
  - # 17
    frequency:   17.5622583237
  - # 18
    frequency:   17.7260212541
  - # 19
    frequency:   17.9054734645
  - # 20
    frequency:   34.3236938961
  - # 21
    frequency:   34.3355572494

- q-position: [    0.1060606,    0.0000000,    0.0000000 ]
  distance:    0.0393922
  band:
  - # 1
    frequency:   -2.4538920152
  - # 2
    frequency:   -1.0209727365
  - # 3
    frequency:    0.4037991784
  - # 4
    frequency:    0.8672389924
  - # 5
    frequency:    1.2551320921
  - # 6
    frequency:    2.3668347303
  - # 7
    frequency:    3.2733854297
  - # 8
    frequency:    4.6868087240
  - # 9
    frequency:    4.7595622493
  - # 10
    frequency:    5.0325254148
  - # 11
    frequency:    5.1157178395
  - # 12
    frequency:    5.9087168052
  - # 13
    frequency:    7.0668904753
  - # 14
    frequency:    7.1342688547
  - # 15
    frequency:    9.2683482709
  - # 16
    frequency:   11.9318782447
  - # 17
    frequency:   17.5575991638
  - # 18
    frequency:   17.7126161447
  - # 19
    frequency:   17.9040626079
  - # 20
    frequency:   34.3151901318
  - # 21
    frequency:   34.3265790372

- q-position: [    0.1111111,    0.0000000,    0.0000000 ]
  distance:    0.0412680
  band:
  - # 1
    frequency:   -2.5712784439
  - # 2
    frequency:   -1.0996771782
  - # 3
    frequency:    0.3189026104
  - # 4
    frequency:    0.9189163268
  - # 5
    frequency:    1.2784134043
  - # 6
    frequency:    2.4477112685
  - # 7
    frequency:    3.3971149940
  - # 8
    frequency:    4.6714510870
  - # 9
    frequency:    4.7581089942
  - # 10
    frequency:    5.0541517065
  - # 11
    frequency:    5.1206076900
  - # 12
    frequency:    5.9519426088
  - # 13
    frequency:    7.0752366720
  - # 14
    frequency:    7.1489936483
  - # 15
    frequency:    9.2660352273
  - # 16
    frequency:   11.8969721066
  - # 17
    frequency:   17.5525950582
  - # 18
    frequency:   17.6996155927
  - # 19
    frequency:   17.9025230860
  - # 20
    frequency:   34.3064137643
  - # 21
    frequency:   34.3173224705

- q-position: [    0.1161616,    0.0000000,    0.0000000 ]
  distance:    0.0431438
  band:
  - # 1
    frequency:   -2.6852931685
  - # 2
    frequency:   -1.1729733924
  - # 3
    frequency:    0.2129004962
  - # 4
    frequency:    0.9745272343
  - # 5
    frequency:    1.3083955672
  - # 6
    frequency:    2.5296673420
  - # 7
    frequency:    3.5180693039
  - # 8
    frequency:    4.6572605286
  - # 9
    frequency:    4.7569983370
  - # 10
    frequency:    5.0766838614
  - # 11
    frequency:    5.1259520768
  - # 12
    frequency:    5.9966425889
  - # 13
    frequency:    7.0839413718
  - # 14
    frequency:    7.1641902548
  - # 15
    frequency:    9.2635108934
  - # 16
    frequency:   11.8610423539
  - # 17
    frequency:   17.5472377344
  - # 18
    frequency:   17.6871333495
  - # 19
    frequency:   17.9008568352
  - # 20
    frequency:   34.2973812610
  - # 21
    frequency:   34.3078083704

- q-position: [    0.1212121,    0.0000000,    0.0000000 ]
  distance:    0.0450196
  band:
  - # 1
    frequency:   -2.7956385857
  - # 2
    frequency:   -1.2409390519
  - # 3
    frequency:   -0.0778039685
  - # 4
    frequency:    1.0328218731
  - # 5
    frequency:    1.3454744751
  - # 6
    frequency:    2.6123986511
  - # 7
    frequency:    3.6357408422
  - # 8
    frequency:    4.6445082208
  - # 9
    frequency:    4.7562404804
  - # 10
    frequency:    5.1000415973
  - # 11
    frequency:    5.1317724897
  - # 12
    frequency:    6.0428685608
  - # 13
    frequency:    7.0930306107
  - # 14
    frequency:    7.1798217044
  - # 15
    frequency:    9.2607654269
  - # 16
    frequency:   11.8241625613
  - # 17
    frequency:   17.5415240290
  - # 18
    frequency:   17.6752767597
  - # 19
    frequency:   17.8990670523
  - # 20
    frequency:   34.2881089378
  - # 21
    frequency:   34.2980582125

- q-position: [    0.1262626,    0.0000000,    0.0000000 ]
  distance:    0.0468955
  band:
  - # 1
    frequency:   -2.9020471760
  - # 2
    frequency:   -1.3036378059
  - # 3
    frequency:   -0.2290853130
  - # 4
    frequency:    1.0925055069
  - # 5
    frequency:    1.3900379996
  - # 6
    frequency:    2.6956446456
  - # 7
    frequency:    3.7495350392
  - # 8
    frequency:    4.6335703805
  - # 9
    frequency:    4.7558416627
  - # 10
    frequency:    5.1241508500
  - # 11
    frequency:    5.1380911057
  - # 12
    frequency:    6.0906608572
  - # 13
    frequency:    7.1025399710
  - # 14
    frequency:    7.1958493233
  - # 15
    frequency:    9.2577902426
  - # 16
    frequency:   11.7864083496
  - # 17
    frequency:   17.5354574719
  - # 18
    frequency:   17.6641445116
  - # 19
    frequency:   17.8971580739
  - # 20
    frequency:   34.2786128251
  - # 21
    frequency:   34.2880941297

- q-position: [    0.1313131,    0.0000000,    0.0000000 ]
  distance:    0.0487713
  band:
  - # 1
    frequency:   -3.0042784333
  - # 2
    frequency:   -1.3611231388
  - # 3
    frequency:   -0.3066684416
  - # 4
    frequency:    1.1523934810
  - # 5
    frequency:    1.4423483812
  - # 6
    frequency:    2.7791785524
  - # 7
    frequency:    3.8587020480
  - # 8
    frequency:    4.6249974074
  - # 9
    frequency:    4.7558044867
  - # 10
    frequency:    5.1449311462
  - # 11
    frequency:    5.1489431793
  - # 12
    frequency:    6.1400431644
  - # 13
    frequency:    7.1125164020
  - # 14
    frequency:    7.2122329739
  - # 15
    frequency:    9.2545783262
  - # 16
    frequency:   11.7478573512
  - # 17
    frequency:   17.5290493338
  - # 18
    frequency:   17.6538249382
  - # 19
    frequency:   17.8951352285
  - # 20
    frequency:   34.2689085361
  - # 21
    frequency:   34.2779389131

- q-position: [    0.1363636,    0.0000000,    0.0000000 ]
  distance:    0.0506471
  band:
  - # 1
    frequency:   -3.1021164927
  - # 2
    frequency:   -1.4134402468
  - # 3
    frequency:   -0.3618055452
  - # 4
    frequency:    1.2116017012
  - # 5
    frequency:    1.5023764249
  - # 6
    frequency:    2.8627993764
  - # 7
    frequency:    3.9622254596
  - # 8
    frequency:    4.6196271692
  - # 9
    frequency:    4.7561282692
  - # 10
    frequency:    5.1523172887
  - # 11
    frequency:    5.1743555707
  - # 12
    frequency:    6.1910164772
  - # 13
    frequency:    7.1230204302
  - # 14
    frequency:    7.2289313071
  - # 15
    frequency:    9.2511245424
  - # 16
    frequency:   11.7085891902
  - # 17
    frequency:   17.5223185772
  - # 18
    frequency:   17.6443954323
  - # 19
    frequency:   17.8930046613
  - # 20
    frequency:   34.2590111508
  - # 21
    frequency:   34.2676160001

- q-position: [    0.1414141,    0.0000000,    0.0000000 ]
  distance:    0.0525229
  band:
  - # 1
    frequency:   -3.1953683184
  - # 2
    frequency:   -1.4606273613
  - # 3
    frequency:   -0.4040729255
  - # 4
    frequency:    1.2696802742
  - # 5
    frequency:    1.5696834022
  - # 6
    frequency:    2.9463254928
  - # 7
    frequency:    4.0586464034
  - # 8
    frequency:    4.6187637384
  - # 9
    frequency:    4.7568093945
  - # 10
    frequency:    5.1602761313
  - # 11
    frequency:    5.2003303962
  - # 12
    frequency:    6.2435521707
  - # 13
    frequency:    7.1341288759
  - # 14
    frequency:    7.2459020247
  - # 15
    frequency:    9.2474259262
  - # 16
    frequency:   11.6686854760
  - # 17
    frequency:   17.5152902511
  - # 18
    frequency:   17.6359234421
  - # 19
    frequency:   17.8907731398
  - # 20
    frequency:   34.2489351407
  - # 21
    frequency:   34.2571494237

- q-position: [    0.1464646,    0.0000000,    0.0000000 ]
  distance:    0.0543987
  band:
  - # 1
    frequency:   -3.2838623328
  - # 2
    frequency:   -1.5027169270
  - # 3
    frequency:   -0.4375568018
  - # 4
    frequency:    1.3265959819
  - # 5
    frequency:    1.6434478324
  - # 6
    frequency:    3.0295894916
  - # 7
    frequency:    4.1458320518
  - # 8
    frequency:    4.6244122397
  - # 9
    frequency:    4.7578416621
  - # 10
    frequency:    5.1688367086
  - # 11
    frequency:    5.2268154093
  - # 12
    frequency:    6.2975842350
  - # 13
    frequency:    7.1459382155
  - # 14
    frequency:    7.2631021454
  - # 15
    frequency:    9.2434819451
  - # 16
    frequency:   11.6282298159
  - # 17
    frequency:   17.5079922313
  - # 18
    frequency:   17.6284691498
  - # 19
    frequency:   17.8884478422
  - # 20
    frequency:   34.2386943722
  - # 21
    frequency:   34.2465636864

- q-position: [    0.1515152,    0.0000000,    0.0000000 ]
  distance:    0.0562745
  band:
  - # 1
    frequency:   -3.3674473849
  - # 2
    frequency:   -1.5397366983
  - # 3
    frequency:   -0.4645630681
  - # 4
    frequency:    1.3825783933
  - # 5
    frequency:    1.7226244242
  - # 6
    frequency:    3.1124339993
  - # 7
    frequency:    4.2208606735
  - # 8
    frequency:    4.6393972988
  - # 9
    frequency:    4.7592166176
  - # 10
    frequency:    5.1780310544
  - # 11
    frequency:    5.2537637101
  - # 12
    frequency:    6.3530007831
  - # 13
    frequency:    7.1585687436
  - # 14
    frequency:    7.2804882751
  - # 15
    frequency:    9.2392947233
  - # 16
    frequency:   11.5873078451
  - # 17
    frequency:   17.5004507412
  - # 18
    frequency:   17.6220894027
  - # 19
    frequency:   17.8860361369
  - # 20
    frequency:   34.2283022350
  - # 21
    frequency:   34.2358835116