nqpoint: 300    
npath: 3      
segment_nqpoint:
- 100
- 100
- 100
labels:
- [ 'G', 'M' ]
- [ 'M', 'K' ]
- [ 'K', 'G' ]
reciprocal_lattice:
- [   0.29483176,   0.17022120,   0.00000000 ] # a*
- [   0.00000000,   0.34044240,   0.00000000 ] # b*
- [   0.00000000,   0.00000000,   0.03540211 ] # c*
natom: 9      
lattice:
- [     3.391764810824685,     0.000000000000000,     0.000000000000000 ] # a
- [    -1.695882405412343,     2.937354489839556,     0.000000000000000 ] # b
- [     0.000000000000000,     0.000000000000000,    28.246900835695818 ] # c
points:
- symbol: C # 1
  coordinates: [  0.000000000000000,  0.000000000000000,  0.500000028747570 ]
  mass: 12.010700
- symbol: C # 2
  coordinates: [  0.333332985432215,  0.666666983183674,  0.639309035005274 ]
  mass: 12.010700
- symbol: C # 3
  coordinates: [  0.666666984744047,  0.333332985985145,  0.360690964565657 ]
  mass: 12.010700
- symbol: N # 4
  coordinates: [  0.333332985432215,  0.666666983183674,  0.681380975125362 ]
  mass: 14.006700
- symbol: N # 5
  coordinates: [  0.666666984744047,  0.333332985985145,  0.318619024874638 ]
  mass: 14.006700
- symbol: O # 6
  coordinates: [  0.333332985432215,  0.666666983183674,  0.591976070472372 ]
  mass: 15.999400
- symbol: O # 7
  coordinates: [  0.666666984744047,  0.333332985985145,  0.408023929527628 ]
  mass: 15.999400
- symbol: Zr # 8
  coordinates: [  0.333332985432215,  0.666666983183674,  0.457160249505681 ]
  mass: 91.224000
- symbol: Zr # 9
  coordinates: [  0.666666984744047,  0.333332985985145,  0.542839750065243 ]
  mass: 91.224000

phonon:
- q-position: [    0.0000000,    0.0000000,    0.0000000 ]
  distance:    0.0000000
  band:
  - # 1
    frequency:   -0.0000051140
  - # 2
    frequency:    0.0000003353
  - # 3
    frequency:    0.0000123479
  - # 4
    frequency:    1.4317353143
  - # 5
    frequency:    1.4317353143
  - # 6
    frequency:    1.5284530922
  - # 7
    frequency:    1.5284530922
  - # 8
    frequency:    4.7470901354
  - # 9
    frequency:    4.7470901354
  - # 10
    frequency:    5.2959310844
  - # 11
    frequency:    5.2959310844
  - # 12
    frequency:    5.5522806565
  - # 13
    frequency:    6.2667903146
  - # 14
    frequency:    6.2667903146
  - # 15
    frequency:    8.1923801590
  - # 16
    frequency:   10.1942488364
  - # 17
    frequency:   13.9247620881
  - # 18
    frequency:   13.9247620881
  - # 19
    frequency:   13.9721880471
  - # 20
    frequency:   13.9721880471
  - # 21
    frequency:   16.1474788140
  - # 22
    frequency:   18.2426529942
  - # 23
    frequency:   18.2426529942
  - # 24
    frequency:   31.7023601793
  - # 25
    frequency:   31.7725994490
  - # 26
    frequency:   67.6785535266
  - # 27
    frequency:   67.6797022828

- q-position: [    0.0050505,    0.0000000,    0.0000000 ]
  distance:    0.0017194
  band:
  - # 1
    frequency:    0.0017009928
  - # 2
    frequency:    0.0546640822
  - # 3
    frequency:    0.1085587857
  - # 4
    frequency:    1.4312454945
  - # 5
    frequency:    1.4331926082
  - # 6
    frequency:    1.5279794875
  - # 7
    frequency:    1.5298798974
  - # 8
    frequency:    4.7466081985
  - # 9
    frequency:    4.7474656898
  - # 10
    frequency:    5.2967844902
  - # 11
    frequency:    5.2970001546
  - # 12
    frequency:    5.5519947895
  - # 13
    frequency:    6.2667287955
  - # 14
    frequency:    6.2673491777
  - # 15
    frequency:    8.1921522525
  - # 16
    frequency:   10.1932312707
  - # 17
    frequency:   13.9248314575
  - # 18
    frequency:   13.9249144893
  - # 19
    frequency:   13.9722167229
  - # 20
    frequency:   13.9723232901
  - # 21
    frequency:   16.1473185988
  - # 22
    frequency:   18.2422978950
  - # 23
    frequency:   18.2427987887
  - # 24
    frequency:   31.7019648728
  - # 25
    frequency:   31.7721621651
  - # 26
    frequency:   67.6783492041
  - # 27
    frequency:   67.6794989315

- q-position: [    0.0101010,    0.0000000,    0.0000000 ]
  distance:    0.0034388
  band:
  - # 1
    frequency:    0.0067991536
  - # 2
    frequency:    0.1093397730
  - # 3
    frequency:    0.2169808035
  - # 4
    frequency:    1.4297773674
  - # 5
    frequency:    1.4375446854
  - # 6
    frequency:    1.5265633162
  - # 7
    frequency:    1.5341699369
  - # 8
    frequency:    4.7451649912
  - # 9
    frequency:    4.7485916192
  - # 10
    frequency:    5.2993400116
  - # 11
    frequency:    5.3001965501
  - # 12
    frequency:    5.5511457434
  - # 13
    frequency:    6.2665444874
  - # 14
    frequency:    6.2690206994
  - # 15
    frequency:    8.1914689658
  - # 16
    frequency:   10.1901806370
  - # 17
    frequency:   13.9250394225
  - # 18
    frequency:   13.9253715564
  - # 19
    frequency:   13.9723027310
  - # 20
    frequency:   13.9727288032
  - # 21
    frequency:   16.1468382134
  - # 22
    frequency:   18.2412340172
  - # 23
    frequency:   18.2432336999
  - # 24
    frequency:   31.7007798972
  - # 25
    frequency:   31.7708513427
  - # 26
    frequency:   67.6777366603
  - # 27
    frequency:   67.6788892993

- q-position: [    0.0151515,    0.0000000,    0.0000000 ]
  distance:    0.0051582
  band:
  - # 1
    frequency:    0.0152341545
  - # 2
    frequency:    0.1640367161
  - # 3
    frequency:    0.3251203392
  - # 4
    frequency:    1.4273349395
  - # 5
    frequency:    1.4447334486
  - # 6
    frequency:    1.5242186672
  - # 7
    frequency:    1.5413534803
  - # 8
    frequency:    4.7427683189
  - # 9
    frequency:    4.7504657040
  - # 10
    frequency:    5.3035835906
  - # 11
    frequency:    5.3054872593
  - # 12
    frequency:    5.5497596953
  - # 13
    frequency:    6.2662381537
  - # 14
    frequency:    6.2717898106
  - # 15
    frequency:    8.1903316063
  - # 16
    frequency:   10.1851031126
  - # 17
    frequency:   13.9253855517
  - # 18
    frequency:   13.9261328777
  - # 19
    frequency:   13.9724460149
  - # 20
    frequency:   13.9734039417
  - # 21
    frequency:   16.1460384387
  - # 22
    frequency:   18.2394656174
  - # 23
    frequency:   18.2439503337
  - # 24
    frequency:   31.6988080807
  - # 25
    frequency:   31.7686700658
  - # 26
    frequency:   67.6767171654
  - # 27
    frequency:   67.6778746488

- q-position: [    0.0202020,    0.0000000,    0.0000000 ]
  distance:    0.0068776
  band:
  - # 1
    frequency:    0.0269174507
  - # 2
    frequency:    0.2187605492
  - # 3
    frequency:    0.4328128548
  - # 4
    frequency:    1.4239249215
  - # 5
    frequency:    1.4546662668
  - # 6
    frequency:    1.5209695707
  - # 7
    frequency:    1.5514857962
  - # 8
    frequency:    4.7394311777
  - # 9
    frequency:    4.7530841844
  - # 10
    frequency:    5.3094918978
  - # 11
    frequency:    5.3128152082
  - # 12
    frequency:    5.5478821559
  - # 13
    frequency:    6.2658111209
  - # 14
    frequency:    6.2756318313
  - # 15
    frequency:    8.1887423834
  - # 16
    frequency:   10.1780089520
  - # 17
    frequency:   13.9258691206
  - # 18
    frequency:   13.9271977611
  - # 19
    frequency:   13.9726464836
  - # 20
    frequency:   13.9743476390
  - # 21
    frequency:   16.1449205773
  - # 22
    frequency:   18.2369997784
  - # 23
    frequency:   18.2449364422
  - # 24
    frequency:   31.6960541266
  - # 25
    frequency:   31.7656234634
  - # 26
    frequency:   67.6752928316
  - # 27
    frequency:   67.6764570803

- q-position: [    0.0252525,    0.0000000,    0.0000000 ]
  distance:    0.0085970
  band:
  - # 1
    frequency:    0.0417331255
  - # 2
    frequency:    0.2735106997
  - # 3
    frequency:    0.5398631539
  - # 4
    frequency:    1.4195567758
  - # 5
    frequency:    1.4672216552
  - # 6
    frequency:    1.5168508778
  - # 7
    frequency:    1.5646549581
  - # 8
    frequency:    4.7351717328
  - # 9
    frequency:    4.7564416708
  - # 10
    frequency:    5.3170324799
  - # 11
    frequency:    5.3220955375
  - # 12
    frequency:    5.5455814699
  - # 13
    frequency:    6.2652653587
  - # 14
    frequency:    6.2805130828
  - # 15
    frequency:    8.1867044534
  - # 16
    frequency:   10.1689124271
  - # 17
    frequency:   13.9264891030
  - # 18
    frequency:   13.9285652262
  - # 19
    frequency:   13.9729040172
  - # 20
    frequency:   13.9755584186
  - # 21
    frequency:   16.1434864552
  - # 22
    frequency:   18.2338463917
  - # 23
    frequency:   18.2461750352
  - # 24
    frequency:   31.6925245978
  - # 25
    frequency:   31.7617186930
  - # 26
    frequency:   67.6734666067
  - # 27
    frequency:   67.6746395248

- q-position: [    0.0303030,    0.0000000,    0.0000000 ]
  distance:    0.0103164
  band:
  - # 1
    frequency:    0.0595446310
  - # 2
    frequency:    0.3282779054
  - # 3
    frequency:    0.6460303583
  - # 4
    frequency:    1.4142427827
  - # 5
    frequency:    1.4822561400
  - # 6
    frequency:    1.5119096113
  - # 7
    frequency:    1.5809939526
  - # 8
    frequency:    4.7300132867
  - # 9
    frequency:    4.7605310225
  - # 10
    frequency:    5.3261639606
  - # 11
    frequency:    5.3332088532
  - # 12
    frequency:    5.5429553114
  - # 13
    frequency:    6.2646035928
  - # 14
    frequency:    6.2863916740
  - # 15
    frequency:    8.1842219810
  - # 16
    frequency:   10.1578317441
  - # 17
    frequency:   13.9272441599
  - # 18
    frequency:   13.9302339919
  - # 19
    frequency:   13.9732184742
  - # 20
    frequency:   13.9770344100
  - # 21
    frequency:   16.1417384243
  - # 22
    frequency:   18.2300181344
  - # 23
    frequency:   18.2476445346
  - # 24
    frequency:   31.6882278953
  - # 25
    frequency:   31.7569649172
  - # 26
    frequency:   67.6712422648
  - # 27
    frequency:   67.6724257347

- q-position: [    0.0353535,    0.0000000,    0.0000000 ]
  distance:    0.0120358
  band:
  - # 1
    frequency:    0.0802019154
  - # 2
    frequency:    0.3830413026
  - # 3
    frequency:    0.7510082680
  - # 4
    frequency:    1.4079981207
  - # 5
    frequency:    1.4996115078
  - # 6
    frequency:    1.5062069268
  - # 7
    frequency:    1.6006982628
  - # 8
    frequency:    4.7239842353
  - # 9
    frequency:    4.7653431969
  - # 10
    frequency:    5.3368362879
  - # 11
    frequency:    5.3459892113
  - # 12
    frequency:    5.5401424664
  - # 13
    frequency:    6.2638294501
  - # 14
    frequency:    6.2932184022
  - # 15
    frequency:    8.1813002164
  - # 16
    frequency:   10.1447889395
  - # 17
    frequency:   13.9281326250
  - # 18
    frequency:   13.9322024625
  - # 19
    frequency:   13.9735897006
  - # 20
    frequency:   13.9787733691
  - # 21
    frequency:   16.1396793648
  - # 22
    frequency:   18.2255304369
  - # 23
    frequency:   18.2493189687
  - # 24
    frequency:   31.6831742302
  - # 25
    frequency:   31.7513732740
  - # 26
    frequency:   67.6686243942
  - # 27
    frequency:   67.6698202721

- q-position: [    0.0404040,    0.0000000,    0.0000000 ]
  distance:    0.0137552
  band:
  - # 1
    frequency:    0.1035482608
  - # 2
    frequency:    0.4377648627
  - # 3
    frequency:    0.8543997292
  - # 4
    frequency:    1.4008409606
  - # 5
    frequency:    1.4998208970
  - # 6
    frequency:    1.5191217087
  - # 7
    frequency:    1.6240501412
  - # 8
    frequency:    4.7171180095
  - # 9
    frequency:    4.7708670747
  - # 10
    frequency:    5.3489910209
  - # 11
    frequency:    5.3602026384
  - # 12
    frequency:    5.5373441458
  - # 13
    frequency:    6.2629476357
  - # 14
    frequency:    6.3009377074
  - # 15
    frequency:    8.1779455854
  - # 16
    frequency:   10.1298097585
  - # 17
    frequency:   13.9291524879
  - # 18
    frequency:   13.9344687105
  - # 19
    frequency:   13.9740175414
  - # 20
    frequency:   13.9807727009
  - # 21
    frequency:   16.1373126888
  - # 22
    frequency:   18.2204014454
  - # 23
    frequency:   18.2511682045
  - # 24
    frequency:   31.6773755904
  - # 25
    frequency:   31.7449568413
  - # 26
    frequency:   67.6656183827
  - # 27
    frequency:   67.6668284940

- q-position: [    0.0454545,    0.0000000,    0.0000000 ]
  distance:    0.0154747
  band:
  - # 1
    frequency:    0.1294263296
  - # 2
    frequency:    0.4923928556
  - # 3
    frequency:    0.9556846280
  - # 4
    frequency:    1.3927925694
  - # 5
    frequency:    1.4928504315
  - # 6
    frequency:    1.5406188475
  - # 7
    frequency:    1.6514498526
  - # 8
    frequency:    4.7094530014
  - # 9
    frequency:    4.7770892659
  - # 10
    frequency:    5.3625616456
  - # 11
    frequency:    5.3755086136
  - # 12
    frequency:    5.5348624440
  - # 13
    frequency:    6.2619641430
  - # 14
    frequency:    6.3094886276
  - # 15
    frequency:    8.1741657921
  - # 16
    frequency:   10.1129235152
  - # 17
    frequency:   13.9303013751
  - # 18
    frequency:   13.9370304577
  - # 19
    frequency:   13.9745018532
  - # 20
    frequency:   13.9830294861
  - # 21
    frequency:   16.1346423441
  - # 22
    frequency:   18.2146519759
  - # 23
    frequency:   18.2531582131
  - # 24
    frequency:   31.6708457013
  - # 25
    frequency:   31.7377305946
  - # 26
    frequency:   67.6622304014
  - # 27
    frequency:   67.6634565358

- q-position: [    0.0505051,    0.0000000,    0.0000000 ]
  distance:    0.0171941
  band:
  - # 1
    frequency:    0.1576831244
  - # 2
    frequency:    0.5468438734
  - # 3
    frequency:    1.0541846869
  - # 4
    frequency:    1.3838774209
  - # 5
    frequency:    1.4854207937
  - # 6
    frequency:    1.5639379190
  - # 7
    frequency:    1.6834506391
  - # 8
    frequency:    4.7010324730
  - # 9
    frequency:    4.7839939034
  - # 10
    frequency:    5.3774739093
  - # 11
    frequency:    5.3913926235
  - # 12
    frequency:    5.5331678611
  - # 13
    frequency:    6.2608864969
  - # 14
    frequency:    6.3188057077
  - # 15
    frequency:    8.1699699305
  - # 16
    frequency:   10.0941629396
  - # 17
    frequency:   13.9315765291
  - # 18
    frequency:   13.9398850549
  - # 19
    frequency:   13.9750425200
  - # 20
    frequency:   13.9855405090
  - # 21
    frequency:   16.1316728177
  - # 22
    frequency:   18.2083054617
  - # 23
    frequency:   18.2552513666
  - # 24
    frequency:   31.6635999804
  - # 25
    frequency:   31.7297113588
  - # 26
    frequency:   67.6584673844
  - # 27
    frequency:   67.6597112918

- q-position: [    0.0555556,    0.0000000,    0.0000000 ]
  distance:    0.0189135
  band:
  - # 1
    frequency:    0.1881737577
  - # 2
    frequency:    0.6010027384
  - # 3
    frequency:    1.1490373326
  - # 4
    frequency:    1.3741233109
  - # 5
    frequency:    1.4776913887
  - # 6
    frequency:    1.5889201897
  - # 7
    frequency:    1.7207850309
  - # 8
    frequency:    4.6919044474
  - # 9
    frequency:    4.7915624325
  - # 10
    frequency:    5.3936461614
  - # 11
    frequency:    5.4070604073
  - # 12
    frequency:    5.5330052871
  - # 13
    frequency:    6.2597240311
  - # 14
    frequency:    6.3288198337
  - # 15
    frequency:    8.1653686025
  - # 16
    frequency:   10.0735640129
  - # 17
    frequency:   13.9329747856
  - # 18
    frequency:   13.9430294599
  - # 19
    frequency:   13.9756394689
  - # 20
    frequency:   13.9883022870
  - # 21
    frequency:   16.1284091402
  - # 22
    frequency:   18.2013878920
  - # 23
    frequency:   18.2574067610
  - # 24
    frequency:   31.6556554873
  - # 25
    frequency:   31.7209177546
  - # 26
    frequency:   67.6543370074
  - # 27
    frequency:   67.6556003936

- q-position: [    0.0606061,    0.0000000,    0.0000000 ]
  distance:    0.0206329
  band:
  - # 1
    frequency:    0.2207640668
  - # 2
    frequency:    0.6547093291
  - # 3
    frequency:    1.2392084335
  - # 4
    frequency:    1.3635614723
  - # 5
    frequency:    1.4698667808
  - # 6
    frequency:    1.6154153605
  - # 7
    frequency:    1.7643525310
  - # 8
    frequency:    4.6821215789
  - # 9
    frequency:    4.7997734029
  - # 10
    frequency:    5.4109896870
  - # 11
    frequency:    5.4213303908
  - # 12
    frequency:    5.5355019528
  - # 13
    frequency:    6.2584882013
  - # 14
    frequency:    6.3394589705
  - # 15
    frequency:    8.1603740402
  - # 16
    frequency:   10.0511657936
  - # 17
    frequency:   13.9344925507
  - # 18
    frequency:   13.9464602156
  - # 19
    frequency:   13.9762926895
  - # 20
    frequency:   13.9913111014
  - # 21
    frequency:   16.1248568897
  - # 22
    frequency:   18.1939277443
  - # 23
    frequency:   18.2595805616
  - # 24
    frequency:   31.6470308674
  - # 25
    frequency:   31.7113701389
  - # 26
    frequency:   67.6498476642
  - # 27
    frequency:   67.6511321859

- q-position: [    0.0656566,    0.0000000,    0.0000000 ]
  distance:    0.0223523
  band:
  - # 1
    frequency:    0.2553322023
  - # 2
    frequency:    0.7077429966
  - # 3
    frequency:    1.3235940117
  - # 4
    frequency:    1.3522266911
  - # 5
    frequency:    1.4622122625
  - # 6
    frequency:    1.6432828152
  - # 7
    frequency:    1.8151183383
  - # 8
    frequency:    4.6717410043
  - # 9
    frequency:    4.8086022749
  - # 10
    frequency:    5.4294090223
  - # 11
    frequency:    5.4327232728
  - # 12
    frequency:    5.5420783759
  - # 13
    frequency:    6.2571929350
  - # 14
    frequency:    6.3506487982
  - # 15
    frequency:    8.1550002289
  - # 16
    frequency:   10.0270102382
  - # 17
    frequency:   13.9361257763
  - # 18
    frequency:   13.9501734276
  - # 19
    frequency:   13.9770022535
  - # 20
    frequency:   13.9945630277
  - # 21
    frequency:   16.1210221958
  - # 22
    frequency:   18.1859559072
  - # 23
    frequency:   18.2617263662
  - # 24
    frequency:   31.6377462915
  - # 25
    frequency:   31.7010905402
  - # 26
    frequency:   67.6450084395
  - # 27
    frequency:   67.6463157010

- q-position: [    0.0707071,    0.0000000,    0.0000000 ]
  distance:    0.0240717
  band:
  - # 1
    frequency:    0.2917693631
  - # 2
    frequency:    0.7598009036
  - # 3
    frequency:    1.3401574221
  - # 4
    frequency:    1.4012523187
  - # 5
    frequency:    1.4550756308
  - # 6
    frequency:    1.6723922915
  - # 7
    frequency:    1.8738815055
  - # 8
    frequency:    4.6608241701
  - # 9
    frequency:    4.8180212478
  - # 10
    frequency:    5.4400643998
  - # 11
    frequency:    5.4488022382
  - # 12
    frequency:    5.5538466501
  - # 13
    frequency:    6.2558550195
  - # 14
    frequency:    6.3623132492
  - # 15
    frequency:    8.1492630259
  - # 16
    frequency:   10.0011420170
  - # 17
    frequency:   13.9378699357
  - # 18
    frequency:   13.9541647434
  - # 19
    frequency:   13.9777683372
  - # 20
    frequency:   13.9980539655
  - # 21
    frequency:   16.1169117430
  - # 22
    frequency:   18.1775055962
  - # 23
    frequency:   18.2637955821
  - # 24
    frequency:   31.6278233898
  - # 25
    frequency:   31.6901025891
  - # 26
    frequency:   67.6398290819
  - # 27
    frequency:   67.6411606303

- q-position: [    0.0757576,    0.0000000,    0.0000000 ]
  distance:    0.0257911
  band:
  - # 1
    frequency:    0.3299798552
  - # 2
    frequency:    0.8104686473
  - # 3
    frequency:    1.3273959102
  - # 4
    frequency:    1.4489167967
  - # 5
    frequency:    1.4717193666
  - # 6
    frequency:    1.7026242153
  - # 7
    frequency:    1.9409593504
  - # 8
    frequency:    4.6494366381
  - # 9
    frequency:    4.8279991222
  - # 10
    frequency:    5.4432510101
  - # 11
    frequency:    5.4690611801
  - # 12
    frequency:    5.5708439737
  - # 13
    frequency:    6.2544945312
  - # 14
    frequency:    6.3743749546
  - # 15
    frequency:    8.1431802742
  - # 16
    frequency:    9.9736083298
  - # 17
    frequency:   13.9397200002
  - # 18
    frequency:   13.9584293318
  - # 19
    frequency:   13.9785912448
  - # 20
    frequency:   14.0017796681
  - # 21
    frequency:   16.1125327739
  - # 22
    frequency:   18.1686122598
  - # 23
    frequency:   18.2657378118
  - # 24
    frequency:   31.6172851817
  - # 25
    frequency:   31.6784314430
  - # 26
    frequency:   67.6343199729
  - # 27
    frequency:   67.6356772947

- q-position: [    0.0808081,    0.0000000,    0.0000000 ]
  distance:    0.0275105
  band:
  - # 1
    frequency:    0.3698806449
  - # 2
    frequency:    0.8591828935
  - # 3
    frequency:    1.3139883291
  - # 4
    frequency:    1.4443454751
  - # 5
    frequency:    1.5352251221
  - # 6
    frequency:    1.7338697876
  - # 7
    frequency:    2.0159709654
  - # 8
    frequency:    4.6376478640
  - # 9
    frequency:    4.8385012096
  - # 10
    frequency:    5.4431434095
  - # 11
    frequency:    5.4900716569
  - # 12
    frequency:    5.5921423307
  - # 13
    frequency:    6.2531353040
  - # 14
    frequency:    6.3867556144
  - # 15
    frequency:    8.1367719031
  - # 16
    frequency:    9.9444587219
  - # 17
    frequency:   13.9416704150
  - # 18
    frequency:   13.9629618647
  - # 19
    frequency:   13.9794714342
  - # 20
    frequency:   14.0057357695
  - # 21
    frequency:   16.1078930912
  - # 22
    frequency:   18.1593134777
  - # 23
    frequency:   18.2675012446
  - # 24
    frequency:   31.6061560011
  - # 25
    frequency:   31.6661037081
  - # 26
    frequency:   67.6284920953
  - # 27
    frequency:   67.6298766122

- q-position: [    0.0858586,    0.0000000,    0.0000000 ]
  distance:    0.0292299
  band:
  - # 1
    frequency:    0.4114005499
  - # 2
    frequency:    0.9051907443
  - # 3
    frequency:    1.2999849539
  - # 4
    frequency:    1.4421622043
  - # 5
    frequency:    1.5926321439
  - # 6
    frequency:    1.7660308044
  - # 7
    frequency:    2.0978981904
  - # 8
    frequency:    4.6255309511
  - # 9
    frequency:    4.8494893011
  - # 10
    frequency:    5.4408092026
  - # 11
    frequency:    5.5117135707
  - # 12
    frequency:    5.6166051710
  - # 13
    frequency:    6.2518054381
  - # 14
    frequency:    6.3993763068
  - # 15
    frequency:    8.1300600153
  - # 16
    frequency:    9.9137449027
  - # 17
    frequency:   13.9437150778
  - # 18
    frequency:   13.9677565016
  - # 19
    frequency:   13.9804095437
  - # 20
    frequency:   14.0099178104
  - # 21
    frequency:   16.1030010592
  - # 22
    frequency:   18.1496488493
  - # 23
    frequency:   18.2690330478
  - # 24
    frequency:   31.5944614179
  - # 25
    frequency:   31.6531473556
  - # 26
    frequency:   67.6223569996
  - # 27
    frequency:   67.6237700652

- q-position: [    0.0909091,    0.0000000,    0.0000000 ]
  distance:    0.0309493
  band:
  - # 1
    frequency:    0.4544791855
  - # 2
    frequency:    0.9475231835
  - # 3
    frequency:    1.2854403943
  - # 4
    frequency:    1.4433853108
  - # 5
    frequency:    1.6451387790
  - # 6
    frequency:    1.7990191845
  - # 7
    frequency:    2.1853820655
  - # 8
    frequency:    4.6131623734
  - # 9
    frequency:    4.8609217131
  - # 10
    frequency:    5.4370851447
  - # 11
    frequency:    5.5338609870
  - # 12
    frequency:    5.6433264986
  - # 13
    frequency:    6.2505378426
  - # 14
    frequency:    6.4121577544
  - # 15
    frequency:    8.1230689517
  - # 16
    frequency:    9.8815205698
  - # 17
    frequency:   13.9458473187
  - # 18
    frequency:   13.9728068772
  - # 19
    frequency:   13.9814064203
  - # 20
    frequency:   14.0143212610
  - # 21
    frequency:   16.0978656032
  - # 22
    frequency:   18.1396598733
  - # 23
    frequency:   18.2702797558
  - # 24
    frequency:   31.5822281548
  - # 25
    frequency:   31.6395916347
  - # 26
    frequency:   67.6159267690
  - # 27
    frequency:   67.6173696648

- q-position: [    0.0959596,    0.0000000,    0.0000000 ]
  distance:    0.0326687
  band:
  - # 1
    frequency:    0.4990657616
  - # 2
    frequency:    0.9850228584
  - # 3
    frequency:    1.2704139128
  - # 4
    frequency:    1.4492235211
  - # 5
    frequency:    1.6939605910
  - # 6
    frequency:    1.8327562274
  - # 7
    frequency:    2.2770411463
  - # 8
    frequency:    4.6006216695
  - # 9
    frequency:    4.8727534299
  - # 10
    frequency:    5.4325379515
  - # 11
    frequency:    5.5563821508
  - # 12
    frequency:    5.6716709990
  - # 13
    frequency:    6.2493708014
  - # 14
    frequency:    6.4250205621
  - # 15
    frequency:    8.1158253320
  - # 16
    frequency:    9.8478412376
  - # 17
    frequency:   13.9480598837
  - # 18
    frequency:   13.9781060925
  - # 19
    frequency:   13.9824631478
  - # 20
    frequency:   14.0189415416
  - # 21
    frequency:   16.0924962081
  - # 22
    frequency:   18.1293898170
  - # 23
    frequency:   18.2711876517
  - # 24
    frequency:   31.5694840018
  - # 25
    frequency:   31.6254669827
  - # 26
    frequency:   67.6092139824
  - # 27
    frequency:   67.6106879148

- q-position: [    0.1010101,    0.0000000,    0.0000000 ]
  distance:    0.0343881
  band:
  - # 1
    frequency:    0.5451177983
  - # 2
    frequency:    1.0164871191
  - # 3
    frequency:    1.2549698456
  - # 4
    frequency:    1.4609332619
  - # 5
    frequency:    1.7401394354
  - # 6
    frequency:    1.8671716783
  - # 7
    frequency:    2.3716622530
  - # 8
    frequency:    4.5879911030
  - # 9
    frequency:    4.8849363659
  - # 10
    frequency:    5.4275449761
  - # 11
    frequency:    5.5791394671
  - # 12
    frequency:    5.7011942650
  - # 13
    frequency:    6.2483485421
  - # 14
    frequency:    6.4378854443
  - # 15
    frequency:    8.1083580632
  - # 16
    frequency:    9.8127640743
  - # 17
    frequency:   13.9503449224
  - # 18
    frequency:   13.9835810753
  - # 19
    frequency:   13.9836467107
  - # 20
    frequency:   14.0237740398
  - # 21
    frequency:   16.0869029141
  - # 22
    frequency:   18.1188835770
  - # 23
    frequency:   18.2717031399
  - # 24
    frequency:   31.5562577263
  - # 25
    frequency:   31.6108049307
  - # 26
    frequency:   67.6022316768
  - # 27
    frequency:   67.6037377740

- q-position: [    0.1060606,    0.0000000,    0.0000000 ]
  distance:    0.0361075
  band:
  - # 1
    frequency:    0.5925998165
  - # 2
    frequency:    1.0409572254
  - # 3
    frequency:    1.2391781218
  - # 4
    frequency:    1.4795297275
  - # 5
    frequency:    1.7844855686
  - # 6
    frequency:    1.9022026983
  - # 7
    frequency:    2.4682582123
  - # 8
    frequency:    4.5753552888
  - # 9
    frequency:    4.8974197791
  - # 10
    frequency:    5.4223677198
  - # 11
    frequency:    5.6019894755
  - # 12
    frequency:    5.7315701198
  - # 13
    frequency:    6.2475217728
  - # 14
    frequency:    6.4506734546
  - # 15
    frequency:    8.1006983119
  - # 16
    frequency:    9.7763477459
  - # 17
    frequency:   13.9526939841
  - # 18
    frequency:   13.9847618413
  - # 19
    frequency:   13.9894207580
  - # 20
    frequency:   14.0288141244
  - # 21
    frequency:   16.0810963104
  - # 22
    frequency:   18.1081875285
  - # 23
    frequency:   18.2717731050
  - # 24
    frequency:   31.5425789810
  - # 25
    frequency:   31.5956380075
  - # 26
    frequency:   67.5949933086
  - # 27
    frequency:   67.5965326174

- q-position: [    0.1111111,    0.0000000,    0.0000000 ]
  distance:    0.0378269
  band:
  - # 1
    frequency:    0.6414820408
  - # 2
    frequency:    1.0580558998
  - # 3
    frequency:    1.2231148377
  - # 4
    frequency:    1.5054495490
  - # 5
    frequency:    1.8275948550
  - # 6
    frequency:    1.9377928246
  - # 7
    frequency:    2.5660504682
  - # 8
    frequency:    4.5628007838
  - # 9
    frequency:    4.9101508727
  - # 10
    frequency:    5.4171989753
  - # 11
    frequency:    5.6247828768
  - # 12
    frequency:    5.7625442001
  - # 13
    frequency:    6.2469481295
  - # 14
    frequency:    6.4633062331
  - # 15
    frequency:    8.0928794324
  - # 16
    frequency:    9.7386522686
  - # 17
    frequency:   13.9550980225
  - # 18
    frequency:   13.9860073929
  - # 19
    frequency:   13.9954197306
  - # 20
    frequency:   14.0340571556
  - # 21
    frequency:   16.0750875260
  - # 22
    frequency:   18.0973493658
  - # 23
    frequency:   18.2713452556
  - # 24
    frequency:   31.5284782087
  - # 25
    frequency:   31.5799996408
  - # 26
    frequency:   67.5875127132
  - # 27
    frequency:   67.5890861965

- q-position: [    0.1161616,    0.0000000,    0.0000000 ]
  distance:    0.0395463
  band:
  - # 1
    frequency:    0.6917391455
  - # 2
    frequency:    1.0681467175
  - # 3
    frequency:    1.2068628103
  - # 4
    frequency:    1.5383916263
  - # 5
    frequency:    1.8698915236
  - # 6
    frequency:    1.9738909844
  - # 7
    frequency:    2.6644260659
  - # 8
    frequency:    4.5504156402
  - # 9
    frequency:    4.9230756319
  - # 10
    frequency:    5.4121904844
  - # 11
    frequency:    5.6473646940
  - # 12
    frequency:    5.7939068681
  - # 13
    frequency:    6.2466924515
  - # 14
    frequency:    6.4757062835
  - # 15
    frequency:    8.0849368467
  - # 16
    frequency:    9.6997388697
  - # 17
    frequency:   13.9575474179
  - # 18
    frequency:   13.9873199936
  - # 19
    frequency:   14.0016346077
  - # 20
    frequency:   14.0394984908
  - # 21
    frequency:   16.0688882163
  - # 22
    frequency:   18.0864179318
  - # 23
    frequency:   18.2703684505
  - # 24
    frequency:   31.5139865450
  - # 25
    frequency:   31.5639240558
  - # 26
    frequency:   67.5798040645
  - # 27
    frequency:   67.5814125986

- q-position: [    0.1212121,    0.0000000,    0.0000000 ]
  distance:    0.0412657
  band:
  - # 1
    frequency:    0.7433490638
  - # 2
    frequency:    1.0721838950
  - # 3
    frequency:    1.1905120106
  - # 4
    frequency:    1.5774676231
  - # 5
    frequency:    1.9116714671
  - # 6
    frequency:    2.0104505983
  - # 7
    frequency:    2.7628939885
  - # 8
    frequency:    4.5382889209
  - # 9
    frequency:    4.9361399480
  - # 10
    frequency:    5.4074688570