nqpoint: 300    
npath: 3      
segment_nqpoint:
- 100
- 100
- 100
labels:
- [ 'G', 'M' ]
- [ 'M', 'K' ]
- [ 'K', 'G' ]
reciprocal_lattice:
- [   0.30017203,   0.17330440,   0.00000000 ] # a*
- [   0.00000000,   0.34660880,   0.00000000 ] # b*
- [   0.00000000,   0.00000000,   0.04131379 ] # c*
natom: 6      
lattice:
- [     3.331423017737794,     0.000000000000000,     0.000000000000000 ] # a
- [    -1.665711508868897,     2.885096964111279,     0.000000000000000 ] # b
- [     0.000000000000000,     0.000000000000000,    24.204990711280630 ] # c
points:
- symbol: C # 1
  coordinates: [  0.333332985432215,  0.666666983183674,  0.578576453316552 ]
  mass: 12.010700
- symbol: F # 2
  coordinates: [  0.666666984744047,  0.333332985985145,  0.371824145993396 ]
  mass: 18.998403
- symbol: N # 3
  coordinates: [  0.000000000000000,  0.000000000000000,  0.467564798120909 ]
  mass: 14.006700
- symbol: N # 4
  coordinates: [  0.333332985432215,  0.666666983183674,  0.628175854006604 ]
  mass: 14.006700
- symbol: Sc # 5
  coordinates: [  0.333332985432215,  0.666666983183674,  0.419451297736984 ]
  mass: 44.955912
- symbol: Sc # 6
  coordinates: [  0.666666984744047,  0.333332985985145,  0.519814488946891 ]
  mass: 44.955912

phonon:
- q-position: [    0.0000000,    0.0000000,    0.0000000 ]
  distance:    0.0000000
  band:
  - # 1
    frequency:   -1.9825937622
  - # 2
    frequency:   -1.9825937622
  - # 3
    frequency:   -0.0000011171
  - # 4
    frequency:    0.0000011616
  - # 5
    frequency:    0.0000017731
  - # 6
    frequency:    4.7623238860
  - # 7
    frequency:    4.7623238860
  - # 8
    frequency:    6.7360509666
  - # 9
    frequency:    7.0905833354
  - # 10
    frequency:    7.0905833354
  - # 11
    frequency:    8.4564929599
  - # 12
    frequency:    8.4564929599
  - # 13
    frequency:    9.9540152138
  - # 14
    frequency:   12.3173902763
  - # 15
    frequency:   12.7563450614
  - # 16
    frequency:   12.7563450614
  - # 17
    frequency:   14.6793350867
  - # 18
    frequency:   61.6385655271

- q-position: [    0.0050505,    0.0000000,    0.0000000 ]
  distance:    0.0017505
  band:
  - # 1
    frequency:   -1.9825911851
  - # 2
    frequency:   -1.9822860100
  - # 3
    frequency:   -0.1066404634
  - # 4
    frequency:    0.0817434822
  - # 5
    frequency:    0.1759289731
  - # 6
    frequency:    4.7624986096
  - # 7
    frequency:    4.7636571802
  - # 8
    frequency:    6.7358919517
  - # 9
    frequency:    7.0908465493
  - # 10
    frequency:    7.0912534608
  - # 11
    frequency:    8.4564227165
  - # 12
    frequency:    8.4569097845
  - # 13
    frequency:    9.9533934184
  - # 14
    frequency:   12.3158199493
  - # 15
    frequency:   12.7563163060
  - # 16
    frequency:   12.7571123265
  - # 17
    frequency:   14.6784996802
  - # 18
    frequency:   61.6384747773

- q-position: [    0.0101010,    0.0000000,    0.0000000 ]
  distance:    0.0035011
  band:
  - # 1
    frequency:   -1.9825850676
  - # 2
    frequency:   -1.9813849190
  - # 3
    frequency:   -0.1156494507
  - # 4
    frequency:    0.1634880393
  - # 5
    frequency:    0.3028891828
  - # 6
    frequency:    4.7630246588
  - # 7
    frequency:    4.7676456572
  - # 8
    frequency:    6.7354176766
  - # 9
    frequency:    7.0916334367
  - # 10
    frequency:    7.0932568704
  - # 11
    frequency:    8.4562113646
  - # 12
    frequency:    8.4581595256
  - # 13
    frequency:    9.9515322426
  - # 14
    frequency:   12.3111307151
  - # 15
    frequency:   12.7562293120
  - # 16
    frequency:   12.7593891403
  - # 17
    frequency:   14.6759989931
  - # 18
    frequency:   61.6382027635

- q-position: [    0.0151515,    0.0000000,    0.0000000 ]
  distance:    0.0052516
  band:
  - # 1
    frequency:   -1.9825801860
  - # 2
    frequency:   -1.9799545862
  - # 3
    frequency:   -0.1048002023
  - # 4
    frequency:    0.2452342424
  - # 5
    frequency:    0.4330046772
  - # 6
    frequency:    4.7639076388
  - # 7
    frequency:    4.7742553304
  - # 8
    frequency:    6.7346363040
  - # 9
    frequency:    7.0929357674
  - # 10
    frequency:    7.0965728548
  - # 11
    frequency:    8.4558570542
  - # 12
    frequency:    8.4602400025
  - # 13
    frequency:    9.9484442577
  - # 14
    frequency:   12.3033848666
  - # 15
    frequency:   12.7560818956
  - # 16
    frequency:   12.7631035894
  - # 17
    frequency:   14.6718495730
  - # 18
    frequency:   61.6377501922

- q-position: [    0.0202020,    0.0000000,    0.0000000 ]
  distance:    0.0070022
  band:
  - # 1
    frequency:   -1.9825842885
  - # 2
    frequency:   -1.9780943609
  - # 3
    frequency:   -0.0756148552
  - # 4
    frequency:    0.3269816888
  - # 5
    frequency:    0.5656284047
  - # 6
    frequency:    4.7651567915
  - # 7
    frequency:    4.7834303132
  - # 8
    frequency:    6.7335609754
  - # 9
    frequency:    7.0947399302
  - # 10
    frequency:    7.1011675118
  - # 11
    frequency:    8.4553567502
  - # 12
    frequency:    8.4631476375
  - # 13
    frequency:    9.9441502165
  - # 14
    frequency:   12.2926773346
  - # 15
    frequency:   12.7558704178
  - # 16
    frequency:   12.7681449848
  - # 17
    frequency:   14.6660788338
  - # 18
    frequency:   61.6371182371

- q-position: [    0.0252525,    0.0000000,    0.0000000 ]
  distance:    0.0087527
  band:
  - # 1
    frequency:   -1.9826077970
  - # 2
    frequency:   -1.9759292713
  - # 3
    frequency:    0.0462266009
  - # 4
    frequency:    0.4087285954
  - # 5
    frequency:    0.6997062770
  - # 6
    frequency:    4.7667848466
  - # 7
    frequency:    4.7950939215
  - # 8
    frequency:    6.7322091928
  - # 9
    frequency:    7.0970270909
  - # 10
    frequency:    7.1069945888
  - # 11
    frequency:    8.4547063039
  - # 12
    frequency:    8.4668775384
  - # 13
    frequency:    9.9386787605
  - # 14
    frequency:   12.2791251467
  - # 15
    frequency:   12.7555897860
  - # 16
    frequency:   12.7743748127
  - # 17
    frequency:   14.6587248090
  - # 18
    frequency:   61.6363085334

- q-position: [    0.0303030,    0.0000000,    0.0000000 ]
  distance:    0.0105033
  band:
  - # 1
    frequency:   -1.9826634239
  - # 2
    frequency:   -1.9735993751
  - # 3
    frequency:    0.1127908026
  - # 4
    frequency:    0.4904714781
  - # 5
    frequency:    0.8345815962
  - # 6
    frequency:    4.7688078178
  - # 7
    frequency:    4.8091501546
  - # 8
    frequency:    6.7306020843
  - # 9
    frequency:    7.0997734058
  - # 10
    frequency:    7.1139965278
  - # 11
    frequency:    8.4539005521
  - # 12
    frequency:    8.4714236083
  - # 13
    frequency:    9.9320660212
  - # 14
    frequency:   12.2628568815
  - # 15
    frequency:   12.7552334580
  - # 16
    frequency:   12.7816378404
  - # 17
    frequency:   14.6498358058
  - # 18
    frequency:   61.6353231702

- q-position: [    0.0353535,    0.0000000,    0.0000000 ]
  distance:    0.0122538
  band:
  - # 1
    frequency:   -1.9827657366
  - # 2
    frequency:   -1.9712497594
  - # 3
    frequency:    0.1623632865
  - # 4
    frequency:    0.5722049316
  - # 5
    frequency:    0.9698326628
  - # 6
    frequency:    4.7712447454
  - # 7
    frequency:    4.8254854936
  - # 8
    frequency:    6.7287636480
  - # 9
    frequency:    7.1029502894
  - # 10
    frequency:    7.1221056182
  - # 11
    frequency:    8.4529334416
  - # 12
    frequency:    8.4767786780
  - # 13
    frequency:    9.9243551270
  - # 14
    frequency:   12.2440040735
  - # 15
    frequency:   12.7547934489
  - # 16
    frequency:   12.7897714137
  - # 17
    frequency:   14.6394699622
  - # 18
    frequency:   61.6341646808

- q-position: [    0.0404040,    0.0000000,    0.0000000 ]
  distance:    0.0140044
  band:
  - # 1
    frequency:   -1.9829306997
  - # 2
    frequency:   -1.9690224019
  - # 3
    frequency:    0.2085286025
  - # 4
    frequency:    0.6539215130
  - # 5
    frequency:    1.1051533754
  - # 6
    frequency:    4.7741173910
  - # 7
    frequency:    4.8439709542
  - # 8
    frequency:    6.7267200513
  - # 9
    frequency:    7.1065247270
  - # 10
    frequency:    7.1312451745
  - # 11
    frequency:    8.4517981779
  - # 12
    frequency:    8.4829346532
  - # 13
    frequency:    9.9155956272
  - # 14
    frequency:   12.2226954470
  - # 15
    frequency:   12.7542603440
  - # 16
    frequency:   12.7986120526
  - # 17
    frequency:   14.6276947066
  - # 18
    frequency:   61.6328360304

- q-position: [    0.0454545,    0.0000000,    0.0000000 ]
  distance:    0.0157549
  band:
  - # 1
    frequency:   -1.9831752269
  - # 2
    frequency:   -1.9670504147
  - # 3
    frequency:    0.2541326268
  - # 4
    frequency:    0.7356117230
  - # 5
    frequency:    1.2402951852
  - # 6
    frequency:    4.7774498886
  - # 7
    frequency:    4.8644643217
  - # 8
    frequency:    6.7244990411
  - # 9
    frequency:    7.1104596283
  - # 10
    frequency:    7.1413306826
  - # 11
    frequency:    8.4504873961
  - # 12
    frequency:    8.4898826691
  - # 13
    frequency:    9.9058428478
  - # 14
    frequency:   12.1990539335
  - # 15
    frequency:   12.7536233178
  - # 16
    frequency:   12.8079993787
  - # 17
    frequency:   14.6145861236
  - # 18
    frequency:   61.6313406027

- q-position: [    0.0505051,    0.0000000,    0.0000000 ]
  distance:    0.0175055
  band:
  - # 1
    frequency:   -1.9835167667
  - # 2
    frequency:   -1.9654545641
  - # 3
    frequency:    0.3003356858
  - # 4
    frequency:    0.8172640736
  - # 5
    frequency:    1.3750408412
  - # 6
    frequency:    4.7812683572
  - # 7
    frequency:    4.8868124991
  - # 8
    frequency:    6.7221294886
  - # 9
    frequency:    7.1147142115
  - # 10
    frequency:    7.1522708860
  - # 11
    frequency:    8.4489933505
  - # 12
    frequency:    8.4976132420
  - # 13
    frequency:    9.8951571933
  - # 14
    frequency:   12.1731958924
  - # 15
    frequency:   12.7528701631
  - # 16
    frequency:   12.8177779356
  - # 17
    frequency:   14.6002282253
  - # 18
    frequency:   61.6296821842

- q-position: [    0.0555556,    0.0000000,    0.0000000 ]
  distance:    0.0192560
  band:
  - # 1
    frequency:   -1.9839729437
  - # 2
    frequency:   -1.9643415624
  - # 3
    frequency:    0.3477251642
  - # 4
    frequency:    0.8988652221
  - # 5
    frequency:    1.5091928627
  - # 6
    frequency:    4.7856004819
  - # 7
    frequency:    4.9108539048
  - # 8
    frequency:    6.7196410706
  - # 9
    frequency:    7.1192444123
  - # 10
    frequency:    7.1639688073
  - # 11
    frequency:    8.4473081218
  - # 12
    frequency:    8.5061164076
  - # 13
    frequency:    9.8836034094
  - # 14
    frequency:   12.1452318044
  - # 15
    frequency:   12.7519873302
  - # 16
    frequency:   12.8277976221
  - # 17
    frequency:   14.5847121332
  - # 18
    frequency:   61.6278649466

- q-position: [    0.0606061,    0.0000000,    0.0000000 ]
  distance:    0.0210066
  band:
  - # 1
    frequency:   -1.9845612664
  - # 2
    frequency:   -1.9638034861
  - # 3
    frequency:    0.3966231889
  - # 4
    frequency:    0.9804001511
  - # 5
    frequency:    1.6425685324
  - # 6
    frequency:    4.7904750682
  - # 7
    frequency:    4.9364208609
  - # 8
    frequency:    6.7170640653
  - # 9
    frequency:    7.1240033096
  - # 10
    frequency:    7.1763227200
  - # 11
    frequency:    8.4454238373
  - # 12
    frequency:    8.5153818344
  - # 13
    frequency:    9.8712498199
  - # 14
    frequency:   12.1152677713
  - # 15
    frequency:   12.7509599804
  - # 16
    frequency:   12.8379133840
  - # 17
    frequency:   14.5681351729
  - # 18
    frequency:   61.6258934287

- q-position: [    0.0656566,    0.0000000,    0.0000000 ]
  distance:    0.0227571
  band:
  - # 1
    frequency:   -1.9852989086
  - # 2
    frequency:   -1.9639177430
  - # 3
    frequency:    0.4472039872
  - # 4
    frequency:    1.0618523751
  - # 5
    frequency:    1.7749975980
  - # 6
    frequency:    4.7959215778
  - # 7
    frequency:    4.9633419271
  - # 8
    frequency:    6.7144292362
  - # 9
    frequency:    7.1289415591
  - # 10
    frequency:    7.1892270941
  - # 11
    frequency:    8.4433329016
  - # 12
    frequency:    8.5253989002
  - # 13
    frequency:    9.8581675538
  - # 14
    frequency:   12.0834073303
  - # 15
    frequency:   12.7497720539
  - # 16
    frequency:   12.8479846436
  - # 17
    frequency:   14.5505998867
  - # 18
    frequency:   61.6237725152

- q-position: [    0.0707071,    0.0000000,    0.0000000 ]
  distance:    0.0245077
  band:
  - # 1
    frequency:   -1.9862025622
  - # 2
    frequency:   -1.9647471911
  - # 3
    frequency:    0.4995486280
  - # 4
    frequency:    1.1432041519
  - # 5
    frequency:    1.9063209681
  - # 6
    frequency:    4.8019696510
  - # 7
    frequency:    4.9914441415
  - # 8
    frequency:    6.7117677662
  - # 9
    frequency:    7.1340078301
  - # 10
    frequency:    7.2025735448
  - # 11
    frequency:    8.4410282338
  - # 12
    frequency:    8.5361567175
  - # 13
    frequency:    9.8444297743
  - # 14
    frequency:   12.0497532565
  - # 15
    frequency:   12.7484063547
  - # 16
    frequency:   12.8578747766
  - # 17
    frequency:   14.5322129705
  - # 18
    frequency:   61.6215074161

- q-position: [    0.0757576,    0.0000000,    0.0000000 ]
  distance:    0.0262582
  band:
  - # 1
    frequency:   -1.9872883592
  - # 2
    frequency:   -1.9663402119
  - # 3
    frequency:    0.5536747667
  - # 4
    frequency:    1.2244366844
  - # 5
    frequency:    2.0363896878
  - # 6
    frequency:    4.8086486240
  - # 7
    frequency:    5.0205551459
  - # 8
    frequency:    6.7091112115
  - # 9
    frequency:    7.1391492374
  - # 10
    frequency:    7.2162518078
  - # 11
    frequency:    8.4385035080
  - # 12
    frequency:    8.5476440978
  - # 13
    frequency:    9.8301109248
  - # 14
    frequency:   12.0144091686
  - # 15
    frequency:   12.7468446546
  - # 16
    frequency:   12.8674508050
  - # 17
    frequency:   14.5130841423
  - # 18
    frequency:   61.6191036432

- q-position: [    0.0808081,    0.0000000,    0.0000000 ]
  distance:    0.0280088
  band:
  - # 1
    frequency:   -1.9885718515
  - # 2
    frequency:   -1.9687307149
  - # 3
    frequency:    0.6095550162
  - # 4
    frequency:    1.3055303005
  - # 5
    frequency:    2.1650639394
  - # 6
    frequency:    4.8159870462
  - # 7
    frequency:    5.0505051787
  - # 8
    frequency:    6.7064914403
  - # 9
    frequency:    7.1443117642
  - # 10
    frequency:    7.2301507619
  - # 11
    frequency:    8.4357533916
  - # 12
    frequency:    8.5598494399
  - # 13
    frequency:    9.8152860051
  - # 14
    frequency:   11.9774808488
  - # 15
    frequency:   12.7450678152
  - # 16
    frequency:   12.8765833794
  - # 17
    frequency:   14.4933249523
  - # 18
    frequency:   61.6165669873

- q-position: [    0.0858586,    0.0000000,    0.0000000 ]
  distance:    0.0297593
  band:
  - # 1
    frequency:   -1.9900680408
  - # 2
    frequency:   -1.9719381584
  - # 3
    frequency:    0.6671295931
  - # 4
    frequency:    1.3864646019
  - # 5
    frequency:    2.2922120143
  - # 6
    frequency:    4.8240122054
  - # 7
    frequency:    5.0811289312
  - # 8
    frequency:    6.7039405348
  - # 9
    frequency:    7.1494406722
  - # 10
    frequency:    7.2441595122
  - # 11
    frequency:    8.4327737776
  - # 12
    frequency:    8.5727605339
  - # 13
    frequency:    9.8000298935
  - # 14
    frequency:   11.9390772484
  - # 15
    frequency:   12.7430559315
  - # 16
    frequency:   12.8851470618
  - # 17
    frequency:   14.4730475466
  - # 18
    frequency:   61.6139034935

- q-position: [    0.0909091,    0.0000000,    0.0000000 ]
  distance:    0.0315099
  band:
  - # 1
    frequency:   -1.9917914458
  - # 2
    frequency:   -1.9759677201
  - # 3
    frequency:    0.7263157964
  - # 4
    frequency:    1.4672185775
  - # 5
    frequency:    2.4177092721
  - # 6
    frequency:    4.8327496680
  - # 7
    frequency:    5.1122672712
  - # 8
    frequency:    6.7014906307
  - # 9
    frequency:    7.1544808949
  - # 10
    frequency:    7.2581685355
  - # 11
    frequency:    8.4295620072
  - # 12
    frequency:    8.5863642672
  - # 13
    frequency:    9.7844167305
  - # 14
    frequency:   11.8993111839
  - # 15
    frequency:   12.7407884941
  - # 16
    frequency:   12.8930208843
  - # 17
    frequency:   14.4523634000
  - # 18
    frequency:   61.6111194361

- q-position: [    0.0959596,    0.0000000,    0.0000000 ]
  distance:    0.0332604
  band:
  - # 1
    frequency:   -1.9937561968
  - # 2
    frequency:   -1.9808107448
  - # 3
    frequency:    0.7870155316
  - # 4
    frequency:    1.5477706805
  - # 5
    frequency:    2.5414371216
  - # 6
    frequency:    4.8422228381
  - # 7
    frequency:    5.1437688405
  - # 8
    frequency:    6.6991736813
  - # 9
    frequency:    7.1593774153
  - # 10
    frequency:    7.2720708856
  - # 11
    frequency:    8.4261170744
  - # 12
    frequency:    8.6006462279
  - # 13
    frequency:    9.7685193840
  - # 14
    frequency:   11.8582997470
  - # 15
    frequency:   12.7382445724
  - # 16
    frequency:   12.9000891402
  - # 17
    frequency:   14.4313820355
  - # 18
    frequency:   61.6082212934

- q-position: [    0.1010101,    0.0000000,    0.0000000 ]
  distance:    0.0350110
  band:
  - # 1
    frequency:   -1.9959761473
  - # 2
    frequency:   -1.9864455597
  - # 3
    frequency:    0.8491214654
  - # 4
    frequency:    1.6280988695
  - # 5
    frequency:    2.6632820473
  - # 6
    frequency:    4.8524525438
  - # 7
    frequency:    5.1754915408
  - # 8
    frequency:    6.6970211324
  - # 9
    frequency:    7.1640756250
  - # 10
    frequency:    7.2857634442
  - # 11
    frequency:    8.4224398111
  - # 12
    frequency:    8.6155901944
  - # 13
    frequency:    9.7524090167
  - # 14
    frequency:   11.8161644565
  - # 15
    frequency:   12.7354030159
  - # 16
    frequency:   12.9062423568
  - # 17
    frequency:   14.4102097529
  - # 18
    frequency:   61.6052157217

- q-position: [    0.1060606,    0.0000000,    0.0000000 ]
  distance:    0.0367615
  band:
  - # 1
    frequency:   -1.9984649929
  - # 2
    frequency:   -1.9928386873
  - # 3
    frequency:    0.9125220867
  - # 4
    frequency:    1.7081806179
  - # 5
    frequency:    2.7831347007
  - # 6
    frequency:    4.8634566557
  - # 7
    frequency:    5.2073039215
  - # 8
    frequency:    6.6950635022
  - # 9
    frequency:    7.1685216691
  - # 10
    frequency:    7.2991481964
  - # 11
    frequency:    8.4185330433
  - # 12
    frequency:    8.6311775068
  - # 13
    frequency:    9.7361547825
  - # 14
    frequency:   11.7730311814
  - # 15
    frequency:   12.7322426735
  - # 16
    frequency:   12.9113783919
  - # 17
    frequency:   14.3889483918
  - # 18
    frequency:   61.6021095291

- q-position: [    0.1111111,    0.0000000,    0.0000000 ]
  distance:    0.0385121
  band:
  - # 1
    frequency:   -2.0012363909
  - # 2
    frequency:   -1.9999464334
  - # 3
    frequency:    0.9771058087
  - # 4
    frequency:    1.7879928939
  - # 5
    frequency:    2.9008890593
  - # 6
    frequency:    4.8752497416
  - # 7
    frequency:    5.2390864835
  - # 8
    frequency:    6.6933298634
  - # 9
    frequency:    7.1726627773
  - # 10
    frequency:    7.3121335050
  - # 11
    frequency:    8.4144017151
  - # 12
    frequency:    8.6473863131
  - # 13
    frequency:    9.7198236804
  - # 14
    frequency:   11.7290298629
  - # 15
    frequency:   12.7287426273
  - # 16
    frequency:   12.9154036007
  - # 17
    frequency:   14.3676941583
  - # 18
    frequency:   61.5989096501

- q-position: [    0.1161616,    0.0000000,    0.0000000 ]
  distance:    0.0402626
  band:
  - # 1
    frequency:   -2.0077167775
  - # 2
    frequency:   -2.0043040715
  - # 3
    frequency:    1.0427641899
  - # 4
    frequency:    1.8675121195
  - # 5
    frequency:    3.0164416547
  - # 6
    frequency:    4.8878427638
  - # 7
    frequency:    5.2707329098
  - # 8
    frequency:    6.6918472299
  - # 9
    frequency:    7.1764475860
  - # 10
    frequency:    7.3246353483
  - # 11
    frequency:    8.4100529732
  - # 12
    frequency:    8.6641906834
  - # 13
    frequency:    9.7034806020
  - # 14
    frequency:   11.6842940602
  - # 15
    frequency:   12.7248824405
  - # 16
    frequency:   12.9182340145
  - # 17
    frequency:   14.3465365470
  - # 18
    frequency:   61.5956231187

- q-position: [    0.1212121,    0.0000000,    0.0000000 ]
  distance:    0.0420132
  band:
  - # 1
    frequency:   -2.0160914685
  - # 2
    frequency:   -2.0076819375
  - # 3
    frequency:    1.1093943375
  - # 4
    frequency:    1.9467141120
  - # 5
    frequency:    3.1296908661
  - # 6
    frequency:    4.9012428209
  - # 7
    frequency:    5.3021512274
  - # 8
    frequency:    6.6906398594
  - # 9
    frequency:    7.1798264563
  - # 10
    frequency:    7.3365784839
  - # 11
    frequency:    8.4054962056
  - # 12
    frequency:    8.6815595821
  - # 13
    frequency:    9.6871886110
  - # 14
    frequency:   11.6389603434
  - # 15
    frequency:   12.7206424140
  - # 16
    frequency:   12.9197964792
  - # 17
    frequency:   14.3255573920
  - # 18
    frequency:   61.5922570436

- q-position: [    0.1262626,    0.0000000,    0.0000000 ]
  distance:    0.0437637
  band:
  - # 1
    frequency:   -2.0250082140
  - # 2
    frequency:   -2.0113841458
  - # 3
    frequency:    1.1769005652
  - # 4
    frequency:    2.0255740159
  - # 5
    frequency:    3.2405362756
  - # 6
    frequency:    4.9154529394
  - # 7
    frequency:    5.3332648995
  - # 8
    frequency:    6.6897284859
  - # 9
    frequency:    7.1827517914
  - # 10
    frequency:    7.3478974997
  - # 11
    frequency:    8.4007430302
  - # 12
    frequency:    8.6994556835
  - # 13
    frequency:    9.6710095002
  - # 14
    frequency:   11.5931675522
  - # 15
    frequency:   12.7160038505
  - # 16
    frequency:   12.9200297023
  - # 17
    frequency:   14.3048300799
  - # 18
    frequency:   61.5888185816

- q-position: [    0.1313131,    0.0000000,    0.0000000 ]
  distance:    0.0455143
  band:
  - # 1
    frequency:   -2.0344028585
  - # 2
    frequency:   -2.0154251680
  - # 3
    frequency:    1.2451953941
  - # 4
    frequency:    2.1040662299
  - # 5
    frequency:    3.3488780872
  - # 6
    frequency:    4.9304719161
  - # 7
    frequency:    5.3640138345
  - # 8
    frequency:    6.6891295084
  - # 9
    frequency:    7.1851783606
  - # 10
    frequency:    7.3585377093
  - # 11
    frequency:    8.3958072272
  - # 12
    frequency:    8.7178340124
  - # 13
    frequency:    9.6550046769
  - # 14
    frequency:   11.5470559431
  - # 15
    frequency:   12.7109493210
  - # 16
    frequency:   12.9188851600
  - # 17
    frequency:   14.2844189568
  - # 18
    frequency:   61.5853149137

- q-position: [    0.1363636,    0.0000000,    0.0000000 ]
  distance:    0.0472648
  band:
  - # 1
    frequency:   -2.0442114605
  - # 2
    frequency:   -2.0198198276
  - # 3
    frequency:    1.3141999909
  - # 4
    frequency:    2.1821643376
  - # 5
    frequency:    3.4546166160
  - # 6
    frequency:    4.9462942130
  - # 7
    frequency:    5.3943552880
  - # 8
    frequency:    6.6888541658
  - # 9
    frequency:    7.1870636327
  - # 10
    frequency:    7.3684558519
  - # 11
    frequency:    8.3907046111
  - # 12
    frequency:    8.7366403800
  - # 13
    frequency:    9.6392364303
  - # 14
    frequency:   11.5007662424
  - # 15
    frequency:   12.7054629302
  - # 16
    frequency:   12.9163278272
  - # 17
    frequency:   14.2643789535
  - # 18
    frequency:   61.5817532195

- q-position: [    0.1414141,    0.0000000,    0.0000000 ]
  distance:    0.0490154
  band:
  - # 1
    frequency:   -2.0543722000
  - # 2
    frequency:   -2.0245833105
  - # 3
    frequency:    1.3838441496
  - # 4
    frequency:    2.2598410450
  - # 5
    frequency:    3.5576518605
  - # 6
    frequency:    4.9629099068
  - # 7
    frequency:    5.4242646189
  - # 8
    frequency:    6.6889077420
  - # 9
    frequency:    7.1883681234
  - # 10
    frequency:    7.3776205620
  - # 11
    frequency:    8.3854528410
  - # 12
    frequency:    8.7558095788
  - # 13
    frequency:    9.6237696391
  - # 14
    frequency:   11.4544386258
  - # 15
    frequency:   12.6995305760
  - # 16
    frequency:   12.9123366965
  - # 17
    frequency:   14.2447554465
  - # 18
    frequency:   61.5781406539

- q-position: [    0.1464646,    0.0000000,    0.0000000 ]
  distance:    0.0507659
  band:
  - # 1
    frequency:   -2.0648270672
  - # 2
    frequency:   -2.0297311487
  - # 3
    frequency:    1.4540659160
  - # 4
    frequency:    2.3370681334
  - # 5
    frequency:    3.6578831828
  - # 6
    frequency:    4.9803046913
  - # 7
    frequency:    5.4537358484
  - # 8
    frequency:    6.6892888470
  - # 9
    frequency:    7.1890557596
  - # 10
    frequency:    7.3860125749
  - # 11
    frequency:    8.3800711665
  - # 12
    frequency:    8.7752632930
  - # 13
    frequency:    9.6086739774
  - # 14
    frequency:   11.4082116465
  - # 15
    frequency:   12.6931401996
  - # 16
    frequency:   12.9069050690
  - # 17
    frequency:   14.2255843619
  - # 18
    frequency:   61.5744843235

- q-position: [    0.1515152,    0.0000000,    0.0000000 ]
  distance:    0.0525165
  band:
  - # 1
    frequency:   -2.0755233072
  - # 2
    frequency:   -2.0352791760
  - # 3
    frequency:    1.5248109489
  - # 4
    frequency:    2.4138164307
  - # 5
    frequency:    3.7552091331
  - # 6
    frequency:    4.9984599330
  - # 7
    frequency:    5.4827819525
  - # 8
    frequency:    6.6899888316
  - # 9
    frequency:    7.1890942603
  - # 10
    frequency:    7.3936246441
  - # 11
    frequency:    8.3745801122
  - # 12
    frequency:    8.7949076788
  - # 13
    frequency:    9.5940266664
  - # 14
    frequency:   11.3622211320
  - # 15
    frequency:   12.6862820208
  - # 16
    frequency:   12.9000406081
  - # 17
    frequency:   14.2068925150
  - # 18
    frequency:   61.5707912644

- q-position: [    0.1565657,    0.0000000,    0.0000000 ]
  distance:    0.0542670
  band:
  - # 1
    frequency:   -2.0864146089
  - # 2
    frequency:   -2.0412434560
  - # 3
    frequency:    1.5960317025
  - # 4
    frequency:    2.4900558070
  - # 5
    frequency:    3.8495274677
  - # 6
    frequency:    5.0173527770
  - # 7
    frequency:    5.5114348074
  - # 8
    frequency:    6.6909913929
  - # 9
    frequency:    7.1884555324
  - # 10
    frequency:    7.4004611506
  - # 11
    frequency:    8.3690011035
  - # 12
    frequency:    8.8146305793
  - # 13
    frequency:    9.5799158036
  - # 14
    frequency:   11.3165990755
  - # 15
    frequency:   12.6789487545
  - # 16
    frequency:   12.8917651615
  - # 17
    frequency:   14.1886981669
  - # 18
    frequency:   61.5670684199

- q-position: [    0.1616162,    0.0000000,    0.0000000 ]
  distance:    0.0560176
  band:
  - # 1
    frequency:   -2.0974620364
  - # 2
    frequency:   -2.0476401819
  - # 3
    frequency:    1.6676864981
  - # 4
    frequency:    2.5657551982
  - # 5
    frequency:    3.9407354230
  - # 6
    frequency:    5.0369563018
  - # 7
    frequency:    5.5397446934
  - # 8
    frequency:    6.6922724321
  - # 9
    frequency:    7.1871160759
  - # 10
    frequency:    7.4065373957
  - # 11
    frequency:    8.3633560419
  - # 12
    frequency:    8.8342983727
  - # 13
    frequency:    9.5664442529
  - # 14
    frequency:   11.2714725444
  - # 15
    frequency:   12.6711358039
  - # 16
    frequency:   12.8821143723
  - # 17
    frequency:   14.1710117654
  - # 18
    frequency:   61.5633226202

- q-position: [    0.1666667,    0.0000000,    0.0000000 ]
  distance:    0.0577681
  band:
  - # 1
    frequency:   -2.1086347140
  - # 2
    frequency:   -2.0544855511
  - # 3
    frequency:    1.7397385426
  - # 4
    frequency:    2.6408826617
  - # 5
    frequency:    4.0287303253
  - # 6
    frequency:    5.0572397191
  - # 7
    frequency:    5.5677792550
  - # 8
    frequency:    6.6938002190
  - # 9
    frequency:    7.1850573920
  - # 10
    frequency:    7.4118785709
  - # 11
    frequency:    8.3576668393
  - # 12
    frequency:    8.8537525284
  - # 13
    frequency:    9.5537339960
  - # 14
    frequency:   11.2269626341
  - # 15
    frequency:   12.6628414260
  - # 16
    frequency:   12.8711371042
  - # 17
    frequency:   14.1538368278
  - # 18
    frequency:   61.5595605624

- q-position: [    0.1717172,    0.0000000,    0.0000000 ]
  distance:    0.0595187
  band:
  - # 1
    frequency:   -2.1199102727
  - # 2
    frequency:   -2.0617956143
  - # 3
    frequency:    1.8121549377
  - # 4
    frequency:    2.7154054650
  - # 5
    frequency:    4.1134106224
  - # 6
    frequency:    5.0781686150
  - # 7
    frequency:    5.5956218127
  - # 8
    frequency:    6.6955359120
  - # 9
    frequency:    7.1822663813
  - # 10
    frequency:    7.4165184126
  - # 11
    frequency:    8.3519549250
  - # 12
    frequency:    8.8728060865
  - # 13
    frequency:    9.5419306953
  - # 14
    frequency:   11.1831834908
  - # 15
    frequency:   12.6540668653
  - # 16
    frequency:   12.8588947182
  - # 17
    frequency:   14.1371709169
  - # 18
    frequency:   61.5557887917

- q-position: [    0.1767677,    0.0000000,    0.0000000 ]
  distance:    0.0612692
  band:
  - # 1
    frequency:   -2.1312750742
  - # 2
    frequency:   -2.0695861024
  - # 3
    frequency:    1.8849057137
  - # 4
    frequency:    2.7892902108
  - # 5
    frequency:    4.1946774286
  - # 6
    frequency:    5.0997052276
  - # 7
    frequency:    5.6233689322
  - # 8
    frequency:    6.6974344691
  - # 9
    frequency:    7.1787357197
  - # 10
    frequency:    7.4204975530
  - # 11
    frequency:    8.3462407407
  - # 12
    frequency:    8.8912405173
  - # 13
    frequency:    9.5312079730
  - # 14