nqpoint: 300    
npath: 3      
segment_nqpoint:
- 100
- 100
- 100
labels:
- [ 'G', 'M' ]
- [ 'M', 'K' ]
- [ 'K', 'G' ]
reciprocal_lattice:
- [   0.32044330,   0.18500803,   0.00000000 ] # a*
- [   0.00000000,   0.37001605,   0.00000000 ] # b*
- [   0.00000000,   0.00000000,   0.04211543 ] # c*
natom: 6      
lattice:
- [     3.120676855003945,     0.000000000000000,     0.000000000000000 ] # a
- [    -1.560338427501972,     2.702585433437680,     0.000000000000000 ] # b
- [     0.000000000000000,     0.000000000000000,    23.744266364440328 ] # c
points:
- symbol: C # 1
  coordinates: [  0.333332985432215,  0.666666983183674,  0.570298266943431 ]
  mass: 12.010700
- symbol: H # 2
  coordinates: [  0.666666984744047,  0.333332985985145,  0.379038874558723 ]
  mass: 1.007940
- symbol: N # 3
  coordinates: [  0.000000000000000,  0.000000000000000,  0.464681159323100 ]
  mass: 14.006700
- symbol: N # 4
  coordinates: [  0.333332985432215,  0.666666983183674,  0.620961125441277 ]
  mass: 14.006700
- symbol: Ti # 5
  coordinates: [  0.333332985432215,  0.666666983183674,  0.419940876997690 ]
  mass: 47.867000
- symbol: Ti # 6
  coordinates: [  0.666666984744047,  0.333332985985145,  0.510182964896326 ]
  mass: 47.867000

phonon:
- q-position: [    0.0000000,    0.0000000,    0.0000000 ]
  distance:    0.0000000
  band:
  - # 1
    frequency:   -0.0000011347
  - # 2
    frequency:    0.0000002635
  - # 3
    frequency:    0.0000017043
  - # 4
    frequency:    2.1033109664
  - # 5
    frequency:    2.1033109664
  - # 6
    frequency:    5.6567682633
  - # 7
    frequency:    5.6567682633
  - # 8
    frequency:    6.1057678335
  - # 9
    frequency:    9.0187115557
  - # 10
    frequency:    9.0187115557
  - # 11
    frequency:   10.3802582624
  - # 12
    frequency:   16.6859355288
  - # 13
    frequency:   17.4707801800
  - # 14
    frequency:   17.4707801800
  - # 15
    frequency:   28.4133343991
  - # 16
    frequency:   28.4133343991
  - # 17
    frequency:   29.7627731646
  - # 18
    frequency:   61.1183893969

- q-position: [    0.0050505,    0.0000000,    0.0000000 ]
  distance:    0.0018688
  band:
  - # 1
    frequency:   -0.0940426140
  - # 2
    frequency:    0.0969690153
  - # 3
    frequency:    0.1451282483
  - # 4
    frequency:    2.1035439763
  - # 5
    frequency:    2.1048151836
  - # 6
    frequency:    5.6552906790
  - # 7
    frequency:    5.6562531716
  - # 8
    frequency:    6.1091969082
  - # 9
    frequency:    9.0184368743
  - # 10
    frequency:    9.0194685493
  - # 11
    frequency:   10.3802843941
  - # 12
    frequency:   16.6858055697
  - # 13
    frequency:   17.4707837641
  - # 14
    frequency:   17.4712400827
  - # 15
    frequency:   28.4130951104
  - # 16
    frequency:   28.4134581523
  - # 17
    frequency:   29.7624268520
  - # 18
    frequency:   61.1182781108

- q-position: [    0.0101010,    0.0000000,    0.0000000 ]
  distance:    0.0037375
  band:
  - # 1
    frequency:   -0.0946528595
  - # 2
    frequency:    0.1938435995
  - # 3
    frequency:    0.2408685289
  - # 4
    frequency:    2.1042479628
  - # 5
    frequency:    2.1093152610
  - # 6
    frequency:    5.6508617618
  - # 7
    frequency:    5.6547559198
  - # 8
    frequency:    6.1194075867
  - # 9
    frequency:    9.0176135793
  - # 10
    frequency:    9.0217360308
  - # 11
    frequency:   10.3803634896
  - # 12
    frequency:   16.6854131617
  - # 13
    frequency:   17.4707936239
  - # 14
    frequency:   17.4726187002
  - # 15
    frequency:   28.4123775432
  - # 16
    frequency:   28.4138293257
  - # 17
    frequency:   29.7613895421
  - # 18
    frequency:   61.1179444908

- q-position: [    0.0151515,    0.0000000,    0.0000000 ]
  distance:    0.0056063
  band:
  - # 1
    frequency:   -0.0515677761
  - # 2
    frequency:    0.2905271102
  - # 3
    frequency:    0.3372365934
  - # 4
    frequency:    2.1054380496
  - # 5
    frequency:    2.1167737655
  - # 6
    frequency:    5.6434930541
  - # 7
    frequency:    5.6524107265
  - # 8
    frequency:    6.1361814115
  - # 9
    frequency:    9.0162439124
  - # 10
    frequency:    9.0255035069
  - # 11
    frequency:   10.3804976523
  - # 12
    frequency:   16.6847508269
  - # 13
    frequency:   17.4708070859
  - # 14
    frequency:   17.4749126830
  - # 15
    frequency:   28.4111825940
  - # 16
    frequency:   28.4144476573
  - # 17
    frequency:   29.7596661093
  - # 18
    frequency:   61.1173892503

- q-position: [    0.0202020,    0.0000000,    0.0000000 ]
  distance:    0.0074751
  band:
  - # 1
    frequency:    0.0945966962
  - # 2
    frequency:    0.3869183429
  - # 3
    frequency:    0.4361050183
  - # 4
    frequency:    2.1071403095
  - # 5
    frequency:    2.1271293252
  - # 6
    frequency:    5.6332039118
  - # 7
    frequency:    5.6494133072
  - # 8
    frequency:    6.1591865677
  - # 9
    frequency:    9.0143315872
  - # 10
    frequency:    9.0307535033
  - # 11
    frequency:   10.3806903930
  - # 12
    frequency:   16.6838064791
  - # 13
    frequency:   17.4708197064
  - # 14
    frequency:   17.4781161960
  - # 15
    frequency:   28.4095117536
  - # 16
    frequency:   28.4153126979
  - # 17
    frequency:   29.7572646496
  - # 18
    frequency:   61.1166135752

- q-position: [    0.0252525,    0.0000000,    0.0000000 ]
  distance:    0.0093438
  band:
  - # 1
    frequency:    0.1597266558
  - # 2
    frequency:    0.4829088848
  - # 3
    frequency:    0.5375201323
  - # 4
    frequency:    2.1093931368
  - # 5
    frequency:    2.1402983218
  - # 6
    frequency:    5.6200216810
  - # 7
    frequency:    5.6459921620
  - # 8
    frequency:    6.1880126366
  - # 9
    frequency:    9.0118817570
  - # 10
    frequency:    9.0374615849
  - # 11
    frequency:   10.3809466370
  - # 12
    frequency:   16.6825639638
  - # 13
    frequency:   17.4708252886
  - # 14
    frequency:   17.4822205612
  - # 15
    frequency:   28.4073671038
  - # 16
    frequency:   28.4164237919
  - # 17
    frequency:   29.7541964380
  - # 18
    frequency:   61.1156191185

- q-position: [    0.0303030,    0.0000000,    0.0000000 ]
  distance:    0.0112126
  band:
  - # 1
    frequency:    0.2169585791
  - # 2
    frequency:    0.5783799958
  - # 3
    frequency:    0.6413534788
  - # 4
    frequency:    2.1122493237
  - # 5
    frequency:    2.1561775481
  - # 6
    frequency:    5.6039819448
  - # 7
    frequency:    5.6423853619
  - # 8
    frequency:    6.2222015114
  - # 9
    frequency:    9.0089009702
  - # 10
    frequency:    9.0455963776
  - # 11
    frequency:   10.3812727300
  - # 12
    frequency:   16.6810037687
  - # 13
    frequency:   17.4708159075
  - # 14
    frequency:   17.4872137984
  - # 15
    frequency:   28.4047513111
  - # 16
    frequency:   28.4177800520
  - # 17
    frequency:   29.7504758702
  - # 18
    frequency:   61.1144079937

- q-position: [    0.0353535,    0.0000000,    0.0000000 ]
  distance:    0.0130814
  band:
  - # 1
    frequency:    0.2717571129
  - # 2
    frequency:    0.6731987935
  - # 3
    frequency:    0.7475141696
  - # 4
    frequency:    2.1157790079
  - # 5
    frequency:    2.1746480289
  - # 6
    frequency:    5.5851288393
  - # 7
    frequency:    5.6388268057
  - # 8
    frequency:    6.2612698783
  - # 9
    frequency:    9.0053971155
  - # 10
    frequency:    9.0551195911
  - # 11
    frequency:   10.3816764418
  - # 12
    frequency:   16.6791038611
  - # 13
    frequency:   17.4707819412
  - # 14
    frequency:   17.4930801023
  - # 15
    frequency:   28.4016676208
  - # 16
    frequency:   28.4193803257
  - # 17
    frequency:   29.7461203877
  - # 18
    frequency:   61.1129827651

- q-position: [    0.0404040,    0.0000000,    0.0000000 ]
  distance:    0.0149501
  band:
  - # 1
    frequency:    0.3258403847
  - # 2
    frequency:    0.7672134622
  - # 3
    frequency:    0.8559448054
  - # 4
    frequency:    2.1200737337
  - # 5
    frequency:    2.1955801956
  - # 6
    frequency:    5.5635154386
  - # 7
    frequency:    5.6355409787
  - # 8
    frequency:    6.3047235866
  - # 9
    frequency:    9.0013793575
  - # 10
    frequency:    9.0659860358
  - # 11
    frequency:   10.3821669620
  - # 12
    frequency:   16.6768406038
  - # 13
    frequency:   17.4707121079
  - # 14
    frequency:   17.4997992983
  - # 15
    frequency:   28.3981198488
  - # 16
    frequency:   28.4212231559
  - # 17
    frequency:   29.7411503882
  - # 18
    frequency:   61.1113464379

- q-position: [    0.0454545,    0.0000000,    0.0000000 ]
  distance:    0.0168189
  band:
  - # 1
    frequency:    0.3799749803
  - # 2
    frequency:    0.8602471333
  - # 3
    frequency:    0.9665915210
  - # 4
    frequency:    2.1252519465
  - # 5
    frequency:    2.2188406078
  - # 6
    frequency:    5.5392042059
  - # 7
    frequency:    5.6327430681
  - # 8
    frequency:    6.3520664508
  - # 9
    frequency:    8.9968580657
  - # 10
    frequency:    9.0781436349
  - # 11
    frequency:   10.3827548861
  - # 12
    frequency:   16.6741896985
  - # 13
    frequency:   17.4705935101
  - # 14
    frequency:   17.5073463215
  - # 15
    frequency:   28.3941123738
  - # 16
    frequency:   28.4233067353
  - # 17
    frequency:   29.7355891210
  - # 18
    frequency:   61.1095024449

- q-position: [    0.0505051,    0.0000000,    0.0000000 ]
  distance:    0.0186877
  band:
  - # 1
    frequency:    0.4345444850
  - # 2
    frequency:    0.9520900005
  - # 3
    frequency:    1.0793789453
  - # 4
    frequency:    2.1314663306
  - # 5
    frequency:    2.2443004990
  - # 6
    frequency:    5.5122675122
  - # 7
    frequency:    5.6306413607
  - # 8
    frequency:    6.4028060595
  - # 9
    frequency:    8.9918447366
  - # 10
    frequency:    9.0915334287
  - # 11
    frequency:   10.3834521857
  - # 12
    frequency:   16.6711271049
  - # 13
    frequency:   17.4704116837
  - # 14
    frequency:   17.5156907625
  - # 15
    frequency:   28.3896501288
  - # 16
    frequency:   28.4256288545
  - # 17
    frequency:   29.7294625689
  - # 18
    frequency:   61.1074546323

- q-position: [    0.0555556,    0.0000000,    0.0000000 ]
  distance:    0.0205564
  band:
  - # 1
    frequency:    0.4897390020
  - # 2
    frequency:    1.0424891783
  - # 3
    frequency:    1.1941916720
  - # 4
    frequency:    2.1389134633
  - # 5
    frequency:    2.2718466447
  - # 6
    frequency:    5.4827882204
  - # 7
    frequency:    5.6294398384
  - # 8
    frequency:    6.4564583058
  - # 9
    frequency:    8.9863519131
  - # 10
    frequency:    9.1060895752
  - # 11
    frequency:   10.3842721587
  - # 12
    frequency:   16.6676298910
  - # 13
    frequency:   17.4701506532
  - # 14
    frequency:   17.5247965177
  - # 15
    frequency:   28.3847385928
  - # 16
    frequency:   28.4281868464
  - # 17
    frequency:   29.7227993170
  - # 18
    frequency:   61.1052072438

- q-position: [    0.0606061,    0.0000000,    0.0000000 ]
  distance:    0.0224252
  band:
  - # 1
    frequency:    0.5456377476
  - # 2
    frequency:    1.1311358446
  - # 3
    frequency:    1.3108588869
  - # 4
    frequency:    2.1478462238
  - # 5
    frequency:    2.3013955115
  - # 6
    frequency:    5.4508603352
  - # 7
    frequency:    5.6293399059
  - # 8
    frequency:    6.5125514701
  - # 9
    frequency:    8.9803931008
  - # 10
    frequency:    9.1217393530
  - # 11
    frequency:   10.3852293541
  - # 12
    frequency:   16.6636769771
  - # 13
    frequency:   17.4697929921
  - # 14
    frequency:   17.5346215726
  - # 15
    frequency:   28.3793837831
  - # 16
    frequency:   28.4309775248
  - # 17
    frequency:   29.7156304098
  - # 18
    frequency:   61.1027649032

- q-position: [    0.0656566,    0.0000000,    0.0000000 ]
  distance:    0.0242940
  band:
  - # 1
    frequency:    0.6022521429
  - # 2
    frequency:    1.2176494966
  - # 3
    frequency:    1.4291379597
  - # 4
    frequency:    2.1585891137
  - # 5
    frequency:    2.3329124967
  - # 6
    frequency:    5.4165897173
  - # 7
    frequency:    5.6305408972
  - # 8
    frequency:    6.5706301092
  - # 9
    frequency:    8.9739826849
  - # 10
    frequency:    9.1384031755
  - # 11
    frequency:   10.3863394671
  - # 12
    frequency:   16.6592497448
  - # 13
    frequency:   17.4693198886
  - # 14
    frequency:   17.5451179404
  - # 15
    frequency:   28.3735922485
  - # 16
    frequency:   28.4339971206
  - # 17
    frequency:   29.7079891978
  - # 18
    frequency:   61.1001325951

- q-position: [    0.0707071,    0.0000000,    0.0000000 ]
  distance:    0.0261628
  band:
  - # 1
    frequency:    0.6595513385
  - # 2
    frequency:    1.3015600270
  - # 3
    frequency:    1.5486919055
  - # 4
    frequency:    2.1715557657
  - # 5
    frequency:    2.3664395852
  - # 6
    frequency:    5.3800948639
  - # 7
    frequency:    5.6332394000
  - # 8
    frequency:    6.6302587163
  - # 9
    frequency:    8.9671358470
  - # 10
    frequency:    9.1559946314
  - # 11
    frequency:   10.3876191980
  - # 12
    frequency:   16.6543324963
  - # 13
    frequency:   17.4687112160
  - # 14
    frequency:   17.5562317609
  - # 15
    frequency:   28.3673710628
  - # 16
    frequency:   28.4372412148
  - # 17
    frequency:   29.6999111739
  - # 18
    frequency:   61.0973156449

- q-position: [    0.0757576,    0.0000000,    0.0000000 ]
  distance:    0.0280315
  band:
  - # 1
    frequency:    0.7174787012
  - # 2
    frequency:    1.3822903552
  - # 3
    frequency:    1.6690534961
  - # 4
    frequency:    2.1872658912
  - # 5
    frequency:    2.4021374148
  - # 6
    frequency:    5.3415077558
  - # 7
    frequency:    5.6376276171
  - # 8
    frequency:    6.6910250298
  - # 9
    frequency:    8.9598684860
  - # 10
    frequency:    9.1744205691
  - # 11
    frequency:   10.3890860724
  - # 12
    frequency:   16.6489127580
  - # 13
    frequency:   17.4679456085
  - # 14
    frequency:   17.5679035620
  - # 15
    frequency:   28.3607278211
  - # 16
    frequency:   28.4407046707
  - # 17
    frequency:   29.6914338018
  - # 18
    frequency:   61.0943196976

- q-position: [    0.0808081,    0.0000000,    0.0000000 ]
  distance:    0.0299003
  band:
  - # 1
    frequency:    0.7759630653
  - # 2
    frequency:    1.4591462959
  - # 3
    frequency:    1.7895647189
  - # 4
    frequency:    2.2063549706
  - # 5
    frequency:    2.4403522121
  - # 6
    frequency:    5.3009747716
  - # 7
    frequency:    5.6438910334
  - # 8
    frequency:    6.7525428734
  - # 9
    frequency:    8.9521971414
  - # 10
    frequency:    9.1935812452
  - # 11
    frequency:   10.3907582158
  - # 12
    frequency:   16.6429814345
  - # 13
    frequency:   17.4670005418
  - # 14
    frequency:   17.5800686672
  - # 15
    frequency:   28.3536706359
  - # 16
    frequency:   28.4443815643
  - # 17
    frequency:   29.6825963367
  - # 18
    frequency:   61.0911506949

- q-position: [    0.0858586,    0.0000000,    0.0000000 ]
  distance:    0.0317691
  band:
  - # 1
    frequency:    0.8349266589
  - # 2
    frequency:    1.5313264812
  - # 3
    frequency:    1.9092741359
  - # 4
    frequency:    2.2295638524
  - # 5
    frequency:    2.4817244818
  - # 6
    frequency:    5.2586576736
  - # 7
    frequency:    5.6522056569
  - # 8
    frequency:    6.8144544535
  - # 9
    frequency:    8.9441389219
  - # 10
    frequency:    9.2133705615
  - # 11
    frequency:   10.3926540811
  - # 12
    frequency:   16.6365328253
  - # 13
    frequency:   17.4658524190
  - # 14
    frequency:   17.5926577349
  - # 15
    frequency:   28.3462081366
  - # 16
    frequency:   28.4482651169
  - # 17
    frequency:   29.6734396403
  - # 18
    frequency:   61.0878148519

- q-position: [    0.0909091,    0.0000000,    0.0000000 ]
  distance:    0.0336378
  band:
  - # 1
    frequency:    0.8942907747
  - # 2
    frequency:    1.5979712543
  - # 3
    frequency:    2.0267708709
  - # 4
    frequency:    2.2576893250
  - # 5
    frequency:    2.5273603559
  - # 6
    frequency:    5.2147346670
  - # 7
    frequency:    5.6627350685
  - # 8
    frequency:    6.8764320885
  - # 9
    frequency:    8.9357114389
  - # 10
    frequency:    9.2336764120
  - # 11
    frequency:   10.3947921254
  - # 12
    frequency:   16.6295645265
  - # 13
    frequency:   17.4644766614
  - # 14
    frequency:   17.6055974005
  - # 15
    frequency:   28.3383494694
  - # 16
    frequency:   28.4523476283
  - # 17
    frequency:   29.6640059902
  - # 18
    frequency:   61.0843186333

- q-position: [    0.0959596,    0.0000000,    0.0000000 ]
  distance:    0.0355066
  band:
  - # 1
    frequency:    0.9539798396
  - # 2
    frequency:    1.6582676894
  - # 3
    frequency:    2.1399569448
  - # 4
    frequency:    2.2914784881
  - # 5
    frequency:    2.5790636623
  - # 6
    frequency:    5.1694015376
  - # 7
    frequency:    5.6756274893
  - # 8
    frequency:    6.9381793756
  - # 9
    frequency:    8.9269327459
  - # 10
    frequency:    9.2543811650
  - # 11
    frequency:   10.3971904355
  - # 12
    frequency:   16.6220772379
  - # 13
    frequency:   17.4628478054
  - # 14
    frequency:   17.6188109971
  - # 15
    frequency:   28.3301042994
  - # 16
    frequency:   28.4566204135
  - # 17
    frequency:   29.6543388862
  - # 18
    frequency:   61.0806687285

- q-position: [    0.1010101,    0.0000000,    0.0000000 ]
  distance:    0.0373754
  band:
  - # 1
    frequency:    1.0139243177
  - # 2
    frequency:    1.7116058793
  - # 3
    frequency:    2.2458901130
  - # 4
    frequency:    2.3314717569
  - # 5
    frequency:    2.6394964434
  - # 6
    frequency:    5.1228728747
  - # 7
    frequency:    5.6910130365
  - # 8
    frequency:    6.9994318306
  - # 9
    frequency:    8.9178212831
  - # 10
    frequency:    9.2753622968
  - # 11
    frequency:   10.3998663031
  - # 12
    frequency:   16.6140745019
  - # 13
    frequency:   17.4609396044
  - # 14
    frequency:   17.6322193258
  - # 15
    frequency:   28.3214828139
  - # 16
    frequency:   28.4610737446
  - # 17
    frequency:   29.6444828531
  - # 18
    frequency:   61.0768720262

- q-position: [    0.1060606,    0.0000000,    0.0000000 ]
  distance:    0.0392441
  band:
  - # 1
    frequency:    1.0740627381
  - # 2
    frequency:    1.7577382640
  - # 3
    frequency:    2.3411603052
  - # 4
    frequency:    2.3778427014
  - # 5
    frequency:    2.7118047901
  - # 6
    frequency:    5.0753833837
  - # 7
    frequency:    5.7090013077
  - # 8
    frequency:    7.0599570447
  - # 9
    frequency:    8.9083958285
  - # 10
    frequency:    9.2964931924
  - # 11
    frequency:   10.4028357524
  - # 12
    frequency:   16.6055623978
  - # 13
    frequency:   17.4587251377
  - # 14
    frequency:   17.6457414490
  - # 15
    frequency:   28.3124957276
  - # 16
    frequency:   28.4656967969
  - # 17
    frequency:   29.6344832422
  - # 18
    frequency:   61.0729355892

- q-position: [    0.1111111,    0.0000000,    0.0000000 ]
  distance:    0.0411129
  band:
  - # 1
    frequency:    1.1343430527
  - # 2
    frequency:    1.7968621226
  - # 3
    frequency:    2.4233403259
  - # 4
    frequency:    2.4303145661
  - # 5
    frequency:    2.7981693586
  - # 6
    frequency:    5.0271892989
  - # 7
    frequency:    5.7296794060
  - # 8
    frequency:    7.1195544109
  - # 9
    frequency:    8.8986754530
  - # 10
    frequency:    9.3176441171
  - # 11
    frequency:   10.4061130293
  - # 12
    frequency:   16.5965492135
  - # 13
    frequency:   17.4561769251
  - # 14
    frequency:   17.6592954841
  - # 15
    frequency:   28.3031542882
  - # 16
    frequency:   28.4704776032
  - # 17
    frequency:   29.6243860312
  - # 18
    frequency:   61.0688666284

- q-position: [    0.1161616,    0.0000000,    0.0000000 ]
  distance:    0.0429817
  band:
  - # 1
    frequency:    1.1947234613
  - # 2
    frequency:    1.8295733194
  - # 3
    frequency:    2.4882053493
  - # 4
    frequency:    2.4926258528
  - # 5
    frequency:    2.8981656068
  - # 6
    frequency:    4.9785699016
  - # 7
    frequency:    5.7531104807
  - # 8
    frequency:    7.1780544748
  - # 9
    frequency:    8.8886794814
  - # 10
    frequency:    9.3386833562
  - # 11
    frequency:   10.4097100595
  - # 12
    frequency:   16.5870451126
  - # 13
    frequency:   17.4532670485
  - # 14
    frequency:   17.6727993770
  - # 15
    frequency:   28.2934702824
  - # 16
    frequency:   28.4754030163
  - # 17
    frequency:   29.6142376251
  - # 18
    frequency:   61.0646724772

- q-position: [    0.1212121,    0.0000000,    0.0000000 ]
  distance:    0.0448504
  band:
  - # 1
    frequency:    1.2551727965
  - # 2
    frequency:    1.8567175755
  - # 3
    frequency:    2.5505751317
  - # 4
    frequency:    2.5515618643
  - # 5
    frequency:    3.0090367363
  - # 6
    frequency:    4.9298291518
  - # 7
    frequency:    5.7793328302
  - # 8
    frequency:    7.2353179619
  - # 9
    frequency:    8.8784274571
  - # 10
    frequency:    9.3594785067
  - # 11
    frequency:   10.4136358951
  - # 12
    frequency:   16.5770618136
  - # 13
    frequency:   17.4499672807
  - # 14
    frequency:   17.6861716395
  - # 15
    frequency:   28.2834560426
  - # 16
    frequency:   28.4804586808
  - # 17
    frequency:   29.6040846569
  - # 18
    frequency:   61.0603605660

- q-position: [    0.1262626,    0.0000000,    0.0000000 ]
  distance:    0.0467192
  band:
  - # 1
    frequency:    1.3156705243
  - # 2
    frequency:    1.8792188760
  - # 3
    frequency:    2.6032682656
  - # 4
    frequency:    2.6163960144
  - # 5
    frequency:    3.1274667126
  - # 6
    frequency:    4.8812974334
  - # 7
    frequency:    5.8083595810
  - # 8
    frequency:    7.2912345341
  - # 9
    frequency:    8.8679391100
  - # 10
    frequency:    9.3798978941
  - # 11
    frequency:   10.4178961661
  - # 12
    frequency:   16.5666122916
  - # 13
    frequency:   17.4462492210
  - # 14
    frequency:   17.6993320399
  - # 15
    frequency:   28.2731244527
  - # 16
    frequency:   28.4856290157
  - # 17
    frequency:   29.5939737898
  - # 18
    frequency:   61.0559383967

- q-position: [    0.1313131,    0.0000000,    0.0000000 ]
  distance:    0.0485880
  band:
  - # 1
    frequency:    1.3762063966
  - # 2
    frequency:    1.8979506886
  - # 3
    frequency:    2.6502608447
  - # 4
    frequency:    2.6846789593
  - # 5
    frequency:    3.2507574041
  - # 6
    frequency:    4.8333334032
  - # 7
    frequency:    5.8401789244
  - # 8
    frequency:    7.3457213258
  - # 9
    frequency:    8.8572343275
  - # 10
    frequency:    9.3998120759
  - # 11
    frequency:   10.4224925645
  - # 12
    frequency:   16.5557105117
  - # 13
    frequency:   17.4420844385
  - # 14
    frequency:   17.7122022371
  - # 15
    frequency:   28.2624889529
  - # 16
    frequency:   28.4908972096
  - # 17
    frequency:   29.5839515210
  - # 18
    frequency:   61.0514135178

- q-position: [    0.1363636,    0.0000000,    0.0000000 ]
  distance:    0.0504567
  band:
  - # 1
    frequency:    1.4367797746
  - # 2
    frequency:    1.9136690980
  - # 3
    frequency:    2.6942618250
  - # 4
    frequency:    2.7545384233
  - # 5
    frequency:    3.3770157548
  - # 6
    frequency:    4.7863259126
  - # 7
    frequency:    5.8747548695
  - # 8
    frequency:    7.3987213057
  - # 9
    frequency:    8.8463331270
  - # 10
    frequency:    9.4190953832
  - # 11
    frequency:   10.4274223882
  - # 12
    frequency:   16.5443711981
  - # 13
    frequency:   17.4374446228
  - # 14
    frequency:   17.7247063546
  - # 15
    frequency:   28.2515635430
  - # 16
    frequency:   28.4962452287
  - # 17
    frequency:   29.5740639872
  - # 18
    frequency:   61.0467935003

- q-position: [    0.1414141,    0.0000000,    0.0000000 ]
  distance:    0.0523255
  band:
  - # 1
    frequency:    1.4973986385
  - # 2
    frequency:    1.9269943732
  - # 3
    frequency:    2.7363937206
  - # 4
    frequency:    2.8252082956
  - # 5
    frequency:    3.5049574725
  - # 6
    frequency:    4.7406959279
  - # 7
    frequency:    5.9120284461
  - # 8
    frequency:    7.4502015118
  - # 9
    frequency:    8.8352556300
  - # 10
    frequency:    9.4376274442
  - # 11
    frequency:   10.4326781774
  - # 12
    frequency:   16.5326096426
  - # 13
    frequency:   17.4323017415
  - # 14
    frequency:   17.7367714918
  - # 15
    frequency:   28.2403627829
  - # 16
    frequency:   28.5016538387
  - # 17
    frequency:   29.5643567731
  - # 18
    frequency:   61.0420859134

- q-position: [    0.1464646,    0.0000000,    0.0000000 ]
  distance:    0.0541943
  band:
  - # 1
    frequency:    1.5580782982
  - # 2
    frequency:    1.9384195658
  - # 3
    frequency:    2.7773914973
  - # 4
    frequency:    2.8960306453
  - # 5
    frequency:    3.6336924125
  - # 6
    frequency:    4.6968983005
  - # 7
    frequency:    5.9519192793
  - # 8
    frequency:    7.5001511977
  - # 9
    frequency:    8.8240220358
  - # 10
    frequency:    9.4552946315
  - # 11
    frequency:   10.4382474753
  - # 12
    frequency:   16.5204415522
  - # 13
    frequency:   17.4266282055
  - # 14
    frequency:   17.7483281729
  - # 15
    frequency:   28.2289017909
  - # 16
    frequency:   28.5071026427
  - # 17
    frequency:   29.5548747213
  - # 18
    frequency:   61.0372983020

- q-position: [    0.1515152,    0.0000000,    0.0000000 ]
  distance:    0.0560630
  band:
  - # 1
    frequency:    1.6188398236
  - # 2
    frequency:    1.9483298360
  - # 3
    frequency:    2.8177496298
  - # 4
    frequency:    2.9664338056
  - # 5
    frequency:    3.7625752312
  - # 6
    frequency:    4.6554231161
  - # 7
    frequency:    5.9943274480
  - # 8
    frequency:    7.5485799300
  - # 9
    frequency:    8.8126525957
  - # 10
    frequency:    9.4719913738
  - # 11
    frequency:   10.4441127429
  - # 12
    frequency:   16.5078829334
  - # 13
    frequency:   17.4203970399
  - # 14
    frequency:   17.7593107355
  - # 15
    frequency:   28.2171962377
  - # 16
    frequency:   28.5125701346
  - # 17
    frequency:   29.5456617443
  - # 18
    frequency:   61.0324381646

- q-position: [    0.1565657,    0.0000000,    0.0000000 ]
  distance:    0.0579318
  band:
  - # 1
    frequency:    1.6797082235
  - # 2
    frequency:    1.9570234389
  - # 3
    frequency:    2.8578124115
  - # 4
    frequency:    3.0359093013
  - # 5
    frequency:    3.8911130962
  - # 6
    frequency:    4.6167961404
  - # 7
    frequency:    6.0391355386
  - # 8
    frequency:    7.5955156655
  - # 9
    frequency:    8.8011675855
  - # 10
    frequency:    9.4876212801
  - # 11
    frequency:   10.4502514518
  - # 12
    frequency:   16.4949500124
  - # 13
    frequency:   17.4135820617
  - # 14
    frequency:   17.7696576596
  - # 15
    frequency:   28.2052623366
  - # 16
    frequency:   28.5180337687
  - # 17
    frequency:   29.5367606388
  - # 18
    frequency:   61.0275129320

- q-position: [    0.1616162,    0.0000000,    0.0000000 ]
  distance:    0.0598006
  band:
  - # 1
    frequency:    1.7407104105
  - # 2
    frequency:    1.9647304455
  - # 3
    frequency:    2.8978278368
  - # 4
    frequency:    3.1039922949
  - # 5
    frequency:    4.0189102436
  - # 6
    frequency:    4.5815775697
  - # 7
    frequency:    6.0862108101
  - # 8
    frequency:    7.6410028345
  - # 9
    frequency:    8.7895872778
  - # 10
    frequency:    9.5020980363
  - # 11
    frequency:   10.4566363715
  - # 12
    frequency:   16.4816591860
  - # 13
    frequency:   17.4061580624
  - # 14
    frequency:   17.7793118441
  - # 15
    frequency:   28.1931168286
  - # 16
    frequency:   28.5234700478
  - # 17
    frequency:   29.5282129019
  - # 18
    frequency:   61.0225299476

- q-position: [    0.1666667,    0.0000000,    0.0000000 ]
  distance:    0.0616693
  band:
  - # 1
    frequency:    1.8018729968
  - # 2
    frequency:    1.9716280751
  - # 3
    frequency:    2.9379800240
  - # 4
    frequency:    3.1702478869
  - # 5
    frequency:    4.1456344949
  - # 6
    frequency:    4.5503578438
  - # 7
    frequency:    6.1354073960
  - # 8
    frequency:    7.6851004468
  - # 9
    frequency:    8.7779319110
  - # 10
    frequency:    9.5153460458
  - # 11
    frequency:   10.4632360542
  - # 12
    frequency:   16.4680269993
  - # 13
    frequency:   17.3981009949
  - # 14
    frequency:   17.7882208312
  - # 15
    frequency:   28.1807769631
  - # 16
    frequency:   28.5288546277
  - # 17
    frequency:   29.5200585483
  - # 18
    frequency:   61.0174964486

- q-position: [    0.1717172,    0.0000000,    0.0000000 ]
  distance:    0.0635381
  band:
  - # 1
    frequency:    1.8632199765
  - # 2
    frequency:    1.9778527540
  - # 3
    frequency:    2.9784092866
  - # 4
    frequency:    3.2342649299
  - # 5
    frequency:    4.2709966683
  - # 6
    frequency:    4.5237487277
  - # 7
    frequency:    6.1865684783
  - # 8
    frequency:    7.7278802310
  - # 9
    frequency:    8.7662216576
  - # 10
    frequency:    9.5273008073
  - # 11
    frequency:   10.4700155075
  - # 12
    frequency:   16.4540701453
  - # 13
    frequency:   17.3893881631
  - # 14
    frequency:   17.7963369848
  - # 15
    frequency:   28.1682604722
  - # 16
    frequency:   28.5341624402
  - # 17
    frequency:   29.5123359286
  - # 18
    frequency:   61.0124195482

- q-position: [    0.1767677,    0.0000000,    0.0000000 ]
  distance:    0.0654069
  band:
  - # 1
    frequency:    1.9247703521
  - # 2
    frequency:    1.9835094539
  - # 3
    frequency:    3.0192250995
  - # 4
    frequency:    3.2956591197
  - # 5
    frequency:    4.3947376551
  - # 6
    frequency:    4.5023673424
  - # 7
    frequency:    6.2395283830
  - # 8
    frequency:    7.7694248073
  - # 9
    frequency:    8.7544765901
  - # 10
    frequency:    9.5379090372
  - # 11
    frequency:   10.4769370324
  - # 12
    frequency:   16.4398054823
  - # 13
    frequency:   17.3799984140
  - # 14