nqpoint: 300    
npath: 3      
segment_nqpoint:
- 100
- 100
- 100
labels:
- [ 'G', 'M' ]
- [ 'M', 'K' ]
- [ 'K', 'G' ]
reciprocal_lattice:
- [   0.30568496,   0.17648729,   0.00000000 ] # a*
- [   0.00000000,   0.35297458,   0.00000000 ] # b*
- [   0.00000000,   0.00000000,   0.03614923 ] # c*
natom: 8      
lattice:
- [     3.271341878256552,     0.000000000000000,     0.000000000000000 ] # a
- [    -1.635670939128276,     2.833065171030928,     0.000000000000000 ] # b
- [     0.000000000000000,     0.000000000000000,    27.663110093246932 ] # c
points:
- symbol: C # 1
  coordinates: [  0.666666984744047,  0.333332985985145,  0.368278054751673 ]
  mass: 12.010700
- symbol: N # 2
  coordinates: [  0.000000000000000,  0.000000000000000,  0.504648996447452 ]
  mass: 14.006700
- symbol: N # 3
  coordinates: [  0.666666984744047,  0.333332985985145,  0.325343027940921 ]
  mass: 14.006700
- symbol: O # 4
  coordinates: [  0.333332985432215,  0.666666983183674,  0.674656972059079 ]
  mass: 15.999400
- symbol: O # 5
  coordinates: [  0.666666984744047,  0.333332985985145,  0.416646744836857 ]
  mass: 15.999400
- symbol: P # 6
  coordinates: [  0.333332985432215,  0.666666983183674,  0.620677483396620 ]
  mass: 30.973762
- symbol: Sc # 7
  coordinates: [  0.333332985432215,  0.666666983183674,  0.462197270177057 ]
  mass: 44.955912
- symbol: Sc # 8
  coordinates: [  0.666666984744047,  0.333332985985145,  0.549157908865508 ]
  mass: 44.955912

phonon:
- q-position: [    0.0000000,    0.0000000,    0.0000000 ]
  distance:    0.0000000
  band:
  - # 1
    frequency:   -0.0000112257
  - # 2
    frequency:   -0.0000002458
  - # 3
    frequency:    0.0000097336
  - # 4
    frequency:    1.0374330403
  - # 5
    frequency:    1.0374330403
  - # 6
    frequency:    3.1766625409
  - # 7
    frequency:    3.1766625409
  - # 8
    frequency:    5.2684262442
  - # 9
    frequency:    5.2684262442
  - # 10
    frequency:    5.3636017614
  - # 11
    frequency:    5.5718622411
  - # 12
    frequency:    5.5718622411
  - # 13
    frequency:    7.7446988438
  - # 14
    frequency:    7.7446988438
  - # 15
    frequency:    8.7032919301
  - # 16
    frequency:   11.5028628297
  - # 17
    frequency:   13.8418983506
  - # 18
    frequency:   13.8418983507
  - # 19
    frequency:   14.1191154926
  - # 20
    frequency:   14.1191154926
  - # 21
    frequency:   15.0664596295
  - # 22
    frequency:   32.0770126860
  - # 23
    frequency:   34.1795831282
  - # 24
    frequency:   68.0590170078

- q-position: [    0.0050505,    0.0000000,    0.0000000 ]
  distance:    0.0017827
  band:
  - # 1
    frequency:    0.0016610764
  - # 2
    frequency:    0.0551856098
  - # 3
    frequency:    0.1090618636
  - # 4
    frequency:    1.0381431670
  - # 5
    frequency:    1.0407123398
  - # 6
    frequency:    3.1761883517
  - # 7
    frequency:    3.1765871506
  - # 8
    frequency:    5.2675470884
  - # 9
    frequency:    5.2677708191
  - # 10
    frequency:    5.3618003834
  - # 11
    frequency:    5.5720598160
  - # 12
    frequency:    5.5741591514
  - # 13
    frequency:    7.7447700591
  - # 14
    frequency:    7.7450186373
  - # 15
    frequency:    8.7033320236
  - # 16
    frequency:   11.5020400106
  - # 17
    frequency:   13.8419512641
  - # 18
    frequency:   13.8420593881
  - # 19
    frequency:   14.1190753129
  - # 20
    frequency:   14.1192171786
  - # 21
    frequency:   15.0661812145
  - # 22
    frequency:   32.0764968817
  - # 23
    frequency:   34.1794100944
  - # 24
    frequency:   68.0587357961

- q-position: [    0.0101010,    0.0000000,    0.0000000 ]
  distance:    0.0035654
  band:
  - # 1
    frequency:    0.0065892183
  - # 2
    frequency:    0.1103054611
  - # 3
    frequency:    0.2178239382
  - # 4
    frequency:    1.0402656379
  - # 5
    frequency:    1.0504678422
  - # 6
    frequency:    3.1747645607
  - # 7
    frequency:    3.1763697709
  - # 8
    frequency:    5.2648977927
  - # 9
    frequency:    5.2658359942
  - # 10
    frequency:    5.3565297231
  - # 11
    frequency:    5.5726694429
  - # 12
    frequency:    5.5808919407
  - # 13
    frequency:    7.7449832311
  - # 14
    frequency:    7.7459760800
  - # 15
    frequency:    8.7034539912
  - # 16
    frequency:   11.4995736235
  - # 17
    frequency:   13.8421099425
  - # 18
    frequency:   13.8425418817
  - # 19
    frequency:   14.1189551806
  - # 20
    frequency:   14.1195217996
  - # 21
    frequency:   15.0653464045
  - # 22
    frequency:   32.0749507252
  - # 23
    frequency:   34.1788912128
  - # 24
    frequency:   68.0578927749

- q-position: [    0.0151515,    0.0000000,    0.0000000 ]
  distance:    0.0053481
  band:
  - # 1
    frequency:    0.0146292299
  - # 2
    frequency:    0.1652921252
  - # 3
    frequency:    0.3259819003
  - # 4
    frequency:    1.0437767383
  - # 5
    frequency:    1.0664604472
  - # 6
    frequency:    3.1723876088
  - # 7
    frequency:    3.1760378230
  - # 8
    frequency:    5.2604450067
  - # 9
    frequency:    5.2626978579
  - # 10
    frequency:    5.3481418519
  - # 11
    frequency:    5.5737397277
  - # 12
    frequency:    5.5916533555
  - # 13
    frequency:    7.7453369409
  - # 14
    frequency:    7.7475653634
  - # 15
    frequency:    8.7036628978
  - # 16
    frequency:   11.4954698622
  - # 17
    frequency:   13.8423741997
  - # 18
    frequency:   13.8433439710
  - # 19
    frequency:   14.1187563315
  - # 20
    frequency:   14.1200280457
  - # 21
    frequency:   15.0639565041
  - # 22
    frequency:   32.0723779816
  - # 23
    frequency:   34.1780271418
  - # 24
    frequency:   68.0564897828

- q-position: [    0.0202020,    0.0000000,    0.0000000 ]
  distance:    0.0071308
  band:
  - # 1
    frequency:    0.0255365999
  - # 2
    frequency:    0.2200747755
  - # 3
    frequency:    0.4332225593
  - # 4
    frequency:    1.0486369799
  - # 5
    frequency:    1.0883161868
  - # 6
    frequency:    3.1690519414
  - # 7
    frequency:    3.1756405084
  - # 8
    frequency:    5.2541399282
  - # 9
    frequency:    5.2584213796
  - # 10
    frequency:    5.3371209652
  - # 11
    frequency:    5.5753450071
  - # 12
    frequency:    5.6059289380
  - # 13
    frequency:    7.7458288318
  - # 14
    frequency:    7.7497768240
  - # 15
    frequency:    8.7039671970
  - # 16
    frequency:   11.4897389923
  - # 17
    frequency:   13.8427437280
  - # 18
    frequency:   13.8444625423
  - # 19
    frequency:   14.1184808778
  - # 20
    frequency:   14.1207337392
  - # 21
    frequency:   15.0620136851
  - # 22
    frequency:   32.0687849138
  - # 23
    frequency:   34.1768189775
  - # 24
    frequency:   68.0545298780

- q-position: [    0.0252525,    0.0000000,    0.0000000 ]
  distance:    0.0089135
  band:
  - # 1
    frequency:    0.0389944433
  - # 2
    frequency:    0.2745773440
  - # 3
    frequency:    0.5392199683
  - # 4
    frequency:    1.0547911319
  - # 5
    frequency:    1.1155556509
  - # 6
    frequency:    3.1647506008
  - # 7
    frequency:    3.1752540742
  - # 8
    frequency:    5.2459273451
  - # 9
    frequency:    5.2529594298
  - # 10
    frequency:    5.3240639141
  - # 11
    frequency:    5.5775764623
  - # 12
    frequency:    5.6232172829
  - # 13
    frequency:    7.7464556222
  - # 14
    frequency:    7.7525969696
  - # 15
    frequency:    8.7043787473
  - # 16
    frequency:   11.4823952674
  - # 17
    frequency:   13.8432181007
  - # 18
    frequency:   13.8458932092
  - # 19
    frequency:   14.1181318838
  - # 20
    frequency:   14.1216358427
  - # 21
    frequency:   15.0595209841
  - # 22
    frequency:   32.0641802637
  - # 23
    frequency:   34.1752682514
  - # 24
    frequency:   68.0520173280

- q-position: [    0.0303030,    0.0000000,    0.0000000 ]
  distance:    0.0106962
  band:
  - # 1
    frequency:    0.0546272673
  - # 2
    frequency:    0.3287164779
  - # 3
    frequency:    0.6436322851
  - # 4
    frequency:    1.0621682232
  - # 5
    frequency:    1.1476237307
  - # 6
    frequency:    3.1594761095
  - # 7
    frequency:    3.1749891848
  - # 8
    frequency:    5.2357561875
  - # 9
    frequency:    5.2459851049
  - # 10
    frequency:    5.3097891061
  - # 11
    frequency:    5.5805317722
  - # 12
    frequency:    5.6430885684
  - # 13
    frequency:    7.7472131225
  - # 14
    frequency:    7.7560085192
  - # 15
    frequency:    8.7049128323
  - # 16
    frequency:   11.4734568127
  - # 17
    frequency:   13.8437967763
  - # 18
    frequency:   13.8476302864
  - # 19
    frequency:   14.1177134708
  - # 20
    frequency:   14.1227304707
  - # 21
    frequency:   15.0564822972
  - # 22
    frequency:   32.0585752265
  - # 23
    frequency:   34.1733769282
  - # 24
    frequency:   68.0489575955

- q-position: [    0.0353535,    0.0000000,    0.0000000 ]
  distance:    0.0124789
  band:
  - # 1
    frequency:    0.0720073031
  - # 2
    frequency:    0.3823991847
  - # 3
    frequency:    0.7460997034
  - # 4
    frequency:    1.0706814972
  - # 5
    frequency:    1.1839138533
  - # 6
    frequency:    3.1532217002
  - # 7
    frequency:    3.1750003272
  - # 8
    frequency:    5.2235898986
  - # 9
    frequency:    5.2366638566
  - # 10
    frequency:    5.2955526911
  - # 11
    frequency:    5.5843049822
  - # 12
    frequency:    5.6651959674
  - # 13
    frequency:    7.7480962575
  - # 14
    frequency:    7.7599904578
  - # 15
    frequency:    8.7055881814
  - # 16
    frequency:   11.4629454795
  - # 17
    frequency:   13.8444791034
  - # 18
    frequency:   13.8496667565
  - # 19
    frequency:   14.1172309458
  - # 20
    frequency:   14.1240129042
  - # 21
    frequency:   15.0529023750
  - # 22
    frequency:   32.0519834171
  - # 23
    frequency:   34.1711474015
  - # 24
    frequency:   68.0453573211

- q-position: [    0.0404040,    0.0000000,    0.0000000 ]
  distance:    0.0142616
  band:
  - # 1
    frequency:    0.0906503290
  - # 2
    frequency:    0.4355199971
  - # 3
    frequency:    0.8462435290
  - # 4
    frequency:    1.0802283245
  - # 5
    frequency:    1.2237838465
  - # 6
    frequency:    3.1459829646
  - # 7
    frequency:    3.1754970134
  - # 8
    frequency:    5.2094150824
  - # 9
    frequency:    5.2236388144
  - # 10
    frequency:    5.2830730162
  - # 11
    frequency:    5.5889781111
  - # 12
    frequency:    5.6892655849
  - # 13
    frequency:    7.7490990937
  - # 14
    frequency:    7.7645181101
  - # 15
    frequency:    8.7064269874
  - # 16
    frequency:   11.4508866731
  - # 17
    frequency:   13.8452643264
  - # 18
    frequency:   13.8519942321
  - # 19
    frequency:   14.1166909506
  - # 20
    frequency:   14.1254776086
  - # 21
    frequency:   15.0487868158
  - # 22
    frequency:   32.0444208299
  - # 23
    frequency:   34.1685824902
  - # 24
    frequency:   68.0412243015

- q-position: [    0.0454545,    0.0000000,    0.0000000 ]
  distance:    0.0160443
  band:
  - # 1
    frequency:    0.1099988571
  - # 2
    frequency:    0.4879574004
  - # 3
    frequency:    0.9436655042
  - # 4
    frequency:    1.0906901420
  - # 5
    frequency:    1.2665643392
  - # 6
    frequency:    3.1377600140
  - # 7
    frequency:    3.1767562409
  - # 8
    frequency:    5.1932473983
  - # 9
    frequency:    5.2058311088
  - # 10
    frequency:    5.2737454227
  - # 11
    frequency:    5.5946155018
  - # 12
    frequency:    5.7150810609
  - # 13
    frequency:    7.7502148708
  - # 14
    frequency:    7.7695632356
  - # 15
    frequency:    8.7074549161
  - # 16
    frequency:   11.4373091565
  - # 17
    frequency:   13.8461515920
  - # 18
    frequency:   13.8546029128
  - # 19
    frequency:   14.1161016281
  - # 20
    frequency:   14.1271182545
  - # 21
    frequency:   15.0441420584
  - # 22
    frequency:   32.0359057908
  - # 23
    frequency:   34.1656854326
  - # 24
    frequency:   68.0365674645

- q-position: [    0.0505051,    0.0000000,    0.0000000 ]
  distance:    0.0178270
  band:
  - # 1
    frequency:    0.1293898783
  - # 2
    frequency:    0.5395691144
  - # 3
    frequency:    1.0379436592
  - # 4
    frequency:    1.1019326054
  - # 5
    frequency:    1.3115656740
  - # 6
    frequency:    3.1285602596
  - # 7
    frequency:    3.1791351431
  - # 8
    frequency:    5.1751343811
  - # 9
    frequency:    5.1833696275
  - # 10
    frequency:    5.2677263432
  - # 11
    frequency:    5.6012612058
  - # 12
    frequency:    5.7424694553
  - # 13
    frequency:    7.7514360375
  - # 14
    frequency:    7.7750941516
  - # 15
    frequency:    8.7087011009
  - # 16
    frequency:   11.4222448330
  - # 17
    frequency:   13.8471399558
  - # 18
    frequency:   13.8574815411
  - # 19
    frequency:   14.1154727977
  - # 20
    frequency:   14.1289277420
  - # 21
    frequency:   15.0389753737
  - # 22
    frequency:   32.0264589027
  - # 23
    frequency:   34.1624598807
  - # 24
    frequency:   68.0313968398

- q-position: [    0.0555556,    0.0000000,    0.0000000 ]
  distance:    0.0196097
  band:
  - # 1
    frequency:    0.1480013197
  - # 2
    frequency:    0.5901855714
  - # 3
    frequency:    1.1138063540
  - # 4
    frequency:    1.1286138531
  - # 5
    frequency:    1.3580982100
  - # 6
    frequency:    3.1184019348
  - # 7
    frequency:    3.1830819423
  - # 8
    frequency:    5.1551555104
  - # 9
    frequency:    5.1571370390
  - # 10
    frequency:    5.2643981780
  - # 11
    frequency:    5.6089390392
  - # 12
    frequency:    5.7712900970
  - # 13
    frequency:    7.7527542929
  - # 14
    frequency:    7.7810758884
  - # 15
    frequency:    8.7101981166
  - # 16
    frequency:   11.4057285129
  - # 17
    frequency:   13.8482283890
  - # 18
    frequency:   13.8606173585
  - # 19
    frequency:   14.1148161344
  - # 20
    frequency:   14.1308982282
  - # 21
    frequency:   15.0332948564
  - # 22
    frequency:   32.0161029834
  - # 23
    frequency:   34.1589098937
  - # 24
    frequency:   68.0257235270

- q-position: [    0.0606061,    0.0000000,    0.0000000 ]
  distance:    0.0213924
  band:
  - # 1
    frequency:    0.1647643098
  - # 2
    frequency:    0.6396005216
  - # 3
    frequency:    1.1261491605
  - # 4
    frequency:    1.2151095976
  - # 5
    frequency:    1.4055390418
  - # 6
    frequency:    3.1073184884
  - # 7
    frequency:    3.1891422009
  - # 8
    frequency:    5.1279695782
  - # 9
    frequency:    5.1334202513
  - # 10
    frequency:    5.2631775858
  - # 11
    frequency:    5.6176545454
  - # 12
    frequency:    5.8014262492
  - # 13
    frequency:    7.7541606304
  - # 14
    frequency:    7.7874703844
  - # 15
    frequency:    8.7119819229
  - # 16
    frequency:   11.3877976664
  - # 17
    frequency:   13.8494157857
  - # 18
    frequency:   13.8639960667
  - # 19
    frequency:   14.1141453425
  - # 20
    frequency:   14.1330211565
  - # 21
    frequency:   15.0271094175
  - # 22
    frequency:   32.0048629978
  - # 23
    frequency:   34.1550399300
  - # 24
    frequency:   68.0195596601

- q-position: [    0.0656566,    0.0000000,    0.0000000 ]
  distance:    0.0231751
  band:
  - # 1
    frequency:    0.1782122226
  - # 2
    frequency:    0.6875570228
  - # 3
    frequency:    1.1387908630
  - # 4
    frequency:    1.2965982487
  - # 5
    frequency:    1.4535142353
  - # 6
    frequency:    3.0953639661
  - # 7
    frequency:    3.1979561069
  - # 8
    frequency:    5.0964653638
  - # 9
    frequency:    5.1100648826
  - # 10
    frequency:    5.2637129854
  - # 11
    frequency:    5.6273979971
  - # 12
    frequency:    5.8327789859
  - # 13
    frequency:    7.7556453868
  - # 14
    frequency:    7.7942367273
  - # 15
    frequency:    8.7140917683
  - # 16
    frequency:   11.3684921669
  - # 17
    frequency:   13.8507009689
  - # 18
    frequency:   13.8676017981
  - # 19
    frequency:   14.1134763155
  - # 20
    frequency:   14.1352872905
  - # 21
    frequency:   15.0204287768
  - # 22
    frequency:   31.9927659820
  - # 23
    frequency:   34.1508548394
  - # 24
    frequency:   68.0129183681

- q-position: [    0.0707071,    0.0000000,    0.0000000 ]
  distance:    0.0249578
  band:
  - # 1
    frequency:    0.1861954687
  - # 2
    frequency:    0.7337260035
  - # 3
    frequency:    1.1515634905
  - # 4
    frequency:    1.3716089146
  - # 5
    frequency:    1.5023096583
  - # 6
    frequency:    3.0826194611
  - # 7
    frequency:    3.2102416283
  - # 8
    frequency:    5.0630586464
  - # 9
    frequency:    5.0852487928
  - # 10
    frequency:    5.2658144019
  - # 11
    frequency:    5.6381477033
  - # 12
    frequency:    5.8652626956
  - # 13
    frequency:    7.7571982946
  - # 14
    frequency:    7.8013314502
  - # 15
    frequency:    8.7165700447
  - # 16
    frequency:   11.3478540295
  - # 17
    frequency:   13.8520826974
  - # 18
    frequency:   13.8714171050
  - # 19
    frequency:   14.1128272679
  - # 20
    frequency:   14.1376867490
  - # 21
    frequency:   15.0132634575
  - # 22
    frequency:   31.9798409623
  - # 23
    frequency:   34.1463598537
  - # 24
    frequency:   68.0058137334

- q-position: [    0.0757576,    0.0000000,    0.0000000 ]
  distance:    0.0267405
  band:
  - # 1
    frequency:    0.1852571828
  - # 2
    frequency:    0.7776730106
  - # 3
    frequency:    1.1643204959
  - # 4
    frequency:    1.4375053480
  - # 5
    frequency:    1.5534655848
  - # 6
    frequency:    3.0692006312
  - # 7
    frequency:    3.2267587585
  - # 8
    frequency:    5.0280988597
  - # 9
    frequency:    5.0591506896
  - # 10
    frequency:    5.2693771714
  - # 11
    frequency:    5.6498731203
  - # 12
    frequency:    5.8988017571
  - # 13
    frequency:    7.7588085376
  - # 14
    frequency:    7.8087088913
  - # 15
    frequency:    8.7194620820
  - # 16
    frequency:   11.3259271476
  - # 17
    frequency:   13.8535596710
  - # 18
    frequency:   13.8754229742
  - # 19
    frequency:   14.1122188270
  - # 20
    frequency:   14.1402090446
  - # 21
    frequency:   15.0056247837
  - # 22
    frequency:   31.9661188670
  - # 23
    frequency:   34.1415605768
  - # 24
    frequency:   67.9982607472

- q-position: [    0.0808081,    0.0000000,    0.0000000 ]
  distance:    0.0285232
  band:
  - # 1
    frequency:    0.1688883115
  - # 2
    frequency:    0.8188068444
  - # 3
    frequency:    1.1769708252
  - # 4
    frequency:    1.4909222052
  - # 5
    frequency:    1.6094424609
  - # 6
    frequency:    3.0552661303
  - # 7
    frequency:    3.2482529254
  - # 8
    frequency:    4.9918961608
  - # 9
    frequency:    5.0319649341
  - # 10
    frequency:    5.2743380783
  - # 11
    frequency:    5.6625375024
  - # 12
    frequency:    5.9333280620
  - # 13
    frequency:    7.7604648100
  - # 14
    frequency:    7.8163216240
  - # 15
    frequency:    8.7228158710
  - # 16
    frequency:   11.3027570316
  - # 17
    frequency:   13.8551305357
  - # 18
    frequency:   13.8795988814
  - # 19
    frequency:   14.1116740669
  - # 20
    frequency:   14.1428431240
  - # 21
    frequency:   14.9975248820
  - # 22
    frequency:   31.9516324327
  - # 23
    frequency:   34.1364629744
  - # 24
    frequency:   67.9902752617

- q-position: [    0.0858586,    0.0000000,    0.0000000 ]
  distance:    0.0303059
  band:
  - # 1
    frequency:    0.1194248972
  - # 2
    frequency:    0.8563028305
  - # 3
    frequency:    1.1895343280
  - # 4
    frequency:    1.5304674245
  - # 5
    frequency:    1.6710540168
  - # 6
    frequency:    3.0410265592
  - # 7
    frequency:    3.2753815827
  - # 8
    frequency:    4.9547442657
  - # 9
    frequency:    5.0038980401
  - # 10
    frequency:    5.2806532869
  - # 11
    frequency:    5.6761000062
  - # 12
    frequency:    5.9687791549
  - # 13
    frequency:    7.7621553780
  - # 14
    frequency:    7.8241209665
  - # 15
    frequency:    8.7266817071
  - # 16
    frequency:   11.2783905538
  - # 17
    frequency:   13.8567938875
  - # 18
    frequency:   13.8839229001
  - # 19
    frequency:   14.1112184648
  - # 20
    frequency:   14.1455774114
  - # 21
    frequency:   14.9889766880
  - # 22
    frequency:   31.9364161046
  - # 23
    frequency:   34.1310733628
  - # 24
    frequency:   67.9818739400

- q-position: [    0.0909091,    0.0000000,    0.0000000 ]
  distance:    0.0320886
  band:
  - # 1
    frequency:   -0.1118541182
  - # 2
    frequency:    0.8889980490
  - # 3
    frequency:    1.2022201051
  - # 4
    frequency:    1.5578111480
  - # 5
    frequency:    1.7365346510
  - # 6
    frequency:    3.0267531817
  - # 7
    frequency:    3.3086358259
  - # 8
    frequency:    4.9169310262
  - # 9
    frequency:    4.9751652851
  - # 10
    frequency:    5.2882877467
  - # 11
    frequency:    5.6905172747
  - # 12
    frequency:    6.0050968325
  - # 13
    frequency:    7.7638681437
  - # 14
    frequency:    7.8320575742
  - # 15
    frequency:    8.7311117444
  - # 16
    frequency:   11.2528757019
  - # 17
    frequency:   13.8585482762
  - # 18
    frequency:   13.8883718833
  - # 19
    frequency:   14.1108797567
  - # 20
    frequency:   14.1483998534
  - # 21
    frequency:   14.9799939601
  - # 22
    frequency:   31.9205059311
  - # 23
    frequency:   34.1253983966
  - # 24
    frequency:   67.9730742043

- q-position: [    0.0959596,    0.0000000,    0.0000000 ]
  distance:    0.0338713
  band:
  - # 1
    frequency:   -0.2388763879
  - # 2
    frequency:    0.9152763831
  - # 3
    frequency:    1.2155081089
  - # 4
    frequency:    1.5755262023
  - # 5
    frequency:    1.8038478384
  - # 6
    frequency:    3.0127851752
  - # 7
    frequency:    3.3482748503
  - # 8
    frequency:    4.8787425621
  - # 9
    frequency:    4.9459873481
  - # 10
    frequency:    5.2972103812
  - # 11
    frequency:    5.7057445784
  - # 12
    frequency:    6.0422260899
  - # 13
    frequency:    7.7655907113
  - # 14
    frequency:    7.8400821203
  - # 15
    frequency:    8.7361594573
  - # 16
    frequency:   11.2262613457
  - # 17
    frequency:   13.8603922072
  - # 18
    frequency:   13.8929217378
  - # 19
    frequency:   14.1106876687
  - # 20
    frequency:   14.1512979655
  - # 21
    frequency:   14.9705913033
  - # 22
    frequency:   31.9039394535
  - # 23
    frequency:   34.1194450563
  - # 24
    frequency:   67.9638941809

- q-position: [    0.1010101,    0.0000000,    0.0000000 ]
  distance:    0.0356540
  band:
  - # 1
    frequency:   -0.3548648063
  - # 2
    frequency:    0.9330072565
  - # 3
    frequency:    1.2301666346
  - # 4
    frequency:    1.5860596651
  - # 5
    frequency:    1.8718101004
  - # 6
    frequency:    2.9995336374
  - # 7
    frequency:    3.3942906266
  - # 8
    frequency:    4.8404639624
  - # 9
    frequency:    4.9165869039
  - # 10
    frequency:    5.3073922076
  - # 11
    frequency:    5.7217366092
  - # 12
    frequency:    6.0801143330
  - # 13
    frequency:    7.7673104550
  - # 14
    frequency:    7.8481460613
  - # 15
    frequency:    8.7418790069
  - # 16
    frequency:   11.1985970194
  - # 17
    frequency:   13.8623241428
  - # 18
    frequency:   13.8975478154
  - # 19
    frequency:   14.1106734958
  - # 20
    frequency:   14.1542588810
  - # 21
    frequency:   14.9607842031
  - # 22
    frequency:   31.8867555907
  - # 23
    frequency:   34.1132206351
  - # 24
    frequency:   67.9543526442

- q-position: [    0.1060606,    0.0000000,    0.0000000 ]
  distance:    0.0374367
  band:
  - # 1
    frequency:   -0.4761450559
  - # 2
    frequency:    0.9396390727
  - # 3
    frequency:    1.2470974425
  - # 4
    frequency:    1.5919364239
  - # 5
    frequency:    1.9398687482
  - # 6
    frequency:    2.9874800861
  - # 7
    frequency:    3.4464116619
  - # 8
    frequency:    4.8023782132
  - # 9
    frequency:    4.8871851467
  - # 10
    frequency:    5.3188059527
  - # 11
    frequency:    5.7384480143
  - # 12
    frequency:    6.1187107975
  - # 13
    frequency:    7.7690145875
  - # 14
    frequency:    7.8562024818
  - # 15
    frequency:    8.7483245180
  - # 16
    frequency:   11.1699327213
  - # 17
    frequency:   13.8643425028
  - # 18
    frequency:   13.9022254383
  - # 19
    frequency:   14.1108695054
  - # 20
    frequency:   14.1572694008
  - # 21
    frequency:   14.9505890745
  - # 22
    frequency:   31.8689945185
  - # 23
    frequency:   34.1067327251
  - # 24
    frequency:   67.9444689585

- q-position: [    0.1111111,    0.0000000,    0.0000000 ]
  distance:    0.0392194
  band:
  - # 1
    frequency:   -0.6061736202
  - # 2
    frequency:    0.9324519956
  - # 3
    frequency:    1.2669880671
  - # 4
    frequency:    1.5958907169
  - # 5
    frequency:    2.0077797828
  - # 6
    frequency:    2.9771670077
  - # 7
    frequency:    3.5041419082
  - # 8
    frequency:    4.7647644173
  - # 9
    frequency:    4.8579982710
  - # 10
    frequency:    5.3314264278
  - # 11
    frequency:    5.7558337445
  - # 12
    frequency:    6.1579661296
  - # 13
    frequency:    7.7706902303
  - # 14
    frequency:    7.8642070069
  - # 15
    frequency:    8.7555492765
  - # 16
    frequency:   11.1403187354
  - # 17
    frequency:   13.8664456631
  - # 18
    frequency:   13.9069305760
  - # 19
    frequency:   14.1113081465
  - # 20
    frequency:   14.1603160449
  - # 21
    frequency:   14.9400233279
  - # 22
    frequency:   31.8506975462
  - # 23
    frequency:   34.0999892026
  - # 24
    frequency:   67.9342630189

- q-position: [    0.1161616,    0.0000000,    0.0000000 ]
  distance:    0.0410021
  band:
  - # 1
    frequency:   -0.7453382809
  - # 2
    frequency:    0.9087096307
  - # 3
    frequency:    1.2899959424
  - # 4
    frequency:    1.6006696472
  - # 5
    frequency:    2.0754335481
  - # 6
    frequency:    2.9691784957
  - # 7
    frequency:    3.5668206331
  - # 8
    frequency:    4.7278961689
  - # 9
    frequency:    4.8292339858
  - # 10
    frequency:    5.3452312628
  - # 11
    frequency:    5.7738492748
  - # 12
    frequency:    6.1978320919
  - # 13
    frequency:    7.7723244832
  - # 14
    frequency:    7.8721187622
  - # 15
    frequency:    8.7636048649
  - # 16
    frequency:   11.1098054760
  - # 17
    frequency:   13.8686319548
  - # 18
    frequency:   13.9116406754
  - # 19
    frequency:   14.1120210562
  - # 20
    frequency:   14.1633851047
  - # 21
    frequency:   14.9291054545
  - # 22
    frequency:   31.8319069872
  - # 23
    frequency:   34.0929982138
  - # 24
    frequency:   67.9237551903

- q-position: [    0.1212121,    0.0000000,    0.0000000 ]
  distance:    0.0427848
  band:
  - # 1
    frequency:   -0.8924981413
  - # 2
    frequency:    0.8653450489
  - # 3
    frequency:    1.3157428844
  - # 4
    frequency:    1.6086542272
  - # 5
    frequency:    2.1427754620
  - # 6
    frequency:    2.9641104597
  - # 7
    frequency:    3.6336859355
  - # 8
    frequency:    4.6920409821
  - # 9
    frequency:    4.8010881902
  - # 10
    frequency:    5.3602017761
  - # 11
    frequency:    5.7924507386
  - # 12
    frequency:    6.2382613642
  - # 13
    frequency:    7.7739044947
  - # 14
    frequency:    7.8799013563
  - # 15
    frequency:    8.7725402604
  - # 16
    frequency:   11.0784433579
  - # 17
    frequency:   13.8708996610
  - # 18
    frequency:   13.9163356319
  - # 19
    frequency:   14.1130378755
  - # 20
    frequency:   14.1664626960
  - # 21
    frequency:   14.9178551368
  - # 22
    frequency:   31.8126660284
  - # 23
    frequency:   34.0857681590
  - # 24
    frequency:   67.9129662459

- q-position: [    0.1262626,    0.0000000,    0.0000000 ]
  distance:    0.0445675
  band:
  - # 1
    frequency:   -1.0456899273
  - # 2
    frequency:    0.7979970875
  - # 3
    frequency:    1.3435747521
  - # 4
    frequency:    1.6215256684
  - # 5
    frequency:    2.2097716680
  - # 6
    frequency:    2.9625323234
  - # 7
    frequency:    3.7039279691
  - # 8
    frequency:    4.6574619429
  - # 9
    frequency:    4.7737419572
  - # 10
    frequency:    5.3763238444
  - # 11
    frequency:    5.8115950072
  - # 12
    frequency:    6.2792074141
  - # 13
    frequency:    7.7754175311
  - # 14
    frequency:    7.8875238558
  - # 15
    frequency:    8.7824009249
  - # 16
    frequency:   11.0462826930
  - # 17
    frequency:   13.8732470135
  - # 18
    frequency:   13.9209988622
  - # 19
    frequency:   14.1143849059
  - # 20
    frequency:   14.1695348132
  - # 21
    frequency:   14.9062933862
  - # 22
    frequency:   31.7930185943
  - # 23
    frequency:   34.0783076771
  - # 24
    frequency:   67.9019173047

- q-position: [    0.1313131,    0.0000000,    0.0000000 ]
  distance:    0.0463502
  band:
  - # 1
    frequency:   -1.2026846618
  - # 2
    frequency:    0.6989248051
  - # 3
    frequency:    1.3728250963
  - # 4
    frequency:    1.6401459109
  - # 5
    frequency:    2.2763946449
  - # 6
    frequency:    2.9649450164
  - # 7
    frequency:    3.7767237833
  - # 8
    frequency:    4.6244234065
  - # 9
    frequency:    4.7473589866
  - # 10
    frequency:    5.3935886862
  - # 11
    frequency:    5.8312397333
  - # 12
    frequency:    6.3206244154
  - # 13
    frequency:    7.7768510450
  - # 14
    frequency:    7.8949617140
  - # 15
    frequency:    8.7932279232
  - # 16
    frequency:   11.0133736174
  - # 17
    frequency:   13.8756721890
  - # 18
    frequency:   13.9256184163
  - # 19
    frequency:   14.1160836695
  - # 20
    frequency:   14.1725873834
  - # 21
    frequency:   14.8944427130
  - # 22
    frequency:   31.7730092099
  - # 23
    frequency:   34.0706256293
  - # 24
    frequency:   67.8906297687

- q-position: [    0.1363636,    0.0000000,    0.0000000 ]
  distance:    0.0481329
  band:
  - # 1
    frequency:   -1.3613979033
  - # 2
    frequency:    0.5506896162
  - # 3
    frequency:    1.4029475536
  - # 4
    frequency:    1.6646661054
  - # 5
    frequency:    2.3426175624
  - # 6
    frequency:    2.9717422670
  - # 7