nqpoint: 300    
npath: 3      
segment_nqpoint:
- 100
- 100
- 100
labels:
- [ 'G', 'M' ]
- [ 'M', 'K' ]
- [ 'K', 'G' ]
reciprocal_lattice:
- [   0.30377648,   0.17538543,   0.00000000 ] # a*
- [   0.00000000,   0.35077087,   0.00000000 ] # b*
- [   0.00000000,   0.00000000,   0.03775080 ] # c*
natom: 6      
lattice:
- [     3.291894054253119,     0.000000000000000,     0.000000000000000 ] # a
- [    -1.645947027126559,     2.850863877549143,     0.000000000000000 ] # b
- [     0.000000000000000,     0.000000000000000,    26.489502368550870 ] # c
points:
- symbol: C # 1
  coordinates: [  0.000000000000000,  0.000000000000000,  0.429700141914550 ]
  mass: 12.010700
- symbol: Cl # 2
  coordinates: [  0.333332985432215,  0.666666983183674,  0.660242768067811 ]
  mass: 35.453000
- symbol: F # 3
  coordinates: [  0.666666984744047,  0.333332985985145,  0.339757231932189 ]
  mass: 18.998403
- symbol: O # 4
  coordinates: [  0.333332985432215,  0.666666983183674,  0.519333044991500 ]
  mass: 15.999400
- symbol: Sc # 5
  coordinates: [  0.333332985432215,  0.666666983183674,  0.382405605470196 ]
  mass: 44.955912
- symbol: Sc # 6
  coordinates: [  0.666666984744047,  0.333332985985145,  0.493366950762022 ]
  mass: 44.955912

phonon:
- q-position: [    0.0000000,    0.0000000,    0.0000000 ]
  distance:    0.0000000
  band:
  - # 1
    frequency:   -0.3357976441
  - # 2
    frequency:   -0.3357976441
  - # 3
    frequency:   -0.0000008663
  - # 4
    frequency:   -0.0000003575
  - # 5
    frequency:    0.0000008806
  - # 6
    frequency:    0.9488487852
  - # 7
    frequency:    2.1979927030
  - # 8
    frequency:    2.1979927030
  - # 9
    frequency:    4.4996166889
  - # 10
    frequency:    6.3040230976
  - # 11
    frequency:    6.3040230976
  - # 12
    frequency:    9.7485301151
  - # 13
    frequency:    9.7485301151
  - # 14
    frequency:   12.2204053323
  - # 15
    frequency:   13.3109583941
  - # 16
    frequency:   13.8720210400
  - # 17
    frequency:   13.8720210400
  - # 18
    frequency:   17.8494498406

- q-position: [    0.0050505,    0.0000000,    0.0000000 ]
  distance:    0.0017716
  band:
  - # 1
    frequency:   -0.3632040879
  - # 2
    frequency:   -0.3505923131
  - # 3
    frequency:   -0.0995469743
  - # 4
    frequency:   -0.0894513701
  - # 5
    frequency:    0.0705893817
  - # 6
    frequency:    0.9495636214
  - # 7
    frequency:    2.2013554083
  - # 8
    frequency:    2.2037169222
  - # 9
    frequency:    4.4995437150
  - # 10
    frequency:    6.3045771028
  - # 11
    frequency:    6.3047090545
  - # 12
    frequency:    9.7477228432
  - # 13
    frequency:    9.7483615238
  - # 14
    frequency:   12.2192792239
  - # 15
    frequency:   13.3088328853
  - # 16
    frequency:   13.8718492487
  - # 17
    frequency:   13.8745470133
  - # 18
    frequency:   17.8484725442

- q-position: [    0.0101010,    0.0000000,    0.0000000 ]
  distance:    0.0035431
  band:
  - # 1
    frequency:   -0.4392680984
  - # 2
    frequency:   -0.3917637783
  - # 3
    frequency:   -0.1777028639
  - # 4
    frequency:   -0.1606962352
  - # 5
    frequency:    0.1008236943
  - # 6
    frequency:    0.9516877090
  - # 7
    frequency:    2.2113382494
  - # 8
    frequency:    2.2207119102
  - # 9
    frequency:    4.4993312514
  - # 10
    frequency:    6.3062380091
  - # 11
    frequency:    6.3067623955
  - # 12
    frequency:    9.7453070895
  - # 13
    frequency:    9.7478600966
  - # 14
    frequency:   12.2159074501
  - # 15
    frequency:   13.3025765112
  - # 16
    frequency:   13.8713339146
  - # 17
    frequency:   13.8820014070
  - # 18
    frequency:   17.8455458006

- q-position: [    0.0151515,    0.0000000,    0.0000000 ]
  distance:    0.0053147
  band:
  - # 1
    frequency:   -0.5478347589
  - # 2
    frequency:   -0.4524448378
  - # 3
    frequency:   -0.2636818333
  - # 4
    frequency:   -0.2060092370
  - # 5
    frequency:    0.1259736496
  - # 6
    frequency:    0.9551684398
  - # 7
    frequency:    2.2276389026
  - # 8
    frequency:    2.2484691356
  - # 9
    frequency:    4.4989986630
  - # 10
    frequency:    6.3090024789
  - # 11
    frequency:    6.3101696830
  - # 12
    frequency:    9.7413009968
  - # 13
    frequency:    9.7470387409
  - # 14
    frequency:   12.2103096329
  - # 15
    frequency:   13.2925221089
  - # 16
    frequency:   13.8704751647
  - # 17
    frequency:   13.8940412971
  - # 18
    frequency:   17.8406850197

- q-position: [    0.0202020,    0.0000000,    0.0000000 ]
  distance:    0.0070863
  band:
  - # 1
    frequency:   -0.6733397152
  - # 2
    frequency:   -0.5261848849
  - # 3
    frequency:   -0.3465776645
  - # 4
    frequency:   -0.2400269588
  - # 5
    frequency:    0.1483927305
  - # 6
    frequency:    0.9599411809
  - # 7
    frequency:    2.2497945979
  - # 8
    frequency:    2.2862150180
  - # 9
    frequency:    4.4985782058
  - # 10
    frequency:    6.3128649145
  - # 11
    frequency:    6.3149090176
  - # 12
    frequency:    9.7357346614
  - # 13
    frequency:    9.7459185311
  - # 14
    frequency:   12.2025183648
  - # 15
    frequency:   13.2791459258
  - # 16
    frequency:   13.8692732367
  - # 17
    frequency:   13.9101737421
  - # 18
    frequency:   17.8339157999

- q-position: [    0.0252525,    0.0000000,    0.0000000 ]
  distance:    0.0088579
  band:
  - # 1
    frequency:   -0.8069700422
  - # 2
    frequency:   -0.6083376487
  - # 3
    frequency:   -0.4259173113
  - # 4
    frequency:   -0.2665423315
  - # 5
    frequency:    0.1714118440
  - # 6
    frequency:    0.9659495325
  - # 7
    frequency:    2.2772320183
  - # 8
    frequency:    2.3329991868
  - # 9
    frequency:    4.4981150314
  - # 10
    frequency:    6.3178174079
  - # 11
    frequency:    6.3209507492
  - # 12
    frequency:    9.7286499210
  - # 13
    frequency:    9.7445280650
  - # 14
    frequency:   12.1925790285
  - # 15
    frequency:   13.2629866181
  - # 16
    frequency:   13.8677285162
  - # 17
    frequency:   13.9298369759
  - # 18
    frequency:   17.8252737993

- q-position: [    0.0303030,    0.0000000,    0.0000000 ]
  distance:    0.0106294
  band:
  - # 1
    frequency:   -0.9444728773
  - # 2
    frequency:   -0.6957975369
  - # 3
    frequency:   -0.5015213494
  - # 4
    frequency:   -0.2877515299
  - # 5
    frequency:    0.1984623312
  - # 6
    frequency:    0.9731580838
  - # 7
    frequency:    2.3093191705
  - # 8
    frequency:    2.3877839374
  - # 9
    frequency:    4.4976672601
  - # 10
    frequency:    6.3238496703
  - # 11
    frequency:    6.3282584042
  - # 12
    frequency:    9.7201000597
  - # 13
    frequency:    9.7429025878
  - # 14
    frequency:   12.1805495205
  - # 15
    frequency:   13.2445783503
  - # 16
    frequency:   13.8658415881
  - # 17
    frequency:   13.9524675964
  - # 18
    frequency:   17.8148045553

- q-position: [    0.0353535,    0.0000000,    0.0000000 ]
  distance:    0.0124010
  band:
  - # 1
    frequency:   -1.0836969375
  - # 2
    frequency:   -0.7865043928
  - # 3
    frequency:   -0.5733900036
  - # 4
    frequency:   -0.3053197186
  - # 5
    frequency:    0.2322501347
  - # 6
    frequency:    0.9815565297
  - # 7
    frequency:    2.3454104043
  - # 8
    frequency:    2.4495191342
  - # 9
    frequency:    4.4973061773
  - # 10
    frequency:    6.3309489438
  - # 11
    frequency:    6.3367897728
  - # 12
    frequency:    9.7101494311
  - # 13
    frequency:    9.7410829098
  - # 14
    frequency:   12.1664998601
  - # 15
    frequency:   13.2244087916
  - # 16
    frequency:   13.8636132983
  - # 17
    frequency:   13.9775429740
  - # 18
    frequency:   17.8025632529

- q-position: [    0.0404040,    0.0000000,    0.0000000 ]
  distance:    0.0141726
  band:
  - # 1
    frequency:   -1.2234327141
  - # 2
    frequency:   -0.8790817433
  - # 3
    frequency:   -0.6416078378
  - # 4
    frequency:   -0.3207454018
  - # 5
    frequency:    0.2741435561
  - # 6
    frequency:    0.9911577979
  - # 7
    frequency:    2.3848800684
  - # 8
    frequency:    2.5171953689
  - # 9
    frequency:    4.4971166205
  - # 10
    frequency:    6.3390998968
  - # 11
    frequency:    6.3464980881
  - # 12
    frequency:    9.6988730024
  - # 13
    frequency:    9.7391141483
  - # 14
    frequency:   12.1505116691
  - # 15
    frequency:   13.2029001231
  - # 16
    frequency:   13.8610448244
  - # 17
    frequency:   14.0046007770
  - # 18
    frequency:   17.7886144391

- q-position: [    0.0454545,    0.0000000,    0.0000000 ]
  distance:    0.0159441
  band:
  - # 1
    frequency:   -1.3629216727
  - # 2
    frequency:   -0.9725961450
  - # 3
    frequency:   -0.7062957343
  - # 4
    frequency:   -0.3352111813
  - # 5
    frequency:    0.3240548315
  - # 6
    frequency:    1.0019936438
  - # 7
    frequency:    2.4271441984
  - # 8
    frequency:    2.5898754018
  - # 9
    frequency:    4.4971976208
  - # 10
    frequency:    6.3482845059
  - # 11
    frequency:    6.3573332288
  - # 12
    frequency:    9.6863558216
  - # 13
    frequency:    9.7370443318
  - # 14
    frequency:   12.1326775139
  - # 15
    frequency:   13.1804058509
  - # 16
    frequency:   13.8581377537
  - # 17
    frequency:   14.0332428261
  - # 18
    frequency:   17.7730316850

- q-position: [    0.0505051,    0.0000000,    0.0000000 ]
  distance:    0.0177157
  band:
  - # 1
    frequency:   -1.5016393642
  - # 2
    frequency:   -1.0663981622
  - # 3
    frequency:   -0.7675926539
  - # 4
    frequency:   -0.3493620383
  - # 5
    frequency:    0.3808692065
  - # 6
    frequency:    1.0141104707
  - # 7
    frequency:    2.4716720408
  - # 8
    frequency:    2.6667079507
  - # 9
    frequency:    4.4976633643
  - # 10
    frequency:    6.3584819254
  - # 11
    frequency:    6.3692428817
  - # 12
    frequency:    9.6726924101
  - # 13
    frequency:    9.7349229081
  - # 14
    frequency:   12.1131001103
  - # 15
    frequency:   13.1572162889
  - # 16
    frequency:   13.8548941636
  - # 17
    frequency:   14.0631304113
  - # 18
    frequency:   17.7558971930

- q-position: [    0.0555556,    0.0000000,    0.0000000 ]
  distance:    0.0194873
  band:
  - # 1
    frequency:   -1.6391924014
  - # 2
    frequency:   -1.1600197136
  - # 3
    frequency:   -0.8256477460
  - # 4
    frequency:   -0.3632792105
  - # 5
    frequency:    0.4430620324
  - # 6
    frequency:    1.0275671783
  - # 7
    frequency:    2.5179901279
  - # 8
    frequency:    2.7469290627
  - # 9
    frequency:    4.4986445302
  - # 10
    frequency:    6.3696683496
  - # 11
    frequency:    6.3821736057
  - # 12
    frequency:    9.6579860866
  - # 13
    frequency:    9.7327992027
  - # 14
    frequency:   12.0918914037
  - # 15
    frequency:   13.1335676869
  - # 16
    frequency:   13.8513167033
  - # 17
    frequency:   14.0939760803
  - # 18
    frequency:   17.7373013507

- q-position: [    0.0606061,    0.0000000,    0.0000000 ]
  distance:    0.0212588
  band:
  - # 1
    frequency:   -1.7752659607
  - # 2
    frequency:   -1.2531094193
  - # 3
    frequency:   -0.8806142627
  - # 4
    frequency:   -0.3766303470
  - # 5
    frequency:    0.5091413573
  - # 6
    frequency:    1.0424362070
  - # 7
    frequency:    2.5656815345
  - # 8
    frequency:    2.8298557645
  - # 9
    frequency:    4.5002900539
  - # 10
    frequency:    6.3818168714
  - # 11
    frequency:    6.3960717525
  - # 12
    frequency:    9.6423482239
  - # 13
    frequency:    9.7307208750
  - # 14
    frequency:   12.0691715441
  - # 15
    frequency:   13.1096521040
  - # 16
    frequency:   13.8474086736
  - # 17
    frequency:   14.1255347759
  - # 18
    frequency:   17.7173422286

- q-position: [    0.0656566,    0.0000000,    0.0000000 ]
  distance:    0.0230304
  band:
  - # 1
    frequency:   -1.9095953442
  - # 2
    frequency:   -1.3453923570
  - # 3
    frequency:   -0.9326434069
  - # 4
    frequency:   -0.3888488504
  - # 5
    frequency:    0.5778296979
  - # 6
    frequency:    1.0588088805
  - # 7
    frequency:    2.6143824122
  - # 8
    frequency:    2.9148755061
  - # 9
    frequency:    4.5027693505
  - # 10
    frequency:    6.3948973407
  - # 11
    frequency:    6.4108842111
  - # 12
    frequency:    9.6258974459
  - # 13
    frequency:    9.7287324245
  - # 14
    frequency:   12.0450677868
  - # 15
    frequency:   13.0856266164
  - # 16
    frequency:   13.8431741016
  - # 17
    frequency:   14.1575956992
  - # 18
    frequency:   17.6961250232

- q-position: [    0.0707071,    0.0000000,    0.0000000 ]
  distance:    0.0248020
  band:
  - # 1
    frequency:   -2.0419497628
  - # 2
    frequency:   -1.4366449789
  - # 3
    frequency:   -0.9818783605
  - # 4
    frequency:   -0.3992532728
  - # 5
    frequency:    0.6480749822
  - # 6
    frequency:    1.0768067055
  - # 7
    frequency:    2.6637772685
  - # 8
    frequency:    3.0014337131
  - # 9
    frequency:    4.5062750175
  - # 10
    frequency:    6.4088762301
  - # 11
    frequency:    6.4265589587
  - # 12
    frequency:    9.6087587685
  - # 13
    frequency:    9.7268737931
  - # 14
    frequency:   12.0197133513
  - # 15
    frequency:   13.0616213133
  - # 16
    frequency:   13.8386178082
  - # 17
    frequency:   14.1899754095
  - # 18
    frequency:   17.6737614436

- q-position: [    0.0757576,    0.0000000,    0.0000000 ]
  distance:    0.0265736
  band:
  - # 1
    frequency:   -2.1721226889
  - # 2
    frequency:   -1.5266793136
  - # 3
    frequency:   -1.0284489501
  - # 4
    frequency:   -0.4070975822
  - # 5
    frequency:    0.7189885759
  - # 6
    frequency:    1.0966016221
  - # 7
    frequency:    2.7135939173
  - # 8
    frequency:    3.0890208284
  - # 9
    frequency:    4.5110260045
  - # 10
    frequency:    6.4237165119
  - # 11
    frequency:    6.4430454157
  - # 12
    frequency:    9.5910626918
  - # 13
    frequency:    9.7251791136
  - # 14
    frequency:   11.9932462717
  - # 15
    frequency:   13.0377459712
  - # 16
    frequency:   13.8337454660
  - # 17
    frequency:   14.2225122299
  - # 18
    frequency:   17.6503690430

- q-position: [    0.0808081,    0.0000000,    0.0000000 ]
  distance:    0.0283451
  band:
  - # 1
    frequency:   -2.2999259166
  - # 2
    frequency:   -1.6153328645
  - # 3
    frequency:   -1.0724671682
  - # 4
    frequency:   -0.4115718929
  - # 5
    frequency:    0.7897591221
  - # 6
    frequency:    1.1184504657
  - # 7
    frequency:    2.7635986245
  - # 8
    frequency:    3.1771596035
  - # 9
    frequency:    4.5172711863
  - # 10
    frequency:    6.4393775536
  - # 11
    frequency:    6.4602946123
  - # 12
    frequency:    9.5729442514
  - # 13
    frequency:    9.7236756475
  - # 14
    frequency:   11.9658082711
  - # 15
    frequency:   13.0140954902
  - # 16
    frequency:   13.8285636455
  - # 17
    frequency:   14.2550618416
  - # 18
    frequency:   17.6260704933

- q-position: [    0.0858586,    0.0000000,    0.0000000 ]
  distance:    0.0301167
  band:
  - # 1
    frequency:   -2.4251858047
  - # 2
    frequency:   -1.7024620381
  - # 3
    frequency:   -1.1140235625
  - # 4
    frequency:   -0.4117688183
  - # 5
    frequency:    0.8595528486
  - # 6
    frequency:    1.1427516493
  - # 7
    frequency:    2.8135917052
  - # 8
    frequency:    3.2653930747
  - # 9
    frequency:    4.5252931747
  - # 10
    frequency:    6.4558150389
  - # 11
    frequency:    6.4782591892
  - # 12
    frequency:    9.5545420354
  - # 13
    frequency:    9.7223829502
  - # 14
    frequency:   11.9375436818
  - # 15
    frequency:   12.9907542392
  - # 16
    frequency:   13.8230798492
  - # 17
    frequency:   14.2874938851
  - # 18
    frequency:   17.6009928052

- q-position: [    0.0909091,    0.0000000,    0.0000000 ]
  distance:    0.0318883
  band:
  - # 1
    frequency:   -2.5477408499
  - # 2
    frequency:   -1.7879377925
  - # 3
    frequency:   -1.1531843896
  - # 4
    frequency:   -0.4066163285
  - # 5
    frequency:    0.9273962513
  - # 6
    frequency:    1.1701310543
  - # 7
    frequency:    2.8634036610
  - # 8
    frequency:    3.3532736009
  - # 9
    frequency:    4.5354120260
  - # 10
    frequency:    6.4729809201
  - # 11
    frequency:    6.4968932617
  - # 12
    frequency:    9.5359971770
  - # 13
    frequency:    9.7213122969
  - # 14
    frequency:   11.9085984303
  - # 15
    frequency:   12.9677994685
  - # 16
    frequency:   13.8173025305
  - # 17
    frequency:   14.3196893891
  - # 18
    frequency:   17.5752664934

- q-position: [    0.0959596,    0.0000000,    0.0000000 ]
  distance:    0.0336598
  band:
  - # 1
    frequency:   -2.6674400978
  - # 2
    frequency:   -1.8716427107
  - # 3
    frequency:   -1.1899893965
  - # 4
    frequency:   -0.3947585211
  - # 5
    frequency:    0.9920558160
  - # 6
    frequency:    1.2015404901
  - # 7
    frequency:    2.9128918513
  - # 8
    frequency:    3.4403535282
  - # 9
    frequency:    4.5479881821
  - # 10
    frequency:    6.4908234090
  - # 11
    frequency:    6.5161521798
  - # 12
    frequency:    9.5174523324
  - # 13
    frequency:    9.7204663951
  - # 14
    frequency:   11.8791190923
  - # 15
    frequency:   12.9453039318
  - # 16
    frequency:   13.8112410985
  - # 17
    frequency:   14.3515388672
  - # 18
    frequency:   17.5490246888

- q-position: [    0.1010101,    0.0000000,    0.0000000 ]
  distance:    0.0354314
  band:
  - # 1
    frequency:   -2.7841420929
  - # 2
    frequency:   -1.9534690009
  - # 3
    frequency:   -1.2244500874
  - # 4
    frequency:   -0.3743281418
  - # 5
    frequency:    1.0520237844
  - # 6
    frequency:    1.2382570523
  - # 7
    frequency:    2.9619376472
  - # 8
    frequency:    3.5261785100
  - # 9
    frequency:    4.5634234807
  - # 10
    frequency:    6.5092870135
  - # 11
    frequency:    6.5359922234
  - # 12
    frequency:    9.4990506540
  - # 13
    frequency:    9.7198393987
  - # 14
    frequency:   11.8492520167
  - # 15
    frequency:   12.9233378401
  - # 16
    frequency:   13.8049059080
  - # 17
    frequency:   14.3829409515
  - # 18
    frequency:   17.5224021999

- q-position: [    0.1060606,    0.0000000,    0.0000000 ]
  distance:    0.0372030
  band:
  - # 1
    frequency:   -2.8977141850
  - # 2
    frequency:   -2.0333171143
  - # 3
    frequency:   -1.2565483530
  - # 4
    frequency:   -0.3424477769
  - # 5
    frequency:    1.1058833938
  - # 6
    frequency:    1.2815077843
  - # 7
    frequency:    3.0104439923
  - # 8
    frequency:    3.6102852324
  - # 9
    frequency:    4.5821583338
  - # 10
    frequency:    6.5283126240
  - # 11
    frequency:    6.5563702679
  - # 12
    frequency:    9.4809347696
  - # 13
    frequency:    9.7194172336
  - # 14
    frequency:   11.8191425098
  - # 15
    frequency:   12.9019702517
  - # 16
    frequency:   13.7983082335
  - # 17
    frequency:   14.4138014568
  - # 18
    frequency:   17.4955345261

- q-position: [    0.1111111,    0.0000000,    0.0000000 ]
  distance:    0.0389745
  band:
  - # 1
    frequency:   -3.0080320726
  - # 2
    frequency:   -2.1110947786
  - # 3
    frequency:   -1.2862353486
  - # 4
    frequency:   -0.2938794520
  - # 5
    frequency:    1.1531424025
  - # 6
    frequency:    1.3316293033
  - # 7
    frequency:    3.0583332954
  - # 8
    frequency:    3.6922061954
  - # 9
    frequency:    4.6046622968
  - # 10
    frequency:    6.5478376558
  - # 11
    frequency:    6.5772434553
  - # 12
    frequency:    9.4632457795
  - # 13
    frequency:    9.7191782338
  - # 14
    frequency:   11.7889340652
  - # 15
    frequency:   12.8812699833
  - # 16
    frequency:   13.7914602298
  - # 17
    frequency:   14.4440327954
  - # 18
    frequency:   17.4685568273

- q-position: [    0.1161616,    0.0000000,    0.0000000 ]
  distance:    0.0407461
  band:
  - # 1
    frequency:   -3.1149795088
  - # 2
    frequency:   -2.1867163177
  - # 3
    frequency:   -1.3134305211
  - # 4
    frequency:   -0.2156862030
  - # 5
    frequency:    1.1947128995
  - # 6
    frequency:    1.3875833689
  - # 7
    frequency:    3.1055455832
  - # 8
    frequency:    3.7714849061
  - # 9
    frequency:    4.6314145641
  - # 10
    frequency:    6.5677962512
  - # 11
    frequency:    6.5985688999
  - # 12
    frequency:    9.4461222820
  - # 13
    frequency:    9.7190940769
  - # 14
    frequency:   11.7587676219
  - # 15
    frequency:   12.8613061168
  - # 16
    frequency:   13.7843748783
  - # 17
    frequency:   14.4735536721
  - # 18
    frequency:   17.4416028559

- q-position: [    0.1212121,    0.0000000,    0.0000000 ]
  distance:    0.0425177
  band:
  - # 1
    frequency:   -3.2184481166
  - # 2
    frequency:   -2.2601021687
  - # 3
    frequency:   -1.3380206861
  - # 4
    frequency:    0.0556410506
  - # 5
    frequency:    1.2322933278
  - # 6
    frequency:    1.4475717966
  - # 7
    frequency:    3.1520368519
  - # 8
    frequency:    3.8477045684
  - # 9
    frequency:    4.6628712308
  - # 10
    frequency:    6.5881195426
  - # 11
    frequency:    6.6203034526
  - # 12
    frequency:    9.4296994391
  - # 13
    frequency:    9.7191310000
  - # 14
    frequency:   11.7287808336
  - # 15
    frequency:   12.8421481625
  - # 16
    frequency:   13.7770659208
  - # 17
    frequency:   14.5022890111
  - # 18
    frequency:   17.4148038571

- q-position: [    0.1262626,    0.0000000,    0.0000000 ]
  distance:    0.0442893
  band:
  - # 1
    frequency:   -3.3183372785
  - # 2
    frequency:   -2.3311785393
  - # 3
    frequency:   -1.3598590485
  - # 4
    frequency:    0.2514767306
  - # 5
    frequency:    1.2674723642
  - # 6
    frequency:    1.5099306299
  - # 7
    frequency:    3.1977775661
  - # 8
    frequency:    3.9205309211
  - # 9
    frequency:    4.6994186112
  - # 10
    frequency:    6.6087359796
  - # 11
    frequency:    6.6424035420
  - # 12
    frequency:    9.4141080917
  - # 13
    frequency:    9.7192512674
  - # 14
    frequency:   11.6991073341
  - # 15
    frequency:   12.8238659338
  - # 16
    frequency:   13.7695477822
  - # 17
    frequency:   14.5301700657
  - # 18
    frequency:   17.3882874484

- q-position: [    0.1313131,    0.0000000,    0.0000000 ]
  distance:    0.0460608
  band:
  - # 1
    frequency:   -3.4145540783
  - # 2
    frequency:   -2.3998771623
  - # 3
    frequency:   -1.3787640468
  - # 4
    frequency:    0.3668337176
  - # 5
    frequency:    1.3013786599
  - # 6
    frequency:    1.5734792658
  - # 7
    frequency:    3.2427512663
  - # 8
    frequency:    3.9897644602
  - # 9
    frequency:    4.7413173446
  - # 10
    frequency:    6.6295717181
  - # 11
    frequency:    6.6648251036
  - # 12
    frequency:    9.3994739351
  - # 13
    frequency:    9.7194148499
  - # 14
    frequency:   11.6698759891
  - # 15
    frequency:   12.8065291787
  - # 16
    frequency:   13.7618354833
  - # 17
    frequency:   14.5571346765
  - # 18
    frequency:   17.3621764888

- q-position: [    0.1363636,    0.0000000,    0.0000000 ]
  distance:    0.0478324
  band:
  - # 1
    frequency:   -3.5070132746
  - # 2
    frequency:   -2.4661351209
  - # 3
    frequency:   -1.3945178705
  - # 4
    frequency:    0.4664741506
  - # 5
    frequency:    1.3347291436
  - # 6
    frequency:    1.6374716044
  - # 7
    frequency:    3.2869532547
  - # 8
    frequency:    4.0553900172
  - # 9
    frequency:    4.7886492912
  - # 10
    frequency:    6.6505510693
  - # 11
    frequency:    6.6875236026
  - # 12
    frequency:    9.3859167622
  - # 13
    frequency:    9.7195812685
  - # 14
    frequency:   11.6412101333
  - # 15
    frequency:   12.7902070109
  - # 16
    frequency:   13.7539445454
  - # 17
    frequency:   14.5831276390
  - # 18
    frequency:   17.3365879521

- q-position: [    0.1414141,    0.0000000,    0.0000000 ]
  distance:    0.0496040
  band:
  - # 1
    frequency:   -3.5956372969
  - # 2
    frequency:   -2.5298947240
  - # 3
    frequency:   -1.4068644611
  - # 4
    frequency:    0.5591931515
  - # 5
    frequency:    1.3679642390
  - # 6
    frequency:    1.7014606814
  - # 7
    frequency:    3.3303893383
  - # 8
    frequency:    4.1176068114
  - # 9
    frequency:    4.8412840840
  - # 10
    frequency:    6.6715970066
  - # 11
    frequency:    6.7104541508
  - # 12
    frequency:    9.3735497827
  - # 13
    frequency:    9.7197115441
  - # 14
    frequency:   11.6132267997
  - # 15
    frequency:   12.7749671790
  - # 16
    frequency:   13.7458908890
  - # 17
    frequency:   14.6081011495
  - # 18
    frequency:   17.3116318220

- q-position: [    0.1464646,    0.0000000,    0.0000000 ]
  distance:    0.0513755
  band:
  - # 1
    frequency:   -3.6803562527
  - # 2
    frequency:   -2.5911034160
  - # 3
    frequency:   -1.4155067413
  - # 4
    frequency:    0.6481028142
  - # 5
    frequency:    1.4013545831
  - # 6
    frequency:    1.7651919955
  - # 7
    frequency:    3.3730746165
  - # 8
    frequency:    4.1768250036
  - # 9
    frequency:    4.8988792968
  - # 10
    frequency:    6.6926317221
  - # 11
    frequency:    6.7335717148
  - # 12
    frequency:    9.3624790220
  - # 13
    frequency:    9.7197701866
  - # 14
    frequency:   11.5860359588
  - # 15
    frequency:   12.7608752073
  - # 16
    frequency:   13.7376907275
  - # 17
    frequency:   14.6320152933
  - # 18
    frequency:   17.2874100267

- q-position: [    0.1515152,    0.0000000,    0.0000000 ]
  distance:    0.0531471
  band:
  - # 1
    frequency:   -3.7611079407
  - # 2
    frequency:   -2.6497137124
  - # 3
    frequency:   -1.4201027281
  - # 4
    frequency:    0.7345580749
  - # 5
    frequency:    1.4350683486
  - # 6
    frequency:    1.8285361942
  - # 7
    frequency:    3.4150323047
  - # 8
    frequency:    4.2336264295
  - # 9
    frequency:    4.9609165390
  - # 10
    frequency:    6.7135772291
  - # 11
    frequency:    6.7568314080
  - # 12
    frequency:    9.3528028053
  - # 13
    frequency:    9.7197271488
  - # 14
    frequency:   11.5597397945
  - # 15
    frequency:   12.7479934441
  - # 16
    frequency:   13.7293604592
  - # 17
    frequency:   14.6548385424
  - # 18
    frequency:   17.2640154371

- q-position: [    0.1565657,    0.0000000,    0.0000000 ]
  distance:    0.0549187
  band:
  - # 1
    frequency:   -3.8378378649
  - # 2
    frequency:   -2.7056831511
  - # 3
    frequency:   -1.4202600414
  - # 4
    frequency:    0.8191622013
  - # 5
    frequency:    1.4692110352
  - # 6
    frequency:    1.8914489463
  - # 7
    frequency:    3.4562925922
  - # 8
    frequency:    4.2887010679
  - # 9
    frequency:    5.0267619105
  - # 10
    frequency:    6.7343560001
  - # 11
    frequency:    6.7801888568
  - # 12
    frequency:    9.3446113278
  - # 13
    frequency:    9.7195596669
  - # 14
    frequency:   11.5344320546
  - # 15
    frequency:   12.7363800501
  - # 16
    frequency:   13.7209165577
  - # 17
    frequency:   14.6765482261
  - # 18
    frequency:   17.2415309513

- q-position: [    0.1616162,    0.0000000,    0.0000000 ]
  distance:    0.0566902
  band:
  - # 1
    frequency:   -3.9104992455
  - # 2
    frequency:   -2.7589742565
  - # 3
    frequency:   -1.4155281089
  - # 4
    frequency:    0.9021334622
  - # 5
    frequency:    1.5038485680
  - # 6
    frequency:    1.9539467702
  - # 7
    frequency:    3.4968915334
  - # 8
    frequency:    4.3427779471
  - # 9
    frequency:    5.0957321085
  - # 10
    frequency:    6.7548916313
  - # 11
    frequency:    6.8036006312
  - # 12
    frequency:    9.3379863130
  - # 13
    frequency:    9.7192539030
  - # 14
    frequency:   11.5101975171
  - # 15
    frequency:   12.7260879603
  - # 16
    frequency:   13.7123754636
  - # 17
    frequency:   14.6971309391
  - # 18
    frequency:   17.2200286903

- q-position: [    0.1666667,    0.0000000,    0.0000000 ]
  distance:    0.0584618
  band:
  - # 1
    frequency:   -3.9790530237
  - # 2
    frequency:   -2.8095545088
  - # 3
    frequency:   -1.4053870247
  - # 4
    frequency:    0.9834698863
  - # 5
    frequency:    1.5390204774
  - # 6
    frequency:    2.0160915467
  - # 7
    frequency:    3.5368699774
  - # 8
    frequency:    4.3965664764
  - # 9
    frequency:    5.1671501998
  - # 10
    frequency:    6.7751095237
  - # 11
    frequency:    6.8270247263
  - # 12
    frequency:    9.3330007567
  - # 13
    frequency:    9.7188063122
  - # 14
    frequency:   11.4871116174
  - # 15
    frequency:   12.7171638531
  - # 16
    frequency:   13.7037534793
  - # 17
    frequency:   14.7165828506
  - # 18
    frequency:   17.1995693312

- q-position: [    0.1717172,    0.0000000,    0.0000000 ]
  distance:    0.0602334
  band:
  - # 1
    frequency:   -4.0434678597
  - # 2
    frequency:   -2.8573963183
  - # 3
    frequency:   -1.3892314589
  - # 4
    frequency:    1.0630362883
  - # 5
    frequency:    1.5747469605
  - # 6
    frequency:    2.0779793343
  - # 7
    frequency:    3.5762725368
  - # 8
    frequency:    4.4507158842
  - # 9
    frequency:    5.2403833871
  - # 10
    frequency:    6.7949375685
  - # 11
    frequency:    6.8504210827
  - # 12
    frequency:    9.3297187560
  - # 13
    frequency:    9.7182246592
  - # 14
    frequency:   11.4652402795
  - # 15
    frequency:   12.7096471633
  - # 16
    frequency:   13.6950666673
  - # 17
    frequency:   14.7349098811
  - # 18
    frequency:   17.1802016001

- q-position: [    0.1767677,    0.0000000,    0.0000000 ]
  distance:    0.0620050
  band:
  - # 1
    frequency:   -4.1037201205
  - # 2
    frequency:   -2.9024770005
  - # 3
    frequency:   -1.3663470670
  - # 4
    frequency:    1.1406179336
  - # 5
    frequency:    1.6110318703
  - # 6
    frequency:    2.1397308413
  - # 7
    frequency:    3.6151466032
  - # 8
    frequency:    4.5057926795
  - # 9
    frequency:    5.3148628779
  - # 10
    frequency:    6.8143068249
  - # 11
    frequency:    6.8737521297
  - # 12
    frequency:    9.3281954200
  - # 13
    frequency:    9.7175286241
  - # 14