nqpoint: 300    
npath: 3      
segment_nqpoint:
- 100
- 100
- 100
labels:
- [ 'G', 'M' ]
- [ 'M', 'K' ]
- [ 'K', 'G' ]
reciprocal_lattice:
- [   0.28721901,   0.16582597,   0.00000000 ] # a*
- [   0.00000000,   0.33165195,   0.00000000 ] # b*
- [   0.00000000,   0.00000000,   0.03643041 ] # c*
natom: 8      
lattice:
- [     3.481663689907283,     0.000000000000000,     0.000000000000000 ] # a
- [    -1.740831844953641,     3.015209202870055,     0.000000000000000 ] # b
- [     0.000000000000000,     0.000000000000000,    27.449596014863900 ] # c
points:
- symbol: C # 1
  coordinates: [  0.000000000000000,  0.000000000000000,  0.535649166175984 ]
  mass: 12.010700
- symbol: C # 2
  coordinates: [  0.666666984744047,  0.333332985985145,  0.371254048662248 ]
  mass: 12.010700
- symbol: N # 3
  coordinates: [  0.333332985432215,  0.666666983183674,  0.625069893596742 ]
  mass: 14.006700
- symbol: N # 4
  coordinates: [  0.666666984744047,  0.333332985985145,  0.327873677817572 ]
  mass: 14.006700
- symbol: O # 5
  coordinates: [  0.333332985432215,  0.666666983183674,  0.672126322182428 ]
  mass: 15.999400
- symbol: S # 6
  coordinates: [  0.666666984744047,  0.333332985985145,  0.432152360991947 ]
  mass: 32.065000
- symbol: Sc # 7
  coordinates: [  0.333332985432215,  0.666666983183674,  0.492013223246915 ]
  mass: 44.955912
- symbol: Sc # 8
  coordinates: [  0.666666984744047,  0.333332985985145,  0.582026549960478 ]
  mass: 44.955912

phonon:
- q-position: [    0.0000000,    0.0000000,    0.0000000 ]
  distance:    0.0000000
  band:
  - # 1
    frequency:   -0.0000025217
  - # 2
    frequency:    0.0000020012
  - # 3
    frequency:    0.0000025464
  - # 4
    frequency:    0.6046868911
  - # 5
    frequency:    0.6046868911
  - # 6
    frequency:    3.1556085865
  - # 7
    frequency:    3.1556085865
  - # 8
    frequency:    4.6482589381
  - # 9
    frequency:    4.6482589381
  - # 10
    frequency:    5.0255348741
  - # 11
    frequency:    6.9314895840
  - # 12
    frequency:    6.9314895840
  - # 13
    frequency:    7.3457951105
  - # 14
    frequency:    8.4663256120
  - # 15
    frequency:    8.4663256120
  - # 16
    frequency:   10.0961554515
  - # 17
    frequency:   10.5224579217
  - # 18
    frequency:   10.5224579217
  - # 19
    frequency:   12.1174592995
  - # 20
    frequency:   12.1174592995
  - # 21
    frequency:   15.5580372467
  - # 22
    frequency:   21.0440952378
  - # 23
    frequency:   43.8755146714
  - # 24
    frequency:   64.9146763788

- q-position: [    0.0050505,    0.0000000,    0.0000000 ]
  distance:    0.0016750
  band:
  - # 1
    frequency:   -0.0913492430
  - # 2
    frequency:    0.0571812581
  - # 3
    frequency:    0.1389764853
  - # 4
    frequency:    0.6059904929
  - # 5
    frequency:    0.6088382344
  - # 6
    frequency:    3.1558127100
  - # 7
    frequency:    3.1566977679
  - # 8
    frequency:    4.6477467244
  - # 9
    frequency:    4.6485579828
  - # 10
    frequency:    5.0264592969
  - # 11
    frequency:    6.9312469780
  - # 12
    frequency:    6.9315831350
  - # 13
    frequency:    7.3462537178
  - # 14
    frequency:    8.4660007810
  - # 15
    frequency:    8.4661145425
  - # 16
    frequency:   10.0954218098
  - # 17
    frequency:   10.5224717370
  - # 18
    frequency:   10.5228920217
  - # 19
    frequency:   12.1173009819
  - # 20
    frequency:   12.1188143957
  - # 21
    frequency:   15.5574709107
  - # 22
    frequency:   21.0440420975
  - # 23
    frequency:   43.8747243154
  - # 24
    frequency:   64.9146070783

- q-position: [    0.0101010,    0.0000000,    0.0000000 ]
  distance:    0.0033500
  band:
  - # 1
    frequency:   -0.1029885987
  - # 2
    frequency:    0.1140259368
  - # 3
    frequency:    0.2324504241
  - # 4
    frequency:    0.6099410276
  - # 5
    frequency:    0.6214836961
  - # 6
    frequency:    3.1564238352
  - # 7
    frequency:    3.1599535297
  - # 8
    frequency:    4.6462343256
  - # 9
    frequency:    4.6494543580
  - # 10
    frequency:    5.0292097875
  - # 11
    frequency:    6.9305238962
  - # 12
    frequency:    6.9318632351
  - # 13
    frequency:    7.3476257612
  - # 14
    frequency:    8.4650260783
  - # 15
    frequency:    8.4654789067
  - # 16
    frequency:   10.0932294573
  - # 17
    frequency:   10.5225132735
  - # 18
    frequency:   10.5241863465
  - # 19
    frequency:   12.1168262247
  - # 20
    frequency:   12.1228753365
  - # 21
    frequency:   15.5557729878
  - # 22
    frequency:   21.0438827683
  - # 23
    frequency:   43.8723546214
  - # 24
    frequency:   64.9143993350

- q-position: [    0.0151515,    0.0000000,    0.0000000 ]
  distance:    0.0050250
  band:
  - # 1
    frequency:   -0.0981576188
  - # 2
    frequency:    0.1701671372
  - # 3
    frequency:    0.3246972384
  - # 4
    frequency:    0.6166625813
  - # 5
    frequency:    0.6433293750
  - # 6
    frequency:    3.1574382473
  - # 7
    frequency:    3.1653407892
  - # 8
    frequency:    4.6437919906
  - # 9
    frequency:    4.6509457866
  - # 10
    frequency:    5.0337205164
  - # 11
    frequency:    6.9293343390
  - # 12
    frequency:    6.9323282238
  - # 13
    frequency:    7.3499001072
  - # 14
    frequency:    8.4634009067
  - # 15
    frequency:    8.4644114468
  - # 16
    frequency:   10.0896034607
  - # 17
    frequency:   10.5225828022
  - # 18
    frequency:   10.5263176311
  - # 19
    frequency:   12.1160356203
  - # 20
    frequency:   12.1296290881
  - # 21
    frequency:   15.5529467349
  - # 22
    frequency:   21.0436175248
  - # 23
    frequency:   43.8684097071
  - # 24
    frequency:   64.9140536227

- q-position: [    0.0202020,    0.0000000,    0.0000000 ]
  distance:    0.0067000
  band:
  - # 1
    frequency:   -0.0807015591
  - # 2
    frequency:    0.2251761628
  - # 3
    frequency:    0.4137496489
  - # 4
    frequency:    0.6263774494
  - # 5
    frequency:    0.6759635636
  - # 6
    frequency:    3.1588498263
  - # 7
    frequency:    3.1728019427
  - # 8
    frequency:    4.6405292034
  - # 9
    frequency:    4.6530284694
  - # 10
    frequency:    5.0398894564
  - # 11
    frequency:    6.9277009723
  - # 12
    frequency:    6.9329753283
  - # 13
    frequency:    7.3530588478
  - # 14
    frequency:    8.4611243733
  - # 15
    frequency:    8.4629001452
  - # 16
    frequency:   10.0845835469
  - # 17
    frequency:   10.5226807756
  - # 18
    frequency:   10.5292491864
  - # 19
    frequency:   12.1149301720
  - # 20
    frequency:   12.1390539605
  - # 21
    frequency:   15.5489975814
  - # 22
    frequency:   21.0432468237
  - # 23
    frequency:   43.8628964186
  - # 24
    frequency:   64.9135707284

- q-position: [    0.0252525,    0.0000000,    0.0000000 ]
  distance:    0.0083750
  band:
  - # 1
    frequency:   -0.0388257148
  - # 2
    frequency:    0.2785317977
  - # 3
    frequency:    0.4954815128
  - # 4
    frequency:    0.6394249709
  - # 5
    frequency:    0.7220923155
  - # 6
    frequency:    3.1606501531
  - # 7
    frequency:    3.1822581119
  - # 8
    frequency:    4.6365852954
  - # 9
    frequency:    4.6556970798
  - # 10
    frequency:    5.0475879048
  - # 11
    frequency:    6.9256542026
  - # 12
    frequency:    6.9338006540
  - # 13
    frequency:    7.3570781945
  - # 14
    frequency:    8.4581954415
  - # 15
    frequency:    8.4609283438
  - # 16
    frequency:   10.0782213945
  - # 17
    frequency:   10.5228078283
  - # 18
    frequency:   10.5329336551
  - # 19
    frequency:   12.1135113178
  - # 20
    frequency:   12.1511196607
  - # 21
    frequency:   15.5439331320
  - # 22
    frequency:   21.0427713020
  - # 23
    frequency:   43.8558243068
  - # 24
    frequency:   64.9129517487

- q-position: [    0.0303030,    0.0000000,    0.0000000 ]
  distance:    0.0100501
  band:
  - # 1
    frequency:    0.0737609441
  - # 2
    frequency:    0.3296004413
  - # 3
    frequency:    0.5661247219
  - # 4
    frequency:    0.6562735760
  - # 5
    frequency:    0.7842574808
  - # 6
    frequency:    3.1628286557
  - # 7
    frequency:    3.1936107870
  - # 8
    frequency:    4.6321194490
  - # 9
    frequency:    4.6589447568
  - # 10
    frequency:    5.0566706650
  - # 11
    frequency:    6.9232310229
  - # 12
    frequency:    6.9347991735
  - # 13
    frequency:    7.3619295877
  - # 14
    frequency:    8.4546131371
  - # 15
    frequency:    8.4584749092
  - # 16
    frequency:   10.0705774703
  - # 17
    frequency:   10.5229647783
  - # 18
    frequency:   10.5373162353
  - # 19
    frequency:   12.1117809629
  - # 20
    frequency:   12.1657873743
  - # 21
    frequency:   15.5377631706
  - # 22
    frequency:   21.0421917752
  - # 23
    frequency:   43.8472055934
  - # 24
    frequency:   64.9121980846

- q-position: [    0.0353535,    0.0000000,    0.0000000 ]
  distance:    0.0117251
  band:
  - # 1
    frequency:    0.1205514054
  - # 2
    frequency:    0.3776523510
  - # 3
    frequency:    0.6254527514
  - # 4
    frequency:    0.6774995479
  - # 5
    frequency:    0.8616878958
  - # 6
    frequency:    3.1653727932
  - # 7
    frequency:    3.2067437782
  - # 8
    frequency:    4.6273017469
  - # 9
    frequency:    4.6627630955
  - # 10
    frequency:    5.0669852288
  - # 11
    frequency:    6.9204737349
  - # 12
    frequency:    6.9359647103
  - # 13
    frequency:    7.3675809155
  - # 14
    frequency:    8.4503768023
  - # 15
    frequency:    8.4555144451
  - # 16
    frequency:   10.0617178291
  - # 17
    frequency:   10.5231526291
  - # 18
    frequency:   10.5423379465
  - # 19
    frequency:   12.1097415181
  - # 20
    frequency:   12.1830098808
  - # 21
    frequency:   15.5304996653
  - # 22
    frequency:   21.0415092341
  - # 23
    frequency:   43.8370551283
  - # 24
    frequency:   64.9113114343

- q-position: [    0.0404040,    0.0000000,    0.0000000 ]
  distance:    0.0134001
  band:
  - # 1
    frequency:    0.1613673938
  - # 2
    frequency:    0.4219535722
  - # 3
    frequency:    0.6769632289
  - # 4
    frequency:    0.7036920090
  - # 5
    frequency:    0.9500614978
  - # 6
    frequency:    3.1682682747
  - # 7
    frequency:    3.2215253850
  - # 8
    frequency:    4.6223062150
  - # 9
    frequency:    4.6671421375
  - # 10
    frequency:    5.0783790049
  - # 11
    frequency:    6.9174286506
  - # 12
    frequency:    6.9372899202
  - # 13
    frequency:    7.3739977365
  - # 14
    frequency:    8.4454863927
  - # 15
    frequency:    8.4520175500
  - # 16
    frequency:   10.0517112131
  - # 17
    frequency:   10.5233725730
  - # 18
    frequency:   10.5479385958
  - # 19
    frequency:   12.1073959457
  - # 20
    frequency:   12.2027317084
  - # 21
    frequency:   15.5221567751
  - # 22
    frequency:   21.0407248416
  - # 23
    frequency:   43.8253903369
  - # 24
    frequency:   64.9102937859

- q-position: [    0.0454545,    0.0000000,    0.0000000 ]
  distance:    0.0150751
  band:
  - # 1
    frequency:    0.2006750948
  - # 2
    frequency:    0.4619538331
  - # 3
    frequency:    0.7244578559
  - # 4
    frequency:    0.7352632069
  - # 5
    frequency:    1.0448840311
  - # 6
    frequency:    3.1714993112
  - # 7
    frequency:    3.2378106929
  - # 8
    frequency:    4.6173061089
  - # 9
    frequency:    4.6720703597
  - # 10
    frequency:    5.0907043313
  - # 11
    frequency:    6.9141448553
  - # 12
    frequency:    6.9387662685
  - # 13
    frequency:    7.3811444239
  - # 14
    frequency:    8.4399428078
  - # 15
    frequency:    8.4479511215
  - # 16
    frequency:   10.0406266617
  - # 17
    frequency:   10.5236259947
  - # 18
    frequency:   10.5540592251
  - # 19
    frequency:   12.1047478083
  - # 20
    frequency:   12.2248893350
  - # 21
    frequency:   15.5127508585
  - # 22
    frequency:   21.0398399289
  - # 23
    frequency:   43.8122311599
  - # 24
    frequency:   64.9091474073

- q-position: [    0.0505051,    0.0000000,    0.0000000 ]
  distance:    0.0167501
  band:
  - # 1
    frequency:    0.2399103857
  - # 2
    frequency:    0.4975022776
  - # 3
    frequency:    0.7703180631
  - # 4
    frequency:    0.7722317678
  - # 5
    frequency:    1.1431857469
  - # 6
    frequency:    3.1750488951
  - # 7
    frequency:    3.2554439251
  - # 8
    frequency:    4.6124712086
  - # 9
    frequency:    4.6775346626
  - # 10
    frequency:    5.1038214950
  - # 11
    frequency:    6.9106730905
  - # 12
    frequency:    6.9403840038
  - # 13
    frequency:    7.3889851692
  - # 14
    frequency:    8.4337482466
  - # 15
    frequency:    8.4432787039
  - # 16
    frequency:   10.0285317178
  - # 17
    frequency:   10.5239144777
  - # 18
    frequency:   10.5606439502
  - # 19
    frequency:   12.1018013200
  - # 20
    frequency:   12.2494114387
  - # 21
    frequency:   15.5023004837
  - # 22
    frequency:   21.0388559909
  - # 23
    frequency:   43.7975999839
  - # 24
    frequency:   64.9078748359

- q-position: [    0.0555556,    0.0000000,    0.0000000 ]
  distance:    0.0184251
  band:
  - # 1
    frequency:    0.2797162156
  - # 2
    frequency:    0.5289335566
  - # 3
    frequency:    0.8141360739
  - # 4
    frequency:    0.8157500643
  - # 5
    frequency:    1.2432563530
  - # 6
    frequency:    3.1788991049
  - # 7
    frequency:    3.2742607959
  - # 8
    frequency:    4.6079666494
  - # 9
    frequency:    4.6835203597
  - # 10
    frequency:    5.1176002057
  - # 11
    frequency:    6.9070647891
  - # 12
    frequency:    6.9421321271
  - # 13
    frequency:    7.3974848104
  - # 14
    frequency:    8.4269065817
  - # 15
    frequency:    8.4379608817
  - # 16
    frequency:   10.0154912187
  - # 17
    frequency:   10.5242398109
  - # 18
    frequency:   10.5676411969
  - # 19
    frequency:   12.0985613986
  - # 20
    frequency:   12.2762192002
  - # 21
    frequency:   15.4908264424
  - # 22
    frequency:   21.0377746808
  - # 23
    frequency:   43.7815215644
  - # 24
    frequency:   64.9064788666

- q-position: [    0.0606061,    0.0000000,    0.0000000 ]
  distance:    0.0201001
  band:
  - # 1
    frequency:    0.3204190760
  - # 2
    frequency:    0.5569392258
  - # 3
    frequency:    0.8601626023
  - # 4
    frequency:    0.8613084029
  - # 5
    frequency:    1.3441058127
  - # 6
    frequency:    3.1830314307
  - # 7
    frequency:    3.2940908385
  - # 8
    frequency:    4.6039527757
  - # 9
    frequency:    4.6900111657
  - # 10
    frequency:    5.1319200108
  - # 11
    frequency:    6.9033712714
  - # 12
    frequency:    6.9439983562
  - # 13
    frequency:    7.4066094751
  - # 14
    frequency:    8.4194237409
  - # 15
    frequency:    8.4319557160
  - # 16
    frequency:   10.0015665969
  - # 17
    frequency:   10.5246039980
  - # 18
    frequency:   10.5750044060
  - # 19
    frequency:   12.0950337146
  - # 20
    frequency:   12.3052266589
  - # 21
    frequency:   15.4783517653
  - # 22
    frequency:   21.0365978054
  - # 23
    frequency:   43.7640229407
  - # 24
    frequency:   64.9049625392

- q-position: [    0.0656566,    0.0000000,    0.0000000 ]
  distance:    0.0217751
  band:
  - # 1
    frequency:    0.3621890463
  - # 2
    frequency:    0.5823290109
  - # 3
    frequency:    0.9072218011
  - # 4
    frequency:    0.9093845194
  - # 5
    frequency:    1.4451256896
  - # 6
    frequency:    3.1874271170
  - # 7
    frequency:    3.3147597115
  - # 8
    frequency:    4.6005855560
  - # 9
    frequency:    4.6969891872
  - # 10
    frequency:    5.1466700742
  - # 11
    frequency:    6.8996430949
  - # 12
    frequency:    6.9459690854
  - # 13
    frequency:    7.4163270405
  - # 14
    frequency:    8.4113080904
  - # 15
    frequency:    8.4252192249
  - # 16
    frequency:    9.9868155881
  - # 17
    frequency:   10.5250092683
  - # 18
    frequency:   10.5826923105
  - # 19
    frequency:   12.0912247373
  - # 20
    frequency:   12.3363411196
  - # 21
    frequency:   15.4649017422
  - # 22
    frequency:   21.0353273186
  - # 23
    frequency:   43.7451333445
  - # 24
    frequency:   64.9033291238

- q-position: [    0.0707071,    0.0000000,    0.0000000 ]
  distance:    0.0234501
  band:
  - # 1
    frequency:    0.4051081818
  - # 2
    frequency:    0.6058421164
  - # 3
    frequency:    0.9535596180
  - # 4
    frequency:    0.9609502643
  - # 5
    frequency:    1.5459120210
  - # 6
    frequency:    3.1920675176
  - # 7
    frequency:    3.3360915143
  - # 8
    frequency:    4.5980171958
  - # 9
    frequency:    4.7044349135
  - # 10
    frequency:    5.1617486385
  - # 11
    frequency:    6.8959295389
  - # 12
    frequency:    6.9480293372
  - # 13
    frequency:    7.4266074264
  - # 14
    frequency:    8.4025708113
  - # 15
    frequency:    8.4177059072
  - # 16
    frequency:    9.9712922394
  - # 17
    frequency:   10.5254580896
  - # 18
    frequency:   10.5906688893
  - # 19
    frequency:   12.0871417734
  - # 20
    frequency:   12.3694636061
  - # 21
    frequency:   15.4505039452
  - # 22
    frequency:   21.0339653148
  - # 23
    frequency:   43.7248841012
  - # 24
    frequency:   64.9015821068

- q-position: [    0.0757576,    0.0000000,    0.0000000 ]
  distance:    0.0251251
  band:
  - # 1
    frequency:    0.4492047523
  - # 2
    frequency:    0.6280662230
  - # 3
    frequency:    1.0003139995
  - # 4
    frequency:    1.0141644252
  - # 5
    frequency:    1.6461742151
  - # 6
    frequency:    3.1969344606
  - # 7
    frequency:    3.3579111698
  - # 8
    frequency:    4.5963966698
  - # 9
    frequency:    4.7123272092
  - # 10
    frequency:    5.1770623947
  - # 11
    frequency:    6.8922782009
  - # 12
    frequency:    6.9501627079
  - # 13
    frequency:    7.4374227428
  - # 14
    frequency:    8.3932262640
  - # 15
    frequency:    8.4093693096
  - # 16
    frequency:    9.9550471210
  - # 17
    frequency:   10.5259531825
  - # 18
    frequency:   10.5989030980
  - # 19
    frequency:   12.0827929975
  - # 20
    frequency:   12.4044893559
  - # 21
    frequency:   15.4351882576
  - # 22
    frequency:   21.0325140228
  - # 23
    frequency:   43.7033085259
  - # 24
    frequency:   64.8997251744

- q-position: [    0.0808081,    0.0000000,    0.0000000 ]
  distance:    0.0268002
  band:
  - # 1
    frequency:    0.4944724617
  - # 2
    frequency:    0.6494331476
  - # 3
    frequency:    1.0474407816
  - # 4
    frequency:    1.0684919069
  - # 5
    frequency:    1.7456865913
  - # 6
    frequency:    3.2020106186
  - # 7
    frequency:    3.3800469548
  - # 8
    frequency:    4.5958699773
  - # 9
    frequency:    4.7206433082
  - # 10
    frequency:    5.1925258980
  - # 11
    frequency:    6.8887346795
  - # 12
    frequency:    6.9523513025
  - # 13
    frequency:    7.4487473122
  - # 14
    frequency:    8.3832923352
  - # 15
    frequency:    8.4001626371
  - # 16
    frequency:    9.9381276631
  - # 17
    frequency:   10.5264975369
  - # 18
    frequency:   10.6073684562
  - # 19
    frequency:   12.0781874725
  - # 20
    frequency:   12.4413083482
  - # 21
    frequency:   15.4189869078
  - # 22
    frequency:   21.0309757980
  - # 23
    frequency:   43.6804418132
  - # 24
    frequency:   64.8977621972

- q-position: [    0.0858586,    0.0000000,    0.0000000 ]
  distance:    0.0284752
  band:
  - # 1
    frequency:    0.5408821901
  - # 2
    frequency:    0.6702462447
  - # 3
    frequency:    1.0948801834
  - # 4
    frequency:    1.1235303014
  - # 5
    frequency:    1.8442612499
  - # 6
    frequency:    3.2072798819
  - # 7
    frequency:    3.4023332732
  - # 8
    frequency:    4.5965799796
  - # 9
    frequency:    4.7293588091
  - # 10
    frequency:    5.2080611132
  - # 11
    frequency:    6.8853423205
  - # 12
    frequency:    6.9545756593
  - # 13
    frequency:    7.4605575875
  - # 14
    frequency:    8.3727907639
  - # 15
    frequency:    8.3900394082
  - # 16
    frequency:    9.9205785576
  - # 17
    frequency:   10.5270944287
  - # 18
    frequency:   10.6160425564
  - # 19
    frequency:   12.0733351567
  - # 20
    frequency:   12.4798058551
  - # 21
    frequency:   15.4019345100
  - # 22
    frequency:   21.0293531156
  - # 23
    frequency:   43.6563209230
  - # 24
    frequency:   64.8956972126

- q-position: [    0.0909091,    0.0000000,    0.0000000 ]
  distance:    0.0301502
  band:
  - # 1
    frequency:    0.5883896295
  - # 2
    frequency:    0.6907129373
  - # 3
    frequency:    1.1425673662
  - # 4
    frequency:    1.1789770713
  - # 5
    frequency:    1.9417319434
  - # 6
    frequency:    3.2127277306
  - # 7
    frequency:    3.4246137720
  - # 8
    frequency:    4.5986657267
  - # 9
    frequency:    4.7384476719
  - # 10
    frequency:    5.2235971327
  - # 11
    frequency:    6.8821420085
  - # 12
    frequency:    6.9568146603
  - # 13
    frequency:    7.4728319820
  - # 14
    frequency:    8.3617474452
  - # 15
    frequency:    8.3789541540
  - # 16
    frequency:    9.9024421806
  - # 17
    frequency:   10.5277474378
  - # 18
    frequency:   10.6249065412
  - # 19
    frequency:   12.0682468980
  - # 20
    frequency:   12.5198630075
  - # 21
    frequency:   15.3840681128
  - # 22
    frequency:   21.0276485620
  - # 23
    frequency:   43.6309844619
  - # 24
    frequency:   64.8935344077

- q-position: [    0.0959596,    0.0000000,    0.0000000 ]
  distance:    0.0318252
  band:
  - # 1
    frequency:    0.6369404693
  - # 2
    frequency:    0.7109722789
  - # 3
    frequency:    1.1904377836
  - # 4
    frequency:    1.2346016515
  - # 5
    frequency:    2.0379437922
  - # 6
    frequency:    3.2183416040
  - # 7
    frequency:    3.4467448964
  - # 8
    frequency:    4.6022612279
  - # 9
    frequency:    4.7478822148
  - # 10
    frequency:    5.2390700812
  - # 11
    frequency:    6.8791719867
  - # 12
    frequency:    6.9590454261
  - # 13
    frequency:    7.4855506238
  - # 14
    frequency:    8.3501927114
  - # 15
    frequency:    8.3668631632
  - # 16
    frequency:    9.8837590068
  - # 17
    frequency:   10.5284604658
  - # 18
    frequency:   10.6339445818
  - # 19
    frequency:   12.0629344123
  - # 20
    frequency:   12.5613573633
  - # 21
    frequency:   15.3654272566
  - # 22
    frequency:   21.0258648278
  - # 23
    frequency:   43.6044725606
  - # 24
    frequency:   64.8912781020

- q-position: [    0.1010101,    0.0000000,    0.0000000 ]
  distance:    0.0335002
  band:
  - # 1
    frequency:    0.6864740165
  - # 2
    frequency:    0.7311156194
  - # 3
    frequency:    1.2384297988
  - # 4
    frequency:    1.2902244025
  - # 5
    frequency:    2.1327461552
  - # 6
    frequency:    3.2241112655
  - # 7
    frequency:    3.4685999613
  - # 8
    frequency:    4.6074936623
  - # 9
    frequency:    4.7576331114
  - # 10
    frequency:    5.2544232093
  - # 11
    frequency:    6.8764676967
  - # 12
    frequency:    6.9612431903
  - # 13
    frequency:    7.4986950438
  - # 14
    frequency:    8.3381615927
  - # 15
    frequency:    8.3537252735
  - # 16
    frequency:    9.8645679967
  - # 17
    frequency:   10.5292377524
  - # 18
    frequency:   10.6431433800
  - # 19
    frequency:   12.0574102475
  - # 20
    frequency:   12.6041634685
  - # 21
    frequency:   15.3460540425
  - # 22
    frequency:   21.0240046991
  - # 23
    frequency:   43.5768267494
  - # 24
    frequency:   64.8889327289

- q-position: [    0.1060606,    0.0000000,    0.0000000 ]
  distance:    0.0351752
  band:
  - # 1
    frequency:    0.7369257603
  - # 2
    frequency:    0.7512013052
  - # 3
    frequency:    1.2864858501
  - # 4
    frequency:    1.3457014944
  - # 5
    frequency:    2.2259871674
  - # 6
    frequency:    3.2300291596
  - # 7
    frequency:    3.4900737873
  - # 8
    frequency:    4.6144810841
  - # 9
    frequency:    4.7676693864
  - # 10
    frequency:    5.2696071652
  - # 11
    frequency:    6.8740616302
  - # 12
    frequency:    6.9633811526
  - # 13
    frequency:    7.5122478016
  - # 14
    frequency:    8.3256940625
  - # 15
    frequency:    8.3395027111
  - # 16
    frequency:    9.8449069466
  - # 17
    frequency:   10.5300838904
  - # 18
    frequency:   10.6524917084
  - # 19
    frequency:   12.0516877299
  - # 20
    frequency:   12.6481533995
  - # 21
    frequency:   15.3259932129
  - # 22
    frequency:   21.0220710491
  - # 23
    frequency:   43.5480898312
  - # 24
    frequency:   64.8865028181

- q-position: [    0.1111111,    0.0000000,    0.0000000 ]
  distance:    0.0368502
  band:
  - # 1
    frequency:    0.7712649047
  - # 2
    frequency:    0.7882291891
  - # 3
    frequency:    1.3345528455
  - # 4
    frequency:    1.4009142375
  - # 5
    frequency:    2.3175090679
  - # 6
    frequency:    3.2360907614
  - # 7
    frequency:    3.5110879152
  - # 8
    frequency:    4.6233297262
  - # 9
    frequency:    4.7779584088
  - # 10
    frequency:    5.2845804317
  - # 11
    frequency:    6.8719831914
  - # 12
    frequency:    6.9654303045
  - # 13
    frequency:    7.5261920496
  - # 14
    frequency:    8.3128352736
  - # 15
    frequency:    8.3241619788
  - # 16
    frequency:    9.8248127950
  - # 17
    frequency:   10.5310038371
  - # 18
    frequency:   10.6619799954
  - # 19
    frequency:   12.0457808969
  - # 20
    frequency:   12.6931972763
  - # 21
    frequency:   15.3052922477
  - # 22
    frequency:   21.0200668302
  - # 23
    frequency:   43.5183057526
  - # 24
    frequency:   64.8839929779

- q-position: [    0.1161616,    0.0000000,    0.0000000 ]
  distance:    0.0385252
  band:
  - # 1
    frequency:    0.7913262715
  - # 2
    frequency:    0.8403170625
  - # 3
    frequency:    1.3825821547
  - # 4
    frequency:    1.4557615553
  - # 5
    frequency:    2.4071437534
  - # 6
    frequency:    3.2422949154
  - # 7
    frequency:    3.5315963708
  - # 8
    frequency:    4.6341310690
  - # 9
    frequency:    4.7884658812
  - # 10
    frequency:    5.2993099110
  - # 11
    frequency:    6.8702585689
  - # 12
    frequency:    6.9673592245
  - # 13
    frequency:    7.5405110330
  - # 14
    frequency:    8.2996357948
  - # 15
    frequency:    8.3076747944
  - # 16
    frequency:    9.8043218854
  - # 17
    frequency:   10.5320029225
  - # 18
    frequency:   10.6715999583
  - # 19
    frequency:   12.0397044134
  - # 20
    frequency:   12.7391637362
  - # 21
    frequency:   15.2840014781
  - # 22
    frequency:   21.0179950651
  - # 23
    frequency:   43.4875194753
  - # 24
    frequency:   64.8814078767

- q-position: [    0.1212121,    0.0000000,    0.0000000 ]
  distance:    0.0402002
  band:
  - # 1
    frequency:    0.8113944242
  - # 2
    frequency:    0.8931222727
  - # 3
    frequency:    1.4305293990
  - # 4
    frequency:    1.5101546272
  - # 5
    frequency:    2.4947081692
  - # 6
    frequency:    3.2486441632
  - # 7
    frequency:    3.5515919167
  - # 8
    frequency:    4.6469588793
  - # 9
    frequency:    4.7991558227
  - # 10
    frequency:    5.3137716400
  - # 11
    frequency:    6.8689106218
  - # 12
    frequency:    6.9691338394
  - # 13
    frequency:    7.5551875193
  - # 14
    frequency:    8.2861518635
  - # 15
    frequency:    8.2900190810
  - # 16
    frequency:    9.7834701849
  - # 17
    frequency:   10.5330868512
  - # 18
    frequency:   10.6813442863
  - # 19
    frequency:   12.0334734757
  - # 20
    frequency:   12.7859203581
  - # 21
    frequency:   15.2621742211
  - # 22
    frequency:   21.0158588386
  - # 23
    frequency:   43.4557768467
  - # 24
    frequency:   64.8787522259

- q-position: [    0.1262626,    0.0000000,    0.0000000 ]
  distance:    0.0418752
  band:
  - # 1
    frequency:    0.8314709321
  - # 2
    frequency:    0.9465783902
  - # 3
    frequency:    1.4783541497
  - # 4
    frequency:    1.5640130190
  - # 5
    frequency:    2.5799992572
  - # 6
    frequency:    3.2551450576
  - # 7
    frequency:    3.5711126945
  - # 8
    frequency:    4.6618664508
  - # 9
    frequency:    4.8099905441
  - # 10
    frequency:    5.3279516203
  - # 11
    frequency:    6.8679587818
  - # 12
    frequency:    6.9707171454
  - # 13
    frequency:    7.5702031463
  - # 14
    frequency:    8.2711800090
  - # 15
    frequency:    8.2724456690
  - # 16
    frequency:    9.7622934628
  - # 17
    frequency:   10.5342616990
  - # 18
    frequency:   10.6912063701
  - # 19
    frequency:   12.0271037036
  - # 20
    frequency:   12.8333340279
  - # 21
    frequency:   15.2398669388
  - # 22
    frequency:   21.0136612889
  - # 23
    frequency:   43.4231244713
  - # 24
    frequency:   64.8760307628

- q-position: [    0.1313131,    0.0000000,    0.0000000 ]
  distance:    0.0435503
  band:
  - # 1
    frequency:    0.8515522757
  - # 2
    frequency:    1.0006199642
  - # 3
    frequency:    1.5260195940
  - # 4
    frequency:    1.6172618362
  - # 5
    frequency:    2.6627883003
  - # 6
    frequency:    3.2618084602
  - # 7
    frequency:    3.5902491126
  - # 8
    frequency:    4.6788842648
  - # 9
    frequency:    4.8209306119
  - # 10
    frequency:    5.3418467476
  - # 11
    frequency:    6.8674189788
  - # 12
    frequency:    6.9720688884
  - # 13
    frequency:    7.5855376736
  - # 14
    frequency:    8.2511510901
  - # 15
    frequency:    8.2585856908
  - # 16
    frequency:    9.7408274312
  - # 17
    frequency:   10.5355339019
  - # 18
    frequency:   10.7011800757
  - # 19
    frequency:   12.0206110233
  - # 20
    frequency:   12.8812712356
  - # 21
    frequency:   15.2171394265
  - # 22
    frequency:   21.0114055997
  - # 23
    frequency:   43.3896095840
  - # 24
    frequency:   64.8732482334

- q-position: [    0.1363636,    0.0000000,    0.0000000 ]
  distance:    0.0452253
  band:
  - # 1
    frequency:    0.8716315026
  - # 2
    frequency:    1.0551826262
  - # 3
    frequency:    1.5734921998
  - # 4
    frequency:    1.6698295898
  - # 5
    frequency:    2.7428146799
  - # 6
    frequency:    3.2686498198
  - # 7