nqpoint: 300    
npath: 3      
segment_nqpoint:
- 100
- 100
- 100
labels:
- [ 'G', 'M' ]
- [ 'M', 'K' ]
- [ 'K', 'G' ]
reciprocal_lattice:
- [   0.28721901,   0.16582597,   0.00000000 ] # a*
- [   0.00000000,   0.33165195,   0.00000000 ] # b*
- [   0.00000000,   0.00000000,   0.03643041 ] # c*
natom: 8      
lattice:
- [     3.481663689907283,     0.000000000000000,     0.000000000000000 ] # a
- [    -1.740831844953641,     3.015209202870055,     0.000000000000000 ] # b
- [     0.000000000000000,     0.000000000000000,    27.449596014863900 ] # c
points:
- symbol: C # 1
  coordinates: [  0.000000000000000,  0.000000000000000,  0.535649166175984 ]
  mass: 12.010700
- symbol: C # 2
  coordinates: [  0.666666984744047,  0.333332985985145,  0.371254048662248 ]
  mass: 12.010700
- symbol: N # 3
  coordinates: [  0.333332985432215,  0.666666983183674,  0.625069893596742 ]
  mass: 14.006700
- symbol: N # 4
  coordinates: [  0.666666984744047,  0.333332985985145,  0.327873677817572 ]
  mass: 14.006700
- symbol: O # 5
  coordinates: [  0.333332985432215,  0.666666983183674,  0.672126322182428 ]
  mass: 15.999400
- symbol: S # 6
  coordinates: [  0.666666984744047,  0.333332985985145,  0.432152360991947 ]
  mass: 32.065000
- symbol: Sc # 7
  coordinates: [  0.333332985432215,  0.666666983183674,  0.492013223246915 ]
  mass: 44.955912
- symbol: Sc # 8
  coordinates: [  0.666666984744047,  0.333332985985145,  0.582026549960478 ]
  mass: 44.955912

phonon:
- q-position: [    0.0000000,    0.0000000,    0.0000000 ]
  distance:    0.0000000
  band:
  - # 1
    frequency:   -0.5468148251
  - # 2
    frequency:   -0.5468148248
  - # 3
    frequency:   -0.0000284122
  - # 4
    frequency:   -0.0000005176
  - # 5
    frequency:    0.0000246579
  - # 6
    frequency:    3.0882361444
  - # 7
    frequency:    3.0882361445
  - # 8
    frequency:    4.8022484039
  - # 9
    frequency:    4.8022484040
  - # 10
    frequency:    5.0252886928
  - # 11
    frequency:    6.9162828596
  - # 12
    frequency:    6.9162828597
  - # 13
    frequency:    7.3937902494
  - # 14
    frequency:    8.5740530568
  - # 15
    frequency:    8.5740530569
  - # 16
    frequency:   10.0475419922
  - # 17
    frequency:   10.4921135236
  - # 18
    frequency:   10.4921135237
  - # 19
    frequency:   12.0086900319
  - # 20
    frequency:   12.0086900320
  - # 21
    frequency:   15.5866756841
  - # 22
    frequency:   21.0414678281
  - # 23
    frequency:   43.8533946530
  - # 24
    frequency:   64.9104221897

- q-position: [    0.0050505,    0.0000000,    0.0000000 ]
  distance:    0.0016750
  band:
  - # 1
    frequency:   -0.5457141355
  - # 2
    frequency:   -0.5424475352
  - # 3
    frequency:    0.0017554485
  - # 4
    frequency:    0.0562722253
  - # 5
    frequency:    0.0981249543
  - # 6
    frequency:    3.0883064043
  - # 7
    frequency:    3.0893052302
  - # 8
    frequency:    4.8003937679
  - # 9
    frequency:    4.8022398041
  - # 10
    frequency:    5.0271770865
  - # 11
    frequency:    6.9160580440
  - # 12
    frequency:    6.9163247119
  - # 13
    frequency:    7.3941225955
  - # 14
    frequency:    8.5734776701
  - # 15
    frequency:    8.5735704189
  - # 16
    frequency:   10.0469156755
  - # 17
    frequency:   10.4921541725
  - # 18
    frequency:   10.4926294498
  - # 19
    frequency:   12.0084256375
  - # 20
    frequency:   12.0098091528
  - # 21
    frequency:   15.5860170946
  - # 22
    frequency:   21.0414176684
  - # 23
    frequency:   43.8526549112
  - # 24
    frequency:   64.9103620845

- q-position: [    0.0101010,    0.0000000,    0.0000000 ]
  distance:    0.0033500
  band:
  - # 1
    frequency:   -0.5424206910
  - # 2
    frequency:   -0.5293593143
  - # 3
    frequency:    0.0070469544
  - # 4
    frequency:    0.1126481391
  - # 5
    frequency:    0.1967953507
  - # 6
    frequency:    3.0885176408
  - # 7
    frequency:    3.0925029404
  - # 8
    frequency:    4.7950338492
  - # 9
    frequency:    4.8022146505
  - # 10
    frequency:    5.0326404356
  - # 11
    frequency:    6.9153875449
  - # 12
    frequency:    6.9164501401
  - # 13
    frequency:    7.3951182501
  - # 14
    frequency:    8.5717535716
  - # 15
    frequency:    8.5721219386
  - # 16
    frequency:   10.0450440784
  - # 17
    frequency:   10.4922760515
  - # 18
    frequency:   10.4941686818
  - # 19
    frequency:   12.0076334017
  - # 20
    frequency:   12.0131646613
  - # 21
    frequency:   15.5840429255
  - # 22
    frequency:   21.0412672675
  - # 23
    frequency:   43.8504367113
  - # 24
    frequency:   64.9101818630

- q-position: [    0.0151515,    0.0000000,    0.0000000 ]
  distance:    0.0050250
  band:
  - # 1
    frequency:   -0.5369570329
  - # 2
    frequency:   -0.5074989210
  - # 3
    frequency:    0.0159777505
  - # 4
    frequency:    0.1692187643
  - # 5
    frequency:    0.2963807414
  - # 6
    frequency:    3.0888712210
  - # 7
    frequency:    3.0978007561
  - # 8
    frequency:    4.7866957960
  - # 9
    frequency:    4.8021748790
  - # 10
    frequency:    5.0411581335
  - # 11
    frequency:    6.9142830971
  - # 12
    frequency:    6.9166587548
  - # 13
    frequency:    7.3967731385
  - # 14
    frequency:    8.5688869465
  - # 15
    frequency:    8.5697059241
  - # 16
    frequency:   10.0419486935
  - # 17
    frequency:   10.4924789603
  - # 18
    frequency:   10.4967061857
  - # 19
    frequency:   12.0063161628
  - # 20
    frequency:   12.0187509717
  - # 21
    frequency:   15.5807579716
  - # 22
    frequency:   21.0410168604
  - # 23
    frequency:   43.8467431281
  - # 24
    frequency:   64.9098818070

- q-position: [    0.0202020,    0.0000000,    0.0000000 ]
  distance:    0.0067000
  band:
  - # 1
    frequency:   -0.5293503754
  - # 2
    frequency:   -0.4764981792
  - # 3
    frequency:    0.0287774946
  - # 4
    frequency:    0.2260525794
  - # 5
    frequency:    0.3969864354
  - # 6
    frequency:    3.0893694105
  - # 7
    frequency:    3.1051515470
  - # 8
    frequency:    4.7760482422
  - # 9
    frequency:    4.8021237065
  - # 10
    frequency:    5.0520726808
  - # 11
    frequency:    6.9127639038
  - # 12
    frequency:    6.9169498933
  - # 13
    frequency:    7.3990807182
  - # 14
    frequency:    8.5648880995
  - # 15
    frequency:    8.5663195797
  - # 16
    frequency:   10.0376635498
  - # 17
    frequency:   10.4927625740
  - # 18
    frequency:   10.5002021599
  - # 19
    frequency:   12.0044786352
  - # 20
    frequency:   12.0265586948
  - # 21
    frequency:   15.5761702118
  - # 22
    frequency:   21.0406668375
  - # 23
    frequency:   43.8415792789
  - # 24
    frequency:   64.9094623855

- q-position: [    0.0252525,    0.0000000,    0.0000000 ]
  distance:    0.0083750
  band:
  - # 1
    frequency:   -0.5196193991
  - # 2
    frequency:   -0.4353029266
  - # 3
    frequency:    0.0459512409
  - # 4
    frequency:    0.2831904045
  - # 5
    frequency:    0.4984845551
  - # 6
    frequency:    3.0900153541
  - # 7
    frequency:    3.1144901444
  - # 8
    frequency:    4.7637466089
  - # 9
    frequency:    4.8020656169
  - # 10
    frequency:    5.0647447291
  - # 11
    frequency:    6.9108561305
  - # 12
    frequency:    6.9173225996
  - # 13
    frequency:    7.4020323255
  - # 14
    frequency:    8.5597714499
  - # 15
    frequency:    8.5619590439
  - # 16
    frequency:   10.0322328353
  - # 17
    frequency:   10.4931264556
  - # 18
    frequency:   10.5046046006
  - # 19
    frequency:   12.0021273858
  - # 20
    frequency:   12.0365745258
  - # 21
    frequency:   15.5702907922
  - # 22
    frequency:   21.0402177439
  - # 23
    frequency:   43.8349523132
  - # 24
    frequency:   64.9089242535

- q-position: [    0.0303030,    0.0000000,    0.0000000 ]
  distance:    0.0100501
  band:
  - # 1
    frequency:   -0.5077594973
  - # 2
    frequency:   -0.3816578866
  - # 3
    frequency:    0.0687039472
  - # 4
    frequency:    0.3406455238
  - # 5
    frequency:    0.6006195102
  - # 6
    frequency:    3.0908130504
  - # 7
    frequency:    3.1257340919
  - # 8
    frequency:    4.7503573261
  - # 9
    frequency:    4.8020063417
  - # 10
    frequency:    5.0786293398
  - # 11
    frequency:    6.9085922422
  - # 12
    frequency:    6.9177755957
  - # 13
    frequency:    7.4056176140
  - # 14
    frequency:    8.5535555209
  - # 15
    frequency:    8.5566194418
  - # 16
    frequency:   10.0257081012
  - # 17
    frequency:   10.4935700741
  - # 18
    frequency:   10.5098523508
  - # 19
    frequency:   11.9992708007
  - # 20
    frequency:   12.0487810959
  - # 21
    frequency:   15.5631340003
  - # 22
    frequency:   21.0396702768
  - # 23
    frequency:   43.8268713977
  - # 24
    frequency:   64.9082682504

- q-position: [    0.0353535,    0.0000000,    0.0000000 ]
  distance:    0.0117251
  band:
  - # 1
    frequency:   -0.4937283349
  - # 2
    frequency:   -0.3113399038
  - # 3
    frequency:    0.1003859111
  - # 4
    frequency:    0.3984080597
  - # 5
    frequency:    0.7031120970
  - # 6
    frequency:    3.0917673187
  - # 7
    frequency:    3.1387845268
  - # 8
    frequency:    4.7363433513
  - # 9
    frequency:    4.8019528333
  - # 10
    frequency:    5.0932910752
  - # 11
    frequency:    6.9060102250
  - # 12
    frequency:    6.9183072449
  - # 13
    frequency:    7.4098250454
  - # 14
    frequency:    8.5462629243
  - # 15
    frequency:    8.5502949556
  - # 16
    frequency:   10.0181454092
  - # 17
    frequency:   10.4940928259
  - # 18
    frequency:   10.5158782601
  - # 19
    frequency:   11.9959190422
  - # 20
    frequency:   12.0631568007
  - # 21
    frequency:   15.5547172347
  - # 22
    frequency:   21.0390252839
  - # 23
    frequency:   43.8173476972
  - # 24
    frequency:   64.9074953978

- q-position: [    0.0404040,    0.0000000,    0.0000000 ]
  distance:    0.0134001
  band:
  - # 1
    frequency:   -0.4774321333
  - # 2
    frequency:   -0.2189877518
  - # 3
    frequency:    0.1518893636
  - # 4
    frequency:    0.4564516712
  - # 5
    frequency:    0.8057194350
  - # 6
    frequency:    3.0928837618
  - # 7
    frequency:    3.1535271496
  - # 8
    frequency:    4.7220782038
  - # 9
    frequency:    4.8019132337
  - # 10
    frequency:    5.1083906934
  - # 11
    frequency:    6.9031527297
  - # 12
    frequency:    6.9189155051
  - # 13
    frequency:    7.4146423911
  - # 14
    frequency:    8.5379203369
  - # 15
    frequency:    8.5429789126
  - # 16
    frequency:   10.0096027207
  - # 17
    frequency:   10.4946940617
  - # 18
    frequency:   10.5226121442
  - # 19
    frequency:   11.9920839957
  - # 20
    frequency:   12.0796756143
  - # 21
    frequency:   15.5450609660
  - # 22
    frequency:   21.0382837601
  - # 23
    frequency:   43.8063943520
  - # 24
    frequency:   64.9066068975

- q-position: [    0.0454545,    0.0000000,    0.0000000 ]
  distance:    0.0150751
  band:
  - # 1
    frequency:   -0.4587111523
  - # 2
    frequency:   -0.1162804376
  - # 3
    frequency:    0.2425104351
  - # 4
    frequency:    0.5147405495
  - # 5
    frequency:    0.9082525222
  - # 6
    frequency:    3.0941687240
  - # 7
    frequency:    3.1698332389
  - # 8
    frequency:    4.7078672820
  - # 9
    frequency:    4.8018968359
  - # 10
    frequency:    5.1236646658
  - # 11
    frequency:    6.9000661783
  - # 12
    frequency:    6.9195978739
  - # 13
    frequency:    7.4200572091
  - # 14
    frequency:    8.5285584682
  - # 15
    frequency:    8.5346638934
  - # 16
    frequency:   10.0001377235
  - # 17
    frequency:   10.4953731153
  - # 18
    frequency:   10.5299833366
  - # 19
    frequency:   11.9877792071
  - # 20
    frequency:   12.0983069037
  - # 21
    frequency:   15.5341886938
  - # 22
    frequency:   21.0374468444
  - # 23
    frequency:   43.7940264501
  - # 24
    frequency:   64.9056041279

- q-position: [    0.0505051,    0.0000000,    0.0000000 ]
  distance:    0.0167501
  band:
  - # 1
    frequency:   -0.4373206430
  - # 2
    frequency:    0.0568283352
  - # 3
    frequency:    0.3475730364
  - # 4
    frequency:    0.5732352541
  - # 5
    frequency:    1.0105708125
  - # 6
    frequency:    3.0956292461
  - # 7
    frequency:    3.1875606826
  - # 8
    frequency:    4.6939674485
  - # 9
    frequency:    4.8019140386
  - # 10
    frequency:    5.1389065095
  - # 11
    frequency:    6.8967998637
  - # 12
    frequency:    6.9203513231
  - # 13
    frequency:    7.4260572612
  - # 14
    frequency:    8.5182120169
  - # 15
    frequency:    8.5253418610
  - # 16
    frequency:    9.9898061843
  - # 17
    frequency:   10.4961293364
  - # 18
    frequency:   10.5379227281
  - # 19
    frequency:   11.9830198106
  - # 20
    frequency:   12.1190152538
  - # 21
    frequency:   15.5221268967
  - # 22
    frequency:   21.0365158163
  - # 23
    frequency:   43.7802609966
  - # 24
    frequency:   64.9044886412

- q-position: [    0.0555556,    0.0000000,    0.0000000 ]
  distance:    0.0184251
  band:
  - # 1
    frequency:   -0.4129005777
  - # 2
    frequency:    0.1251127517
  - # 3
    frequency:    0.4428092234
  - # 4
    frequency:    0.6318967441
  - # 5
    frequency:    1.1125696204
  - # 6
    frequency:    3.0972730189
  - # 7
    frequency:    3.2065550148
  - # 8
    frequency:    4.6806024453
  - # 9
    frequency:    4.8019762938
  - # 10
    frequency:    5.1539523371
  - # 11
    frequency:    6.8934050677
  - # 12
    frequency:    6.9211722232
  - # 13
    frequency:    7.4326308505
  - # 14
    frequency:    8.5069196160
  - # 15
    frequency:    8.5150043134
  - # 16
    frequency:    9.9786608289
  - # 17
    frequency:   10.4969621247
  - # 18
    frequency:   10.5463642809
  - # 19
    frequency:   11.9778224461
  - # 20
    frequency:   12.1417603175
  - # 21
    frequency:   15.5089049774
  - # 22
    frequency:   21.0354920913
  - # 23
    frequency:   43.7651168787
  - # 24
    frequency:   64.9032621594

- q-position: [    0.0606061,    0.0000000,    0.0000000 ]
  distance:    0.0201001
  band:
  - # 1
    frequency:   -0.3849217628
  - # 2
    frequency:    0.1699201285
  - # 3
    frequency:    0.5290433404
  - # 4
    frequency:    0.6906886203
  - # 5
    frequency:    1.2141680137
  - # 6
    frequency:    3.0991083377
  - # 7
    frequency:    3.2266504700
  - # 8
    frequency:    4.6679742540
  - # 9
    frequency:    4.8020960471
  - # 10
    frequency:    5.1686704641
  - # 11
    frequency:    6.8899342166
  - # 12
    frequency:    6.9220562561
  - # 13
    frequency:    7.4397670608
  - # 14
    frequency:    8.4947237662
  - # 15
    frequency:    8.5036424618
  - # 16
    frequency:    9.9667506917
  - # 17
    frequency:   10.4978709662
  - # 18
    frequency:   10.5552460609
  - # 19
    frequency:   11.9722051673
  - # 20
    frequency:   12.1664966989
  - # 21
    frequency:   15.4945552032
  - # 22
    frequency:   21.0343772169
  - # 23
    frequency:   43.7486148267
  - # 24
    frequency:   64.9019265702

- q-position: [    0.0656566,    0.0000000,    0.0000000 ]
  distance:    0.0217751
  band:
  - # 1
    frequency:   -0.3525818630
  - # 2
    frequency:    0.2109992779
  - # 3
    frequency:    0.6090709573
  - # 4
    frequency:    0.7495779550
  - # 5
    frequency:    1.3152994931
  - # 6
    frequency:    3.1011440593
  - # 7
    frequency:    3.2476710928
  - # 8
    frequency:    4.6562711831
  - # 9
    frequency:    4.8022866699
  - # 10
    frequency:    5.1829542218
  - # 11
    frequency:    6.8864400833
  - # 12
    frequency:    6.9229983156
  - # 13
    frequency:    7.4474558925
  - # 14
    frequency:    8.4816707570
  - # 15
    frequency:    8.4912474358
  - # 16
    frequency:    9.9541208500
  - # 17
    frequency:   10.4988554695
  - # 18
    frequency:   10.5645108626
  - # 19
    frequency:   11.9661873397
  - # 20
    frequency:   12.1931738794
  - # 21
    frequency:   15.4791126433
  - # 22
    frequency:   21.0331728677
  - # 23
    frequency:   43.7307773719
  - # 24
    frequency:   64.9004839226

- q-position: [    0.0707071,    0.0000000,    0.0000000 ]
  distance:    0.0234501
  band:
  - # 1
    frequency:   -0.3145842808
  - # 2
    frequency:    0.2518768216
  - # 3
    frequency:    0.6847174725
  - # 4
    frequency:    0.8085351786
  - # 5
    frequency:    1.4159054381
  - # 6
    frequency:    3.1033895642
  - # 7
    frequency:    3.2694319759
  - # 8
    frequency:    4.6456734542
  - # 9
    frequency:    4.8025623827
  - # 10
    frequency:    5.1967171233
  - # 11
    frequency:    6.8829750433
  - # 12
    frequency:    6.9239923949
  - # 13
    frequency:    7.4556882932
  - # 14
    frequency:    8.4678105786
  - # 15
    frequency:    8.4778105196
  - # 16
    frequency:    9.9408124475
  - # 17
    frequency:   10.4999154022
  - # 18
    frequency:   10.5741065131
  - # 19
    frequency:   11.9597895302
  - # 20
    frequency:   12.2217361933
  - # 21
    frequency:   15.4626151017
  - # 22
    frequency:   21.0318808400
  - # 23
    frequency:   43.7116288006
  - # 24
    frequency:   64.8989364218

- q-position: [    0.0757576,    0.0000000,    0.0000000 ]
  distance:    0.0251251
  band:
  - # 1
    frequency:   -0.2685914272
  - # 2
    frequency:    0.2936953432
  - # 3
    frequency:    0.7571175319
  - # 4
    frequency:    0.8675334299
  - # 5
    frequency:    1.5159306397
  - # 6
    frequency:    3.1058547265
  - # 7
    frequency:    3.2917407273
  - # 8
    frequency:    4.6363568563
  - # 9
    frequency:    4.8029381693
  - # 10
    frequency:    5.2098897007
  - # 11
    frequency:    6.8795903878
  - # 12
    frequency:    6.9250314591
  - # 13
    frequency:    7.4644560867
  - # 14
    frequency:    8.4531968254
  - # 15
    frequency:    8.4633234195
  - # 16
    frequency:    9.9268629202
  - # 17
    frequency:   10.5010507263
  - # 18
    frequency:   10.5839859339
  - # 19
    frequency:   11.9530333868
  - # 20
    frequency:   12.2521228549
  - # 21
    frequency:   15.4451030493
  - # 22
    frequency:   21.0305030468
  - # 23
    frequency:   43.6911951052
  - # 24
    frequency:   64.8972864240

- q-position: [    0.0808081,    0.0000000,    0.0000000 ]
  distance:    0.0268002
  band:
  - # 1
    frequency:   -0.2094714547
  - # 2
    frequency:    0.3369037951
  - # 3
    frequency:    0.8270007734
  - # 4
    frequency:    0.9265476604
  - # 5
    frequency:    1.6153202270
  - # 6
    frequency:    3.1085498952
  - # 7
    frequency:    3.3143993022
  - # 8
    frequency:    4.6284948357
  - # 9
    frequency:    4.8034296816
  - # 10
    frequency:    5.2224175186
  - # 11
    frequency:    6.8763356929
  - # 12
    frequency:    6.9261073004
  - # 13
    frequency:    7.4737518079
  - # 14
    frequency:    8.4378865968
  - # 15
    frequency:    8.4477785677
  - # 16
    frequency:    9.9123063508
  - # 17
    frequency:   10.5022616321
  - # 18
    frequency:   10.5941070305
  - # 19
    frequency:   11.9459415111
  - # 20
    frequency:   12.2842680386
  - # 21
    frequency:   15.4266195542
  - # 22
    frequency:   21.0290415120
  - # 23
    frequency:   43.6695039309
  - # 24
    frequency:   64.8955364309

- q-position: [    0.0858586,    0.0000000,    0.0000000 ]
  distance:    0.0284752
  band:
  - # 1
    frequency:   -0.1191905784
  - # 2
    frequency:    0.3816864369
  - # 3
    frequency:    0.8948551536
  - # 4
    frequency:    0.9855536729
  - # 5
    frequency:    1.7140174437
  - # 6
    frequency:    3.1114858900
  - # 7
    frequency:    3.3372063588
  - # 8
    frequency:    4.6222592277
  - # 9
    frequency:    4.8040531328
  - # 10
    frequency:    5.2342600135
  - # 11
    frequency:    6.8732582483
  - # 12
    frequency:    6.9272103768
  - # 13
    frequency:    7.4835684511
  - # 14
    frequency:    8.4219403986
  - # 15
    frequency:    8.4311694632
  - # 16
    frequency:    9.8971738950
  - # 17
    frequency:   10.5035485686
  - # 18
    frequency:   10.6044324646
  - # 19
    frequency:   11.9385373227
  - # 20
    frequency:   12.3181010098
  - # 21
    frequency:   15.4072102122
  - # 22
    frequency:   21.0274983648
  - # 23
    frequency:   43.6465845209
  - # 24
    frequency:   64.8936890837

- q-position: [    0.0909091,    0.0000000,    0.0000000 ]
  distance:    0.0301502
  band:
  - # 1
    frequency:    0.1297662962
  - # 2
    frequency:    0.4281087420
  - # 3
    frequency:    0.9610181772
  - # 4
    frequency:    1.0445271909
  - # 5
    frequency:    1.8119618901
  - # 6
    frequency:    3.1146740148
  - # 7
    frequency:    3.3599603135
  - # 8
    frequency:    4.6178197260
  - # 9
    frequency:    4.8048251798
  - # 10
    frequency:    5.2453899136
  - # 11
    frequency:    6.8704025453
  - # 12
    frequency:    6.9283296276
  - # 13
    frequency:    7.4938991414
  - # 14
    frequency:    8.4054220533
  - # 15
    frequency:    8.4134910542
  - # 16
    frequency:    9.8814942350
  - # 17
    frequency:   10.5049122719
  - # 18
    frequency:   10.6149293514
  - # 19
    frequency:   11.9308449169
  - # 20
    frequency:   12.3535463025
  - # 21
    frequency:   15.3869230796
  - # 22
    frequency:   21.0258758337
  - # 23
    frequency:   43.6224676576
  - # 24
    frequency:   64.8917471570

- q-position: [    0.0959596,    0.0000000,    0.0000000 ]
  distance:    0.0318252
  band:
  - # 1
    frequency:    0.2218576202
  - # 2
    frequency:    0.4761767047
  - # 3
    frequency:    1.0257297328
  - # 4
    frequency:    1.1034429998
  - # 5
    frequency:    1.9090879544
  - # 6
    frequency:    3.1181260937
  - # 7
    frequency:    3.3824632646
  - # 8
    frequency:    4.6153421321
  - # 9
    frequency:    4.8057627921
  - # 10
    frequency:    5.2557930674
  - # 11
    frequency:    6.8678098268
  - # 12
    frequency:    6.9294522679
  - # 13
    frequency:    7.5047367367
  - # 14
    frequency:    8.3883986267
  - # 15
    frequency:    8.3947401638
  - # 16
    frequency:    9.8652940333
  - # 17
    frequency:   10.5063537885
  - # 18
    frequency:   10.6255689143
  - # 19
    frequency:   11.9228889177
  - # 20
    frequency:   12.3905239363
  - # 21
    frequency:   15.3658086083
  - # 22
    frequency:   21.0241762405
  - # 23
    frequency:   43.5971856012
  - # 24
    frequency:   64.8897135523

- q-position: [    0.1010101,    0.0000000,    0.0000000 ]
  distance:    0.0335002
  band:
  - # 1
    frequency:    0.2879188175
  - # 2
    frequency:    0.5258640780
  - # 3
    frequency:    1.0891640524
  - # 4
    frequency:    1.1622741702
  - # 5
    frequency:    2.0053232267
  - # 6
    frequency:    3.1218545332
  - # 7
    frequency:    3.4045259279
  - # 8
    frequency:    4.6149854202
  - # 9
    frequency:    4.8068831078
  - # 10
    frequency:    5.2654685606
  - # 11
    frequency:    6.8655177032
  - # 12
    frequency:    6.9305635552
  - # 13
    frequency:    7.5160733660
  - # 14
    frequency:    8.3709403813
  - # 15
    frequency:    8.3749159633
  - # 16
    frequency:    9.8485983654
  - # 17
    frequency:   10.5078744940
  - # 18
    frequency:   10.6363261172
  - # 19
    frequency:   11.9146943262
  - # 20
    frequency:   12.4289496654
  - # 21
    frequency:   15.3439195872
  - # 22
    frequency:   21.0224019942
  - # 23
    frequency:   43.5707720258
  - # 24
    frequency:   64.8875912910

- q-position: [    0.1060606,    0.0000000,    0.0000000 ]
  distance:    0.0351752
  band:
  - # 1
    frequency:    0.3432562977
  - # 2
    frequency:    0.5771260231
  - # 3
    frequency:    1.1514498398
  - # 4
    frequency:    1.2209913577
  - # 5
    frequency:    2.1005867163
  - # 6
    frequency:    3.1258724152
  - # 7
    frequency:    3.4259736666
  - # 8
    frequency:    4.6168977043
  - # 9
    frequency:    4.8082032739
  - # 10
    frequency:    5.2744290357
  - # 11
    frequency:    6.8635598374
  - # 12
    frequency:    6.9316465256
  - # 13
    frequency:    7.5278999076
  - # 14
    frequency:    8.3531207694
  - # 15
    frequency:    8.3540204968
  - # 16
    frequency:    9.8314311204
  - # 17
    frequency:   10.5094761075
  - # 18
    frequency:   10.6471792933
  - # 19
    frequency:   11.9062863662
  - # 20
    frequency:   12.4687352498
  - # 21
    frequency:   15.3213110901
  - # 22
    frequency:   21.0205555846
  - # 23
    frequency:   43.5432619537
  - # 24
    frequency:   64.8853835080

- q-position: [    0.1111111,    0.0000000,    0.0000000 ]
  distance:    0.0368502
  band:
  - # 1
    frequency:    0.3923739610
  - # 2
    frequency:    0.6299063846
  - # 3
    frequency:    1.2126834105
  - # 4
    frequency:    1.2795621651
  - # 5
    frequency:    2.1947866953
  - # 6
    frequency:    3.1301936243
  - # 7
    frequency:    3.4466536162
  - # 8
    frequency:    4.6212112836
  - # 9
    frequency:    4.8097402704
  - # 10
    frequency:    5.2827011557
  - # 11
    frequency:    6.8619657035
  - # 12
    frequency:    6.9326816974
  - # 13
    frequency:    7.5402054077
  - # 14
    frequency:    8.3320592592
  - # 15
    frequency:    8.3350164819
  - # 16
    frequency:    9.8138153650
  - # 17
    frequency:   10.5111606989
  - # 18
    frequency:   10.6581097785
  - # 19
    frequency:   11.8976903291
  - # 20
    frequency:   12.5097887385
  - # 21
    frequency:   15.2980404344
  - # 22
    frequency:   21.0186395767
  - # 23
    frequency:   43.5146916864
  - # 24
    frequency:   64.8830934439

- q-position: [    0.1161616,    0.0000000,    0.0000000 ]
  distance:    0.0385252
  band:
  - # 1
    frequency:    0.4373164735
  - # 2
    frequency:    0.6841417220
  - # 3
    frequency:    1.2729375411
  - # 4
    frequency:    1.3379505532
  - # 5
    frequency:    2.2878179586
  - # 6
    frequency:    3.1348330156
  - # 7
    frequency:    3.4664428128
  - # 8
    frequency:    4.6280370673
  - # 9
    frequency:    4.8115107164
  - # 10
    frequency:    5.2903261743
  - # 11
    frequency:    6.8607604213
  - # 12
    frequency:    6.9336467339
  - # 13
    frequency:    7.5529764345
  - # 14
    frequency:    8.3090418342
  - # 15
    frequency:    8.3167075698
  - # 16
    frequency:    9.7957736665
  - # 17
    frequency:   10.5129306918
  - # 18
    frequency:   10.6691015594
  - # 19
    frequency:   11.8889314196
  - # 20
    frequency:   12.5520147539
  - # 21
    frequency:   15.2741671522
  - # 22
    frequency:   21.0166566039
  - # 23
    frequency:   43.4850987343
  - # 24
    frequency:   64.8807244382

- q-position: [    0.1212121,    0.0000000,    0.0000000 ]
  distance:    0.0402002
  band:
  - # 1
    frequency:    0.4792065245
  - # 2
    frequency:    0.7397635753
  - # 3
    frequency:    1.3322675957
  - # 4
    frequency:    1.3961162871
  - # 5
    frequency:    2.3795582337
  - # 6
    frequency:    3.1398066243
  - # 7
    frequency:    3.4852571619
  - # 8
    frequency:    4.6374588099
  - # 9
    frequency:    4.8135306563
  - # 10
    frequency:    5.2973605912
  - # 11
    frequency:    6.8599646679
  - # 12
    frequency:    6.9345160637
  - # 13
    frequency:    7.5661963579
  - # 14
    frequency:    8.2849825944
  - # 15
    frequency:    8.2982776638
  - # 16
    frequency:    9.7773283774
  - # 17
    frequency:   10.5147888590
  - # 18
    frequency:   10.6801409388
  - # 19
    frequency:   11.8800346035
  - # 20
    frequency:   12.5953147680
  - # 21
    frequency:   15.2497529776
  - # 22
    frequency:   21.0146093624
  - # 23
    frequency:   43.4545217448
  - # 24
    frequency:   64.8782799212

- q-position: [    0.1262626,    0.0000000,    0.0000000 ]
  distance:    0.0418752
  band:
  - # 1
    frequency:    0.5187328612
  - # 2
    frequency:    0.7966997138
  - # 3
    frequency:    1.3907158699
  - # 4
    frequency:    1.4540144050
  - # 5
    frequency:    2.4698633745
  - # 6
    frequency:    3.1451319238
  - # 7
    frequency:    3.5030610847
  - # 8
    frequency:    4.6495276788
  - # 9
    frequency:    4.8158153245
  - # 10
    frequency:    5.3038768864
  - # 11
    frequency:    6.8595946661
  - # 12
    frequency:    6.9352604513
  - # 13
    frequency:    7.5798445389
  - # 14
    frequency:    8.2599014700
  - # 15
    frequency:    8.2798143191
  - # 16
    frequency:    9.7585018820
  - # 17
    frequency:   10.5167383124
  - # 18
    frequency:   10.6912162232
  - # 19
    frequency:   11.8710244606
  - # 20
    frequency:   12.6395873569
  - # 21
    frequency:   15.2248618552
  - # 22
    frequency:   21.0125006046
  - # 23
    frequency:   43.4230004280
  - # 24
    frequency:   64.8757634070

- q-position: [    0.1313131,    0.0000000,    0.0000000 ]
  distance:    0.0435503
  band:
  - # 1
    frequency:    0.5563501066
  - # 2
    frequency:    0.8548747678
  - # 3
    frequency:    1.4483147403
  - # 4
    frequency:    1.5115947035
  - # 5
    frequency:    2.5585608349
  - # 6
    frequency:    3.1508281308
  - # 7
    frequency:    3.5198777952
  - # 8
    frequency:    4.6642576972
  - # 9
    frequency:    4.8183788864
  - # 10
    frequency:    5.3099643421
  - # 11
    frequency:    6.8596622442
  - # 12
    frequency:    6.9358465138
  - # 13
    frequency:    7.5938954037
  - # 14
    frequency:    8.2338247891
  - # 15
    frequency:    8.2614095204
  - # 16
    frequency:    9.7393168095
  - # 17
    frequency:   10.5187824868
  - # 18
    frequency:   10.7023174336
  - # 19
    frequency:   11.8619250436
  - # 20
    frequency:   12.6847284255
  - # 21
    frequency:   15.1995599724
  - # 22
    frequency:   21.0103331337
  - # 23
    frequency:   43.3905754821
  - # 24
    frequency:   64.8731784850

- q-position: [    0.1363636,    0.0000000,    0.0000000 ]
  distance:    0.0452253
  band:
  - # 1
    frequency:    0.5923743585
  - # 2
    frequency:    0.9142104685
  - # 3
    frequency:    1.5050889921
  - # 4
    frequency:    1.5688012326
  - # 5
    frequency:    2.6454407225
  - # 6
    frequency:    3.1569165624
  - # 7