nqpoint: 300    
npath: 3      
segment_nqpoint:
- 100
- 100
- 100
labels:
- [ 'G', 'M' ]
- [ 'M', 'K' ]
- [ 'K', 'G' ]
reciprocal_lattice:
- [   0.29181481,   0.16847936,   0.00000000 ] # a*
- [   0.00000000,   0.33695872,   0.00000000 ] # b*
- [   0.00000000,   0.00000000,   0.04072600 ] # c*
natom: 6      
lattice:
- [     3.426830890938545,     0.000000000000000,     0.000000000000000 ] # a
- [    -1.713415445469272,     2.967722606022978,     0.000000000000000 ] # b
- [     0.000000000000000,     0.000000000000000,    24.554340102122580 ] # c
points:
- symbol: Br # 1
  coordinates: [  0.333332985432215,  0.666666983183674,  0.633466020159019 ]
  mass: 79.904000
- symbol: H # 2
  coordinates: [  0.666666984744047,  0.333332985985145,  0.366533979840982 ]
  mass: 1.007940
- symbol: N # 3
  coordinates: [  0.000000000000000,  0.000000000000000,  0.505219232847569 ]
  mass: 14.006700
- symbol: O # 4
  coordinates: [  0.666666984744047,  0.333332985985145,  0.406797364729293 ]
  mass: 15.999400
- symbol: Zr # 5
  coordinates: [  0.333332985432215,  0.666666983183674,  0.459539615331943 ]
  mass: 91.224000
- symbol: Zr # 6
  coordinates: [  0.666666984744047,  0.333332985985145,  0.553153675452997 ]
  mass: 91.224000

phonon:
- q-position: [    0.0000000,    0.0000000,    0.0000000 ]
  distance:    0.0000000
  band:
  - # 1
    frequency:   -0.0000096062
  - # 2
    frequency:    0.0000003416
  - # 3
    frequency:    0.0000078079
  - # 4
    frequency:    2.5997676771
  - # 5
    frequency:    2.5997676771
  - # 6
    frequency:    4.6314736953
  - # 7
    frequency:    4.6314736953
  - # 8
    frequency:    4.8363641556
  - # 9
    frequency:    7.6593251082
  - # 10
    frequency:    7.6593251082
  - # 11
    frequency:    8.0746479439
  - # 12
    frequency:   11.5575005826
  - # 13
    frequency:   13.5511118520
  - # 14
    frequency:   15.2453336519
  - # 15
    frequency:   15.2453336519
  - # 16
    frequency:   16.5213024500
  - # 17
    frequency:   16.5213024500
  - # 18
    frequency:  111.1297011170

- q-position: [    0.0050505,    0.0000000,    0.0000000 ]
  distance:    0.0017018
  band:
  - # 1
    frequency:    0.0006909312
  - # 2
    frequency:    0.0556485177
  - # 3
    frequency:    0.0586784868
  - # 4
    frequency:    2.6000905189
  - # 5
    frequency:    2.6006671246
  - # 6
    frequency:    4.6281688558
  - # 7
    frequency:    4.6307046732
  - # 8
    frequency:    4.8396594391
  - # 9
    frequency:    7.6593659697
  - # 10
    frequency:    7.6595586592
  - # 11
    frequency:    8.0739784698
  - # 12
    frequency:   11.5571503464
  - # 13
    frequency:   13.5506820027
  - # 14
    frequency:   15.2452285807
  - # 15
    frequency:   15.2452477694
  - # 16
    frequency:   16.5179165602
  - # 17
    frequency:   16.5204846691
  - # 18
    frequency:  111.1283804652

- q-position: [    0.0101010,    0.0000000,    0.0000000 ]
  distance:    0.0034036
  band:
  - # 1
    frequency:    0.0045306854
  - # 2
    frequency:    0.1112057909
  - # 3
    frequency:    0.1173696009
  - # 4
    frequency:    2.6010546739
  - # 5
    frequency:    2.6033651318
  - # 6
    frequency:    4.6188493078
  - # 7
    frequency:    4.6284005190
  - # 8
    frequency:    4.8489553889
  - # 9
    frequency:    7.6594888082
  - # 10
    frequency:    7.6602572476
  - # 11
    frequency:    8.0719719787
  - # 12
    frequency:   11.5560997278
  - # 13
    frequency:   13.5493911625
  - # 14
    frequency:   15.2449113704
  - # 15
    frequency:   15.2449833980
  - # 16
    frequency:   16.5077751484
  - # 17
    frequency:   16.5180359872
  - # 18
    frequency:  111.1244231324

- q-position: [    0.0151515,    0.0000000,    0.0000000 ]
  distance:    0.0051054
  band:
  - # 1
    frequency:    0.0105566613
  - # 2
    frequency:    0.1665810376
  - # 3
    frequency:    0.1760979517
  - # 4
    frequency:    2.6026470159
  - # 5
    frequency:    2.6078606815
  - # 6
    frequency:    4.6048853782
  - # 7
    frequency:    4.6245700095
  - # 8
    frequency:    4.8628968250
  - # 9
    frequency:    7.6596943775
  - # 10
    frequency:    7.6614146964
  - # 11
    frequency:    8.0686342437
  - # 12
    frequency:   11.5543490099
  - # 13
    frequency:   13.5472355349
  - # 14
    frequency:   15.2443760210
  - # 15
    frequency:   15.2445198036
  - # 16
    frequency:   16.4909275010
  - # 17
    frequency:   16.5139703860
  - # 18
    frequency:  111.1178429705

- q-position: [    0.0202020,    0.0000000,    0.0000000 ]
  distance:    0.0068072
  band:
  - # 1
    frequency:    0.0189432108
  - # 2
    frequency:    0.2216843911
  - # 3
    frequency:    0.2348794934
  - # 4
    frequency:    2.6048456178
  - # 5
    frequency:    2.6141520393
  - # 6
    frequency:    4.5877149097
  - # 7
    frequency:    4.6192279096
  - # 8
    frequency:    4.8800709422
  - # 9
    frequency:    7.6599839074
  - # 10
    frequency:    7.6630207697
  - # 11
    frequency:    8.0639748191
  - # 12
    frequency:   11.5518987062
  - # 13
    frequency:   13.5442090582
  - # 14
    frequency:   15.2436124979
  - # 15
    frequency:   15.2438204914
  - # 16
    frequency:   16.4674575333
  - # 17
    frequency:   16.5083111651
  - # 18
    frequency:  111.1086630119

- q-position: [    0.0252525,    0.0000000,    0.0000000 ]
  distance:    0.0085091
  band:
  - # 1
    frequency:    0.0296875260
  - # 2
    frequency:    0.2764273402
  - # 3
    frequency:    0.2937296568
  - # 4
    frequency:    2.6076196792
  - # 5
    frequency:    2.6222366960
  - # 6
    frequency:    4.5684799883
  - # 7
    frequency:    4.6123951759
  - # 8
    frequency:    4.8993702663
  - # 9
    frequency:    7.6603590655
  - # 10
    frequency:    7.6650612586
  - # 11
    frequency:    8.0580069445
  - # 12
    frequency:   11.5487496222
  - # 13
    frequency:   13.5403037920
  - # 14
    frequency:   15.2426066838
  - # 15
    frequency:   15.2428300796
  - # 16
    frequency:   16.4374866772
  - # 17
    frequency:   16.5010909349
  - # 18
    frequency:  111.0969153889

- q-position: [    0.0303030,    0.0000000,    0.0000000 ]
  distance:    0.0102109
  band:
  - # 1
    frequency:    0.0427706823
  - # 2
    frequency:    0.3307231471
  - # 3
    frequency:    0.3526624074
  - # 4
    frequency:    2.6109294314
  - # 5
    frequency:    2.6321112855
  - # 6
    frequency:    4.5479952809
  - # 7
    frequency:    4.6040992386
  - # 8
    frequency:    4.9200238693
  - # 9
    frequency:    7.6608219025
  - # 10
    frequency:    7.6675180968
  - # 11
    frequency:    8.0507474212
  - # 12
    frequency:   11.5449029374
  - # 13
    frequency:   13.5355104349
  - # 14
    frequency:   15.2413403154
  - # 15
    frequency:   15.2414694394
  - # 16
    frequency:   16.4011784233
  - # 17
    frequency:   16.4923516022
  - # 18
    frequency:  111.0826412198

- q-position: [    0.0353535,    0.0000000,    0.0000000 ]
  distance:    0.0119127
  band:
  - # 1
    frequency:    0.0581667053
  - # 2
    frequency:    0.3844872334
  - # 3
    frequency:    0.4116899164
  - # 4
    frequency:    2.6147260254
  - # 5
    frequency:    2.6437714781
  - # 6
    frequency:    4.5268301067
  - # 7
    frequency:    4.5943743603
  - # 8
    frequency:    4.9415147122
  - # 9
    frequency:    7.6613747850
  - # 10
    frequency:    7.6703694993
  - # 11
    frequency:    8.0422164714
  - # 12
    frequency:   11.5403603074
  - # 13
    frequency:   13.5298189509
  - # 14
    frequency:   15.2396285172
  - # 15
    frequency:   15.2397909113
  - # 16
    frequency:   16.3587451223
  - # 17
    frequency:   16.4821443427
  - # 18
    frequency:  111.0658904647

- q-position: [    0.0404040,    0.0000000,    0.0000000 ]
  distance:    0.0136145
  band:
  - # 1
    frequency:    0.0758442765
  - # 2
    frequency:    0.4376375299
  - # 3
    frequency:    0.4708223944
  - # 4
    frequency:    2.6189514117
  - # 5
    frequency:    2.6572118462
  - # 6
    frequency:    4.5053919601
  - # 7
    frequency:    4.5832620644
  - # 8
    frequency:    4.9634953960
  - # 9
    frequency:    7.6620203147
  - # 10
    frequency:    7.6735901160
  - # 11
    frequency:    8.0324375963
  - # 12
    frequency:   11.5351239799
  - # 13
    frequency:   13.5232192776
  - # 14
    frequency:   15.2371559132
  - # 15
    frequency:   15.2379316992
  - # 16
    frequency:   16.3104579884
  - # 17
    frequency:   16.4705295552
  - # 18
    frequency:  111.0467217478

- q-position: [    0.0454545,    0.0000000,    0.0000000 ]
  distance:    0.0153163
  band:
  - # 1
    frequency:    0.0957673004
  - # 2
    frequency:    0.4900947768
  - # 3
    frequency:    0.5300680415
  - # 4
    frequency:    2.6235382238
  - # 5
    frequency:    2.6724256967
  - # 6
    frequency:    4.4839856801
  - # 7
    frequency:    4.5708116286
  - # 8
    frequency:    4.9857281217
  - # 9
    frequency:    7.6627612358
  - # 10
    frequency:    7.6771511830
  - # 11
    frequency:    8.0214374524
  - # 12
    frequency:   11.5291969232
  - # 13
    frequency:   13.5157020858
  - # 14
    frequency:   15.2338438001
  - # 15
    frequency:   15.2357315516
  - # 16
    frequency:   16.2566617477
  - # 17
    frequency:   16.4575767857
  - # 18
    frequency:  111.0252021502

- q-position: [    0.0505051,    0.0000000,    0.0000000 ]
  distance:    0.0170181
  band:
  - # 1
    frequency:    0.1178952202
  - # 2
    frequency:    0.5417827693
  - # 3
    frequency:    0.5894331087
  - # 4
    frequency:    2.6284096799
  - # 5
    frequency:    2.6894048652
  - # 6
    frequency:    4.4628509724
  - # 7
    frequency:    4.5570806323
  - # 8
    frequency:    5.0080461590
  - # 9
    frequency:    7.6636003322
  - # 10
    frequency:    7.6810206514
  - # 11
    frequency:    8.0092457756
  - # 12
    frequency:   11.5225829626
  - # 13
    frequency:   13.5072595585
  - # 14
    frequency:   15.2294060461
  - # 15
    frequency:   15.2331549424
  - # 16
    frequency:   16.1977960893
  - # 17
    frequency:   16.4433646124
  - # 18
    frequency:  111.0014069701

- q-position: [    0.0555556,    0.0000000,    0.0000000 ]
  distance:    0.0187199
  band:
  - # 1
    frequency:    0.1421832791
  - # 2
    frequency:    0.5926285363
  - # 3
    frequency:    0.6489220622
  - # 4
    frequency:    2.6334795225
  - # 5
    frequency:    2.7081394636
  - # 6
    frequency:    4.4421853068
  - # 7
    frequency:    4.5421355456
  - # 8
    frequency:    5.0303298050
  - # 9
    frequency:    7.6645403160
  - # 10
    frequency:    7.6851632526
  - # 11
    frequency:    7.9958953941
  - # 12
    frequency:   11.5152869205
  - # 13
    frequency:   13.4978861567
  - # 14
    frequency:   15.2234464632
  - # 15
    frequency:   15.2301619411
  - # 16
    frequency:   16.1344270236
  - # 17
    frequency:   16.4279804744
  - # 18
    frequency:  110.9754194538

- q-position: [    0.0606061,    0.0000000,    0.0000000 ]
  distance:    0.0204217
  band:
  - # 1
    frequency:    0.1685827781
  - # 2
    frequency:    0.6425624434
  - # 3
    frequency:    0.7085378427
  - # 4
    frequency:    2.6386520189
  - # 5
    frequency:    2.7286175709
  - # 6
    frequency:    4.4221576910
  - # 7
    frequency:    4.5260523407
  - # 8
    frequency:    5.0524913482
  - # 9
    frequency:    7.6655837088
  - # 10
    frequency:    7.6895404410
  - # 11
    frequency:    7.9814223947
  - # 12
    frequency:   11.5073147581
  - # 13
    frequency:   13.4875793397
  - # 14
    frequency:   15.2154131090
  - # 15
    frequency:   15.2267082643
  - # 16
    frequency:   16.0672922432
  - # 17
    frequency:   16.4115204270
  - # 18
    frequency:  110.9473304958

- q-position: [    0.0656566,    0.0000000,    0.0000000 ]
  distance:    0.0221236
  band:
  - # 1
    frequency:    0.1970413458
  - # 2
    frequency:    0.6915182112
  - # 3
    frequency:    0.7682821999
  - # 4
    frequency:    2.6438220561
  - # 5
    frequency:    2.7508248616
  - # 6
    frequency:    4.4029168634
  - # 7
    frequency:    4.5089171030
  - # 8
    frequency:    5.0744655132
  - # 9
    frequency:    7.6667327188
  - # 10
    frequency:    7.6941101074
  - # 11
    frequency:    7.9658665504
  - # 12
    frequency:   11.4986737136
  - # 13
    frequency:   13.4763402113
  - # 14
    frequency:   15.2045344061
  - # 15
    frequency:   15.2227454063
  - # 16
    frequency:   15.9973647424
  - # 17
    frequency:   16.3940888012
  - # 18
    frequency:  110.9172383113

- q-position: [    0.0707071,    0.0000000,    0.0000000 ]
  distance:    0.0238254
  band:
  - # 1
    frequency:    0.2275032217
  - # 2
    frequency:    0.7394328365
  - # 3
    frequency:    0.8281560810
  - # 4
    frequency:    2.6488753661
  - # 5
    frequency:    2.7747441622
  - # 6
    frequency:    4.3845960667
  - # 7
    frequency:    4.4908266081
  - # 8
    frequency:    5.0962032550
  - # 9
    frequency:    7.6679891141
  - # 10
    frequency:    7.6988258729
  - # 11
    frequency:    7.9492721963
  - # 12
    frequency:   11.4893724356
  - # 13
    frequency:   13.4641740656
  - # 14
    frequency:   15.1897362243
  - # 15
    frequency:   15.2182208766
  - # 16
    frequency:   15.9259355687
  - # 17
    frequency:   16.3757977413
  - # 18
    frequency:  110.8852480783

- q-position: [    0.0757576,    0.0000000,    0.0000000 ]
  distance:    0.0255272
  band:
  - # 1
    frequency:    0.2599095537
  - # 2
    frequency:    0.7862464090
  - # 3
    frequency:    0.8881600446
  - # 4
    frequency:    2.6536889307
  - # 5
    frequency:    2.8003549357
  - # 6
    frequency:    4.3673157107
  - # 7
    frequency:    4.4718888262
  - # 8
    frequency:    5.1176676257
  - # 9
    frequency:    7.6693540958
  - # 10
    frequency:    7.7036356062
  - # 11
    frequency:    7.9316899106
  - # 12
    frequency:   11.4794211074
  - # 13
    frequency:   13.4510908114
  - # 14
    frequency:   15.1695527059
  - # 15
    frequency:   15.2130785743
  - # 16
    frequency:   15.8547029378
  - # 17
    frequency:   16.3567665929
  - # 18
    frequency:  110.8514715539

- q-position: [    0.0808081,    0.0000000,    0.0000000 ]
  distance:    0.0272290
  band:
  - # 1
    frequency:    0.2941987037
  - # 2
    frequency:    0.8319018109
  - # 3
    frequency:    0.9482946655
  - # 4
    frequency:    2.6581316242
  - # 5
    frequency:    2.8276326943
  - # 6
    frequency:    4.3511847349
  - # 7
    frequency:    4.4522233009
  - # 8
    frequency:    5.1388309469
  - # 9
    frequency:    7.6708281726
  - # 10
    frequency:    7.7084784488
  - # 11
    frequency:    7.9131797108
  - # 12
    frequency:   11.4688315614
  - # 13
    frequency:   13.4371052576
  - # 14
    frequency:   15.1420789452
  - # 15
    frequency:   15.2072593324
  - # 16
    frequency:   15.7858196142
  - # 17
    frequency:   16.3371211083
  - # 18
    frequency:  110.8160266631

- q-position: [    0.0858586,    0.0000000,    0.0000000 ]
  distance:    0.0289308
  band:
  - # 1
    frequency:    0.3303065614
  - # 2
    frequency:    0.8763442920
  - # 3
    frequency:    1.0085608945
  - # 4
    frequency:    2.6620651628
  - # 5
    frequency:    2.8565483490
  - # 6
    frequency:    4.3363011834
  - # 7
    frequency:    4.4319613428
  - # 8
    frequency:    5.1596728167
  - # 9
    frequency:    7.6724110384
  - # 10
    frequency:    7.7132788120
  - # 11
    frequency:    7.8938172944
  - # 12
    frequency:   11.4576173795
  - # 13
    frequency:   13.4222372477
  - # 14
    frequency:   15.1050733729
  - # 15
    frequency:   15.2007016623
  - # 16
    frequency:   15.7217907085
  - # 17
    frequency:   16.3169924407
  - # 18
    frequency:  110.7790370626

- q-position: [    0.0909091,    0.0000000,    0.0000000 ]
  distance:    0.0306326
  band:
  - # 1
    frequency:    0.3681668597
  - # 2
    frequency:    0.9195209083
  - # 3
    frequency:    1.0689603369
  - # 4
    frequency:    2.6653454413
  - # 5
    frequency:    2.8870675124
  - # 6
    frequency:    4.3227523314
  - # 7
    frequency:    4.4112459627
  - # 8
    frequency:    5.1801786603
  - # 9
    frequency:    7.6741014567
  - # 10
    frequency:    7.7179337915
  - # 11
    frequency:    7.8737068708
  - # 12
    frequency:   11.4457939781
  - # 13
    frequency:   13.4065116333
  - # 14
    frequency:   15.0563455495
  - # 15
    frequency:   15.1933427308
  - # 16
    frequency:   15.6650861936
  - # 17
    frequency:   16.2965158961
  - # 18
    frequency:  110.7406316804

- q-position: [    0.0959596,    0.0000000,    0.0000000 ]
  distance:    0.0323344
  band:
  - # 1
    frequency:    0.4077114932
  - # 2
    frequency:    0.9613798160
  - # 3
    frequency:    1.1294954135
  - # 4
    frequency:    2.6678243494
  - # 5
    frequency:    2.9191497740
  - # 6
    frequency:    4.3106145967
  - # 7
    frequency:    4.3902314644
  - # 8
    frequency:    5.2003386370
  - # 9
    frequency:    7.6758971519
  - # 10
    frequency:    7.7222850304
  - # 11
    frequency:    7.8530095474
  - # 12
    frequency:   11.4333786754
  - # 13
    frequency:   13.3899580790
  - # 14
    frequency:   14.9944119104
  - # 15
    frequency:   15.1851195899
  - # 16
    frequency:   15.6174855970
  - # 17
    frequency:   16.2758294240
  - # 18
    frequency:  110.7009442322

- q-position: [    0.1010101,    0.0000000,    0.0000000 ]
  distance:    0.0340362
  band:
  - # 1
    frequency:    0.4488708340
  - # 2
    frequency:    1.0018694111
  - # 3
    frequency:    1.1901693744
  - # 4
    frequency:    2.6693521602
  - # 5
    frequency:    2.9527479787
  - # 6
    frequency:    4.2999533957
  - # 7
    frequency:    4.3690826079
  - # 8
    frequency:    5.2201467853
  - # 9
    frequency:    7.6777947111
  - # 10
    frequency:    7.7260502094
  - # 11
    frequency:    7.8320120771
  - # 12
    frequency:   11.4203907364
  - # 13
    frequency:   13.3726106881
  - # 14
    frequency:   14.9190536088
  - # 15
    frequency:   15.1759706723
  - # 16
    frequency:   15.5795207293
  - # 17
    frequency:   16.2550718357
  - # 18
    frequency:  110.6601127166

- q-position: [    0.1060606,    0.0000000,    0.0000000 ]
  distance:    0.0357380
  band:
  - # 1
    frequency:    0.4915740469
  - # 2
    frequency:    1.0409373062
  - # 3
    frequency:    1.2509861438
  - # 4
    frequency:    2.6697805900
  - # 5
    frequency:    2.9878075383
  - # 6
    frequency:    4.2908230637
  - # 7
    frequency:    4.3479732590
  - # 8
    frequency:    5.2396003264
  - # 9
    frequency:    7.6797894971
  - # 10
    frequency:    7.7286408420
  - # 11
    frequency:    7.8113092863
  - # 12
    frequency:   11.4068513945
  - # 13
    frequency:   13.3545074332
  - # 14
    frequency:   14.8313240571
  - # 15
    frequency:   15.1658375418
  - # 16
    frequency:   15.5504688559
  - # 17
    frequency:   16.2343807607
  - # 18
    frequency:  110.6182788911

- q-position: [    0.1111111,    0.0000000,    0.0000000 ]
  distance:    0.0374399
  band:
  - # 1
    frequency:    0.5357493986
  - # 2
    frequency:    1.0785291370
  - # 3
    frequency:    1.3119499827
  - # 4
    frequency:    2.6689666082
  - # 5
    frequency:    3.0242658114
  - # 6
    frequency:    4.2832669152
  - # 7
    frequency:    4.3270844493
  - # 8
    frequency:    5.2586990759
  - # 9
    frequency:    7.6818755746
  - # 10
    frequency:    7.7286736554
  - # 11
    frequency:    7.7922928883
  - # 12
    frequency:   11.3927838441
  - # 13
    frequency:   13.3356893597
  - # 14
    frequency:   14.7330373367
  - # 15
    frequency:   15.1546668693
  - # 16
    frequency:   15.5288651716
  - # 17
    frequency:   16.2138903735
  - # 18
    frequency:  110.5755877290

- q-position: [    0.1161616,    0.0000000,    0.0000000 ]
  distance:    0.0391417
  band:
  - # 1
    frequency:    0.5813245608
  - # 2
    frequency:    1.1145871946
  - # 3
    frequency:    1.3730649716
  - # 4
    frequency:    2.6667770561
  - # 5
    frequency:    3.0620515841
  - # 6
    frequency:    4.2773175006
  - # 7
    frequency:    4.3066018000
  - # 8
    frequency:    5.2774449287
  - # 9
    frequency:    7.6840456511
  - # 10
    frequency:    7.7231939349
  - # 11
    frequency:    7.7779283019
  - # 12
    frequency:   11.3782131996
  - # 13
    frequency:   13.3161995022
  - # 14
    frequency:   14.6261868845
  - # 15
    frequency:   15.1424125727
  - # 16
    frequency:   15.5130852173
  - # 17
    frequency:   16.1937289523
  - # 18
    frequency:  110.5321868615

- q-position: [    0.1212121,    0.0000000,    0.0000000 ]
  distance:    0.0408435
  band:
  - # 1
    frequency:    0.6282269032
  - # 2
    frequency:    1.1490488818
  - # 3
    frequency:    1.4343343263
  - # 4
    frequency:    2.6630940818
  - # 5
    frequency:    3.1010846839
  - # 6
    frequency:    4.2729970844
  - # 7
    frequency:    4.2867123032
  - # 8
    frequency:    5.2958413963
  - # 9
    frequency:    7.6862910331
  - # 10
    frequency:    7.7094131611
  - # 11
    frequency:    7.7710171334
  - # 12
    frequency:   11.3631664166
  - # 13
    frequency:   13.2960814053
  - # 14
    frequency:   14.5126016449
  - # 15
    frequency:   15.1290380292
  - # 16
    frequency:   15.5016901558
  - # 17
    frequency:   16.1740163631
  - # 18
    frequency:  110.4882260043

- q-position: [    0.1262626,    0.0000000,    0.0000000 ]
  distance:    0.0425453
  band:
  - # 1
    frequency:    0.6763837720
  - # 2
    frequency:    1.1818450047
  - # 3
    frequency:    1.4957595737
  - # 4
    frequency:    2.6578213370
  - # 5
    frequency:    3.1412757492
  - # 6
    frequency:    4.2676005135
  - # 7
    frequency:    4.2703183551
  - # 8
    frequency:    5.3138931820
  - # 9
    frequency:    7.6886015991
  - # 10
    frequency:    7.6889920527
  - # 11
    frequency:    7.7699142087
  - # 12
    frequency:   11.3476721687
  - # 13
    frequency:   13.2753770403
  - # 14
    frequency:   14.3938401964
  - # 15
    frequency:   15.1145182412
  - # 16
    frequency:   15.4935345922
  - # 17
    frequency:   16.1548615877
  - # 18
    frequency:  110.4438563734

- q-position: [    0.1313131,    0.0000000,    0.0000000 ]
  distance:    0.0442471
  band:
  - # 1
    frequency:    0.7257227505
  - # 2
    frequency:    1.2128979205
  - # 3
    frequency:    1.5573396279
  - # 4
    frequency:    2.6508907921
  - # 5
    frequency:    3.1825261774
  - # 6
    frequency:    4.2494442775
  - # 7
    frequency:    4.2692853527
  - # 8
    frequency:    5.3316057886
  - # 9
    frequency:    7.6650224157
  - # 10
    frequency:    7.6909657892
  - # 11
    frequency:    7.7715457480
  - # 12
    frequency:   11.3317606730
  - # 13
    frequency:   13.2541237378
  - # 14
    frequency:   14.2712105010
  - # 15
    frequency:   15.0988418169
  - # 16
    frequency:   15.4877496616
  - # 17
    frequency:   16.1363604374
  - # 18
    frequency:  110.3992300908

- q-position: [    0.1363636,    0.0000000,    0.0000000 ]
  distance:    0.0459489
  band:
  - # 1
    frequency:    0.7761718958
  - # 2
    frequency:    1.2421195916
  - # 3
    frequency:    1.6190698123
  - # 4
    frequency:    2.6422699284
  - # 5
    frequency:    3.2247282599
  - # 6
    frequency:    4.2324102030
  - # 7
    frequency:    4.2698945879
  - # 8
    frequency:    5.3489851538
  - # 9
    frequency:    7.6391329107
  - # 10
    frequency:    7.6933706127
  - # 11
    frequency:    7.7743035724
  - # 12
    frequency:   11.3154634594
  - # 13
    frequency:   13.2323493948
  - # 14
    frequency:   14.1458304843
  - # 15
    frequency:   15.0820126174
  - # 16
    frequency:   15.4836869018
  - # 17
    frequency:   16.1185935992
  - # 18
    frequency:  110.3544995827

- q-position: [    0.1414141,    0.0000000,    0.0000000 ]
  distance:    0.0476507
  band:
  - # 1
    frequency:    0.8276599480
  - # 2
    frequency:    1.2694096296
  - # 3
    frequency:    1.6809408805
  - # 4
    frequency:    2.6319689578
  - # 5
    frequency:    3.2677655146
  - # 6
    frequency:    4.2166491450
  - # 7
    frequency:    4.2721363069
  - # 8
    frequency:    5.3660373156
  - # 9
    frequency:    7.6120200003
  - # 10
    frequency:    7.6958016725
  - # 11
    frequency:    7.7775140780
  - # 12
    frequency:   11.2988130761
  - # 13
    frequency:   13.2100644781
  - # 14
    frequency:   14.0186920620
  - # 15
    frequency:   15.0640509347
  - # 16
    frequency:   15.4808617564
  - # 17
    frequency:   16.1016251532
  - # 18
    frequency:  110.3098169738

- q-position: [    0.1464646,    0.0000000,    0.0000000 ]
  distance:    0.0493525
  band:
  - # 1
    frequency:    0.8801165079
  - # 2
    frequency:    1.2946534732
  - # 3
    frequency:    1.7429380903
  - # 4
    frequency:    2.6200476202
  - # 5
    frequency:    3.3115132183
  - # 6
    frequency:    4.2022920294
  - # 7
    frequency:    4.2759958448
  - # 8
    frequency:    5.3827681100
  - # 9
    frequency:    7.5840101968
  - # 10
    frequency:    7.6982432073
  - # 11
    frequency:    7.7808758625
  - # 12
    frequency:   11.2818427278
  - # 13
    frequency:   13.1872476864
  - # 14
    frequency:   13.8907200582
  - # 15
    frequency:   15.0449940916
  - # 16
    frequency:   15.4789083800
  - # 17
    frequency:   16.0855016696
  - # 18
    frequency:  110.2653334782

- q-position: [    0.1515152,    0.0000000,    0.0000000 ]
  distance:    0.0510544
  band:
  - # 1
    frequency:    0.9334721808
  - # 2
    frequency:    1.3177209237
  - # 3
    frequency:    1.8050403790
  - # 4
    frequency:    2.6066210149
  - # 5
    frequency:    3.3558391421
  - # 6
    frequency:    4.1894463498
  - # 7
    frequency:    4.2814549974
  - # 8
    frequency:    5.3991829057
  - # 9
    frequency:    7.5552812306
  - # 10
    frequency:    7.7006781504
  - # 11
    frequency:    7.7842383877
  - # 12
    frequency:   11.2645858432
  - # 13
    frequency:   13.1638181566
  - # 14
    frequency:   13.7628323382
  - # 15
    frequency:   15.0248963982
  - # 16
    frequency:   15.4775465106
  - # 17
    frequency:   16.0702519515
  - # 18
    frequency:  110.2211987927

- q-position: [    0.1565657,    0.0000000,    0.0000000 ]
  distance:    0.0527562
  band:
  - # 1
    frequency:    0.9876586862
  - # 2
    frequency:    1.3384653740
  - # 3
    frequency:    1.8672196817
  - # 4
    frequency:    2.5918638566
  - # 5
    frequency:    3.4006045013
  - # 6
    frequency:    4.1781936317
  - # 7
    frequency:    4.2884933264
  - # 8
    frequency:    5.4152863832
  - # 9
    frequency:    7.5259448632
  - # 10
    frequency:    7.7030882053
  - # 11
    frequency:    7.7875189625
  - # 12
    frequency:   11.2470755740
  - # 13
    frequency:   13.1395766538
  - # 14
    frequency:   13.6360210441
  - # 15
    frequency:   15.0038284541
  - # 16
    frequency:   15.4765580501
  - # 17
    frequency:   16.0558874357
  - # 18
    frequency:  110.1775604913

- q-position: [    0.1616162,    0.0000000,    0.0000000 ]
  distance:    0.0544580
  band:
  - # 1
    frequency:    1.0426089348
  - # 2
    frequency:    1.3567242041
  - # 3
    frequency:    1.9294404276
  - # 4
    frequency:    2.5760124879
  - # 5
    frequency:    3.4456651326
  - # 6
    frequency:    4.1685880799
  - # 7
    frequency:    4.2970893050
  - # 8
    frequency:    5.4310823646
  - # 9
    frequency:    7.4960806058
  - # 10
    frequency:    7.7054539366
  - # 11
    frequency:    7.7906687923
  - # 12
    frequency:   11.2293442331
  - # 13
    frequency:   13.1140680831
  - # 14
    frequency:   13.5115051935
  - # 15
    frequency:   14.9818758399
  - # 16
    frequency:   15.4757707157
  - # 17
    frequency:   16.0424032088
  - # 18
    frequency:  110.1345634283

- q-position: [    0.1666667,    0.0000000,    0.0000000 ]
  distance:    0.0561598
  band:
  - # 1
    frequency:    1.0982570762
  - # 2
    frequency:    1.3723209716
  - # 3
    frequency:    1.9916592308
  - # 4
    frequency:    2.5593639511
  - # 5
    frequency:    3.4908729288
  - # 6
    frequency:    4.1606565028
  - # 7
    frequency:    4.3072211981
  - # 8
    frequency:    5.4465737013
  - # 9
    frequency:    7.4657508325
  - # 10
    frequency:    7.7077548761
  - # 11
    frequency:    7.7936576222
  - # 12
    frequency:   11.2114226890
  - # 13
    frequency:   13.0862229022
  - # 14
    frequency:   13.3910991361
  - # 15
    frequency:   14.9591372903
  - # 16
    frequency:   15.4750466388
  - # 17
    frequency:   16.0297795466
  - # 18
    frequency:  110.0923491490

- q-position: [    0.1717172,    0.0000000,    0.0000000 ]
  distance:    0.0578616
  band:
  - # 1
    frequency:    1.1545385223
  - # 2
    frequency:    1.3850701586
  - # 3
    frequency:    2.0538247877
  - # 4
    frequency:    2.5422714194
  - # 5
    frequency:    3.5360775688
  - # 6
    frequency:    4.1543994762
  - # 7
    frequency:    4.3188675631
  - # 8
    frequency:    5.4617622272
  - # 9
    frequency:    7.4350081618
  - # 10
    frequency:    7.7099696427
  - # 11
    frequency:    7.7964661096
  - # 12
    frequency:   11.1933397475
  - # 13
    frequency:   13.0533401022
  - # 14
    frequency:   13.2782356817
  - # 15
    frequency:   14.9357224736
  - # 16
    frequency:   15.4742743727
  - # 17
    frequency:   16.0179838533
  - # 18
    frequency:  110.0510553130

- q-position: [    0.1767677,    0.0000000,    0.0000000 ]
  distance:    0.0595634
  band:
  - # 1
    frequency:    1.2113899520
  - # 2
    frequency:    1.3947852944
  - # 3
    frequency:    2.1158779763
  - # 4
    frequency:    2.5251353557
  - # 5
    frequency:    3.5811285925
  - # 6
    frequency:    4.1497935858
  - # 7
    frequency:    4.3320072558
  - # 8
    frequency:    5.4766487830
  - # 9
    frequency:    7.4038993410
  - # 10
    frequency:    7.7120760744
  - # 11
    frequency:    7.7990817116
  - # 12
    frequency:   11.1751215698
  - # 13
    frequency:   13.0086107761
  - # 14