nqpoint: 300    
npath: 3      
segment_nqpoint:
- 100
- 100
- 100
labels:
- [ 'G', 'M' ]
- [ 'M', 'K' ]
- [ 'K', 'G' ]
reciprocal_lattice:
- [   0.28342094,   0.16363316,   0.00000000 ] # a*
- [   0.00000000,   0.32726631,   0.00000000 ] # b*
- [   0.00000000,   0.00000000,   0.03556871 ] # c*
natom: 8      
lattice:
- [     3.528320791412925,     0.000000000000000,     0.000000000000000 ] # a
- [    -1.764160395706463,     3.055615438057521,     0.000000000000000 ] # b
- [     0.000000000000000,     0.000000000000000,    28.114597827639159 ] # c
points:
- symbol: C # 1
  coordinates: [  0.333332985432214,  0.666666983183674,  0.637039864989491 ]
  mass: 12.010700
- symbol: N # 2
  coordinates: [  0.000000000000000,  0.000000000000000,  0.495733240492012 ]
  mass: 14.006700
- symbol: N # 3
  coordinates: [  0.333332985432214,  0.666666983183674,  0.592705942028779 ]
  mass: 14.006700
- symbol: O # 4
  coordinates: [  0.333332985432214,  0.666666983183674,  0.679881602604602 ]
  mass: 15.999400
- symbol: O # 5
  coordinates: [  0.666666984744047,  0.333332985985145,  0.320118397395398 ]
  mass: 15.999400
- symbol: P # 6
  coordinates: [  0.666666984744047,  0.333332985985145,  0.373337953303761 ]
  mass: 30.973762
- symbol: Y # 7
  coordinates: [  0.333332985432214,  0.666666983183674,  0.447476264623054 ]
  mass: 88.905850
- symbol: Y # 8
  coordinates: [  0.666666984744047,  0.333332985985145,  0.541462477250955 ]
  mass: 88.905850

phonon:
- q-position: [    0.0000000,    0.0000000,    0.0000000 ]
  distance:    0.0000000
  band:
  - # 1
    frequency:   -0.0000115683
  - # 2
    frequency:    0.0000002645
  - # 3
    frequency:    0.0000107032
  - # 4
    frequency:    0.1702018290
  - # 5
    frequency:    0.1702018291
  - # 6
    frequency:    1.3941919931
  - # 7
    frequency:    1.3941919931
  - # 8
    frequency:    3.3544142034
  - # 9
    frequency:    3.3544142034
  - # 10
    frequency:    4.2848199143
  - # 11
    frequency:    4.2848199143
  - # 12
    frequency:    4.4552448026
  - # 13
    frequency:    6.5055962686
  - # 14
    frequency:    6.5055962686
  - # 15
    frequency:    7.0269743427
  - # 16
    frequency:    8.3518982569
  - # 17
    frequency:   11.9689669294
  - # 18
    frequency:   11.9689669294
  - # 19
    frequency:   12.2746257236
  - # 20
    frequency:   17.7274906862
  - # 21
    frequency:   17.7274906862
  - # 22
    frequency:   33.9412807520
  - # 23
    frequency:   38.7504669574
  - # 24
    frequency:   69.1330349417

- q-position: [    0.0050505,    0.0000000,    0.0000000 ]
  distance:    0.0016529
  band:
  - # 1
    frequency:   -0.0859188754
  - # 2
    frequency:   -0.0564876134
  - # 3
    frequency:    0.0021993702
  - # 4
    frequency:    0.1867930394
  - # 5
    frequency:    0.1895912162
  - # 6
    frequency:    1.3927348800
  - # 7
    frequency:    1.3930355010
  - # 8
    frequency:    3.3547861822
  - # 9
    frequency:    3.3556070770
  - # 10
    frequency:    4.2829837051
  - # 11
    frequency:    4.2846760723
  - # 12
    frequency:    4.4568901448
  - # 13
    frequency:    6.5056281385
  - # 14
    frequency:    6.5060806436
  - # 15
    frequency:    7.0267457313
  - # 16
    frequency:    8.3513730898
  - # 17
    frequency:   11.9687105703
  - # 18
    frequency:   11.9690279438
  - # 19
    frequency:   12.2745340941
  - # 20
    frequency:   17.7275124605
  - # 21
    frequency:   17.7277276166
  - # 22
    frequency:   33.9410479577
  - # 23
    frequency:   38.7504436660
  - # 24
    frequency:   69.1319026613

- q-position: [    0.0101010,    0.0000000,    0.0000000 ]
  distance:    0.0033057
  band:
  - # 1
    frequency:   -0.1543828206
  - # 2
    frequency:   -0.1145510630
  - # 3
    frequency:    0.0080898760
  - # 4
    frequency:    0.2163604181
  - # 5
    frequency:    0.2381327335
  - # 6
    frequency:    1.3885354766
  - # 7
    frequency:    1.3896166115
  - # 8
    frequency:    3.3558999951
  - # 9
    frequency:    3.3591734386
  - # 10
    frequency:    4.2776771666
  - # 11
    frequency:    4.2842481806
  - # 12
    frequency:    4.4616316587
  - # 13
    frequency:    6.5057236673
  - # 14
    frequency:    6.5075317137
  - # 15
    frequency:    7.0260608405
  - # 16
    frequency:    8.3497982865
  - # 17
    frequency:   11.9679426695
  - # 18
    frequency:   11.9692106279
  - # 19
    frequency:   12.2742590396
  - # 20
    frequency:   17.7275777764
  - # 21
    frequency:   17.7284378186
  - # 22
    frequency:   33.9403500028
  - # 23
    frequency:   38.7503738436
  - # 24
    frequency:   69.1285082331

- q-position: [    0.0151515,    0.0000000,    0.0000000 ]
  distance:    0.0049586
  band:
  - # 1
    frequency:   -0.2152229438
  - # 2
    frequency:   -0.1756061053
  - # 3
    frequency:    0.0170608447
  - # 4
    frequency:    0.2474454135
  - # 5
    frequency:    0.3012095477
  - # 6
    frequency:    1.3821245157
  - # 7
    frequency:    1.3840888510
  - # 8
    frequency:    3.3577493065
  - # 9
    frequency:    3.3650765630
  - # 10
    frequency:    4.2694093766
  - # 11
    frequency:    4.2835470763
  - # 12
    frequency:    4.4689831107
  - # 13
    frequency:    6.5058826126
  - # 14
    frequency:    6.5099433057
  - # 15
    frequency:    7.0249225339
  - # 16
    frequency:    8.3471759451
  - # 17
    frequency:   11.9666667536
  - # 18
    frequency:   11.9695139078
  - # 19
    frequency:   12.2738000646
  - # 20
    frequency:   17.7276866127
  - # 21
    frequency:   17.7296195273
  - # 22
    frequency:   33.9391881696
  - # 23
    frequency:   38.7502576446
  - # 24
    frequency:   69.1228588881

- q-position: [    0.0202020,    0.0000000,    0.0000000 ]
  distance:    0.0066114
  band:
  - # 1
    frequency:   -0.2745610969
  - # 2
    frequency:   -0.2410320769
  - # 3
    frequency:    0.0290538486
  - # 4
    frequency:    0.2791196742
  - # 5
    frequency:    0.3702439875
  - # 6
    frequency:    1.3744313862
  - # 7
    frequency:    1.3767133738
  - # 8
    frequency:    3.3603236700
  - # 9
    frequency:    3.3732553931
  - # 10
    frequency:    4.2587989735
  - # 11
    frequency:    4.2825906004
  - # 12
    frequency:    4.4783643282
  - # 13
    frequency:    6.5061045723
  - # 14
    frequency:    6.5133051035
  - # 15
    frequency:    7.0233356967
  - # 16
    frequency:    8.3435095741
  - # 17
    frequency:   11.9648886896
  - # 18
    frequency:   11.9699360033
  - # 19
    frequency:   12.2731563497
  - # 20
    frequency:   17.7278389337
  - # 21
    frequency:   17.7312698091
  - # 22
    frequency:   33.9375645918
  - # 23
    frequency:   38.7500953262
  - # 24
    frequency:   69.1149666550

- q-position: [    0.0252525,    0.0000000,    0.0000000 ]
  distance:    0.0082643
  band:
  - # 1
    frequency:   -0.3351075106
  - # 2
    frequency:   -0.3120891423
  - # 3
    frequency:    0.0440746328
  - # 4
    frequency:    0.3115029981
  - # 5
    frequency:    0.4409013871
  - # 6
    frequency:    1.3668314404
  - # 7
    frequency:    1.3678646814
  - # 8
    frequency:    3.3636086937
  - # 9
    frequency:    3.3836246880
  - # 10
    frequency:    4.2464242453
  - # 11
    frequency:    4.2814032722
  - # 12
    frequency:    4.4892517431
  - # 13
    frequency:    6.5063889883
  - # 14
    frequency:    6.5176026006
  - # 15
    frequency:    7.0213074075
  - # 16
    frequency:    8.3388041111
  - # 17
    frequency:   11.9626166693
  - # 18
    frequency:   11.9704744424
  - # 19
    frequency:   12.2723267610
  - # 20
    frequency:   17.7280346893
  - # 21
    frequency:   17.7333845744
  - # 22
    frequency:   33.9354822483
  - # 23
    frequency:   38.7498872477
  - # 24
    frequency:   69.1048483251

- q-position: [    0.0303030,    0.0000000,    0.0000000 ]
  distance:    0.0099172
  band:
  - # 1
    frequency:   -0.3981894656
  - # 2
    frequency:   -0.3897881593
  - # 3
    frequency:    0.0620784587
  - # 4
    frequency:    0.3445534590
  - # 5
    frequency:    0.5106722454
  - # 6
    frequency:    1.3580340751
  - # 7
    frequency:    1.3611643594
  - # 8
    frequency:    3.3675862620
  - # 9
    frequency:    3.3960750740
  - # 10
    frequency:    4.2327658632
  - # 11
    frequency:    4.2800158403
  - # 12
    frequency:    4.5012366347
  - # 13
    frequency:    6.5067351500
  - # 14
    frequency:    6.5228170214
  - # 15
    frequency:    7.0188471845
  - # 16
    frequency:    8.3330659467
  - # 17
    frequency:   11.9598611885
  - # 18
    frequency:   11.9711260814
  - # 19
    frequency:   12.2713098631
  - # 20
    frequency:   17.7282738143
  - # 21
    frequency:   17.7359585946
  - # 22
    frequency:   33.9329449553
  - # 23
    frequency:   38.7496338697
  - # 24
    frequency:   69.0925254028

- q-position: [    0.0353535,    0.0000000,    0.0000000 ]
  distance:    0.0115700
  band:
  - # 1
    frequency:   -0.4747415449
  - # 2
    frequency:   -0.4645184027
  - # 3
    frequency:    0.0829798939
  - # 4
    frequency:    0.3780573311
  - # 5
    frequency:    0.5777963905
  - # 6
    frequency:    1.3478262673
  - # 7
    frequency:    1.3596659335
  - # 8
    frequency:    3.3722348071
  - # 9
    frequency:    3.4104728381
  - # 10
    frequency:    4.2182096405
  - # 11
    frequency:    4.2784647208
  - # 12
    frequency:    4.5140237882
  - # 13
    frequency:    6.5071422011
  - # 14
    frequency:    6.5289251988
  - # 15
    frequency:    7.0159673145
  - # 16
    frequency:    8.3263029553
  - # 17
    frequency:   11.9566350205
  - # 18
    frequency:   11.9718871297
  - # 19
    frequency:   12.2701039338
  - # 20
    frequency:   17.7285562280
  - # 21
    frequency:   17.7389855239
  - # 22
    frequency:   33.9299573557
  - # 23
    frequency:   38.7493357526
  - # 24
    frequency:   69.0780240437

- q-position: [    0.0404040,    0.0000000,    0.0000000 ]
  distance:    0.0132229
  band:
  - # 1
    frequency:   -0.5670275106
  - # 2
    frequency:   -0.5344724801
  - # 3
    frequency:    0.1066690440
  - # 4
    frequency:    0.4117160139
  - # 5
    frequency:    0.6408881706
  - # 6
    frequency:    1.3379440741
  - # 7
    frequency:    1.3647510938
  - # 8
    frequency:    3.3775296193
  - # 9
    frequency:    3.4266592587
  - # 10
    frequency:    4.2030712682
  - # 11
    frequency:    4.2767913333
  - # 12
    frequency:    4.5274087569
  - # 13
    frequency:    6.5076091461
  - # 14
    frequency:    6.5358993895
  - # 15
    frequency:    7.0126832747
  - # 16
    frequency:    8.3185245317
  - # 17
    frequency:   11.9529531851
  - # 18
    frequency:   11.9727531800
  - # 19
    frequency:   12.2687069814
  - # 20
    frequency:   17.7288818339
  - # 21
    frequency:   17.7424579254
  - # 22
    frequency:   33.9265249070
  - # 23
    frequency:   38.7489935561
  - # 24
    frequency:   69.0613749779

- q-position: [    0.0454545,    0.0000000,    0.0000000 ]
  distance:    0.0148757
  band:
  - # 1
    frequency:   -0.6661364175
  - # 2
    frequency:   -0.6081976887
  - # 3
    frequency:    0.1330215294
  - # 4
    frequency:    0.4452046010
  - # 5
    frequency:    0.6988981989
  - # 6
    frequency:    1.3291573563
  - # 7
    frequency:    1.3786299671
  - # 8
    frequency:    3.3834431878
  - # 9
    frequency:    3.4444492231
  - # 10
    frequency:    4.1876234291
  - # 11
    frequency:    4.2750413477
  - # 12
    frequency:    4.5412535032
  - # 13
    frequency:    6.5081348596
  - # 14
    frequency:    6.5437070035
  - # 15
    frequency:    7.0090142634
  - # 16
    frequency:    8.3097416314
  - # 17
    frequency:   11.9488329137
  - # 18
    frequency:   11.9737192421
  - # 19
    frequency:   12.2671167626
  - # 20
    frequency:   17.7292505186
  - # 21
    frequency:   17.7463673024
  - # 22
    frequency:   33.9226538658
  - # 23
    frequency:   38.7486080369
  - # 24
    frequency:   69.0426134211

- q-position: [    0.0505051,    0.0000000,    0.0000000 ]
  distance:    0.0165286
  band:
  - # 1
    frequency:   -0.7710553174
  - # 2
    frequency:   -0.6856443708
  - # 3
    frequency:    0.1619041862
  - # 4
    frequency:    0.4782029896
  - # 5
    frequency:    0.7512416060
  - # 6
    frequency:    1.3222560471
  - # 7
    frequency:    1.4028440502
  - # 8
    frequency:    3.3899455605
  - # 9
    frequency:    3.4636288414
  - # 10
    frequency:    4.1721191538
  - # 11
    frequency:    4.2732638584
  - # 12
    frequency:    4.5554667799
  - # 13
    frequency:    6.5087180961
  - # 14
    frequency:    6.5523102155
  - # 15
    frequency:    7.0049838643
  - # 16
    frequency:    8.2999668164
  - # 17
    frequency:   11.9442936105
  - # 18
    frequency:   11.9747797811
  - # 19
    frequency:   12.2653308019
  - # 20
    frequency:   17.7296621513
  - # 21
    frequency:   17.7507041324
  - # 22
    frequency:   33.9183512711
  - # 23
    frequency:   38.7481800474
  - # 24
    frequency:   69.0217789712

- q-position: [    0.0555556,    0.0000000,    0.0000000 ]
  distance:    0.0181815
  band:
  - # 1
    frequency:   -0.8804767998
  - # 2
    frequency:   -0.7665900409
  - # 3
    frequency:    0.1931785046
  - # 4
    frequency:    0.5104124707
  - # 5
    frequency:    0.7979371753
  - # 6
    frequency:    1.3179925708
  - # 7
    frequency:    1.4379198481
  - # 8
    frequency:    3.3970047151
  - # 9
    frequency:    3.4839517499
  - # 10
    frequency:    4.1568110413
  - # 11
    frequency:    4.2715105053
  - # 12
    frequency:    4.5699898724
  - # 13
    frequency:    6.5093575024
  - # 14
    frequency:    6.5616654171
  - # 15
    frequency:    7.0006208756
  - # 16
    frequency:    8.2892143041
  - # 17
    frequency:   11.9393568102
  - # 18
    frequency:   11.9759287581
  - # 19
    frequency:   12.2633464099
  - # 20
    frequency:   17.7301165830
  - # 21
    frequency:   17.7554579066
  - # 22
    frequency:   33.9136249255
  - # 23
    frequency:   38.7477105336
  - # 24
    frequency:   68.9989154938

- q-position: [    0.0606061,    0.0000000,    0.0000000 ]
  distance:    0.0198343
  band:
  - # 1
    frequency:   -0.9930457434
  - # 2
    frequency:   -0.8506700379
  - # 3
    frequency:    0.2267029052
  - # 4
    frequency:    0.5415666864
  - # 5
    frequency:    0.8396007767
  - # 6
    frequency:    1.3170238739
  - # 7
    frequency:    1.4833309507
  - # 8
    frequency:    3.4045869307
  - # 9
    frequency:    3.5051338394
  - # 10
    frequency:    4.1419676073
  - # 11
    frequency:    4.2698345596
  - # 12
    frequency:    4.5847866594
  - # 13
    frequency:    6.5100516305
  - # 14
    frequency:    6.5717224547
  - # 15
    frequency:    6.9959603492
  - # 16
    frequency:    8.2775000193
  - # 17
    frequency:   11.9340461321
  - # 18
    frequency:   11.9771596742
  - # 19
    frequency:   12.2611607022
  - # 20
    frequency:   17.7306136456
  - # 21
    frequency:   17.7606171715
  - # 22
    frequency:   33.9084833731
  - # 23
    frequency:   38.7472005326
  - # 24
    frequency:   68.9740709938

- q-position: [    0.0656566,    0.0000000,    0.0000000 ]
  distance:    0.0214872
  band:
  - # 1
    frequency:   -1.1075498343
  - # 2
    frequency:   -0.9374203875
  - # 3
    frequency:    0.2623343953
  - # 4
    frequency:    0.5714411944
  - # 5
    frequency:    0.8772444579
  - # 6
    frequency:    1.3198646859
  - # 7
    frequency:    1.5377836887
  - # 8
    frequency:    3.4126571550
  - # 9
    frequency:    3.5268463190
  - # 10
    frequency:    4.1278880240
  - # 11
    frequency:    4.2682899976
  - # 12
    frequency:    4.5998367846
  - # 13
    frequency:    6.5107989528
  - # 14
    frequency:    6.5824235830
  - # 15
    frequency:    6.9910449031
  - # 16
    frequency:    8.2648416500
  - # 17
    frequency:   11.9283872309
  - # 18
    frequency:   11.9784656164
  - # 19
    frequency:   12.2587706176
  - # 20
    frequency:   17.7311531505
  - # 21
    frequency:   17.7661695752
  - # 22
    frequency:   33.9029358771
  - # 23
    frequency:   38.7466511705
  - # 24
    frequency:   68.9472974758

- q-position: [    0.0707071,    0.0000000,    0.0000000 ]
  distance:    0.0231400
  band:
  - # 1
    frequency:   -1.2230129623
  - # 2
    frequency:   -1.0263269539
  - # 3
    frequency:    0.2999298647
  - # 4
    frequency:    0.5998625970
  - # 5
    frequency:    0.9119889238
  - # 6
    frequency:    1.3268603548
  - # 7
    frequency:    1.5996430169
  - # 8
    frequency:    3.4211793587
  - # 9
    frequency:    3.5487074851
  - # 10
    frequency:    4.1149158254
  - # 11
    frequency:    4.2669305839
  - # 12
    frequency:    4.6151309790
  - # 13
    frequency:    6.5115978785
  - # 14
    frequency:    6.5937020432
  - # 15
    frequency:    6.9859263874
  - # 16
    frequency:    8.2512587061
  - # 17
    frequency:   11.9224077432
  - # 18
    frequency:   11.9798393041
  - # 19
    frequency:   12.2561729350
  - # 20
    frequency:   17.7317348882
  - # 21
    frequency:   17.7721019161
  - # 22
    frequency:   33.8969923938
  - # 23
    frequency:   38.7460636595
  - # 24
    frequency:   68.9186507928

- q-position: [    0.0757576,    0.0000000,    0.0000000 ]
  distance:    0.0247929
  band:
  - # 1
    frequency:   -1.3387063381
  - # 2
    frequency:   -1.1168712984
  - # 3
    frequency:    0.3393471373
  - # 4
    frequency:    0.6267161582
  - # 5
    frequency:    0.9448371227
  - # 6
    frequency:    1.3381815391
  - # 7
    frequency:    1.6672870883
  - # 8
    frequency:    3.4301168746
  - # 9
    frequency:    3.5702745503
  - # 10
    frequency:    4.1034509053
  - # 11
    frequency:    4.2658089855
  - # 12
    frequency:    4.6306678487
  - # 13
    frequency:    6.5124467710
  - # 14
    frequency:    6.6054801537
  - # 15
    frequency:    6.9806680085
  - # 16
    frequency:    8.2367725813
  - # 17
    frequency:   11.9161372294
  - # 18
    frequency:   11.9812731379
  - # 19
    frequency:   12.2533642907
  - # 20
    frequency:   17.7323586265
  - # 21
    frequency:   17.7784001942
  - # 22
    frequency:   33.8906635461
  - # 23
    frequency:   38.7454392952
  - # 24
    frequency:   68.8881904829

- q-position: [    0.0808081,    0.0000000,    0.0000000 ]
  distance:    0.0264458
  band:
  - # 1
    frequency:   -1.4541140484
  - # 2
    frequency:   -1.2085656427
  - # 3
    frequency:    0.3804458313
  - # 4
    frequency:    0.6519499411
  - # 5
    frequency:    0.9765704548
  - # 6
    frequency:    1.3538375394
  - # 7
    frequency:    1.7393008885
  - # 8
    frequency:    3.4394327155
  - # 9
    frequency:    3.5910387150
  - # 10
    frequency:    4.0939571080
  - # 11
    frequency:    4.2649759370
  - # 12
    frequency:    4.6464516598
  - # 13
    frequency:    6.5133439668
  - # 14
    frequency:    6.6176667782
  - # 15
    frequency:    6.9753470384
  - # 16
    frequency:    8.2214066207
  - # 17
    frequency:   11.9096071103
  - # 18
    frequency:   11.9827592470
  - # 19
    frequency:   12.2503411949
  - # 20
    frequency:   17.7330241098
  - # 21
    frequency:   17.7850496655
  - # 22
    frequency:   33.8839605940
  - # 23
    frequency:   38.7447794530
  - # 24
    frequency:   68.8559795968

- q-position: [    0.0858586,    0.0000000,    0.0000000 ]
  distance:    0.0280986
  band:
  - # 1
    frequency:   -1.5688841116
  - # 2
    frequency:   -1.3009739872
  - # 3
    frequency:    0.4230880523
  - # 4
    frequency:    0.6755737428
  - # 5
    frequency:    1.0077417955
  - # 6
    frequency:    1.3737022312
  - # 7
    frequency:    1.8145341218
  - # 8
    frequency:    3.4490898714
  - # 9
    frequency:    3.6104294378
  - # 10
    frequency:    4.0869597873
  - # 11
    frequency:    4.2644794770
  - # 12
    frequency:    4.6624908072
  - # 13
    frequency:    6.5142877954
  - # 14
    frequency:    6.6301540315
  - # 15
    frequency:    6.9700582430
  - # 16
    frequency:    8.2051861941
  - # 17
    frequency:   11.9028505971
  - # 18
    frequency:   11.9842895377
  - # 19
    frequency:   12.2471000481
  - # 20
    frequency:   17.7337310576
  - # 21
    frequency:   17.7920348977
  - # 22
    frequency:   33.8768954041
  - # 23
    frequency:   38.7440855851
  - # 24
    frequency:   68.8220845135

- q-position: [    0.0909091,    0.0000000,    0.0000000 ]
  distance:    0.0297515
  band:
  - # 1
    frequency:   -1.6827822954
  - # 2
    frequency:   -1.3937206425
  - # 3
    frequency:    0.4671389309
  - # 4
    frequency:    0.6976522818
  - # 5
    frequency:    1.0387148479
  - # 6
    frequency:    1.3975462992
  - # 7
    frequency:    1.8920844215
  - # 8
    frequency:    3.4590515818
  - # 9
    frequency:    3.6278367889
  - # 10
    frequency:    4.0830246946
  - # 11
    frequency:    4.2643642694
  - # 12
    frequency:    4.6787967532
  - # 13
    frequency:    6.5152765990
  - # 14
    frequency:    6.6428131081
  - # 15
    frequency:    6.9649181354
  - # 16
    frequency:    8.1881387778
  - # 17
    frequency:   11.8959026137
  - # 18
    frequency:   11.9858557399
  - # 19
    frequency:   12.2436371584
  - # 20
    frequency:   17.7344791634
  - # 21
    frequency:   17.7993398289
  - # 22
    frequency:   33.8694804174
  - # 23
    frequency:   38.7433592169
  - # 24
    frequency:   68.7865747472

- q-position: [    0.0959596,    0.0000000,    0.0000000 ]
  distance:    0.0314043
  band:
  - # 1
    frequency:   -1.7956551160
  - # 2
    frequency:   -1.4864896580
  - # 3
    frequency:    0.5124670180
  - # 4
    frequency:    0.7182936335
  - # 5
    frequency:    1.0697137483
  - # 6
    frequency:    1.4250705356
  - # 7
    frequency:    1.9712532425
  - # 8
    frequency:    3.4692815847
  - # 9
    frequency:    3.6426609443
  - # 10
    frequency:    4.0827093174
  - # 11
    frequency:    4.2646710243
  - # 12
    frequency:    4.6953832906
  - # 13
    frequency:    6.5163087539
  - # 14
    frequency:    6.6554892453
  - # 15
    frequency:    6.9600700385
  - # 16
    frequency:    8.1702940485
  - # 17
    frequency:   11.8887997106
  - # 18
    frequency:   11.9874494535
  - # 19
    frequency:   12.2399487598
  - # 20
    frequency:   17.7352680933
  - # 21
    frequency:   17.8069478266
  - # 22
    frequency:   33.8617286150
  - # 23
    frequency:   38.7426019430
  - # 24
    frequency:   68.7495227453

- q-position: [    0.1010101,    0.0000000,    0.0000000 ]
  distance:    0.0330572
  band:
  - # 1
    frequency:   -1.9074026462
  - # 2
    frequency:   -1.5790189413
  - # 3
    frequency:    0.5589445478
  - # 4
    frequency:    0.7376350813
  - # 5
    frequency:    1.1008664293
  - # 6
    frequency:    1.4559363760
  - # 7
    frequency:    2.0514991877
  - # 8
    frequency:    3.4797443415
  - # 9
    frequency:    3.6543903038
  - # 10
    frequency:    4.0864853246
  - # 11
    frequency:    4.2654360245
  - # 12
    frequency:    4.7122660300
  - # 13
    frequency:    6.5173826909
  - # 14
    frequency:    6.6679961368
  - # 15
    frequency:    6.9556896331
  - # 16
    frequency:    8.1516839931
  - # 17
    frequency:   11.8815799676
  - # 18
    frequency:   11.9890621921
  - # 19
    frequency:   12.2360310319
  - # 20
    frequency:   17.7360974846
  - # 21
    frequency:   17.8148417483
  - # 22
    frequency:   33.8536534833
  - # 23
    frequency:   38.7418154232
  - # 24
    frequency:   68.7110036779

- q-position: [    0.1060606,    0.0000000,    0.0000000 ]
  distance:    0.0347101
  band:
  - # 1
    frequency:   -2.0179595166
  - # 2
    frequency:   -1.6710921044
  - # 3
    frequency:    0.6064475825
  - # 4
    frequency:    0.7558288858
  - # 5
    frequency:    1.1322373810
  - # 6
    frequency:    1.4897912573
  - # 7
    frequency:    2.1323981610
  - # 8
    frequency:    3.4904052380
  - # 9
    frequency:    3.6626919614
  - # 10
    frequency:    4.0946485043
  - # 11
    frequency:    4.2666907658
  - # 12
    frequency:    4.7294620379
  - # 13
    frequency:    6.5184969160
  - # 14
    frequency:    6.6801107656
  - # 15
    frequency:    6.9519900183
  - # 16
    frequency:    8.1323430395
  - # 17
    frequency:   11.8742828865
  - # 18
    frequency:   11.9906854251
  - # 19
    frequency:   12.2318801221
  - # 20
    frequency:   17.7369669446
  - # 21
    frequency:   17.8230040036
  - # 22
    frequency:   33.8452689766
  - # 23
    frequency:   38.7410013783
  - # 24
    frequency:   68.6710952190

- q-position: [    0.1111111,    0.0000000,    0.0000000 ]
  distance:    0.0363629
  band:
  - # 1
    frequency:   -2.1272820540
  - # 2
    frequency:   -1.7625300177
  - # 3
    frequency:    0.6548560503
  - # 4
    frequency:    0.7730299901
  - # 5
    frequency:    1.1638506476
  - # 6
    frequency:    1.5262877098
  - # 7
    frequency:    2.2136122201
  - # 8
    frequency:    3.5012307640
  - # 9
    frequency:    3.6674796142
  - # 10
    frequency:    4.1072512036
  - # 11
    frequency:    4.2684617083
  - # 12
    frequency:    4.7469895748
  - # 13
    frequency:    6.5196500301
  - # 14
    frequency:    6.6915707802
  - # 15
    frequency:    6.9492241527
  - # 16
    frequency:    8.1123082174
  - # 17
    frequency:   11.8669492695
  - # 18
    frequency:   11.9923106181
  - # 19
    frequency:   12.2274921709
  - # 20
    frequency:   17.7378760491
  - # 21
    frequency:   17.8314166158
  - # 22
    frequency:   33.8365894801
  - # 23
    frequency:   38.7401615857
  - # 24
    frequency:   68.6298773213

- q-position: [    0.1161616,    0.0000000,    0.0000000 ]
  distance:    0.0380158
  band:
  - # 1
    frequency:   -2.2353397530
  - # 2
    frequency:   -1.8531831423
  - # 3
    frequency:    0.7040536899
  - # 4
    frequency:    0.7893867668
  - # 5
    frequency:    1.1957053345
  - # 6
    frequency:    1.5650962229
  - # 7
    frequency:    2.2948661390
  - # 8
    frequency:    3.5121886707
  - # 9
    frequency:    3.6689247993
  - # 10
    frequency:    4.1240914743
  - # 11
    frequency:    4.2707701387
  - # 12
    frequency:    4.7648678932
  - # 13
    frequency:    6.5208407483
  - # 14
    frequency:    6.7020781763
  - # 15
    frequency:    6.9476809071
  - # 16
    frequency:    8.0916193555
  - # 17
    frequency:   11.8596210842
  - # 18
    frequency:   11.9939292700
  - # 19
    frequency:   12.2228633408
  - # 20
    frequency:   17.7388243413
  - # 21
    frequency:   17.8400612845
  - # 22
    frequency:   33.8276297703
  - # 23
    frequency:   38.7392978745
  - # 24
    frequency:   68.5874319846

- q-position: [    0.1212121,    0.0000000,    0.0000000 ]
  distance:    0.0396686
  band:
  - # 1
    frequency:   -2.3421097072
  - # 2
    frequency:   -1.9429250804
  - # 3
    frequency:    0.7539279123
  - # 4
    frequency:    0.8050350143
  - # 5
    frequency:    1.2277858328
  - # 6
    frequency:    1.6059127068
  - # 7
    frequency:    2.3759299619
  - # 8
    frequency:    3.5232481098
  - # 9
    frequency:    3.6674056690
  - # 10
    frequency:    4.1447648077
  - # 11
    frequency:    4.2736321359
  - # 12
    frequency:    4.7831170641
  - # 13
    frequency:    6.5220679174
  - # 14
    frequency:    6.7113144555
  - # 15
    frequency:    6.9476695484
  - # 16
    frequency:    8.0703193302
  - # 17
    frequency:   11.8523413133
  - # 18
    frequency:   11.9955329479
  - # 19
    frequency:   12.2179898490
  - # 20
    frequency:   17.7398113300
  - # 21
    frequency:   17.8489194480
  - # 22
    frequency:   33.8184049754
  - # 23
    frequency:   38.7384121209
  - # 24
    frequency:   68.5438430184

- q-position: [    0.1262626,    0.0000000,    0.0000000 ]
  distance:    0.0413215
  band:
  - # 1
    frequency:   -2.4475730179
  - # 2
    frequency:   -2.0316474123
  - # 3
    frequency:    0.8043695899
  - # 4
    frequency:    0.8200947958
  - # 5
    frequency:    1.2600684779
  - # 6
    frequency:    1.6484617611
  - # 7
    frequency:    2.4566059017
  - # 8
    frequency:    3.5343797545
  - # 9
    frequency:    3.6634209681
  - # 10
    frequency:    4.1687509033
  - # 11
    frequency:    4.2770586314
  - # 12
    frequency:    4.8017578097
  - # 13
    frequency:    6.5233305321
  - # 14
    frequency:    6.7189716147
  - # 15
    frequency:    6.9494882899
  - # 16
    frequency:    8.0484543776
  - # 17
    frequency:   11.8451537869
  - # 18
    frequency:   11.9971133193
  - # 19
    frequency:   12.2128680065
  - # 20
    frequency:   17.7408364888
  - # 21
    frequency:   17.8579723453
  - # 22
    frequency:   33.8089305345
  - # 23
    frequency:   38.7375062428
  - # 24
    frequency:   68.4991957997

- q-position: [    0.1313131,    0.0000000,    0.0000000 ]
  distance:    0.0429744
  band:
  - # 1
    frequency:   -2.5517125080
  - # 2
    frequency:   -2.1192557027
  - # 3
    frequency:    0.8346694382
  - # 4
    frequency:    0.8552727783
  - # 5
    frequency:    1.2925258625
  - # 6
    frequency:    1.6924970023
  - # 7
    frequency:    2.5367182152
  - # 8
    frequency:    3.5455559052
  - # 9
    frequency:    3.6575068206
  - # 10
    frequency:    4.1954980069
  - # 11
    frequency:    4.2810555546
  - # 12
    frequency:    4.8208113190
  - # 13
    frequency:    6.5246277493
  - # 14
    frequency:    6.7247975456
  - # 15
    frequency:    6.9533783130
  - # 16
    frequency:    8.0260744908
  - # 17
    frequency:   11.8381029985
  - # 18
    frequency:   11.9986621815
  - # 19
    frequency:   12.2074942617
  - # 20
    frequency:   17.7418992544
  - # 21
    frequency:   17.8672010775
  - # 22
    frequency:   33.7992221564
  - # 23
    frequency:   38.7365821950
  - # 24
    frequency:   68.4535770270

- q-position: [    0.1363636,    0.0000000,    0.0000000 ]
  distance:    0.0446272
  band:
  - # 1
    frequency:   -2.6545112865
  - # 2
    frequency:   -2.2056664867
  - # 3
    frequency:    0.8488459792
  - # 4
    frequency:    0.9065343766
  - # 5
    frequency:    1.3251296299
  - # 6
    frequency:    1.7377995422
  - # 7