nqpoint: 300    
npath: 3      
segment_nqpoint:
- 100
- 100
- 100
labels:
- [ 'G', 'M' ]
- [ 'M', 'K' ]
- [ 'K', 'G' ]
reciprocal_lattice:
- [   0.30041763,   0.17344620,   0.00000000 ] # a*
- [   0.00000000,   0.34689240,   0.00000000 ] # b*
- [   0.00000000,   0.00000000,   0.03942864 ] # c*
natom: 7      
lattice:
- [     3.328699489215108,     0.000000000000000,     0.000000000000000 ] # a
- [    -1.664349744607554,     2.882738319224108,     0.000000000000000 ] # b
- [     0.000000000000000,     0.000000000000000,    25.362274652733358 ] # c
points:
- symbol: H # 1
  coordinates: [  0.666666984744048,  0.333332985985145,  0.354857761112923 ]
  mass: 1.007940
- symbol: N # 2
  coordinates: [  0.000000000000000,  0.000000000000000,  0.493013427299295 ]
  mass: 14.006700
- symbol: N # 3
  coordinates: [  0.333332985432215,  0.666666983183674,  0.593349689662551 ]
  mass: 14.006700
- symbol: O # 4
  coordinates: [  0.333332985432215,  0.666666983183674,  0.645142238887077 ]
  mass: 15.999400
- symbol: O # 5
  coordinates: [  0.666666984744048,  0.333332985985145,  0.393857111817580 ]
  mass: 15.999400
- symbol: Zr # 6
  coordinates: [  0.333332985432215,  0.666666983183674,  0.447453461914171 ]
  mass: 91.224000
- symbol: Zr # 7
  coordinates: [  0.666666984744048,  0.333332985985145,  0.544226145593715 ]
  mass: 91.224000

phonon:
- q-position: [    0.0000000,    0.0000000,    0.0000000 ]
  distance:    0.0000000
  band:
  - # 1
    frequency:   -4.2241736042
  - # 2
    frequency:   -4.2241736042
  - # 3
    frequency:   -0.0000041932
  - # 4
    frequency:   -0.0000001506
  - # 5
    frequency:    0.0000032822
  - # 6
    frequency:    3.8880728418
  - # 7
    frequency:    3.8880728418
  - # 8
    frequency:    5.3630153827
  - # 9
    frequency:    5.3630153827
  - # 10
    frequency:    5.8224097230
  - # 11
    frequency:    6.8610119582
  - # 12
    frequency:    6.8610119582
  - # 13
    frequency:    7.6534546426
  - # 14
    frequency:   12.1655455720
  - # 15
    frequency:   12.1992879536
  - # 16
    frequency:   12.1992879536
  - # 17
    frequency:   13.5533362306
  - # 18
    frequency:   15.1104637444
  - # 19
    frequency:   15.1104637444
  - # 20
    frequency:   39.9539660693
  - # 21
    frequency:  110.0175574655

- q-position: [    0.0050505,    0.0000000,    0.0000000 ]
  distance:    0.0017520
  band:
  - # 1
    frequency:   -4.2227499536
  - # 2
    frequency:   -4.2217600773
  - # 3
    frequency:    0.0013623544
  - # 4
    frequency:    0.0638132773
  - # 5
    frequency:    0.1074919360
  - # 6
    frequency:    3.8885896603
  - # 7
    frequency:    3.8890280337
  - # 8
    frequency:    5.3633697610
  - # 9
    frequency:    5.3634007617
  - # 10
    frequency:    5.8223137810
  - # 11
    frequency:    6.8614188479
  - # 12
    frequency:    6.8623295469
  - # 13
    frequency:    7.6531072066
  - # 14
    frequency:   12.1601890700
  - # 15
    frequency:   12.1996294821
  - # 16
    frequency:   12.2040321632
  - # 17
    frequency:   13.5531785273
  - # 18
    frequency:   15.1106325745
  - # 19
    frequency:   15.1110780488
  - # 20
    frequency:   39.9533466793
  - # 21
    frequency:  110.0171050750

- q-position: [    0.0101010,    0.0000000,    0.0000000 ]
  distance:    0.0035040
  band:
  - # 1
    frequency:   -4.2184843183
  - # 2
    frequency:   -4.2145215952
  - # 3
    frequency:    0.0054443362
  - # 4
    frequency:    0.1276160796
  - # 5
    frequency:    0.2150076679
  - # 6
    frequency:    3.8901366107
  - # 7
    frequency:    3.8918880292
  - # 8
    frequency:    5.3644299197
  - # 9
    frequency:    5.3645581347
  - # 10
    frequency:    5.8220361259
  - # 11
    frequency:    6.8626384329
  - # 12
    frequency:    6.8662688593
  - # 13
    frequency:    7.6520675352
  - # 14
    frequency:   12.1484741284
  - # 15
    frequency:   12.2006527278
  - # 16
    frequency:   12.2139160367
  - # 17
    frequency:   13.5527059193
  - # 18
    frequency:   15.1111399453
  - # 19
    frequency:   15.1129168489
  - # 20
    frequency:   39.9514893230
  - # 21
    frequency:  110.0157496685

- q-position: [    0.0151515,    0.0000000,    0.0000000 ]
  distance:    0.0052559
  band:
  - # 1
    frequency:   -4.2113926509
  - # 2
    frequency:   -4.2024644701
  - # 3
    frequency:    0.0122270765
  - # 4
    frequency:    0.1913979962
  - # 5
    frequency:    0.3225707999
  - # 6
    frequency:    3.8927032039
  - # 7
    frequency:    3.8966361830
  - # 8
    frequency:    5.3661868883
  - # 9
    frequency:    5.3664911881
  - # 10
    frequency:    5.8216068302
  - # 11
    frequency:    6.8646674602
  - # 12
    frequency:    6.8727900478
  - # 13
    frequency:    7.6503435366
  - # 14
    frequency:   12.1342696403
  - # 15
    frequency:   12.2023536784
  - # 16
    frequency:   12.2250880512
  - # 17
    frequency:   13.5519199105
  - # 18
    frequency:   15.1119884932
  - # 19
    frequency:   15.1159678631
  - # 20
    frequency:   39.9483964399
  - # 21
    frequency:  110.0134965342

- q-position: [    0.0202020,    0.0000000,    0.0000000 ]
  distance:    0.0070079
  band:
  - # 1
    frequency:   -4.2015015528
  - # 2
    frequency:   -4.1855992764
  - # 3
    frequency:    0.0216801157
  - # 4
    frequency:    0.2551487404
  - # 5
    frequency:    0.4302045445
  - # 6
    frequency:    3.8962720482
  - # 7
    frequency:    3.9032450691
  - # 8
    frequency:    5.3686255762
  - # 9
    frequency:    5.3692059928
  - # 10
    frequency:    5.8210745980
  - # 11
    frequency:    6.8675005098
  - # 12
    frequency:    6.8818283559
  - # 13
    frequency:    7.6479483863
  - # 14
    frequency:   12.1187018203
  - # 15
    frequency:   12.2047256724
  - # 16
    frequency:   12.2364507529
  - # 17
    frequency:   13.5508229987
  - # 18
    frequency:   15.1131825937
  - # 19
    frequency:   15.1202108074
  - # 20
    frequency:   39.9440720914
  - # 21
    frequency:  110.0103544635

- q-position: [    0.0252525,    0.0000000,    0.0000000 ]
  distance:    0.0087599
  band:
  - # 1
    frequency:   -4.1888482903
  - # 2
    frequency:   -4.1639409273
  - # 3
    frequency:    0.0337615615
  - # 4
    frequency:    0.3188582006
  - # 5
    frequency:    0.5379315049
  - # 6
    frequency:    3.9008189836
  - # 7
    frequency:    3.9116769409
  - # 8
    frequency:    5.3717245647
  - # 9
    frequency:    5.3727108924
  - # 10
    frequency:    5.8205048158
  - # 11
    frequency:    6.8711299959
  - # 12
    frequency:    6.8932964213
  - # 13
    frequency:    7.6449005217
  - # 14
    frequency:   12.1021103642
  - # 15
    frequency:   12.2077594380
  - # 16
    frequency:   12.2477043209
  - # 17
    frequency:   13.5494186633
  - # 18
    frequency:   15.1147283330
  - # 19
    frequency:   15.1256176694
  - # 20
    frequency:   39.9385219532
  - # 21
    frequency:  110.0063357179

- q-position: [    0.0303030,    0.0000000,    0.0000000 ]
  distance:    0.0105119
  band:
  - # 1
    frequency:   -4.1734808130
  - # 2
    frequency:   -4.1375087770
  - # 3
    frequency:    0.0484188036
  - # 4
    frequency:    0.3825164789
  - # 5
    frequency:    0.6457734301
  - # 6
    frequency:    3.9063132691
  - # 7
    frequency:    3.9218843502
  - # 8
    frequency:    5.3754558229
  - # 9
    frequency:    5.3770163465
  - # 10
    frequency:    5.8199771365
  - # 11
    frequency:    6.8755461704
  - # 12
    frequency:    6.9070871711
  - # 13
    frequency:    7.6412236373
  - # 14
    frequency:   12.0846225890
  - # 15
    frequency:   12.2114431470
  - # 16
    frequency:   12.2587720467
  - # 17
    frequency:   13.5477113496
  - # 18
    frequency:   15.1166334674
  - # 19
    frequency:   15.1321530772
  - # 20
    frequency:   39.9317533061
  - # 21
    frequency:  110.0014559828

- q-position: [    0.0353535,    0.0000000,    0.0000000 ]
  distance:    0.0122639
  band:
  - # 1
    frequency:   -4.1554577673
  - # 2
    frequency:   -4.1063267374
  - # 3
    frequency:    0.0655893831
  - # 4
    frequency:    0.4461139135
  - # 5
    frequency:    0.7537509325
  - # 6
    frequency:    3.9127178231
  - # 7
    frequency:    3.9338109009
  - # 8
    frequency:    5.3797843547
  - # 9
    frequency:    5.3821347247
  - # 10
    frequency:    5.8195828368
  - # 11
    frequency:    6.8807371281
  - # 12
    frequency:    6.9230770504
  - # 13
    frequency:    7.6369466858
  - # 14
    frequency:   12.0662980432
  - # 15
    frequency:   12.2157624857
  - # 16
    frequency:   12.2696552530
  - # 17
    frequency:   13.5457064506
  - # 18
    frequency:   15.1189073701
  - # 19
    frequency:   15.1397747548
  - # 20
    frequency:   39.9237750227
  - # 21
    frequency:  109.9957343080

- q-position: [    0.0404040,    0.0000000,    0.0000000 ]
  distance:    0.0140159
  band:
  - # 1
    frequency:   -4.1348484974
  - # 2
    frequency:   -4.0704234019
  - # 3
    frequency:    0.0852019841
  - # 4
    frequency:    0.5096410802
  - # 5
    frequency:    0.8618831567
  - # 6
    frequency:    3.9199895143
  - # 7
    frequency:    3.9473921116
  - # 8
    frequency:    5.3846677956
  - # 9
    frequency:    5.3880800509
  - # 10
    frequency:    5.8194221744
  - # 11
    frequency:    6.8866888142
  - # 12
    frequency:    6.9411293312
  - # 13
    frequency:    7.6321038887
  - # 14
    frequency:   12.0471729481
  - # 15
    frequency:   12.2207007410
  - # 16
    frequency:   12.2803882982
  - # 17
    frequency:   13.5434102871
  - # 18
    frequency:   15.1215609636
  - # 19
    frequency:   15.1484340491
  - # 20
    frequency:   39.9145975525
  - # 21
    frequency:  109.9891930359

- q-position: [    0.0454545,    0.0000000,    0.0000000 ]
  distance:    0.0157678
  band:
  - # 1
    frequency:   -4.1117330271
  - # 2
    frequency:   -4.0298321587
  - # 3
    frequency:    0.1071775146
  - # 4
    frequency:    0.5730887712
  - # 5
    frequency:    0.9701873868
  - # 6
    frequency:    3.9280795047
  - # 7
    frequency:    3.9625563592
  - # 8
    frequency:    5.3900559843
  - # 9
    frequency:    5.3948676959
  - # 10
    frequency:    5.8196019197
  - # 11
    frequency:    6.8933850354
  - # 12
    frequency:    6.9610972798
  - # 13
    frequency:    7.6267347670
  - # 14
    frequency:   12.0272764680
  - # 15
    frequency:   12.2262389030
  - # 16
    frequency:   12.2910216822
  - # 17
    frequency:   13.5408300893
  - # 18
    frequency:   15.1246066372
  - # 19
    frequency:   15.1580765144
  - # 20
    frequency:   39.9042329034
  - # 21
    frequency:  109.9818577165

- q-position: [    0.0505051,    0.0000000,    0.0000000 ]
  distance:    0.0175198
  band:
  - # 1
    frequency:   -4.0862020089
  - # 2
    frequency:   -3.9845912761
  - # 3
    frequency:    0.1314302408
  - # 4
    frequency:    0.6364479478
  - # 5
    frequency:    1.0786785800
  - # 6
    frequency:    3.9369336410
  - # 7
    frequency:    3.9792258747
  - # 8
    frequency:    5.3958905541
  - # 9
    frequency:    5.4025140160
  - # 10
    frequency:    5.8202331724
  - # 11
    frequency:    6.9008074750
  - # 12
    frequency:    6.9828270139
  - # 13
    frequency:    7.6208842008
  - # 14
    frequency:   12.0066374244
  - # 15
    frequency:   12.2323557841
  - # 16
    frequency:   12.3016146496
  - # 17
    frequency:   13.5379739790
  - # 18
    frequency:   15.1280581485
  - # 19
    frequency:   15.1686425392
  - # 20
    frequency:   39.8926946206
  - # 21
    frequency:  109.9737570111

- q-position: [    0.0555556,    0.0000000,    0.0000000 ]
  distance:    0.0192718
  band:
  - # 1
    frequency:   -4.0583566316
  - # 2
    frequency:   -3.9347439327
  - # 3
    frequency:    0.1578689442
  - # 4
    frequency:    0.6997096655
  - # 5
    frequency:    1.1873688111
  - # 6
    frequency:    3.9464928946
  - # 7
    frequency:    3.9973177680
  - # 8
    frequency:    5.4021046013
  - # 9
    frequency:    5.4110359373
  - # 10
    frequency:    5.8214294907
  - # 11
    frequency:    6.9089357121
  - # 12
    frequency:    7.0061599311
  - # 13
    frequency:    7.6146025379
  - # 14
    frequency:   11.9852872396
  - # 15
    frequency:   12.2390281551
  - # 16
    frequency:   12.3122315161
  - # 17
    frequency:   13.5348509562
  - # 18
    frequency:   15.1319305078
  - # 19
    frequency:   15.1800679999
  - # 20
    frequency:   39.8799977633
  - # 21
    frequency:  109.9649225829

- q-position: [    0.0606061,    0.0000000,    0.0000000 ]
  distance:    0.0210238
  band:
  - # 1
    frequency:   -4.0283084716
  - # 2
    frequency:   -3.8803381607
  - # 3
    frequency:    0.1863980709
  - # 4
    frequency:    0.7628649712
  - # 5
    frequency:    1.2962666172
  - # 6
    frequency:    3.9566938481
  - # 7
    frequency:    4.0167450565
  - # 8
    frequency:    5.4086225133
  - # 9
    frequency:    5.4204504856
  - # 10
    frequency:    5.8233052920
  - # 11
    frequency:    6.9177472471
  - # 12
    frequency:    7.0309346388
  - # 13
    frequency:    7.6079457751
  - # 14
    frequency:   11.9632611960
  - # 15
    frequency:   12.2462308964
  - # 16
    frequency:   12.3229396416
  - # 17
    frequency:   13.5314708894
  - # 18
    frequency:   15.1362398433
  - # 19
    frequency:   15.1922849282
  - # 20
    frequency:   39.8661588780
  - # 21
    frequency:  109.9553889771

- q-position: [    0.0656566,    0.0000000,    0.0000000 ]
  distance:    0.0227758
  band:
  - # 1
    frequency:   -3.9961792736
  - # 2
    frequency:   -3.8214266610
  - # 3
    frequency:    0.2169188489
  - # 4
    frequency:    0.8259047714
  - # 5
    frequency:    1.4053762304
  - # 6
    frequency:    3.9674692263
  - # 7
    frequency:    4.0374176815
  - # 8
    frequency:    5.4153600542
  - # 9
    frequency:    5.4307742632
  - # 10
    frequency:    5.8259744187
  - # 11
    frequency:    6.9272175324
  - # 12
    frequency:    7.0569883408
  - # 13
    frequency:    7.6009758526
  - # 14
    frequency:   11.9405988652
  - # 15
    frequency:   12.2539371657
  - # 16
    frequency:   12.3338082081
  - # 17
    frequency:   13.5278445127
  - # 18
    frequency:   15.1410032486
  - # 19
    frequency:   15.2052221790
  - # 20
    frequency:   39.8511959695
  - # 21
    frequency:  109.9451934887

- q-position: [    0.0707071,    0.0000000,    0.0000000 ]
  distance:    0.0245277
  band:
  - # 1
    frequency:   -3.9621006484
  - # 2
    frequency:   -3.7580664396
  - # 3
    frequency:    0.2493303546
  - # 4
    frequency:    0.8888196753
  - # 5
    frequency:    1.5146966903
  - # 6
    frequency:    3.9787484690
  - # 7
    frequency:    4.0592434967
  - # 8
    frequency:    5.4222248219
  - # 9
    frequency:    5.4420228757
  - # 10
    frequency:    5.8295487227
  - # 11
    frequency:    6.9373200093
  - # 12
    frequency:    7.0841576472
  - # 13
    frequency:    7.5937611226
  - # 14
    frequency:   11.9173440907
  - # 15
    frequency:   12.2621185819
  - # 16
    frequency:   12.3449074223
  - # 17
    frequency:   13.5239834295
  - # 18
    frequency:   15.1462386092
  - # 19
    frequency:   15.2188060873
  - # 20
    frequency:   39.8351284693
  - # 21
    frequency:  109.9343760210

- q-position: [    0.0757576,    0.0000000,    0.0000000 ]
  distance:    0.0262797
  band:
  - # 1
    frequency:   -3.9262136706
  - # 2
    frequency:   -3.6903182037
  - # 3
    frequency:    0.2835305130
  - # 4
    frequency:    0.9515998151
  - # 5
    frequency:    1.6242208342
  - # 6
    frequency:    3.9904583420
  - # 7
    frequency:    4.0821292182
  - # 8
    frequency:    5.4291171850
  - # 9
    frequency:    5.4542103144
  - # 10
    frequency:    5.8341365081
  - # 11
    frequency:    6.9480261520
  - # 12
    frequency:    7.1122787531
  - # 13
    frequency:    7.5863770913
  - # 14
    frequency:   11.8935447180
  - # 15
    frequency:   12.2707454214
  - # 16
    frequency:   12.3563079600
  - # 17
    frequency:   13.5199001247
  - # 18
    frequency:   15.1519644097
  - # 19
    frequency:   15.2329611062
  - # 20
    frequency:   39.8179772014
  - # 21
    frequency:  109.9229789320

- q-position: [    0.0808081,    0.0000000,    0.0000000 ]
  distance:    0.0280317
  band:
  - # 1
    frequency:   -3.8886683641
  - # 2
    frequency:   -3.6182454455
  - # 3
    frequency:    0.3194170238
  - # 4
    frequency:    1.0142346484
  - # 5
    frequency:    1.7339341717
  - # 6
    frequency:    4.0025235838
  - # 7
    frequency:    4.1059813308
  - # 8
    frequency:    5.4359317856
  - # 9
    frequency:    5.4673483021
  - # 10
    frequency:    5.8398406890
  - # 11
    frequency:    6.9593055181
  - # 12
    frequency:    7.1411868742
  - # 13
    frequency:    7.5789075949
  - # 14
    frequency:   11.8692521746
  - # 15
    frequency:   12.2797868295
  - # 16
    frequency:   12.3680805505
  - # 17
    frequency:   13.5156079862
  - # 18
    frequency:   15.1581995206
  - # 19
    frequency:   15.2476104169
  - # 20
    frequency:   39.7997643454
  - # 21
    frequency:  109.9110468731

- q-position: [    0.0858586,    0.0000000,    0.0000000 ]
  distance:    0.0297837
  band:
  - # 1
    frequency:   -3.8496230622
  - # 2
    frequency:   -3.5419131299
  - # 3
    frequency:    0.3568882091
  - # 4
    frequency:    1.0767127526
  - # 5
    frequency:    1.8438136571
  - # 6
    frequency:    4.0148675796
  - # 7
    frequency:    4.1307069463
  - # 8
    frequency:    5.4425596389
  - # 9
    frequency:    5.4814456118
  - # 10
    frequency:    5.8467565796
  - # 11
    frequency:    6.9711258052
  - # 12
    frequency:    7.1707147184
  - # 13
    frequency:    7.5714466857
  - # 14
    frequency:   11.8445209626
  - # 15
    frequency:   12.2892110421
  - # 16
    frequency:   12.3802956440
  - # 17
    frequency:   13.5111213366
  - # 18
    frequency:   15.1649629663
  - # 19
    frequency:   15.2626765074
  - # 20
    frequency:   39.7805133976
  - # 21
    frequency:  109.8986266166

- q-position: [    0.0909091,    0.0000000,    0.0000000 ]
  distance:    0.0315357
  band:
  - # 1
    frequency:   -3.8092436324
  - # 2
    frequency:   -3.4613858891
  - # 3
    frequency:    0.3958437845
  - # 4
    frequency:    1.1390216168
  - # 5
    frequency:    1.9538263916
  - # 6
    frequency:    4.0274130606
  - # 7
    frequency:    4.1562146119
  - # 8
    frequency:    5.4488907720
  - # 9
    frequency:    5.4965073738
  - # 10
    frequency:    5.8549693215
  - # 11
    frequency:    6.9834529153
  - # 12
    frequency:    7.2006895629
  - # 13
    frequency:    7.5641017021
  - # 14
    frequency:   11.8194081010
  - # 15
    frequency:   12.2989856178
  - # 16
    frequency:   12.3930231245
  - # 17
    frequency:   13.5064554773
  - # 18
    frequency:   15.1722736745
  - # 19
    frequency:   15.2780817142
  - # 20
    frequency:   39.7602491288
  - # 21
    frequency:  109.8857668761

- q-position: [    0.0959596,    0.0000000,    0.0000000 ]
  distance:    0.0332877
  band:
  - # 1
    frequency:   -3.7677025592
  - # 2
    frequency:   -3.3767256192
  - # 3
    frequency:    0.4361855598
  - # 4
    frequency:    1.2011474470
  - # 5
    frequency:    2.0639282956
  - # 6
    frequency:    4.0400828166
  - # 7
    frequency:    4.1824150714
  - # 8
    frequency:    5.4548172435
  - # 9
    frequency:    5.5125343843
  - # 10
    frequency:    5.8645510735
  - # 11
    frequency:    6.9962510245
  - # 12
    frequency:    7.2309281271
  - # 13
    frequency:    7.5569983757
  - # 14
    frequency:   11.7939725438
  - # 15
    frequency:   12.3090776762
  - # 16
    frequency:   12.4063320439
  - # 17
    frequency:   13.5016267448
  - # 18
    frequency:   15.1801502092
  - # 19
    frequency:   15.2937487260
  - # 20
    frequency:   39.7389975414
  - # 21
    frequency:  109.8725181184

- q-position: [    0.1010101,    0.0000000,    0.0000000 ]
  distance:    0.0350396
  band:
  - # 1
    frequency:   -3.7251778832
  - # 2
    frequency:   -3.2879883582
  - # 3
    frequency:    0.4778180779
  - # 4
    frequency:    1.2630749940
  - # 5
    frequency:    2.1740628126
  - # 6
    frequency:    4.0528004175
  - # 7
    frequency:    4.2092219783
  - # 8
    frequency:    5.4602362781
  - # 9
    frequency:    5.5295224368
  - # 10
    frequency:    5.8755581968
  - # 11
    frequency:    7.0094826593
  - # 12
    frequency:    7.2612277010
  - # 13
    frequency:    7.5502895454
  - # 14
    frequency:   11.7682745909
  - # 15
    frequency:   12.3194541420
  - # 16
    frequency:   12.4202903573
  - # 17
    frequency:   13.4966525824
  - # 18
    frequency:   15.1886104894
  - # 19
    frequency:   15.3096010492
  - # 20
    frequency:   39.7167858221
  - # 21
    frequency:  109.8589323681

- q-position: [    0.1060606,    0.0000000,    0.0000000 ]
  distance:    0.0367916
  band:
  - # 1
    frequency:   -3.6818519994
  - # 2
    frequency:   -3.1952203135
  - # 3
    frequency:    0.5206492082
  - # 4
    frequency:    1.3247874203
  - # 5
    frequency:    2.2841597162
  - # 6
    frequency:    4.0654909305
  - # 7
    frequency:    4.2365525664
  - # 8
    frequency:    5.4650531886
  - # 9
    frequency:    5.5474616940
  - # 10
    frequency:    5.8880287492
  - # 11
    frequency:    7.0231087786
  - # 12
    frequency:    7.2913505995
  - # 13
    frequency:    7.5441704346
  - # 14
    frequency:   11.7423753063
  - # 15
    frequency:   12.3300819888
  - # 16
    frequency:   12.4349646446
  - # 17
    frequency:   13.4915516289
  - # 18
    frequency:   15.1976714962
  - # 19
    frequency:   15.3255634333
  - # 20
    frequency:   39.6936422947
  - # 21
    frequency:  109.8450630054

- q-position: [    0.1111111,    0.0000000,    0.0000000 ]
  distance:    0.0385436
  band:
  - # 1
    frequency:   -3.6379103246
  - # 2
    frequency:   -3.0984528880
  - # 3
    frequency:    0.5645907128
  - # 4
    frequency:    1.3862662191
  - # 5
    frequency:    2.3941341012
  - # 6
    frequency:    4.0780816260
  - # 7
    frequency:    4.2643282777
  - # 8
    frequency:    5.4691837538
  - # 9
    frequency:    5.5663361242
  - # 10
    frequency:    5.9019806100
  - # 11
    frequency:    7.0370888615
  - # 12
    frequency:    7.3209963583
  - # 13
    frequency:    7.5389060912
  - # 14
    frequency:   11.7163359492
  - # 15
    frequency:   12.3409284825
  - # 16
    frequency:   12.4504198061
  - # 17
    frequency:   13.4863438278
  - # 18
    frequency:   15.2073489726
  - # 19
    frequency:   15.3415622601
  - # 20
    frequency:   39.6695963693
  - # 21
    frequency:  109.8309645586

- q-position: [    0.1161616,    0.0000000,    0.0000000 ]
  distance:    0.0402956
  band:
  - # 1
    frequency:   -3.5935398514
  - # 2
    frequency:   -2.9976965193
  - # 3
    frequency:    0.6095588100
  - # 4
    frequency:    1.4474911995
  - # 5
    frequency:    2.5038856474
  - # 6
    frequency:    4.0905026589
  - # 7
    frequency:    4.2924753549
  - # 8
    frequency:    5.4725558010
  - # 9
    frequency:    5.5861230225
  - # 10
    frequency:    5.9174104886
  - # 11
    frequency:    7.0513810001
  - # 12
    frequency:    7.3497515416
  - # 13
    frequency:    7.5348811345
  - # 14
    frequency:   11.6902174289
  - # 15
    frequency:   12.3519614180
  - # 16
    frequency:   12.4667187208
  - # 17
    frequency:   13.4810505594
  - # 18
    frequency:   15.2176571187
  - # 19
    frequency:   15.3575258964
  - # 20
    frequency:   39.6446784903
  - # 21
    frequency:  109.8166924908

- q-position: [    0.1212121,    0.0000000,    0.0000000 ]
  distance:    0.0420476
  band:
  - # 1
    frequency:   -3.5489276118
  - # 2
    frequency:   -2.8929330912
  - # 3
    frequency:    0.6554747673
  - # 4
    frequency:    1.5084405501
  - # 5
    frequency:    2.6132982312
  - # 6
    frequency:    4.1026877169
  - # 7
    frequency:    4.3209254004
  - # 8
    frequency:    5.4751098767
  - # 9
    frequency:    5.6067926384
  - # 10
    frequency:    5.9342939403
  - # 11
    frequency:    7.0659419972
  - # 12
    frequency:    7.3770023690
  - # 13
    frequency:    7.5326866059
  - # 14
    frequency:   11.6640797856
  - # 15
    frequency:   12.3631493470
  - # 16
    frequency:   12.4839218551
  - # 17
    frequency:   13.4756948032
  - # 18
    frequency:   15.2286082875
  - # 19
    frequency:   15.3733850136
  - # 20
    frequency:   39.6189200825
  - # 21
    frequency:  109.8023029830

- q-position: [    0.1262626,    0.0000000,    0.0000000 ]
  distance:    0.0437995
  band:
  - # 1
    frequency:   -3.5042590820
  - # 2
    frequency:   -2.7841065743
  - # 3
    frequency:    0.7022655636
  - # 4
    frequency:    1.5690909886
  - # 5
    frequency:    2.7222399496
  - # 6
    frequency:    4.1145746251
  - # 7
    frequency:    4.3496159114
  - # 8
    frequency:    5.4767990532
  - # 9
    frequency:    5.6283079279
  - # 10
    frequency:    5.9525863549
  - # 11
    frequency:    7.0807274699
  - # 12
    frequency:    7.4018086707
  - # 13
    frequency:    7.5332454195
  - # 14
    frequency:   11.6379817016
  - # 15
    frequency:   12.3744617925
  - # 16
    frequency:   12.5020868118
  - # 17
    frequency:   13.4703013349
  - # 18
    frequency:   15.2402126866
  - # 19
    frequency:   15.3890728770
  - # 20
    frequency:   39.5923534955
  - # 21
    frequency:  109.7878527132

- q-position: [    0.1313131,    0.0000000,    0.0000000 ]
  distance:    0.0455515
  band:
  - # 1
    frequency:   -3.4597165653
  - # 2
    frequency:   -2.6711113732
  - # 3
    frequency:    0.7498646739
  - # 4
    frequency:    1.6294180027
  - # 5
    frequency:    2.8305635856
  - # 6
    frequency:    4.1261058988
  - # 7
    frequency:    4.3784907985
  - # 8
    frequency:    5.4775880566
  - # 9
    frequency:    5.6506244470
  - # 10
    frequency:    5.9722247498
  - # 11
    frequency:    7.0956919580
  - # 12
    frequency:    7.4228449839
  - # 13
    frequency:    7.5378705986
  - # 14
    frequency:   11.6119800475
  - # 15
    frequency:   12.3858694466
  - # 16
    frequency:   12.5212678056
  - # 17
    frequency:   13.4648969695
  - # 18
    frequency:   15.2524780897
  - # 19
    frequency:   15.4045256069
  - # 20
    frequency:   39.5650119469
  - # 21
    frequency:  109.7733986330

- q-position: [    0.1363636,    0.0000000,    0.0000000 ]
  distance:    0.0473035
  band:
  - # 1
    frequency:   -3.4154775937
  - # 2
    frequency:   -2.5537775498
  - # 3
    frequency:    0.7982130481
  - # 4
    frequency:    1.6893961801
  - # 5
    frequency:    2.9381075090
  - # 6
    frequency:    4.1372292381
  - # 7
    frequency:    4.4075009030
  - # 8
    frequency:    5.4774519850
  - # 9
    frequency:    5.6736903969
  - # 10
    frequency:    5.9931301183
  - # 11
    frequency:    7.1107890375
  - # 12
    frequency:    7.4387910569
  - # 13
    frequency:    7.5478740329
  - # 14
    frequency:   11.5861294626
  - # 15
    frequency:   12.3973443477
  - # 16
    frequency:   12.5415150503
  - # 17
    frequency:   13.4595108604
  - # 18
    frequency:   15.2654095642
  - # 19
    frequency:   15.4196824153
  - # 20
    frequency:   39.5369294633
  - # 21
    frequency:  109.7589977423

- q-position: [    0.1414141,    0.0000000,    0.0000000 ]
  distance:    0.0490555
  band:
  - # 1
    frequency:   -3.3717133929
  - # 2
    frequency:   -2.4318515599
  - # 3
    frequency:    0.8472603796
  - # 4
    frequency:    1.7489996206
  - # 5
    frequency:    3.0446969546
  - # 6
    frequency:    4.1478979587
  - # 7
    frequency:    4.4366045298
  - # 8
    frequency:    5.4763748984
  - # 9
    frequency:    5.6974468265
  - # 10
    frequency:    6.0152100710
  - # 11
    frequency:    7.1259714414
  - # 12
    frequency:    7.4493659560
  - # 13
    frequency:    7.5635315601
  - # 14
    frequency:   11.5604819748
  - # 15
    frequency:   12.4088600352
  - # 16
    frequency:   12.5628740398
  - # 17
    frequency:   13.4541748731
  - # 18
    frequency:   15.2790092195
  - # 19
    frequency:   15.4344858211
  - # 20
    frequency:   39.5081408215
  - # 21
    frequency:  109.7447068632

- q-position: [    0.1464646,    0.0000000,    0.0000000 ]
  distance:    0.0508075
  band:
  - # 1
    frequency:   -3.3285874534
  - # 2
    frequency:   -2.3049702189
  - # 3
    frequency:    0.8969667976
  - # 4
    frequency:    1.8082024166
  - # 5
    frequency:    3.1501455780
  - # 6
    frequency:    4.1580713573
  - # 7
    frequency:    4.4657680230
  - # 8
    frequency:    5.4743485255
  - # 9
    frequency:    5.7218279935
  - # 10
    frequency:    6.0383615471
  - # 11
    frequency:    7.1411911856
  - # 12
    frequency:    7.4557654918
  - # 13
    frequency:    7.5836446559
  - # 14
    frequency:   11.5350866578
  - # 15
    frequency:   12.4203916767
  - # 16
    frequency:   12.5853846996
  - # 17
    frequency:   13.4489240539
  - # 18
    frequency:   15.2932759817
  - # 19
    frequency:   15.4488818474
  - # 20
    frequency:   39.4786814872
  - # 21
    frequency:  109.7305824138

- q-position: [    0.1515152,    0.0000000,    0.0000000 ]
  distance:    0.0525595
  band:
  - # 1
    frequency:   -3.2862542495
  - # 2
    frequency:   -2.1726239589
  - # 3
    frequency:    0.9473051715
  - # 4
    frequency:    1.8669791820
  - # 5
    frequency:    3.2542571376
  - # 6
    frequency:    4.1677150103
  - # 7
    frequency:    4.4949664159
  - # 8
    frequency:    5.4713712597
  - # 9
    frequency:    5.7467618769
  - # 10
    frequency:    6.0624734381
  - # 11
    frequency:    7.1563997032
  - # 12
    frequency:    7.4597063515
  - # 13
    frequency:    7.6064953471
  - # 14
    frequency:   11.5099893302
  - # 15
    frequency:   12.4319161685
  - # 16
    frequency:   12.6090803758
  - # 17
    frequency:   13.4437972255
  - # 18
    frequency:   15.3082053983
  - # 19
    frequency:   15.4628202031
  - # 20
    frequency:   39.4485875538
  - # 21
    frequency:  109.7166801828
