nqpoint: 300    
npath: 3      
segment_nqpoint:
- 100
- 100
- 100
labels:
- [ 'G', 'M' ]
- [ 'M', 'K' ]
- [ 'K', 'G' ]
reciprocal_lattice:
- [   0.29849848,   0.17233818,   0.00000000 ] # a*
- [   0.00000000,   0.34467636,   0.00000000 ] # b*
- [   0.00000000,   0.00000000,   0.03704509 ] # c*
natom: 8      
lattice:
- [     3.350100806411861,     0.000000000000000,     0.000000000000000 ] # a
- [    -1.675050403205930,     2.901272403581514,     0.000000000000000 ] # b
- [     0.000000000000000,     0.000000000000000,    26.994128418389984 ] # c
points:
- symbol: C # 1
  coordinates: [  0.666666984744047,  0.333332985985145,  0.390950483548071 ]
  mass: 12.010700
- symbol: N # 2
  coordinates: [  0.000000000000000,  0.000000000000000,  0.526056980175229 ]
  mass: 14.006700
- symbol: N # 3
  coordinates: [  0.333332985432214,  0.666666983183674,  0.617605844346141 ]
  mass: 14.006700
- symbol: N # 4
  coordinates: [  0.666666984744047,  0.333332985985145,  0.437135428518437 ]
  mass: 14.006700
- symbol: O # 5
  coordinates: [  0.333332985432214,  0.666666983183674,  0.666594162237568 ]
  mass: 15.999400
- symbol: S # 6
  coordinates: [  0.666666984744047,  0.333332985985145,  0.333405837762432 ]
  mass: 32.065000
- symbol: Sc # 7
  coordinates: [  0.333332985432214,  0.666666983183674,  0.486368945592644 ]
  mass: 44.955912
- symbol: Sc # 8
  coordinates: [  0.666666984744047,  0.333332985985145,  0.581222967330127 ]
  mass: 44.955912

phonon:
- q-position: [    0.0000000,    0.0000000,    0.0000000 ]
  distance:    0.0000000
  band:
  - # 1
    frequency:   -3.6960936733
  - # 2
    frequency:   -3.6960936733
  - # 3
    frequency:   -0.0000207045
  - # 4
    frequency:   -0.0000002446
  - # 5
    frequency:    0.0000182447
  - # 6
    frequency:    0.7101407397
  - # 7
    frequency:    0.7101407400
  - # 8
    frequency:    3.4169228314
  - # 9
    frequency:    3.4169228315
  - # 10
    frequency:    4.9695127367
  - # 11
    frequency:    6.7322352698
  - # 12
    frequency:    6.7322352698
  - # 13
    frequency:    8.5742559648
  - # 14
    frequency:    9.2020216033
  - # 15
    frequency:    9.2020216033
  - # 16
    frequency:    9.8377336778
  - # 17
    frequency:   11.3850598649
  - # 18
    frequency:   11.3850598650
  - # 19
    frequency:   14.3797820622
  - # 20
    frequency:   14.3797820622
  - # 21
    frequency:   15.0372438187
  - # 22
    frequency:   27.5868149004
  - # 23
    frequency:   39.5323172886
  - # 24
    frequency:   59.6806810142

- q-position: [    0.0050505,    0.0000000,    0.0000000 ]
  distance:    0.0017408
  band:
  - # 1
    frequency:   -3.6958454822
  - # 2
    frequency:   -3.6944467447
  - # 3
    frequency:    0.0026833822
  - # 4
    frequency:    0.0508227173
  - # 5
    frequency:    0.1141551524
  - # 6
    frequency:    0.7119517537
  - # 7
    frequency:    0.7172893711
  - # 8
    frequency:    3.4175010438
  - # 9
    frequency:    3.4192463990
  - # 10
    frequency:    4.9692128800
  - # 11
    frequency:    6.7322323891
  - # 12
    frequency:    6.7332041979
  - # 13
    frequency:    8.5733095786
  - # 14
    frequency:    9.2023209560
  - # 15
    frequency:    9.2037002764
  - # 16
    frequency:    9.8366043159
  - # 17
    frequency:   11.3849240925
  - # 18
    frequency:   11.3876935957
  - # 19
    frequency:   14.3798771270
  - # 20
    frequency:   14.3801104681
  - # 21
    frequency:   15.0368179503
  - # 22
    frequency:   27.5867135651
  - # 23
    frequency:   39.5315570176
  - # 24
    frequency:   59.6793420351

- q-position: [    0.0101010,    0.0000000,    0.0000000 ]
  distance:    0.0034816
  band:
  - # 1
    frequency:   -3.6951022650
  - # 2
    frequency:   -3.6895174708
  - # 3
    frequency:    0.0105497267
  - # 4
    frequency:    0.1016240452
  - # 5
    frequency:    0.2280795977
  - # 6
    frequency:    0.7173561135
  - # 7
    frequency:    0.7383748598
  - # 8
    frequency:    3.4192359161
  - # 9
    frequency:    3.4261972608
  - # 10
    frequency:    4.9683176735
  - # 11
    frequency:    6.7322238518
  - # 12
    frequency:    6.7361035820
  - # 13
    frequency:    8.5704902420
  - # 14
    frequency:    9.2032183522
  - # 15
    frequency:    9.2087087332
  - # 16
    frequency:    9.8332423053
  - # 17
    frequency:   11.3845174182
  - # 18
    frequency:   11.3955707086
  - # 19
    frequency:   14.3801621824
  - # 20
    frequency:   14.3810945069
  - # 21
    frequency:   15.0355423903
  - # 22
    frequency:   27.5864096834
  - # 23
    frequency:   39.5292773942
  - # 24
    frequency:   59.6753275768

- q-position: [    0.0151515,    0.0000000,    0.0000000 ]
  distance:    0.0052224
  band:
  - # 1
    frequency:   -3.6938680896
  - # 2
    frequency:   -3.6813402921
  - # 3
    frequency:    0.0231160154
  - # 4
    frequency:    0.1523827706
  - # 5
    frequency:    0.3414973522
  - # 6
    frequency:    0.7262699224
  - # 7
    frequency:    0.7724475901
  - # 8
    frequency:    3.4221281396
  - # 9
    frequency:    3.4377165277
  - # 10
    frequency:    4.9668401443
  - # 11
    frequency:    6.7322099710
  - # 12
    frequency:    6.7409114354
  - # 13
    frequency:    8.5658554628
  - # 14
    frequency:    9.2047118049
  - # 15
    frequency:    9.2169656935
  - # 16
    frequency:    9.8277248428
  - # 17
    frequency:   11.3838417710
  - # 18
    frequency:   11.4086205408
  - # 19
    frequency:   14.3806368115
  - # 20
    frequency:   14.3827306178
  - # 21
    frequency:   15.0334232963
  - # 22
    frequency:   27.5859036278
  - # 23
    frequency:   39.5254819844
  - # 24
    frequency:   59.6686450707

- q-position: [    0.0202020,    0.0000000,    0.0000000 ]
  distance:    0.0069632
  band:
  - # 1
    frequency:   -3.6921497357
  - # 2
    frequency:   -3.6699722865
  - # 3
    frequency:    0.0397786762
  - # 4
    frequency:    0.2030780089
  - # 5
    frequency:    0.4540364361
  - # 6
    frequency:    0.7385601523
  - # 7
    frequency:    0.8182840429
  - # 8
    frequency:    3.4261788158
  - # 9
    frequency:    3.4537081125
  - # 10
    frequency:    4.9648018039
  - # 11
    frequency:    6.7321912644
  - # 12
    frequency:    6.7475918139
  - # 13
    frequency:    8.5594950614
  - # 14
    frequency:    9.2067980013
  - # 15
    frequency:    9.2283397849
  - # 16
    frequency:    9.8201775159
  - # 17
    frequency:   11.3829003674
  - # 18
    frequency:   11.4267303168
  - # 19
    frequency:   14.3813003208
  - # 20
    frequency:   14.3850127848
  - # 21
    frequency:   15.0304710073
  - # 22
    frequency:   27.5851960183
  - # 23
    frequency:   39.5201767226
  - # 24
    frequency:   59.6593068801

- q-position: [    0.0252525,    0.0000000,    0.0000000 ]
  distance:    0.0087039
  band:
  - # 1
    frequency:   -3.6899566933
  - # 2
    frequency:   -3.6554926605
  - # 3
    frequency:    0.0599690043
  - # 4
    frequency:    0.2536893449
  - # 5
    frequency:    0.5651720758
  - # 6
    frequency:    0.7540536826
  - # 7
    frequency:    0.8747262485
  - # 8
    frequency:    3.4313893833
  - # 9
    frequency:    3.4740416376
  - # 10
    frequency:    4.9622323786
  - # 11
    frequency:    6.7321684478
  - # 12
    frequency:    6.7560958221
  - # 13
    frequency:    8.5515236678
  - # 14
    frequency:    9.2094723000
  - # 15
    frequency:    9.2426537686
  - # 16
    frequency:    9.8107709055
  - # 17
    frequency:   11.3816977134
  - # 18
    frequency:   11.4497518234
  - # 19
    frequency:   14.3821517415
  - # 20
    frequency:   14.3879324094
  - # 21
    frequency:   15.0267001623
  - # 22
    frequency:   27.5842877220
  - # 23
    frequency:   39.5133698982
  - # 24
    frequency:   59.6473302679

- q-position: [    0.0303030,    0.0000000,    0.0000000 ]
  distance:    0.0104447
  band:
  - # 1
    frequency:   -3.6873011597
  - # 2
    frequency:   -3.6380019927
  - # 3
    frequency:    0.0832317365
  - # 4
    frequency:    0.3041969357
  - # 5
    frequency:    0.6741804346
  - # 6
    frequency:    0.7725479708
  - # 7
    frequency:    0.9409235540
  - # 8
    frequency:    3.4377615147
  - # 9
    frequency:    3.4985561646
  - # 10
    frequency:    4.9591694949
  - # 11
    frequency:    6.7321424264
  - # 12
    frequency:    6.7663629387
  - # 13
    frequency:    8.5420726580
  - # 14
    frequency:    9.2127287275
  - # 15
    frequency:    9.2596871375
  - # 16
    frequency:    9.7997181472
  - # 17
    frequency:   11.3802396070
  - # 18
    frequency:   11.4775093350
  - # 19
    frequency:   14.3831898320
  - # 20
    frequency:   14.3914781246
  - # 21
    frequency:   15.0221298756
  - # 22
    frequency:   27.5831798511
  - # 23
    frequency:   39.5050721370
  - # 24
    frequency:   59.6327373505

- q-position: [    0.0353535,    0.0000000,    0.0000000 ]
  distance:    0.0121855
  band:
  - # 1
    frequency:   -3.6841980310
  - # 2
    frequency:   -3.6176211915
  - # 3
    frequency:    0.1092344984
  - # 4
    frequency:    0.3545815713
  - # 5
    frequency:    0.7801609809
  - # 6
    frequency:    0.7938220116
  - # 7
    frequency:    1.0164021224
  - # 8
    frequency:    3.4452969886
  - # 9
    frequency:    3.5270644548
  - # 10
    frequency:    4.9556583753
  - # 11
    frequency:    6.7321142844
  - # 12
    frequency:    6.7783225866
  - # 13
    frequency:    8.5312828713
  - # 14
    frequency:    9.2165599742
  - # 15
    frequency:    9.2791745568
  - # 16
    frequency:    9.7872756575
  - # 17
    frequency:   11.3785331412
  - # 18
    frequency:   11.5098077976
  - # 19
    frequency:   14.3844130805
  - # 20
    frequency:   14.3956355386
  - # 21
    frequency:   15.0167839783
  - # 22
    frequency:   27.5818737619
  - # 23
    frequency:   39.4952963771
  - # 24
    frequency:   59.6155550393

- q-position: [    0.0404040,    0.0000000,    0.0000000 ]
  distance:    0.0139263
  band:
  - # 1
    frequency:   -3.6806648894
  - # 2
    frequency:   -3.5944901297
  - # 3
    frequency:    0.1377428215
  - # 4
    frequency:    0.4048246835
  - # 5
    frequency:    0.8176464867
  - # 6
    frequency:    0.8822319282
  - # 7
    frequency:    1.1008878618
  - # 8
    frequency:    3.4539975364
  - # 9
    frequency:    3.5593574466
  - # 10
    frequency:    4.9517516170
  - # 11
    frequency:    6.7320852723
  - # 12
    frequency:    6.7918958626
  - # 13
    frequency:    8.5192989182
  - # 14
    frequency:    9.2209573893
  - # 15
    frequency:    9.3007972436
  - # 16
    frequency:    9.7737499843
  - # 17
    frequency:   11.3765867077
  - # 18
    frequency:   11.5464404241
  - # 19
    frequency:   14.3858197085
  - # 20
    frequency:   14.4003868954
  - # 21
    frequency:   15.0106913404
  - # 22
    frequency:   27.5803710523
  - # 23
    frequency:   39.4840578396
  - # 24
    frequency:   59.5958149694

- q-position: [    0.0454545,    0.0000000,    0.0000000 ]
  distance:    0.0156671
  band:
  - # 1
    frequency:   -3.6767219790
  - # 2
    frequency:   -3.5687659255
  - # 3
    frequency:    0.1685880788
  - # 4
    frequency:    0.4549082960
  - # 5
    frequency:    0.8437923883
  - # 6
    frequency:    0.9799239671
  - # 7
    frequency:    1.1938925877
  - # 8
    frequency:    3.4638646678
  - # 9
    frequency:    3.5952086412
  - # 10
    frequency:    4.9475091321
  - # 11
    frequency:    6.7320567936
  - # 12
    frequency:    6.8069973408
  - # 13
    frequency:    8.5062653304
  - # 14
    frequency:    9.2259109751
  - # 15
    frequency:    9.3241633912
  - # 16
    frequency:    9.7595150376
  - # 17
    frequency:   11.3744099995
  - # 18
    frequency:   11.5871951172
  - # 19
    frequency:   14.3874076754
  - # 20
    frequency:   14.4057106352
  - # 21
    frequency:   15.0038862906
  - # 22
    frequency:   27.5786735598
  - # 23
    frequency:   39.4713739949
  - # 24
    frequency:   59.5735534155

- q-position: [    0.0505051,    0.0000000,    0.0000000 ]
  distance:    0.0174079
  band:
  - # 1
    frequency:   -3.6723921718
  - # 2
    frequency:   -3.5406208542
  - # 3
    frequency:    0.2016410957
  - # 4
    frequency:    0.5048149127
  - # 5
    frequency:    0.8720377923
  - # 6
    frequency:    1.0734952143
  - # 7
    frequency:    1.2943645052
  - # 8
    frequency:    3.4748994780
  - # 9
    frequency:    3.6343781084
  - # 10
    frequency:    4.9429983450
  - # 11
    frequency:    6.7320303893
  - # 12
    frequency:    6.8235368622
  - # 13
    frequency:    8.4923243904
  - # 14
    frequency:    9.2314093805
  - # 15
    frequency:    9.3487716091
  - # 16
    frequency:    9.7450462147
  - # 17
    frequency:   11.3720140142
  - # 18
    frequency:   11.6318594175
  - # 19
    frequency:   14.3891746824
  - # 20
    frequency:   14.4115808288
  - # 21
    frequency:   14.9964091589
  - # 22
    frequency:   27.5767833586
  - # 23
    frequency:   39.4572645224
  - # 24
    frequency:   59.5488111963

- q-position: [    0.0555556,    0.0000000,    0.0000000 ]
  distance:    0.0191487
  band:
  - # 1
    frequency:   -3.6677009170
  - # 2
    frequency:   -3.5102399008
  - # 3
    frequency:    0.2367943994
  - # 4
    frequency:    0.5545273426
  - # 5
    frequency:    0.9021727700
  - # 6
    frequency:    1.1638016999
  - # 7
    frequency:    1.4007814908
  - # 8
    frequency:    3.4871024399
  - # 9
    frequency:    3.6766158537
  - # 10
    frequency:    4.9382947547
  - # 11
    frequency:    6.7320077231
  - # 12
    frequency:    6.8414212355
  - # 13
    frequency:    8.4776152645
  - # 14
    frequency:    9.2374398947
  - # 15
    frequency:    9.3739480001
  - # 16
    frequency:    9.7309812474
  - # 17
    frequency:   11.3694110564
  - # 18
    frequency:   11.6802239237
  - # 19
    frequency:   14.3911181785
  - # 20
    frequency:   14.4179664579
  - # 21
    frequency:   14.9883069715
  - # 22
    frequency:   27.5747027568
  - # 23
    frequency:   39.4417512669
  - # 24
    frequency:   59.5216335662

- q-position: [    0.0606061,    0.0000000,    0.0000000 ]
  distance:    0.0208895
  band:
  - # 1
    frequency:   -3.6626761717
  - # 2
    frequency:   -3.4778179907
  - # 3
    frequency:    0.2739518357
  - # 4
    frequency:    0.6040284657
  - # 5
    frequency:    0.9340026308
  - # 6
    frequency:    1.2518534331
  - # 7
    frequency:    1.5115627065
  - # 8
    frequency:    3.5004731866
  - # 9
    frequency:    3.7216643108
  - # 10
    frequency:    4.9334829972
  - # 11
    frequency:    6.7319905655
  - # 12
    frequency:    6.8605557805
  - # 13
    frequency:    8.4622740165
  - # 14
    frequency:    9.2439884403
  - # 15
    frequency:    9.3987454331
  - # 16
    frequency:    9.7182195300
  - # 17
    frequency:   11.3666147380
  - # 18
    frequency:   11.7320843077
  - # 19
    frequency:   14.3932353660
  - # 20
    frequency:   14.4248305013
  - # 21
    frequency:   14.9796343380
  - # 22
    frequency:   27.5724342931
  - # 23
    frequency:   39.4248581892
  - # 24
    frequency:   59.4920700959

- q-position: [    0.0656566,    0.0000000,    0.0000000 ]
  distance:    0.0226303
  band:
  - # 1
    frequency:   -3.6573483089
  - # 2
    frequency:   -3.4435569730
  - # 3
    frequency:    0.3130232688
  - # 4
    frequency:    0.6533009465
  - # 5
    frequency:    0.9673497887
  - # 6
    frequency:    1.3384808309
  - # 7
    frequency:    1.6253755237
  - # 8
    frequency:    3.5150102872
  - # 9
    frequency:    3.7692597338
  - # 10
    frequency:    4.9286585772
  - # 11
    frequency:    6.7319807785
  - # 12
    frequency:    6.8808456618
  - # 13
    frequency:    8.4464341291
  - # 14
    frequency:    9.2510395661
  - # 15
    frequency:    9.4218056374
  - # 16
    frequency:    9.7080594548
  - # 17
    frequency:   11.3636399781
  - # 18
    frequency:   11.7872421510
  - # 19
    frequency:   14.3955232069
  - # 20
    frequency:   14.4321287811
  - # 21
    frequency:   14.9704545775
  - # 22
    frequency:   27.5699807329
  - # 23
    frequency:   39.4066113118
  - # 24
    frequency:   59.4601745412

- q-position: [    0.0707071,    0.0000000,    0.0000000 ]
  distance:    0.0243711
  band:
  - # 1
    frequency:   -3.6517499987
  - # 2
    frequency:   -3.4076624640
  - # 3
    frequency:    0.3539223442
  - # 4
    frequency:    0.7023269110
  - # 5
    frequency:    1.0020545618
  - # 6
    frequency:    1.4242461259
  - # 7
    frequency:    1.7412031804
  - # 8
    frequency:    3.5307110233
  - # 9
    frequency:    3.8191322383
  - # 10
    frequency:    4.9239304957
  - # 11
    frequency:    6.7319803008
  - # 12
    frequency:    6.9021969728
  - # 13
    frequency:    8.4302272541
  - # 14
    frequency:    9.2585764418
  - # 15
    frequency:    9.4412513998
  - # 16
    frequency:    9.7023064918
  - # 17
    frequency:   11.3605030004
  - # 18
    frequency:   11.8455048687
  - # 19
    frequency:   14.3979784299
  - # 20
    frequency:   14.4398085113
  - # 21
    frequency:   14.9608411421
  - # 22
    frequency:   27.5673450648
  - # 23
    frequency:   39.3870386610
  - # 24
    frequency:   59.4260047020

- q-position: [    0.0757576,    0.0000000,    0.0000000 ]
  distance:    0.0261118
  band:
  - # 1
    frequency:   -3.6459160602
  - # 2
    frequency:   -3.3703406822
  - # 3
    frequency:    0.3965658887
  - # 4
    frequency:    0.7510876059
  - # 5
    frequency:    1.0379751848
  - # 6
    frequency:    1.5094876336
  - # 7
    frequency:    1.8582846605
  - # 8
    frequency:    3.5475711695
  - # 9
    frequency:    3.8710041904
  - # 10
    frequency:    4.9194250823
  - # 11
    frequency:    6.7319911339
  - # 12
    frequency:    6.9245175437
  - # 13
    frequency:    8.4137840063
  - # 14
    frequency:    9.2665808517
  - # 15
    frequency:    9.4548470667
  - # 16
    frequency:    9.7031137258
  - # 17
    frequency:   11.3572213272
  - # 18
    frequency:   11.9066849857
  - # 19
    frequency:   14.4005975380
  - # 20
    frequency:   14.4478064870
  - # 21
    frequency:   14.9508794010
  - # 22
    frequency:   27.5645304963
  - # 23
    frequency:   39.3661702031
  - # 24
    frequency:   59.3896222694

- q-position: [    0.0808081,    0.0000000,    0.0000000 ]
  distance:    0.0278526
  band:
  - # 1
    frequency:   -3.6398832790
  - # 2
    frequency:   -3.3317954282
  - # 3
    frequency:    0.4408740399
  - # 4
    frequency:    0.7995630670
  - # 5
    frequency:    1.0749872597
  - # 6
    frequency:    1.5943906363
  - # 7
    frequency:    1.9760322328
  - # 8
    frequency:    3.5655847840
  - # 9
    frequency:    3.9245865319
  - # 10
    frequency:    4.9152914600
  - # 11
    frequency:    6.7320153299
  - # 12
    frequency:    6.9477174593
  - # 13
    frequency:    8.3972346944
  - # 14
    frequency:    9.2750331913
  - # 15
    frequency:    9.4607468120
  - # 16
    frequency:    9.7122352503
  - # 17
    frequency:   11.3538137714
  - # 18
    frequency:   11.9705990009
  - # 19
    frequency:   14.4033768161
  - # 20
    frequency:   14.4560468492
  - # 21
    frequency:   14.9406688513
  - # 22
    frequency:   27.5615404495
  - # 23
    frequency:   39.3440377778
  - # 24
    frequency:   59.3510926639

- q-position: [    0.0858586,    0.0000000,    0.0000000 ]
  distance:    0.0295934
  band:
  - # 1
    frequency:   -3.6336901895
  - # 2
    frequency:   -3.2922253560
  - # 3
    frequency:    0.4867705877
  - # 4
    frequency:    0.8477318308
  - # 5
    frequency:    1.1129828085
  - # 6
    frequency:    1.6790446532
  - # 7
    frequency:    2.0939660985
  - # 8
    frequency:    3.5847440161
  - # 9
    frequency:    3.9795724779
  - # 10
    frequency:    4.9117092366
  - # 11
    frequency:    6.7320549799
  - # 12
    frequency:    6.9717092824
  - # 13
    frequency:    8.3807099404
  - # 14
    frequency:    9.2839124648
  - # 15
    frequency:    9.4585029602
  - # 16
    frequency:    9.7300199641
  - # 17
    frequency:   11.3503004233
  - # 18
    frequency:   12.0370660369
  - # 19
    frequency:   14.4063123398
  - # 20
    frequency:   14.4644383753
  - # 21
    frequency:   14.9303258071
  - # 22
    frequency:   27.5583785562
  - # 23
    frequency:   39.3206750261
  - # 24
    frequency:   59.3104848634

- q-position: [    0.0909091,    0.0000000,    0.0000000 ]
  distance:    0.0313342
  band:
  - # 1
    frequency:   -3.6273768182
  - # 2
    frequency:   -3.2518216714
  - # 3
    frequency:    0.5341832494
  - # 4
    frequency:    0.8955707276
  - # 5
    frequency:    1.1518690387
  - # 6
    frequency:    1.7634817628
  - # 7
    frequency:    2.2116707823
  - # 8
    frequency:    3.6050389339
  - # 9
    frequency:    4.0356278106
  - # 10
    frequency:    4.9088992198
  - # 11
    frequency:    6.7321122057
  - # 12
    frequency:    6.9964079869
  - # 13
    frequency:    8.3643411738
  - # 14
    frequency:    9.2931962860
  - # 15
    frequency:    9.4491893561
  - # 16
    frequency:    9.7552906212
  - # 17
    frequency:   11.3467026335
  - # 18
    frequency:   12.1059064290
  - # 19
    frequency:   14.4093999839
  - # 20
    frequency:   14.4728712936
  - # 21
    frequency:   14.9199865725
  - # 22
    frequency:   27.5550486532
  - # 23
    frequency:   39.2961173153
  - # 24
    frequency:   59.2678712232

- q-position: [    0.0959596,    0.0000000,    0.0000000 ]
  distance:    0.0330750
  band:
  - # 1
    frequency:   -3.6209843889
  - # 2
    frequency:   -3.2107663565
  - # 3
    frequency:    0.5830437572
  - # 4
    frequency:    0.9430547968
  - # 5
    frequency:    1.1915668836
  - # 6
    frequency:    1.8477004334
  - # 7
    frequency:    2.3287682204
  - # 8
    frequency:    3.6264573774
  - # 9
    frequency:    4.0923767716
  - # 10
    frequency:    4.9071381737
  - # 11
    frequency:    6.7321891519
  - # 12
    frequency:    7.0217306120
  - # 13
    frequency:    8.3482610090
  - # 14
    frequency:    9.3028608819
  - # 15
    frequency:    9.4345131890
  - # 16
    frequency:    9.7862345743
  - # 17
    frequency:   11.3430429901
  - # 18
    frequency:   12.1769403698
  - # 19
    frequency:   14.4126354316
  - # 20
    frequency:   14.4812137174
  - # 21
    frequency:   14.9098110046
  - # 22
    frequency:   27.5515547769
  - # 23
    frequency:   39.2704016595
  - # 24
    frequency:   59.2233272860

- q-position: [    0.1010101,    0.0000000,    0.0000000 ]
  distance:    0.0348158
  band:
  - # 1
    frequency:   -3.6145549867
  - # 2
    frequency:   -3.1692309760
  - # 3
    frequency:    0.6332877151
  - # 4
    frequency:    0.9901573650
  - # 5
    frequency:    1.2320093537
  - # 6
    frequency:    1.9316799091
  - # 7
    frequency:    2.4449019947
  - # 8
    frequency:    3.6489848429
  - # 9
    frequency:    4.1493824420
  - # 10
    frequency:    4.9067787360
  - # 11
    frequency:    6.7322879805
  - # 12
    frequency:    7.0475956515
  - # 13
    frequency:    8.3326035201
  - # 14
    frequency:    9.3128811008
  - # 15
    frequency:    9.4160148532
  - # 16
    frequency:    9.8212065131
  - # 17
    frequency:   11.3393452896
  - # 18
    frequency:   12.2499866863
  - # 19
    frequency:   14.4160141845
  - # 20
    frequency:   14.4893079987
  - # 21
    frequency:   14.8999861712
  - # 22
    frequency:   27.5479011583
  - # 23
    frequency:   39.2435666371
  - # 24
    frequency:   59.1769315856

- q-position: [    0.1060606,    0.0000000,    0.0000000 ]
  distance:    0.0365566
  band:
  - # 1
    frequency:   -3.6081311860
  - # 2
    frequency:   -3.1273760705
  - # 3
    frequency:    0.6848542332
  - # 4
    frequency:    1.0368503194
  - # 5
    frequency:    1.2731397142
  - # 6
    frequency:    2.0153887965
  - # 7
    frequency:    2.5597286618
  - # 8
    frequency:    3.6726044001
  - # 9
    frequency:    4.2061208438
  - # 10
    frequency:    4.9082752600
  - # 11
    frequency:    6.7324108680
  - # 12
    frequency:    7.0739222000
  - # 13
    frequency:    8.3175044299
  - # 14
    frequency:    9.3232304258
  - # 15
    frequency:    9.3948201397
  - # 16
    frequency:    9.8589788050
  - # 17
    frequency:   11.3356345005
  - # 18
    frequency:   12.3248618005
  - # 19
    frequency:   14.4195315722
  - # 20
    frequency:   14.4969676416
  - # 21
    frequency:   14.8907294701
  - # 22
    frequency:   27.5440922169
  - # 23
    frequency:   39.2156523043
  - # 24
    frequency:   59.1287654423

- q-position: [    0.1111111,    0.0000000,    0.0000000 ]
  distance:    0.0382974
  band:
  - # 1
    frequency:   -3.6017556411
  - # 2
    frequency:   -3.0853510952
  - # 3
    frequency:    0.7376853685
  - # 4
    frequency:    1.0831045922
  - # 5
    frequency:    1.3149095074
  - # 6
    frequency:    2.0987901667
  - # 7
    frequency:    2.6729135310
  - # 8
    frequency:    3.6972966447
  - # 9
    frequency:    4.2619496046
  - # 10
    frequency:    4.9122147322
  - # 11
    frequency:    6.7325600039
  - # 12
    frequency:    7.1006288810
  - # 13
    frequency:    8.3031012215
  - # 14
    frequency:    9.3338809938
  - # 15
    frequency:    9.3716928320
  - # 16
    frequency:    9.8986912997
  - # 17
    frequency:   11.3319367192
  - # 18
    frequency:   12.4013788949
  - # 19
    frequency:   14.4231827627
  - # 20
    frequency:   14.5039759359
  - # 21
    frequency:   14.8822900541
  - # 22
    frequency:   27.5401325549
  - # 23
    frequency:   39.1867001063
  - # 24
    frequency:   59.0789127520

- q-position: [    0.1161616,    0.0000000,    0.0000000 ]
  distance:    0.0400382
  band:
  - # 1
    frequency:   -3.5954706475
  - # 2
    frequency:   -3.0432948182
  - # 3
    frequency:    0.7917254104
  - # 4
    frequency:    1.1288908501
  - # 5
    frequency:    1.3572764487
  - # 6
    frequency:    2.1818445716
  - # 7
    frequency:    2.7841292317
  - # 8
    frequency:    3.7230396891
  - # 9
    frequency:    4.3160764934
  - # 10
    frequency:    4.9193474518
  - # 11
    frequency:    6.7327375903
  - # 12
    frequency:    7.1276325881
  - # 13
    frequency:    8.2895331675
  - # 14
    frequency:    9.3448036231
  - # 15
    frequency:    9.3471466535
  - # 16
    frequency:    9.9397416112
  - # 17
    frequency:   11.3282791165
  - # 18
    frequency:   12.4793472850
  - # 19
    frequency:   14.4269627727
  - # 20
    frequency:   14.5100881199
  - # 21
    frequency:   14.8749467652
  - # 22
    frequency:   27.5360269512
  - # 23
    frequency:   39.1567527849
  - # 24
    frequency:   59.0274597695

- q-position: [    0.1212121,    0.0000000,    0.0000000 ]
  distance:    0.0417790
  band:
  - # 1
    frequency:   -3.5893176765
  - # 2
    frequency:   -3.0013360695
  - # 3
    frequency:    0.8469200567
  - # 4
    frequency:    1.1741803522
  - # 5
    frequency:    1.4002022487
  - # 6
    frequency:    2.2645118131
  - # 7
    frequency:    2.8930560291
  - # 8
    frequency:    3.7498091909
  - # 9
    frequency:    4.3675426604
  - # 10
    frequency:    4.9306026432
  - # 11
    frequency:    6.7329458442
  - # 12
    frequency:    7.1548470827
  - # 13
    frequency:    8.2769412577
  - # 14
    frequency:    9.3215356141
  - # 15
    frequency:    9.3559678485
  - # 16
    frequency:    9.9816968143
  - # 17
    frequency:   11.3246898736
  - # 18
    frequency:   12.5585719813
  - # 19
    frequency:   14.4308664788
  - # 20
    frequency:   14.5150394037
  - # 21
    frequency:   14.8690002568
  - # 22
    frequency:   27.5317803550
  - # 23
    frequency:   39.1258542839
  - # 24
    frequency:   58.9744948858

- q-position: [    0.1262626,    0.0000000,    0.0000000 ]
  distance:    0.0435197
  band:
  - # 1
    frequency:   -3.5833368930
  - # 2
    frequency:   -2.9595947125
  - # 3
    frequency:    0.9032155236
  - # 4
    frequency:    1.2189459064
  - # 5
    frequency:    1.4436504421
  - # 6
    frequency:    2.3467519603
  - # 7
    frequency:    2.9993832195
  - # 8
    frequency:    3.7775784169
  - # 9
    frequency:    4.4152502403
  - # 10
    frequency:    4.9470593714
  - # 11
    frequency:    6.7331870001
  - # 12
    frequency:    7.1821815048
  - # 13
    frequency:    8.2654679763
  - # 14
    frequency:    9.2951141653
  - # 15
    frequency:    9.3673419673
  - # 16
    frequency:   10.0242351595
  - # 17
    frequency:   11.3211981081
  - # 18
    frequency:   12.6388534074
  - # 19
    frequency:   14.4348886282
  - # 20
    frequency:   14.5185610264
  - # 21
    frequency:   14.8647571506
  - # 22
    frequency:   27.5273978789
  - # 23
    frequency:   39.0940496520
  - # 24
    frequency:   58.9201084014

- q-position: [    0.1313131,    0.0000000,    0.0000000 ]
  distance:    0.0452605
  band:
  - # 1
    frequency:   -3.5775666638
  - # 2
    frequency:   -2.9181827135
  - # 3
    frequency:    0.9605576353
  - # 4
    frequency:    1.2631628309
  - # 5
    frequency:    1.4875843268
  - # 6
    frequency:    2.4285259151
  - # 7
    frequency:    3.1028111491
  - # 8
    frequency:    3.8063183442
  - # 9
    frequency:    4.4580744002
  - # 10
    frequency:    4.9698327492
  - # 11
    frequency:    6.7334633133
  - # 12
    frequency:    7.2095388752
  - # 13
    frequency:    8.2552568552
  - # 14
    frequency:    9.2680752402
  - # 15
    frequency:    9.3788930957
  - # 16
    frequency:   10.0671097574
  - # 17
    frequency:   11.3178337863
  - # 18
    frequency:   12.7199872281
  - # 19
    frequency:   14.4390238495
  - # 20
    frequency:   14.5204048877
  - # 21
    frequency:   14.8625057079
  - # 22
    frequency:   27.5228847919
  - # 23
    frequency:   39.0613849435
  - # 24
    frequency:   58.8643922957

- q-position: [    0.1363636,    0.0000000,    0.0000000 ]
  distance:    0.0470013
  band:
  - # 1
    frequency:   -3.5720430663
  - # 2
    frequency:   -2.8772051958
  - # 3
    frequency:    1.0188909380
  - # 4
    frequency:    1.3068098112
  - # 5
    frequency:    1.5319651284
  - # 6
    frequency:    2.5097957044
  - # 7