nqpoint: 300    
npath: 3      
segment_nqpoint:
- 100
- 100
- 100
labels:
- [ 'G', 'M' ]
- [ 'M', 'K' ]
- [ 'K', 'G' ]
reciprocal_lattice:
- [   0.31121792,   0.17968175,   0.00000000 ] # a*
- [   0.00000000,   0.35936349,   0.00000000 ] # b*
- [   0.00000000,   0.00000000,   0.03990935 ] # c*
natom: 6      
lattice:
- [     3.213182625772508,     0.000000000000000,     0.000000000000000 ] # a
- [    -1.606591312886254,     2.782697780917200,     0.000000000000000 ] # b
- [     0.000000000000000,     0.000000000000000,    25.056782983324368 ] # c
points:
- symbol: Hf # 1
  coordinates: [  0.333332985432215,  0.666666983183674,  0.397977711831082 ]
  mass: 178.490000
- symbol: Hf # 2
  coordinates: [  0.666666984744047,  0.333332985985145,  0.503713007914228 ]
  mass: 178.490000
- symbol: N # 3
  coordinates: [  0.000000000000000,  0.000000000000000,  0.448779765265298 ]
  mass: 14.006700
- symbol: O # 4
  coordinates: [  0.333332985432215,  0.666666983183674,  0.640815821967663 ]
  mass: 15.999400
- symbol: O # 5
  coordinates: [  0.666666984744047,  0.333332985985145,  0.359184178032336 ]
  mass: 15.999400
- symbol: P # 6
  coordinates: [  0.333332985432215,  0.666666983183674,  0.581289826149763 ]
  mass: 30.973762

phonon:
- q-position: [    0.0000000,    0.0000000,    0.0000000 ]
  distance:    0.0000000
  band:
  - # 1
    frequency:   -4.6841404998
  - # 2
    frequency:   -4.6841404998
  - # 3
    frequency:   -0.0000036767
  - # 4
    frequency:    0.0000001808
  - # 5
    frequency:    0.0000035029
  - # 6
    frequency:    2.2958172753
  - # 7
    frequency:    2.2958172753
  - # 8
    frequency:    4.3254064515
  - # 9
    frequency:    4.3318803671
  - # 10
    frequency:    4.3318803671
  - # 11
    frequency:    8.2485058171
  - # 12
    frequency:   11.6787892535
  - # 13
    frequency:   11.6787892535
  - # 14
    frequency:   15.2762582618
  - # 15
    frequency:   15.2762582618
  - # 16
    frequency:   15.8246609209
  - # 17
    frequency:   16.6767546928
  - # 18
    frequency:   34.3394812621

- q-position: [    0.0050505,    0.0000000,    0.0000000 ]
  distance:    0.0018150
  band:
  - # 1
    frequency:   -4.6833808243
  - # 2
    frequency:   -4.6799815998
  - # 3
    frequency:   -0.0111148833
  - # 4
    frequency:    0.0013661453
  - # 5
    frequency:    0.0860102496
  - # 6
    frequency:    2.2957779833
  - # 7
    frequency:    2.2973378080
  - # 8
    frequency:    4.3070842045
  - # 9
    frequency:    4.3319117360
  - # 10
    frequency:    4.3508440861
  - # 11
    frequency:    8.2479956263
  - # 12
    frequency:   11.6785532471
  - # 13
    frequency:   11.6790674869
  - # 14
    frequency:   15.2748500012
  - # 15
    frequency:   15.2759916959
  - # 16
    frequency:   15.8242952375
  - # 17
    frequency:   16.6766648377
  - # 18
    frequency:   34.3393082863

- q-position: [    0.0101010,    0.0000000,    0.0000000 ]
  distance:    0.0036299
  band:
  - # 1
    frequency:   -4.6811075115
  - # 2
    frequency:   -4.6674972891
  - # 3
    frequency:   -0.0215140227
  - # 4
    frequency:    0.0054563829
  - # 5
    frequency:    0.1720161635
  - # 6
    frequency:    2.2956666235
  - # 7
    frequency:    2.3018886053
  - # 8
    frequency:    4.2865288451
  - # 9
    frequency:    4.3320065504
  - # 10
    frequency:    4.3733202653
  - # 11
    frequency:    8.2464659676
  - # 12
    frequency:   11.6778468939
  - # 13
    frequency:   11.6798995985
  - # 14
    frequency:   15.2706424449
  - # 15
    frequency:   15.2751925378
  - # 16
    frequency:   15.8231890936
  - # 17
    frequency:   16.6763947977
  - # 18
    frequency:   34.3387895419

- q-position: [    0.0151515,    0.0000000,    0.0000000 ]
  distance:    0.0054449
  band:
  - # 1
    frequency:   -4.6773376732
  - # 2
    frequency:   -4.6466644907
  - # 3
    frequency:   -0.0304019791
  - # 4
    frequency:    0.0122456212
  - # 5
    frequency:    0.2580127287
  - # 6
    frequency:    2.2955026314
  - # 7
    frequency:    2.3094376549
  - # 8
    frequency:    4.2665355274
  - # 9
    frequency:    4.3321669416
  - # 10
    frequency:    4.3965030195
  - # 11
    frequency:    8.2439195863
  - # 12
    frequency:   11.6766751878
  - # 13
    frequency:   11.6812778457
  - # 14
    frequency:   15.2636863626
  - # 15
    frequency:   15.2738624072
  - # 16
    frequency:   15.8213160671
  - # 17
    frequency:   16.6759431637
  - # 18
    frequency:   34.3379255772

- q-position: [    0.0202020,    0.0000000,    0.0000000 ]
  distance:    0.0072599
  band:
  - # 1
    frequency:   -4.6720997294
  - # 2
    frequency:   -4.6174439137
  - # 3
    frequency:   -0.0367782414
  - # 4
    frequency:    0.0216933774
  - # 5
    frequency:    0.3439935913
  - # 6
    frequency:    2.2953180277
  - # 7
    frequency:    2.3199328723
  - # 8
    frequency:    4.2471594312
  - # 9
    frequency:    4.3323964893
  - # 10
    frequency:    4.4203194742
  - # 11
    frequency:    8.2403610716
  - # 12
    frequency:   11.6750464393
  - # 13
    frequency:   11.6831894011
  - # 14
    frequency:   15.2540634827
  - # 15
    frequency:   15.2720040051
  - # 16
    frequency:   15.8186348451
  - # 17
    frequency:   16.6753076404
  - # 18
    frequency:   34.3367173057

- q-position: [    0.0252525,    0.0000000,    0.0000000 ]
  distance:    0.0090748
  band:
  - # 1
    frequency:   -4.6654332533
  - # 2
    frequency:   -4.5797787639
  - # 3
    frequency:   -0.0391487189
  - # 4
    frequency:    0.0337453839
  - # 5
    frequency:    0.4299504144
  - # 6
    frequency:    2.2951568659
  - # 7
    frequency:    2.3333039006
  - # 8
    frequency:    4.2284057729
  - # 9
    frequency:    4.3327002606
  - # 10
    frequency:    4.4447400379
  - # 11
    frequency:    8.2357968779
  - # 12
    frequency:   11.6729722563
  - # 13
    frequency:   11.6856164697
  - # 14
    frequency:   15.2418825993
  - # 15
    frequency:   15.2696211158
  - # 16
    frequency:   15.8150928653
  - # 17
    frequency:   16.6744851298
  - # 18
    frequency:   34.3351660049

- q-position: [    0.0303030,    0.0000000,    0.0000000 ]
  distance:    0.0108898
  band:
  - # 1
    frequency:   -4.6573887459
  - # 2
    frequency:   -4.5335928482
  - # 3
    frequency:   -0.0345083359
  - # 4
    frequency:    0.0483357838
  - # 5
    frequency:    0.5158722751
  - # 6
    frequency:    2.2950744724
  - # 7
    frequency:    2.3494644367
  - # 8
    frequency:    4.2102697812
  - # 9
    frequency:    4.3330848561
  - # 10
    frequency:    4.4697388171
  - # 11
    frequency:    8.2302353532
  - # 12
    frequency:   11.6704675170
  - # 13
    frequency:   11.6885364539
  - # 14
    frequency:   15.2272748790
  - # 15
    frequency:   15.2667186099
  - # 16
    frequency:   15.8106306460
  - # 17
    frequency:   16.6734718573
  - # 18
    frequency:   34.3332733151

- q-position: [    0.0353535,    0.0000000,    0.0000000 ]
  distance:    0.0127048
  band:
  - # 1
    frequency:   -4.6480273299
  - # 2
    frequency:   -4.4787879675
  - # 3
    frequency:    0.0012423697
  - # 4
    frequency:    0.0653896866
  - # 5
    frequency:    0.6017451095
  - # 6
    frequency:    2.2951364911
  - # 7
    frequency:    2.3683149216
  - # 8
    frequency:    4.1927428926
  - # 9
    frequency:    4.3335584599
  - # 10
    frequency:    4.4952879160
  - # 11
    frequency:    8.2236867776
  - # 12
    frequency:   11.6675503349
  - # 13
    frequency:   11.6919221691
  - # 14
    frequency:   15.2103888982
  - # 15
    frequency:   15.2633024477
  - # 16
    frequency:   15.8051862655
  - # 17
    frequency:   16.6722635453
  - # 18
    frequency:   34.3310412375

- q-position: [    0.0404040,    0.0000000,    0.0000000 ]
  distance:    0.0145197
  band:
  - # 1
    frequency:   -4.6374203521
  - # 2
    frequency:   -4.4152404507
  - # 3
    frequency:    0.0492463276
  - # 4
    frequency:    0.0848259431
  - # 5
    frequency:    0.6875512232
  - # 6
    frequency:    2.2954177483
  - # 7
    frequency:    2.3897454256
  - # 8
    frequency:    4.1758146776
  - # 9
    frequency:    4.3341308839
  - # 10
    frequency:    4.5213561024
  - # 11
    frequency:    8.2161634092
  - # 12
    frequency:   11.6642420154
  - # 13
    frequency:   11.6957421118
  - # 14
    frequency:   15.1913858601
  - # 15
    frequency:   15.2593796820
  - # 16
    frequency:   15.7986995353
  - # 17
    frequency:   16.6708556383
  - # 18
    frequency:   34.3284721319

- q-position: [    0.0454545,    0.0000000,    0.0000000 ]
  distance:    0.0163347
  band:
  - # 1
    frequency:   -4.6256488823
  - # 2
    frequency:   -4.3427966199
  - # 3
    frequency:    0.0806752956
  - # 4
    frequency:    0.1065600196
  - # 5
    frequency:    0.7732688842
  - # 6
    frequency:    2.2960009562
  - # 7
    frequency:    2.4136385684
  - # 8
    frequency:    4.1594738181
  - # 9
    frequency:    4.3348135989
  - # 10
    frequency:    4.5479085166
  - # 11
    frequency:    8.2076795391
  - # 12
    frequency:   11.6605670043
  - # 13
    frequency:   11.6999607826
  - # 14
    frequency:   15.1704353076
  - # 15
    frequency:   15.2549584616
  - # 16
    frequency:   15.7911155454
  - # 17
    frequency:   16.6692435811
  - # 18
    frequency:   34.3255687149

- q-position: [    0.0505051,    0.0000000,    0.0000000 ]
  distance:    0.0181497
  band:
  - # 1
    frequency:   -4.6128030936
  - # 2
    frequency:   -4.2612668911
  - # 3
    frequency:    0.1127930494
  - # 4
    frequency:    0.1305068886
  - # 5
    frequency:    0.8588720181
  - # 6
    frequency:    2.2969752771
  - # 7
    frequency:    2.4398723351
  - # 8
    frequency:    4.1437087983
  - # 9
    frequency:    4.3356197448
  - # 10
    frequency:    4.5749067544
  - # 11
    frequency:    8.1982515544
  - # 12
    frequency:   11.6565528272
  - # 13
    frequency:   11.7045390660
  - # 14
    frequency:   15.1477114979
  - # 15
    frequency:   15.2500480334
  - # 16
    frequency:   15.7823874162
  - # 17
    frequency:   16.6674231466
  - # 18
    frequency:   34.3223340561

- q-position: [    0.0555556,    0.0000000,    0.0000000 ]
  distance:    0.0199646
  band:
  - # 1
    frequency:   -4.5989815122
  - # 2
    frequency:   -4.1704180924
  - # 3
    frequency:    0.1468797854
  - # 4
    frequency:    0.1565839079
  - # 5
    frequency:    0.9443300362
  - # 6
    frequency:    2.2984347713
  - # 7
    frequency:    2.4683226817
  - # 8
    frequency:    4.1285084880
  - # 9
    frequency:    4.3365641098
  - # 10
    frequency:    4.6023091423
  - # 11
    frequency:    8.1878980095
  - # 12
    frequency:   11.6522300204
  - # 13
    frequency:   11.7094346710
  - # 14
    frequency:   15.1233904808
  - # 15
    frequency:   15.2446587437
  - # 16
    frequency:   15.7724782181
  - # 17
    frequency:   16.6653908050
  - # 18
    frequency:   34.3187715756

- q-position: [    0.0606061,    0.0000000,    0.0000000 ]
  distance:    0.0217796
  band:
  - # 1
    frequency:   -4.5842901222
  - # 2
    frequency:   -4.0699634042
  - # 3
    frequency:    0.1833006059
  - # 4
    frequency:    0.1847137289
  - # 5
    frequency:    1.0296078317
  - # 6
    frequency:    2.3004767541
  - # 7
    frequency:    2.4988658519
  - # 8
    frequency:    4.1138626798
  - # 9
    frequency:    4.3376630725
  - # 10
    frequency:    4.6300711428
  - # 11
    frequency:    8.1766397049
  - # 12
    frequency:   11.6476320515
  - # 13
    frequency:   11.7146026328
  - # 14
    frequency:   15.0976478310
  - # 15
    frequency:   15.2388020380
  - # 16
    frequency:   15.7613621158
  - # 17
    frequency:   16.6631441235
  - # 18
    frequency:   34.3148850395

- q-position: [    0.0656566,    0.0000000,    0.0000000 ]
  distance:    0.0235946
  band:
  - # 1
    frequency:   -4.5688413158
  - # 2
    frequency:   -3.9595490563
  - # 3
    frequency:    0.2148273624
  - # 4
    frequency:    0.2221625024
  - # 5
    frequency:    1.1146660012
  - # 6
    frequency:    2.3032000887
  - # 7
    frequency:    2.5313803586
  - # 8
    frequency:    4.0997626037
  - # 9
    frequency:    4.3389344981
  - # 10
    frequency:    4.6581458660
  - # 11
    frequency:    8.1644997724
  - # 12
    frequency:   11.6427952314
  - # 13
    frequency:   11.7199958787
  - # 14
    frequency:   15.0706569377
  - # 15
    frequency:   15.2324904585
  - # 16
    frequency:   15.7490248503
  - # 17
    frequency:   16.6606821792
  - # 18
    frequency:   34.3106785567

- q-position: [    0.0707071,    0.0000000,    0.0000000 ]
  distance:    0.0254095
  band:
  - # 1
    frequency:   -4.5527526818
  - # 2
    frequency:   -3.8387365033
  - # 3
    frequency:    0.2468676552
  - # 4
    frequency:    0.2634665415
  - # 5
    frequency:    1.1994613658
  - # 6
    frequency:    2.3067034426
  - # 7
    frequency:    2.5657486054
  - # 8
    frequency:    4.0862014351
  - # 9
    frequency:    4.3403975851
  - # 10
    frequency:    4.6864846768
  - # 11
    frequency:    8.1515037653
  - # 12
    frequency:   11.6377586146
  - # 13
    frequency:   11.7255658581
  - # 14
    frequency:   15.0425877292
  - # 15
    frequency:   15.2257376397
  - # 16
    frequency:   15.7354636908
  - # 17
    frequency:   16.6580059679
  - # 18
    frequency:   34.3061565734

- q-position: [    0.0757576,    0.0000000,    0.0000000 ]
  distance:    0.0272245
  band:
  - # 1
    frequency:   -4.5361456312
  - # 2
    frequency:   -3.7069781469
  - # 3
    frequency:    0.2807936129
  - # 4
    frequency:    0.3071587792
  - # 5
    frequency:    1.2839479092
  - # 6
    frequency:    2.3110835340
  - # 7
    frequency:    2.6018581402
  - # 8
    frequency:    4.0731748083
  - # 9
    frequency:    4.3420726560
  - # 10
    frequency:    4.7150378944
  - # 11
    frequency:    8.1376797533
  - # 12
    frequency:   11.6325638902
  - # 13
    frequency:   11.7312632373
  - # 14
    frequency:   15.0136057206
  - # 15
    frequency:   15.2185583003
  - # 16
    frequency:   15.7206869912
  - # 17
    frequency:   16.6551187896
  - # 18
    frequency:   34.3013238689

- q-position: [    0.0808081,    0.0000000,    0.0000000 ]
  distance:    0.0290395
  band:
  - # 1
    frequency:   -4.5191438659
  - # 2
    frequency:   -3.5635836048
  - # 3
    frequency:    0.3165863225
  - # 4
    frequency:    0.3531511940
  - # 5
    frequency:    1.3680783032
  - # 6
    frequency:    2.3164333982
  - # 7
    frequency:    2.6396025386
  - # 8
    frequency:    4.0606813510
  - # 9
    frequency:    4.3439808918
  - # 10
    frequency:    4.7437555845
  - # 11
    frequency:    8.1230584171
  - # 12
    frequency:   11.6272552611
  - # 13
    frequency:   11.7370386552
  - # 14
    frequency:   14.9838712782
  - # 15
    frequency:   15.2109682323
  - # 16
    frequency:   15.7047134710
  - # 17
    frequency:   16.6520265927
  - # 18
    frequency:   34.2961855501

- q-position: [    0.0858586,    0.0000000,    0.0000000 ]
  distance:    0.0308544
  band:
  - # 1
    frequency:   -4.5018717036
  - # 2
    frequency:   -3.4076717242
  - # 3
    frequency:    0.3542577932
  - # 4
    frequency:    0.4013316819
  - # 5
    frequency:    1.4518062839
  - # 6
    frequency:    2.3228406996
  - # 7
    frequency:    2.6788819198
  - # 8
    frequency:    4.0487232590
  - # 9
    frequency:    4.3461440086
  - # 10
    frequency:    4.7725884450
  - # 11
    frequency:    8.1076731426
  - # 12
    frequency:   11.6218793110
  - # 13
    frequency:   11.7428435380
  - # 14
    frequency:   14.9535390220
  - # 15
    frequency:   15.2029842857
  - # 16
    frequency:   15.6875713219
  - # 17
    frequency:   16.6487382607
  - # 18
    frequency:   34.2907470456

- q-position: [    0.0909091,    0.0000000,    0.0000000 ]
  distance:    0.0326694
  band:
  - # 1
    frequency:   -4.4844522851
  - # 2
    frequency:   -3.2381003763
  - # 3
    frequency:    0.3938651402
  - # 4
    frequency:    0.4515695436
  - # 5
    frequency:    1.5350902881
  - # 6
    frequency:    2.3303861161
  - # 7
    frequency:    2.7196030891
  - # 8
    frequency:    4.0373069362
  - # 9
    frequency:    4.3485838801
  - # 10
    frequency:    4.8014887924
  - # 11
    frequency:    8.0915601088
  - # 12
    frequency:   11.6164848604
  - # 13
    frequency:   11.7486309656
  - # 14
    frequency:   14.9227573025
  - # 15
    frequency:   15.1946243497
  - # 16
    frequency:   15.6692972179
  - # 17
    frequency:   16.6452658273
  - # 18
    frequency:   34.2850140996

- q-position: [    0.0959596,    0.0000000,    0.0000000 ]
  distance:    0.0344844
  band:
  - # 1
    frequency:   -4.4670056960
  - # 2
    frequency:   -3.0533602740
  - # 3
    frequency:    0.4355348289
  - # 4
    frequency:    0.5037190044
  - # 5
    frequency:    1.6178990080
  - # 6
    frequency:    2.3391418227
  - # 7
    frequency:    2.7616792936
  - # 8
    frequency:    4.0264437357
  - # 9
    frequency:    4.3513221077
  - # 10
    frequency:    4.8304116552
  - # 11
    frequency:    8.0747583668
  - # 12
    frequency:   11.6111228090
  - # 13
    frequency:   11.7543565793
  - # 14
    frequency:   14.8916677107
  - # 15
    frequency:   15.1859073285
  - # 16
    frequency:   15.6499352901
  - # 17
    frequency:   16.6416246114
  - # 18
    frequency:   34.2789927654

- q-position: [    0.1010101,    0.0000000,    0.0000000 ]
  distance:    0.0362993
  band:
  - # 1
    frequency:   -4.4496470494
  - # 2
    frequency:   -2.8514078698
  - # 3
    frequency:    0.4795067697
  - # 4
    frequency:    0.5576218856
  - # 5
    frequency:    1.7002199419
  - # 6
    frequency:    2.3491700996
  - # 7
    frequency:    2.8050295639
  - # 8
    frequency:    4.0161508494
  - # 9
    frequency:    4.3543795472
  - # 10
    frequency:    4.8593159835
  - # 11
    frequency:    8.0573099029
  - # 12
    frequency:   11.6058459651
  - # 13
    frequency:   11.7599795211
  - # 14
    frequency:   14.8604045953
  - # 15
    frequency:   15.1768531131
  - # 16
    frequency:   15.6295361055
  - # 17
    frequency:   16.6378332662
  - # 18
    frequency:   34.2726893986

- q-position: [    0.1060606,    0.0000000,    0.0000000 ]
  distance:    0.0381143
  band:
  - # 1
    frequency:   -4.4324845828
  - # 2
    frequency:   -2.6293895290
  - # 3
    frequency:    0.5262202276
  - # 4
    frequency:    0.6131099593
  - # 5
    frequency:    1.7820727818
  - # 6
    frequency:    2.3605220876
  - # 7
    frequency:    2.8495776021
  - # 8
    frequency:    4.0064524147
  - # 9
    frequency:    4.3577758000
  - # 10
    frequency:    4.8881659873
  - # 11
    frequency:    8.0392596817
  - # 12
    frequency:   11.6007088614
  - # 13
    frequency:   11.7654633863
  - # 14
    frequency:   14.8290945764
  - # 15
    frequency:   15.1674825478
  - # 16
    frequency:   15.6081556807
  - # 17
    frequency:   16.6339137389
  - # 18
    frequency:   34.2661106493

- q-position: [    0.1111111,    0.0000000,    0.0000000 ]
  distance:    0.0399293
  band:
  - # 1
    frequency:   -4.4156178288
  - # 2
    frequency:   -2.3831591973
  - # 3
    frequency:    0.5764955799
  - # 4
    frequency:    0.6700072406
  - # 5
    frequency:    1.8635308686
  - # 6
    frequency:    2.3732367164
  - # 7
    frequency:    2.8952501596
  - # 8
    frequency:    3.9973809328
  - # 9
    frequency:    4.3615286786
  - # 10
    frequency:    4.9169326135
  - # 11
    frequency:    8.0206556604
  - # 12
    frequency:   11.5957675569
  - # 13
    frequency:   11.7707771726
  - # 14
    frequency:   14.7978560552
  - # 15
    frequency:   15.1578173911
  - # 16
    frequency:   15.5858545444
  - # 17
    frequency:   16.6298911438
  - # 18
    frequency:   34.2592634550

- q-position: [    0.1161616,    0.0000000,    0.0000000 ]
  distance:    0.0417442
  band:
  - # 1
    frequency:   -4.3991359253
  - # 2
    frequency:   -2.1063746008
  - # 3
    frequency:    0.6319607759
  - # 4
    frequency:    0.7281323309
  - # 5
    frequency:    1.9447566240
  - # 6
    frequency:    2.3873398269
  - # 7
    frequency:    2.9419748409
  - # 8
    frequency:    3.9889791379
  - # 9
    frequency:    4.3656536615
  - # 10
    frequency:    4.9455951749
  - # 11
    frequency:    8.0015487689
  - # 12
    frequency:   11.5910794238
  - # 13
    frequency:   11.7758962020
  - # 14
    frequency:   14.7667987295
  - # 15
    frequency:   15.1478802723
  - # 16
    frequency:   15.5626968595
  - # 17
    frequency:   16.6257935519
  - # 18
    frequency:   34.2521550319

- q-position: [    0.1212121,    0.0000000,    0.0000000 ]
  distance:    0.0435592
  band:
  - # 1
    frequency:   -4.3831161271
  - # 2
    frequency:   -1.7886661802
  - # 3
    frequency:    0.6961935365
  - # 4
    frequency:    0.7873008388
  - # 5
    frequency:    2.0260621268
  - # 6
    frequency:    2.4028435095
  - # 7
    frequency:    2.9896772576
  - # 8
    frequency:    3.9813025208
  - # 9
    frequency:    4.3701633494
  - # 10
    frequency:    4.9741431388
  - # 11
    frequency:    7.9819928464
  - # 12
    frequency:   11.5867029198
  - # 13
    frequency:   11.7808029914
  - # 14
    frequency:   14.7360231302
  - # 15
    frequency:   15.1376946423
  - # 16
    frequency:   15.5387496056
  - # 17
    frequency:   16.6216517037
  - # 18
    frequency:   34.2447928667

- q-position: [    0.1262626,    0.0000000,    0.0000000 ]
  distance:    0.0453742
  band:
  - # 1
    frequency:   -4.3676225784
  - # 2
    frequency:   -1.4116900078
  - # 3
    frequency:    0.7783207663
  - # 4
    frequency:    0.8473278588
  - # 5
    frequency:    2.1080165347
  - # 6
    frequency:    2.4197456775
  - # 7
    frequency:    3.0382774587
  - # 8
    frequency:    3.9744228098
  - # 9
    frequency:    4.3750669397
  - # 10
    frequency:    5.0025780796
  - # 11
    frequency:    7.9620445274
  - # 12
    frequency:   11.5826973457
  - # 13
    frequency:   11.7854880449
  - # 14
    frequency:   14.7056202001
  - # 15
    frequency:   15.1272847195
  - # 16
    frequency:   15.5140818225
  - # 17
    frequency:   16.6174986528
  - # 18
    frequency:   34.2371847078

- q-position: [    0.1313131,    0.0000000,    0.0000000 ]
  distance:    0.0471891
  band:
  - # 1
    frequency:   -4.3527053948
  - # 2
    frequency:   -0.9413846219
  - # 3
    frequency:    0.9057776517
  - # 4
    frequency:    0.9080304471
  - # 5
    frequency:    2.1916426049
  - # 6
    frequency:    2.4380298929
  - # 7
    frequency:    3.0876855672
  - # 8
    frequency:    3.9684328712
  - # 9
    frequency:    4.3803697358
  - # 10
    frequency:    5.0309157879
  - # 11
    frequency:    7.9417630683
  - # 12
    frequency:   11.5791225868
  - # 13
    frequency:   11.7899505392
  - # 14
    frequency:   14.6756709397
  - # 15
    frequency:   15.1166754309
  - # 16
    frequency:   15.4887639104
  - # 17
    frequency:   16.6133693503
  - # 18
    frequency:   34.2293385558

- q-position: [    0.1363636,    0.0000000,    0.0000000 ]
  distance:    0.0490041
  band:
  - # 1
    frequency:   -4.3384000891
  - # 2
    frequency:   -0.2759490773
  - # 3
    frequency:    0.9692300175
  - # 4
    frequency:    1.1444476234
  - # 5
    frequency:    2.2787787024
  - # 6
    frequency:    2.4576654577
  - # 7
    frequency:    3.1377965762
  - # 8
    frequency:    3.9634537424
  - # 9
    frequency:    4.3860727066
  - # 10
    frequency:    5.0591885129
  - # 11
    frequency:    7.9212101086
  - # 12
    frequency:   11.5760388402
  - # 13
    frequency:   11.7941988748
  - # 14
    frequency:   14.6462461428
  - # 15
    frequency:   15.1058923491
  - # 16
    frequency:   15.4628669820
  - # 17
    frequency:   16.6093001802
  - # 18
    frequency:   34.2212626543

- q-position: [    0.1414141,    0.0000000,    0.0000000 ]
  distance:    0.0508191
  band:
  - # 1
    frequency:   -4.3247273618
  - # 2
    frequency:    0.5575452396
  - # 3
    frequency:    1.0307545702
  - # 4
    frequency:    1.4751506412
  - # 5
    frequency:    2.3726981791
  - # 6
    frequency:    2.4786077773
  - # 7
    frequency:    3.1884843154
  - # 8
    frequency:    3.9596449117
  - # 9
    frequency:    4.3921721130
  - # 10
    frequency:    5.0874472879
  - # 11
    frequency:    7.9004493586
  - # 12
    frequency:   11.5735063266
  - # 13
    frequency:   11.7982510651
  - # 14
    frequency:   14.6174062484
  - # 15
    frequency:   15.0949616242
  - # 16
    frequency:   15.4364622624
  - # 17
    frequency:   16.6053284558
  - # 18
    frequency:   34.2129654801

- q-position: [    0.1464646,    0.0000000,    0.0000000 ]
  distance:    0.0526340
  band:
  - # 1
    frequency:   -4.3116932546
  - # 2
    frequency:    0.7093393900
  - # 3
    frequency:    1.0924406632
  - # 4
    frequency:    1.7757203113
  - # 5
    frequency:    2.4788206432
  - # 6
    frequency:    2.5007989986
  - # 7
    frequency:    3.2395947689
  - # 8
    frequency:    3.9572196156
  - # 9
    frequency:    4.3986592177
  - # 10
    frequency:    5.1157642484
  - # 11
    frequency:    7.8795462117
  - # 12
    frequency:   11.5715849873
  - # 13
    frequency:   11.8021349413
  - # 14
    frequency:   14.5892013293
  - # 15
    frequency:   15.0839099129
  - # 16
    frequency:   15.4096205325
  - # 17
    frequency:   16.6014918894
  - # 18
    frequency:   34.2044557326

- q-position: [    0.1515152,    0.0000000,    0.0000000 ]
  distance:    0.0544490
  band:
  - # 1
    frequency:   -4.2992896529
  - # 2
    frequency:    0.7997874965
  - # 3
    frequency:    1.1541350492
  - # 4
    frequency:    2.0127736755
  - # 5
    frequency:    2.5241689129
  - # 6
    frequency:    2.6039740229
  - # 7
    frequency:    3.2909394306
  - # 8
    frequency:    3.9564679795
  - # 9
    frequency:    4.4055200896
  - # 10
    frequency:    5.1442347951
  - # 11
    frequency:    7.8585672768
  - # 12
    frequency:   11.5703341677
  - # 13
    frequency:   11.8058881524
  - # 14
    frequency:   14.5616712335
  - # 15
    frequency:   15.0727643040
  - # 16
    frequency:   15.3824116114
  - # 17
    frequency:   16.5978280459
  - # 18
    frequency:   34.1957423241

- q-position: [    0.1565657,    0.0000000,    0.0000000 ]
  distance:    0.0562640
  band:
  - # 1
    frequency:   -4.2874951028
  - # 2
    frequency:    0.8713348805
  - # 3
    frequency:    1.2156959175
  - # 4
    frequency:    2.1892153266
  - # 5
    frequency:    2.5486361090
  - # 6
    frequency:    2.7510778376
  - # 7
    frequency:    3.3422909617
  - # 8
    frequency:    3.9577925004
  - # 9
    frequency:    4.4127355164
  - # 10
    frequency:    5.1729793733
  - # 11
    frequency:    7.8375798331
  - # 12
    frequency:   11.5698122869
  - # 13
    frequency:   11.8095579486
  - # 14
    frequency:   14.5348458925
  - # 15
    frequency:   15.0615522413
  - # 16
    frequency:   15.3549038765
  - # 17
    frequency:   16.5943737922
  - # 18
    frequency:   34.1868343683

- q-position: [    0.1616162,    0.0000000,    0.0000000 ]
  distance:    0.0580789
  band:
  - # 1
    frequency:   -4.2762758996
  - # 2
    frequency:    0.9350828385
  - # 3
    frequency:    1.2769936997
  - # 4
    frequency:    2.3185114498
  - # 5
    frequency:    2.5741093455
  - # 6
    frequency:    2.9133434955
  - # 7
    frequency:    3.3933884955
  - # 8
    frequency:    3.9617628704
  - # 9
    frequency:    4.4202810325
  - # 10
    frequency:    5.2021445300
  - # 11
    frequency:    7.8166512116
  - # 12
    frequency:   11.5700764963
  - # 13
    frequency:   11.8132007404
  - # 14
    frequency:   14.5087457980
  - # 15
    frequency:   15.0503014442
  - # 16
    frequency:   15.3271638183
  - # 17
    frequency:   16.5911647528
  - # 18
    frequency:   34.1777411701

- q-position: [    0.1666667,    0.0000000,    0.0000000 ]
  distance:    0.0598939
  band:
  - # 1
    frequency:   -4.2655873913
  - # 2
    frequency:    0.9950762600
  - # 3
    frequency:    1.3379114301
  - # 4
    frequency:    2.4170441723
  - # 5
    frequency:    2.6004891072
  - # 6
    frequency:    3.0787924884
  - # 7
    frequency:    3.4439775696
  - # 8
    frequency:    3.9692001796
  - # 9
    frequency:    4.4281270682
  - # 10
    frequency:    5.2319027791
  - # 11
    frequency:    7.7958481112
  - # 12
    frequency:   11.5711823262
  - # 13
    frequency:   11.8168814363
  - # 14
    frequency:   14.4833826456
  - # 15
    frequency:   15.0390398273
  - # 16
    frequency:   15.2992556321
  - # 17
    frequency:   16.5882347840
  - # 18
    frequency:   34.1684722143

- q-position: [    0.1717172,    0.0000000,    0.0000000 ]
  distance:    0.0617089
  band:
  - # 1
    frequency:   -4.2553754422
  - # 2
    frequency:    1.0531009114
  - # 3
    frequency:    1.3983446731
  - # 4
    frequency:    2.4968582771
  - # 5
    frequency:    2.6276692972
  - # 6
    frequency:    3.2376389540
  - # 7
    frequency:    3.4939799093
  - # 8
    frequency:    3.9813014512
  - # 9
    frequency:    4.4362392206
  - # 10
    frequency:    5.2624506491
  - # 11
    frequency:    7.7752358630
  - # 12
    frequency:   11.5731833249
  - # 13
    frequency:   11.8206725677
  - # 14
    frequency:   14.4587601336
  - # 15
    frequency:   15.0277954194
  - # 16
    frequency:   15.2712408449
  - # 17
    frequency:   16.5856154759
  - # 18
    frequency:   34.1590371540

- q-position: [    0.1767677,    0.0000000,    0.0000000 ]
  distance:    0.0635239
  band:
  - # 1
    frequency:   -4.2455779950
  - # 2
    frequency:    1.1100459395
  - # 3
    frequency:    1.4582010585
  - # 4
    frequency:    2.5648716461
  - # 5
    frequency:    2.6555390114
  - # 6
    frequency:    3.3827107210
  - # 7
    frequency:    3.5442317721
  - # 8
    frequency:    3.9998018615
  - # 9
    frequency:    4.4445786453
  - # 10
    frequency:    5.2940041514
  - # 11
    frequency:    7.7548776586
  - # 12
    frequency:   11.5761306898
  - # 13
    frequency:   11.8246532199
  - # 14