nqpoint: 300    
npath: 3      
segment_nqpoint:
- 100
- 100
- 100
labels:
- [ 'G', 'M' ]
- [ 'M', 'K' ]
- [ 'K', 'G' ]
reciprocal_lattice:
- [   0.29239504,   0.16881436,   0.00000000 ] # a*
- [   0.00000000,   0.33762871,   0.00000000 ] # b*
- [   0.00000000,   0.00000000,   0.03640994 ] # c*
natom: 8      
lattice:
- [     3.420030645102990,     0.000000000000000,     0.000000000000000 ] # a
- [    -1.710015322551495,     2.961833420360813,     0.000000000000000 ] # b
- [     0.000000000000000,     0.000000000000000,    27.465026739849982 ] # c
points:
- symbol: C # 1
  coordinates: [  0.333332985432215,  0.666666983183674,  0.628618207011094 ]
  mass: 12.010700
- symbol: C # 2
  coordinates: [  0.666666984744047,  0.333332985985145,  0.371032240045925 ]
  mass: 12.010700
- symbol: N # 3
  coordinates: [  0.000000000000000,  0.000000000000000,  0.534746468006292 ]
  mass: 14.006700
- symbol: N # 4
  coordinates: [  0.333332985432215,  0.666666983183674,  0.672310532035944 ]
  mass: 14.006700
- symbol: N # 5
  coordinates: [  0.666666984744047,  0.333332985985145,  0.327689467964056 ]
  mass: 14.006700
- symbol: S # 6
  coordinates: [  0.666666984744047,  0.333332985985145,  0.432012436312423 ]
  mass: 32.065000
- symbol: Sc # 7
  coordinates: [  0.333332985432215,  0.666666983183674,  0.491141359943051 ]
  mass: 44.955912
- symbol: Sc # 8
  coordinates: [  0.666666984744047,  0.333332985985145,  0.577583061830515 ]
  mass: 44.955912

phonon:
- q-position: [    0.0000000,    0.0000000,    0.0000000 ]
  distance:    0.0000000
  band:
  - # 1
    frequency:   -3.6693110493
  - # 2
    frequency:   -3.6693110493
  - # 3
    frequency:   -0.3353282538
  - # 4
    frequency:   -0.3353282538
  - # 5
    frequency:   -0.0000035326
  - # 6
    frequency:   -0.0000011609
  - # 7
    frequency:    0.0000037212
  - # 8
    frequency:    3.9387004628
  - # 9
    frequency:    3.9387004628
  - # 10
    frequency:    5.2642004770
  - # 11
    frequency:    7.0434236919
  - # 12
    frequency:    7.0434236919
  - # 13
    frequency:    7.4151991220
  - # 14
    frequency:    7.4151991220
  - # 15
    frequency:    8.5912159704
  - # 16
    frequency:   10.1742655006
  - # 17
    frequency:   10.1742655006
  - # 18
    frequency:   10.9002012877
  - # 19
    frequency:   11.8219147393
  - # 20
    frequency:   11.8219147393
  - # 21
    frequency:   11.9262400746
  - # 22
    frequency:   20.7972773057
  - # 23
    frequency:   62.0752461103
  - # 24
    frequency:   65.0812175805

- q-position: [    0.0050505,    0.0000000,    0.0000000 ]
  distance:    0.0017052
  band:
  - # 1
    frequency:   -3.6700599937
  - # 2
    frequency:   -3.6692162322
  - # 3
    frequency:   -0.3342250378
  - # 4
    frequency:   -0.3299744599
  - # 5
    frequency:   -0.1340787470
  - # 6
    frequency:    0.0669130751
  - # 7
    frequency:    0.1839249603
  - # 8
    frequency:    3.9388198585
  - # 9
    frequency:    3.9398892772
  - # 10
    frequency:    5.2638141938
  - # 11
    frequency:    7.0424156320
  - # 12
    frequency:    7.0436985234
  - # 13
    frequency:    7.4152144981
  - # 14
    frequency:    7.4152853301
  - # 15
    frequency:    8.5911019181
  - # 16
    frequency:   10.1742902888
  - # 17
    frequency:   10.1744849774
  - # 18
    frequency:   10.8974110383
  - # 19
    frequency:   11.8114041263
  - # 20
    frequency:   11.8219556191
  - # 21
    frequency:   11.9366786457
  - # 22
    frequency:   20.7971751806
  - # 23
    frequency:   62.0750827240
  - # 24
    frequency:   65.0811105730

- q-position: [    0.0101010,    0.0000000,    0.0000000 ]
  distance:    0.0034104
  band:
  - # 1
    frequency:   -3.6723137354
  - # 2
    frequency:   -3.6689319528
  - # 3
    frequency:   -0.3306785770
  - # 4
    frequency:   -0.3135373645
  - # 5
    frequency:   -0.1607657681
  - # 6
    frequency:    0.1333403052
  - # 7
    frequency:    0.2989725531
  - # 8
    frequency:    3.9391809766
  - # 9
    frequency:    3.9434487645
  - # 10
    frequency:    5.2626583658
  - # 11
    frequency:    7.0394023345
  - # 12
    frequency:    7.0445194575
  - # 13
    frequency:    7.4152623991
  - # 14
    frequency:    7.4155309483
  - # 15
    frequency:    8.5907632725
  - # 16
    frequency:   10.1743669208
  - # 17
    frequency:   10.1751430981
  - # 18
    frequency:   10.8890834515
  - # 19
    frequency:   11.7873167168
  - # 20
    frequency:   11.8220760104
  - # 21
    frequency:   11.9605210239
  - # 22
    frequency:   20.7968690027
  - # 23
    frequency:   62.0745933215
  - # 24
    frequency:   65.0807898166

- q-position: [    0.0151515,    0.0000000,    0.0000000 ]
  distance:    0.0051156
  band:
  - # 1
    frequency:   -3.6760924003
  - # 2
    frequency:   -3.6684587075
  - # 3
    frequency:   -0.3241163113
  - # 4
    frequency:   -0.2853249978
  - # 5
    frequency:   -0.1640146412
  - # 6
    frequency:    0.1990575495
  - # 7
    frequency:    0.4132012960
  - # 8
    frequency:    3.9397925911
  - # 9
    frequency:    3.9493581498
  - # 10
    frequency:    5.2607420673
  - # 11
    frequency:    7.0344153408
  - # 12
    frequency:    7.0458758808
  - # 13
    frequency:    7.4153480985
  - # 14
    frequency:    7.4158984262
  - # 15
    frequency:    8.5902104003
  - # 16
    frequency:   10.1745020973
  - # 17
    frequency:   10.1762389328
  - # 18
    frequency:   10.8753464834
  - # 19
    frequency:   11.7580813081
  - # 20
    frequency:   11.8222691729
  - # 21
    frequency:   11.9892530126
  - # 22
    frequency:   20.7963593641
  - # 23
    frequency:   62.0737801670
  - # 24
    frequency:   65.0802561076

- q-position: [    0.0202020,    0.0000000,    0.0000000 ]
  distance:    0.0068208
  band:
  - # 1
    frequency:   -3.6814275659
  - # 2
    frequency:   -3.6677972607
  - # 3
    frequency:   -0.3138572097
  - # 4
    frequency:   -0.2474435114
  - # 5
    frequency:   -0.1418966805
  - # 6
    frequency:    0.2641233048
  - # 7
    frequency:    0.5291659405
  - # 8
    frequency:    3.9406692597
  - # 9
    frequency:    3.9575831103
  - # 10
    frequency:    5.2580804566
  - # 11
    frequency:    7.0275037935
  - # 12
    frequency:    7.0477503296
  - # 13
    frequency:    7.4154802339
  - # 14
    frequency:    7.4163297999
  - # 15
    frequency:    8.5894600268
  - # 16
    frequency:   10.1747066454
  - # 17
    frequency:   10.1777709316
  - # 18
    frequency:   10.8564082013
  - # 19
    frequency:   11.7270635781
  - # 20
    frequency:   11.8225238855
  - # 21
    frequency:   12.0193711149
  - # 22
    frequency:   20.7956472488
  - # 23
    frequency:   62.0726470174
  - # 24
    frequency:   65.0795107686

- q-position: [    0.0252525,    0.0000000,    0.0000000 ]
  distance:    0.0085260
  band:
  - # 1
    frequency:   -3.6883594244
  - # 2
    frequency:   -3.6669485560
  - # 3
    frequency:   -0.2991867609
  - # 4
    frequency:   -0.2133471558
  - # 5
    frequency:    0.0376565519
  - # 6
    frequency:    0.3287451399
  - # 7
    frequency:    0.6466514820
  - # 8
    frequency:    3.9418312241
  - # 9
    frequency:    3.9680762060
  - # 10
    frequency:    5.2546948272
  - # 11
    frequency:    7.0187301043
  - # 12
    frequency:    7.0501188258
  - # 13
    frequency:    7.4156705836
  - # 14
    frequency:    7.4167527659
  - # 15
    frequency:    8.5885344155
  - # 16
    frequency:   10.1749949923
  - # 17
    frequency:   10.1797369218
  - # 18
    frequency:   10.8325487830
  - # 19
    frequency:   11.6955124308
  - # 20
    frequency:   11.8228244689
  - # 21
    frequency:   12.0494432198
  - # 22
    frequency:   20.7947340291
  - # 23
    frequency:   62.0711990969
  - # 24
    frequency:   65.0785556412

- q-position: [    0.0303030,    0.0000000,    0.0000000 ]
  distance:    0.0102312
  band:
  - # 1
    frequency:   -3.6969330289
  - # 2
    frequency:   -3.6659136043
  - # 3
    frequency:   -0.2792505698
  - # 4
    frequency:   -0.1892977388
  - # 5
    frequency:    0.1978989929
  - # 6
    frequency:    0.3931595673
  - # 7
    frequency:    0.7651491046
  - # 8
    frequency:    3.9433042682
  - # 9
    frequency:    3.9807774372
  - # 10
    frequency:    5.2506126791
  - # 11
    frequency:    7.0081652291
  - # 12
    frequency:    7.0529513413
  - # 13
    frequency:    7.4159337567
  - # 14
    frequency:    7.4170877450
  - # 15
    frequency:    8.5874602444
  - # 16
    frequency:   10.1753843962
  - # 17
    frequency:   10.1821341012
  - # 18
    frequency:   10.8041093173
  - # 19
    frequency:   11.6639500005
  - # 20
    frequency:   11.8231508216
  - # 21
    frequency:   12.0787285525
  - # 22
    frequency:   20.7936214607
  - # 23
    frequency:   62.0694430622
  - # 24
    frequency:   65.0773930756

- q-position: [    0.0353535,    0.0000000,    0.0000000 ]
  distance:    0.0119364
  band:
  - # 1
    frequency:   -3.7071938249
  - # 2
    frequency:   -3.6646933585
  - # 3
    frequency:   -0.2527820690
  - # 4
    frequency:   -0.1641885467
  - # 5
    frequency:    0.2967533985
  - # 6
    frequency:    0.4575745582
  - # 7
    frequency:    0.8842214538
  - # 8
    frequency:    3.9451195299
  - # 9
    frequency:    3.9956148886
  - # 10
    frequency:    5.2458678106
  - # 11
    frequency:    6.9958843773
  - # 12
    frequency:    7.0562123853
  - # 13
    frequency:    7.4162868027
  - # 14
    frequency:    7.4172550045
  - # 15
    frequency:    8.5862672064
  - # 16
    frequency:   10.1758938849
  - # 17
    frequency:   10.1849590258
  - # 18
    frequency:   10.7714780797
  - # 19
    frequency:   11.6326080790
  - # 20
    frequency:   11.8234784766
  - # 21
    frequency:   12.1067535727
  - # 22
    frequency:   20.7923116759
  - # 23
    frequency:   62.0673869578
  - # 24
    frequency:   65.0760259180

- q-position: [    0.0404040,    0.0000000,    0.0000000 ]
  distance:    0.0136416
  band:
  - # 1
    frequency:   -3.7191827113
  - # 2
    frequency:   -3.6632885881
  - # 3
    frequency:   -0.2174851631
  - # 4
    frequency:   -0.1279635981
  - # 5
    frequency:    0.3820411241
  - # 6
    frequency:    0.5221545372
  - # 7
    frequency:    1.0035276266
  - # 8
    frequency:    3.9473132654
  - # 9
    frequency:    4.0125054134
  - # 10
    frequency:    5.2405004281
  - # 11
    frequency:    6.9819637592
  - # 12
    frequency:    7.0598617050
  - # 13
    frequency:    7.4167487490
  - # 14
    frequency:    7.4171811024
  - # 15
    frequency:    8.5849863827
  - # 16
    frequency:   10.1765428143
  - # 17
    frequency:   10.1882075866
  - # 18
    frequency:   10.7350755751
  - # 19
    frequency:   11.6015829738
  - # 20
    frequency:   11.8237786829
  - # 21
    frequency:   12.1331707033
  - # 22
    frequency:   20.7908071765
  - # 23
    frequency:   62.0650401625
  - # 24
    frequency:   65.0744574955

- q-position: [    0.0454545,    0.0000000,    0.0000000 ]
  distance:    0.0153468
  band:
  - # 1
    frequency:   -3.7329308973
  - # 2
    frequency:   -3.6616997675
  - # 3
    frequency:   -0.1680515305
  - # 4
    frequency:   -0.0544728410
  - # 5
    frequency:    0.4606306172
  - # 6
    frequency:    0.5870233812
  - # 7
    frequency:    1.1227969915
  - # 8
    frequency:    3.9499265611
  - # 9
    frequency:    4.0313553068
  - # 10
    frequency:    5.2345572747
  - # 11
    frequency:    6.9664786840
  - # 12
    frequency:    7.0638550867
  - # 13
    frequency:    7.4168041726
  - # 14
    frequency:    7.4173400756
  - # 15
    frequency:    8.5836484541
  - # 16
    frequency:   10.1773488766
  - # 17
    frequency:   10.1918749753
  - # 18
    frequency:   10.6953400424
  - # 19
    frequency:   11.5709024349
  - # 20
    frequency:   11.8240185183
  - # 21
    frequency:   12.1577048340
  - # 22
    frequency:   20.7891108256
  - # 23
    frequency:   62.0624133272
  - # 24
    frequency:   65.0726915977

- q-position: [    0.0505051,    0.0000000,    0.0000000 ]
  distance:    0.0170520
  band:
  - # 1
    frequency:   -3.7484548327
  - # 2
    frequency:   -3.6599269921
  - # 3
    frequency:   -0.0824161022
  - # 4
    frequency:    0.1184394974
  - # 5
    frequency:    0.5352389894
  - # 6
    frequency:    0.6522722345
  - # 7
    frequency:    1.2418039196
  - # 8
    frequency:    3.9530049906
  - # 9
    frequency:    4.0520609172
  - # 10
    frequency:    5.2280917745
  - # 11
    frequency:    6.9495030603
  - # 12
    frequency:    7.0681452382
  - # 13
    frequency:    7.4160778145
  - # 14
    frequency:    7.4180821423
  - # 15
    frequency:    8.5822818362
  - # 16
    frequency:   10.1783252277
  - # 17
    frequency:   10.1959556358
  - # 18
    frequency:   10.6527152311
  - # 19
    frequency:   11.5405602562
  - # 20
    frequency:   11.8241610417
  - # 21
    frequency:   12.1801306366
  - # 22
    frequency:   20.7872258385
  - # 23
    frequency:   62.0595183037
  - # 24
    frequency:   65.0707324571

- q-position: [    0.0555556,    0.0000000,    0.0000000 ]
  distance:    0.0187572
  band:
  - # 1
    frequency:   -3.7657514832
  - # 2
    frequency:   -3.6579699362
  - # 3
    frequency:    0.1302783467
  - # 4
    frequency:    0.1878124642
  - # 5
    frequency:    0.6072233690
  - # 6
    frequency:    0.7179670146
  - # 7
    frequency:    1.3603502030
  - # 8
    frequency:    3.9565982143
  - # 9
    frequency:    4.0745091454
  - # 10
    frequency:    5.2211641895
  - # 11
    frequency:    6.9311101588
  - # 12
    frequency:    7.0726827309
  - # 13
    frequency:    7.4149735221
  - # 14
    frequency:    7.4189965872
  - # 15
    frequency:    8.5809108406
  - # 16
    frequency:   10.1794760588
  - # 17
    frequency:   10.2004432001
  - # 18
    frequency:   10.6076422247
  - # 19
    frequency:   11.5105362729
  - # 20
    frequency:   11.8241654882
  - # 21
    frequency:   12.2002619938
  - # 22
    frequency:   20.7851557737
  - # 23
    frequency:   62.0563680670
  - # 24
    frequency:   65.0685847267

- q-position: [    0.0606061,    0.0000000,    0.0000000 ]
  distance:    0.0204623
  band:
  - # 1
    frequency:   -3.7847942000
  - # 2
    frequency:   -3.6558278639
  - # 3
    frequency:    0.2073074113
  - # 4
    frequency:    0.2477725528
  - # 5
    frequency:    0.6773484741
  - # 6
    frequency:    0.7841542140
  - # 7
    frequency:    1.4782538182
  - # 8
    frequency:    3.9607595175
  - # 9
    frequency:    4.0985777851
  - # 10
    frequency:    5.2138417873
  - # 11
    frequency:    6.9113743881
  - # 12
    frequency:    7.0774169697
  - # 13
    frequency:    7.4134817016
  - # 14
    frequency:    7.4201047219
  - # 15
    frequency:    8.5795539737
  - # 16
    frequency:   10.1807891573
  - # 17
    frequency:   10.2053304093
  - # 18
    frequency:   10.5605573413
  - # 19
    frequency:   11.4808081584
  - # 20
    frequency:   11.8239875157
  - # 21
    frequency:   12.2179466868
  - # 22
    frequency:   20.7829045225
  - # 23
    frequency:   62.0529766299
  - # 24
    frequency:   65.0662534553

- q-position: [    0.0656566,    0.0000000,    0.0000000 ]
  distance:    0.0221675
  band:
  - # 1
    frequency:   -3.8055293970
  - # 2
    frequency:   -3.6534997035
  - # 3
    frequency:    0.2667230412
  - # 4
    frequency:    0.3049159146
  - # 5
    frequency:    0.7460780955
  - # 6
    frequency:    0.8508649833
  - # 7
    frequency:    1.5953419594
  - # 8
    frequency:    3.9655452876
  - # 9
    frequency:    4.1241356602
  - # 10
    frequency:    5.2061990136
  - # 11
    frequency:    6.8903737828
  - # 12
    frequency:    7.0822971567
  - # 13
    frequency:    7.4116113973
  - # 14
    frequency:    7.4214269502
  - # 15
    frequency:    8.5782224841
  - # 16
    frequency:   10.1822221127
  - # 17
    frequency:   10.2106090193
  - # 18
    frequency:   10.5118995350
  - # 19
    frequency:   11.4513578059
  - # 20
    frequency:   11.8235795033
  - # 21
    frequency:   12.2330635982
  - # 22
    frequency:   20.7804762993
  - # 23
    frequency:   62.0493589509
  - # 24
    frequency:   65.0637440623

- q-position: [    0.0707071,    0.0000000,    0.0000000 ]
  distance:    0.0238727
  band:
  - # 1
    frequency:   -3.8278742017
  - # 2
    frequency:   -3.6509841907
  - # 3
    frequency:    0.3184146008
  - # 4
    frequency:    0.3613625003
  - # 5
    frequency:    0.8137067458
  - # 6
    frequency:    0.9181178561
  - # 7
    frequency:    1.7114467642
  - # 8
    frequency:    3.9710144276
  - # 9
    frequency:    4.1510425186
  - # 10
    frequency:    5.1983176640
  - # 11
    frequency:    6.8681928959
  - # 12
    frequency:    7.0872732057
  - # 13
    frequency:    7.4093888892
  - # 14
    frequency:    7.4229822469
  - # 15
    frequency:    8.5769192591
  - # 16
    frequency:   10.1836737607
  - # 17
    frequency:   10.2162696960
  - # 18
    frequency:   10.4621354150
  - # 19
    frequency:   11.4221738631
  - # 20
    frequency:   11.8228909090
  - # 21
    frequency:   12.2455212496
  - # 22
    frequency:   20.7778756314
  - # 23
    frequency:   62.0455308376
  - # 24
    frequency:   65.0610623096

- q-position: [    0.0757576,    0.0000000,    0.0000000 ]
  distance:    0.0255779
  band:
  - # 1
    frequency:   -3.8517151915
  - # 2
    frequency:   -3.6482800857
  - # 3
    frequency:    0.3655632077
  - # 4
    frequency:    0.4180247492
  - # 5
    frequency:    0.8804263964
  - # 6
    frequency:    0.9859205053
  - # 7
    frequency:    1.8264026798
  - # 8
    frequency:    3.9772277093
  - # 9
    frequency:    4.1791486464
  - # 10
    frequency:    5.1902870494
  - # 11
    frequency:    6.8449258073
  - # 12
    frequency:    7.0922965641
  - # 13
    frequency:    7.4068553629
  - # 14
    frequency:    7.4247877296
  - # 15
    frequency:    8.5756381475
  - # 16
    frequency:   10.1849174010
  - # 17
    frequency:   10.2223019013
  - # 18
    frequency:   10.4118248662
  - # 19
    frequency:   11.3932515288
  - # 20
    frequency:   11.8218686834
  - # 21
    frequency:   12.2552571313
  - # 22
    frequency:   20.7751073479
  - # 23
    frequency:   62.0415088436
  - # 24
    frequency:   65.0582142733

- q-position: [    0.0808081,    0.0000000,    0.0000000 ]
  distance:    0.0272831
  band:
  - # 1
    frequency:   -3.8769082676
  - # 2
    frequency:   -3.6453864600
  - # 3
    frequency:    0.4096413616
  - # 4
    frequency:    0.4753359155
  - # 5
    frequency:    0.9463633226
  - # 6
    frequency:    1.0542708406
  - # 7
    frequency:    1.9400447968
  - # 8
    frequency:    3.9842470660
  - # 9
    frequency:    4.2082941656
  - # 10
    frequency:    5.1822041457
  - # 11
    frequency:    6.8206789953
  - # 12
    frequency:    7.0973208974
  - # 13
    frequency:    7.4040638829
  - # 14
    frequency:    7.4268583613
  - # 15
    frequency:    8.5743637544
  - # 16
    frequency:   10.1854216225
  - # 17
    frequency:   10.2286937765
  - # 18
    frequency:   10.3618008849
  - # 19
    frequency:   11.3645904902
  - # 20
    frequency:   11.8204577434
  - # 21
    frequency:   12.2622375570
  - # 22
    frequency:   20.7721765693
  - # 23
    frequency:   62.0373101631
  - # 24
    frequency:   65.0552063133

- q-position: [    0.0858586,    0.0000000,    0.0000000 ]
  distance:    0.0289883
  band:
  - # 1
    frequency:   -3.9032796604
  - # 2
    frequency:   -3.6423030507
  - # 3
    frequency:    0.4514582755
  - # 4
    frequency:    0.5334993962
  - # 5
    frequency:    1.0115998659
  - # 6
    frequency:    1.1231576750
  - # 7
    frequency:    2.0522077190
  - # 8
    frequency:    3.9921348299
  - # 9
    frequency:    4.2383079829
  - # 10
    frequency:    5.1741737179
  - # 11
    frequency:    6.7955738739
  - # 12
    frequency:    7.1023025930
  - # 13
    frequency:    7.4010759189
  - # 14
    frequency:    7.4292068133
  - # 15
    frequency:    8.5730717206
  - # 16
    frequency:   10.1837972975
  - # 17
    frequency:   10.2354320273
  - # 18
    frequency:   10.3137245348
  - # 19
    frequency:   11.3361917099
  - # 20
    frequency:   11.8186015015
  - # 21
    frequency:   12.2664578928
  - # 22
    frequency:   20.7690886956
  - # 23
    frequency:   62.0329525210
  - # 24
    frequency:   65.0520450431

- q-position: [    0.0909091,    0.0000000,    0.0000000 ]
  distance:    0.0306935
  band:
  - # 1
    frequency:   -3.9306280071
  - # 2
    frequency:   -3.6390306710
  - # 3
    frequency:    0.4915067163
  - # 4
    frequency:    0.5925958632
  - # 5
    frequency:    1.0761880273
  - # 6
    frequency:    1.1925611170
  - # 7
    frequency:    2.1627247054
  - # 8
    frequency:    4.0009529196
  - # 9
    frequency:    4.2690063587
  - # 10
    frequency:    5.1663084070
  - # 11
    frequency:    6.7697488567
  - # 12
    frequency:    7.1072010524
  - # 13
    frequency:    7.3979576813
  - # 14
    frequency:    7.4318435127
  - # 15
    frequency:    8.5717294634
  - # 16
    frequency:   10.1760686406
  - # 17
    frequency:   10.2425018181
  - # 18
    frequency:   10.2718166591
  - # 19
    frequency:   11.3080536392
  - # 20
    frequency:   11.8162424484
  - # 21
    frequency:   12.2679430598
  - # 22
    frequency:   20.7658493949
  - # 23
    frequency:   62.0284540607
  - # 24
    frequency:   65.0487372981

- q-position: [    0.0959596,    0.0000000,    0.0000000 ]
  distance:    0.0323987
  band:
  - # 1
    frequency:   -3.9587273979
  - # 2
    frequency:   -3.6355716648
  - # 3
    frequency:    0.5301080580
  - # 4
    frequency:    0.6526365717
  - # 5
    frequency:    1.1401583737
  - # 6
    frequency:    1.2624527984
  - # 7
    frequency:    2.2714269234
  - # 8
    frequency:    4.0107619840
  - # 9
    frequency:    4.3001910662
  - # 10
    frequency:    5.1587287621
  - # 11
    frequency:    6.7433608817
  - # 12
    frequency:    7.1119787486
  - # 13
    frequency:    7.3947765083
  - # 14
    frequency:    7.4347768833
  - # 15
    frequency:    8.5702973273
  - # 16
    frequency:   10.1538941574
  - # 17
    frequency:   10.2446401204
  - # 18
    frequency:   10.2498866795
  - # 19
    frequency:   11.2801683188
  - # 20
    frequency:   11.8133227840
  - # 21
    frequency:   12.2667482211
  - # 22
    frequency:   20.7624645896
  - # 23
    frequency:   62.0238332311
  - # 24
    frequency:   65.0452901040

- q-position: [    0.1010101,    0.0000000,    0.0000000 ]
  distance:    0.0341039
  band:
  - # 1
    frequency:   -3.9873312480
  - # 2
    frequency:   -3.6319303896
  - # 3
    frequency:    0.5674824334
  - # 4
    frequency:    0.7135927256
  - # 5
    frequency:    1.2035261214
  - # 6
    frequency:    1.3327960137
  - # 7
    frequency:    2.3781427298
  - # 8
    frequency:    4.0216205107
  - # 9
    frequency:    4.3316471225
  - # 10
    frequency:    5.1515631939
  - # 11
    frequency:    6.7165863983
  - # 12
    frequency:    7.1166010485
  - # 13
    frequency:    7.3915975151
  - # 14
    frequency:    7.4380137733
  - # 15
    frequency:    8.5687300760
  - # 16
    frequency:   10.1151474152
  - # 17
    frequency:   10.2345223098
  - # 18
    frequency:   10.2575684367
  - # 19
    frequency:   11.2525177407
  - # 20
    frequency:   11.8097850907
  - # 21
    frequency:   12.2629595583
  - # 22
    frequency:   20.7589404430
  - # 23
    frequency:   62.0191086722
  - # 24
    frequency:   65.0417106449

- q-position: [    0.1060606,    0.0000000,    0.0000000 ]
  distance:    0.0358091
  band:
  - # 1
    frequency:   -4.0161768345
  - # 2
    frequency:   -3.6281137088
  - # 3
    frequency:    0.6037862825
  - # 4
    frequency:    0.7754128357
  - # 5
    frequency:    1.2662954427
  - # 6
    frequency:    1.4035458264
  - # 7
    frequency:    2.4826969477
  - # 8
    frequency:    4.0335839095
  - # 9
    frequency:    4.3631400865
  - # 10
    frequency:    5.1449478138
  - # 11
    frequency:    6.6896218742
  - # 12
    frequency:    7.1210358146
  - # 13
    frequency:    7.3884806728
  - # 14
    frequency:    7.4415600445
  - # 15
    frequency:    8.5669786466
  - # 16
    frequency:   10.0681448063
  - # 17
    frequency:   10.2333304823
  - # 18
    frequency:   10.2655271623
  - # 19
    frequency:   11.2250707834
  - # 20
    frequency:   11.8055730432
  - # 21
    frequency:   12.2566950243
  - # 22
    frequency:   20.7552833436
  - # 23
    frequency:   62.0142991010
  - # 24
    frequency:   65.0380062311

- q-position: [    0.1111111,    0.0000000,    0.0000000 ]
  distance:    0.0375143
  band:
  - # 1
    frequency:   -4.0449903197
  - # 2
    frequency:   -3.6241314756
  - # 3
    frequency:    0.6391340216
  - # 4
    frequency:    0.8380334577
  - # 5
    frequency:    1.3284626062
  - # 6
    frequency:    1.4746491841
  - # 7
    frequency:    2.5849101474
  - # 8
    frequency:    4.0467035803
  - # 9
    frequency:    4.3944129511
  - # 10
    frequency:    5.1390260993
  - # 11
    frequency:    6.6626839216
  - # 12
    frequency:    7.1252528239
  - # 13
    frequency:    7.3854784331
  - # 14
    frequency:    7.4454212763
  - # 15
    frequency:    8.5649920897
  - # 16
    frequency:   10.0182952404
  - # 17
    frequency:   10.2358247640
  - # 18
    frequency:   10.2737411577
  - # 19
    frequency:   11.1977809951
  - # 20
    frequency:   11.8006321448
  - # 21
    frequency:   12.2481049309
  - # 22
    frequency:   20.7514998875
  - # 23
    frequency:   62.0094231988
  - # 24
    frequency:   65.0341842679

- q-position: [    0.1161616,    0.0000000,    0.0000000 ]
  distance:    0.0392195
  band:
  - # 1
    frequency:   -4.0734920852
  - # 2
    frequency:   -3.6199969854
  - # 3
    frequency:    0.6736113010
  - # 4
    frequency:    0.9013859905
  - # 5
    frequency:    1.3900183222
  - # 6
    frequency:    1.5460450770
  - # 7
    frequency:    2.6845979700
  - # 8
    frequency:    4.0610259780
  - # 9
    frequency:    4.4251827143
  - # 10
    frequency:    5.1339482910
  - # 11
    frequency:    6.6360091470
  - # 12
    frequency:    7.1292230612
  - # 13
    frequency:    7.3826339692
  - # 14
    frequency:    7.4496035232
  - # 15
    frequency:    8.5627196319
  - # 16
    frequency:    9.9676554950
  - # 17
    frequency:   10.2401049197
  - # 18
    frequency:   10.2821869647
  - # 19
    frequency:   11.1705854758
  - # 20
    frequency:   11.7949104840
  - # 21
    frequency:   12.2373721989
  - # 22
    frequency:   20.7475968591
  - # 23
    frequency:   62.0044994998
  - # 24
    frequency:   65.0302522241

- q-position: [    0.1212121,    0.0000000,    0.0000000 ]
  distance:    0.0409247
  band:
  - # 1
    frequency:   -4.1014022078
  - # 2
    frequency:   -3.6157273814
  - # 3
    frequency:    0.7072835034
  - # 4
    frequency:    0.9654009839
  - # 5
    frequency:    1.4509495237
  - # 6
    frequency:    1.6176647686
  - # 7
    frequency:    2.7815705556
  - # 8
    frequency:    4.0765916851
  - # 9
    frequency:    4.4551368050
  - # 10
    frequency:    5.1298703672
  - # 11
    frequency:    6.6098538068
  - # 12
    frequency:    7.1329179555
  - # 13
    frequency:    7.3799800621
  - # 14
    frequency:    7.4541140496
  - # 15
    frequency:    8.5601128105
  - # 16
    frequency:    9.9171086792
  - # 17
    frequency:   10.2454332801
  - # 18
    frequency:   10.2908394087
  - # 19
    frequency:   11.1434051088
  - # 20
    frequency:   11.7883595015
  - # 21
    frequency:   12.2247120603
  - # 22
    frequency:   20.7435812098
  - # 23
    frequency:   61.9995462830
  - # 24
    frequency:   65.0262176015

- q-position: [    0.1262626,    0.0000000,    0.0000000 ]
  distance:    0.0426299
  band:
  - # 1
    frequency:   -4.1284459222
  - # 2
    frequency:   -3.6113439929
  - # 3
    frequency:    0.7402014026
  - # 4
    frequency:    1.0300107994
  - # 5
    frequency:    1.5112407314
  - # 6
    frequency:    1.6894321225
  - # 7
    frequency:    2.8756321542
  - # 8
    frequency:    4.0934345070
  - # 9
    frequency:    4.4839296824
  - # 10
    frequency:    5.1269523549
  - # 11
    frequency:    6.5844932872
  - # 12
    frequency:    7.1363086417
  - # 13
    frequency:    7.3775386403
  - # 14
    frequency:    7.4589619590
  - # 15
    frequency:    8.5571276506
  - # 16
    frequency:    9.8671367915
  - # 17
    frequency:   10.2514627230
  - # 18
    frequency:   10.2996716700
  - # 19
    frequency:   11.1161463883
  - # 20
    frequency:   11.7809347591
  - # 21
    frequency:   12.2103709756
  - # 22
    frequency:   20.7394600332
  - # 23
    frequency:   61.9945814668
  - # 24
    frequency:   65.0220879051

- q-position: [    0.1313131,    0.0000000,    0.0000000 ]
  distance:    0.0443351
  band:
  - # 1
    frequency:   -4.1543589396
  - # 2
    frequency:   -3.6068725920
  - # 3
    frequency:    0.7724050512
  - # 4
    frequency:    1.0951511483
  - # 5
    frequency:    1.5708751026
  - # 6
    frequency:    1.7612640477
  - # 7
    frequency:    2.9665810027
  - # 8
    frequency:    4.1115806011
  - # 9
    frequency:    4.5111801290
  - # 10
    frequency:    5.1253556165
  - # 11
    frequency:    6.5602213331
  - # 12
    frequency:    7.1393653288
  - # 13
    frequency:    7.3753209656
  - # 14
    frequency:    7.4641586360
  - # 15
    frequency:    8.5537268684
  - # 16
    frequency:    9.8180636601
  - # 17
    frequency:   10.2579933102
  - # 18
    frequency:   10.3086553821
  - # 19
    frequency:   11.0887050931
  - # 20
    frequency:   11.7725967012
  - # 21
    frequency:   12.1946245072
  - # 22
    frequency:   20.7352405390
  - # 23
    frequency:   61.9896225086
  - # 24
    frequency:   65.0178706144

- q-position: [    0.1363636,    0.0000000,    0.0000000 ]
  distance:    0.0460403
  band:
  - # 1
    frequency:   -4.1788925119
  - # 2
    frequency:   -3.6023435588
  - # 3
    frequency:    0.8039265214
  - # 4
    frequency:    1.1607618545
  - # 5
    frequency:    1.6298352302
  - # 6
    frequency:    1.8330710788
  - # 7