nqpoint: 300    
npath: 3      
segment_nqpoint:
- 100
- 100
- 100
labels:
- [ 'G', 'M' ]
- [ 'M', 'K' ]
- [ 'K', 'G' ]
reciprocal_lattice:
- [   0.30124180,   0.17392203,   0.00000000 ] # a*
- [   0.00000000,   0.34784407,   0.00000000 ] # b*
- [   0.00000000,   0.00000000,   0.04170128 ] # c*
natom: 6      
lattice:
- [     3.319592423077326,     0.000000000000000,     0.000000000000000 ] # a
- [    -1.659796211538663,     2.874851368589799,     0.000000000000000 ] # b
- [     0.000000000000000,     0.000000000000000,    23.980080179586928 ] # c
points:
- symbol: C # 1
  coordinates: [  0.000000000000000,  0.000000000000000,  0.524794911367324 ]
  mass: 12.010700
- symbol: H # 2
  coordinates: [  0.666666984744047,  0.333332985985145,  0.375311505741389 ]
  mass: 1.007940
- symbol: O # 3
  coordinates: [  0.333332985432215,  0.666666983183674,  0.624688494258611 ]
  mass: 15.999400
- symbol: O # 4
  coordinates: [  0.666666984744047,  0.333332985985145,  0.416459246797030 ]
  mass: 15.999400
- symbol: Zr # 5
  coordinates: [  0.333332985432215,  0.666666983183674,  0.472751534568687 ]
  mass: 91.224000
- symbol: Zr # 6
  coordinates: [  0.666666984744047,  0.333332985985145,  0.584386607593971 ]
  mass: 91.224000

phonon:
- q-position: [    0.0000000,    0.0000000,    0.0000000 ]
  distance:    0.0000000
  band:
  - # 1
    frequency:   -0.0000155419
  - # 2
    frequency:    0.0000003463
  - # 3
    frequency:    0.0000129167
  - # 4
    frequency:    3.4023087697
  - # 5
    frequency:    3.4023087697
  - # 6
    frequency:    6.8157908946
  - # 7
    frequency:    7.5928436204
  - # 8
    frequency:    7.5928436205
  - # 9
    frequency:    8.8427587852
  - # 10
    frequency:    8.8427587852
  - # 11
    frequency:   12.5262945651
  - # 12
    frequency:   13.7384750848
  - # 13
    frequency:   13.7384750848
  - # 14
    frequency:   15.0427369036
  - # 15
    frequency:   15.4332178845
  - # 16
    frequency:   15.4332178845
  - # 17
    frequency:   18.4581916271
  - # 18
    frequency:  111.3098753419

- q-position: [    0.0050505,    0.0000000,    0.0000000 ]
  distance:    0.0017568
  band:
  - # 1
    frequency:    0.0010699992
  - # 2
    frequency:    0.0695068384
  - # 3
    frequency:    0.0849847434
  - # 4
    frequency:    3.4029434899
  - # 5
    frequency:    3.4040857469
  - # 6
    frequency:    6.8154218056
  - # 7
    frequency:    7.5924613063
  - # 8
    frequency:    7.5927347428
  - # 9
    frequency:    8.8411721854
  - # 10
    frequency:    8.8430823642
  - # 11
    frequency:   12.5256741063
  - # 12
    frequency:   13.7375262890
  - # 13
    frequency:   13.7387605041
  - # 14
    frequency:   15.0419901353
  - # 15
    frequency:   15.4313592881
  - # 16
    frequency:   15.4319024237
  - # 17
    frequency:   18.4580869725
  - # 18
    frequency:  111.3087622965

- q-position: [    0.0101010,    0.0000000,    0.0000000 ]
  distance:    0.0035136
  band:
  - # 1
    frequency:    0.0042795068
  - # 2
    frequency:    0.1389858969
  - # 3
    frequency:    0.1698842256
  - # 4
    frequency:    3.4048465622
  - # 5
    frequency:    3.4094020917
  - # 6
    frequency:    6.8143148743
  - # 7
    frequency:    7.5913189912
  - # 8
    frequency:    7.5924095687
  - # 9
    frequency:    8.8364233271
  - # 10
    frequency:    8.8440493968
  - # 11
    frequency:   12.5238121770
  - # 12
    frequency:   13.7346912502
  - # 13
    frequency:   13.7396129433
  - # 14
    frequency:   15.0397420910
  - # 15
    frequency:   15.4258000759
  - # 16
    frequency:   15.4279647366
  - # 17
    frequency:   18.4577697142
  - # 18
    frequency:  111.3054280417

- q-position: [    0.0151515,    0.0000000,    0.0000000 ]
  distance:    0.0052704
  band:
  - # 1
    frequency:    0.0095954823
  - # 2
    frequency:    0.2084098006
  - # 3
    frequency:    0.2546106652
  - # 4
    frequency:    3.4080147263
  - # 5
    frequency:    3.4182145048
  - # 6
    frequency:    6.8124711248
  - # 7
    frequency:    7.5894304322
  - # 8
    frequency:    7.5918723155
  - # 9
    frequency:    8.8285452526
  - # 10
    frequency:    8.8456488892
  - # 11
    frequency:   12.5207071316
  - # 12
    frequency:   13.7300037513
  - # 13
    frequency:   13.7410208970
  - # 14
    frequency:   15.0359693304
  - # 15
    frequency:   15.4165902800
  - # 16
    frequency:   15.4214309440
  - # 17
    frequency:   18.4572300513
  - # 18
    frequency:  111.2998872023

- q-position: [    0.0202020,    0.0000000,    0.0000000 ]
  distance:    0.0070272
  band:
  - # 1
    frequency:    0.0169693840
  - # 2
    frequency:    0.2777519692
  - # 3
    frequency:    0.3390713244
  - # 4
    frequency:    3.4124425643
  - # 5
    frequency:    3.4304523292
  - # 6
    frequency:    6.8098923185
  - # 7
    frequency:    7.5868181437
  - # 8
    frequency:    7.5911294828
  - # 9
    frequency:    8.8175937616
  - # 10
    frequency:    8.8478629107
  - # 11
    frequency:   12.5163562715
  - # 12
    frequency:   13.7235192278
  - # 13
    frequency:   13.7429650280
  - # 14
    frequency:   15.0306320209
  - # 15
    frequency:   15.4038143089
  - # 16
    frequency:   15.4123446962
  - # 17
    frequency:   18.4564519236
  - # 18
    frequency:  111.2921640901

- q-position: [    0.0252525,    0.0000000,    0.0000000 ]
  distance:    0.0087839
  band:
  - # 1
    frequency:    0.0263356578
  - # 2
    frequency:    0.3469869871
  - # 3
    frequency:    0.4231662142
  - # 4
    frequency:    3.4181225252
  - # 5
    frequency:    3.4460197070
  - # 6
    frequency:    6.8065810291
  - # 7
    frequency:    7.5835127998
  - # 8
    frequency:    7.5901890499
  - # 9
    frequency:    8.8036485052
  - # 10
    frequency:    8.8506671601
  - # 11
    frequency:   12.5107559165
  - # 12
    frequency:   13.7153134922
  - # 13
    frequency:   13.7454179242
  - # 14
    frequency:   15.0236727096
  - # 15
    frequency:   15.3875925450
  - # 16
    frequency:   15.4007673465
  - # 17
    frequency:   18.4554134104
  - # 18
    frequency:  111.2822926105

- q-position: [    0.0303030,    0.0000000,    0.0000000 ]
  distance:    0.0105407
  band:
  - # 1
    frequency:    0.0376139334
  - # 2
    frequency:    0.4160909405
  - # 3
    frequency:    0.5067860229
  - # 4
    frequency:    3.4250449606
  - # 5
    frequency:    3.4647984001
  - # 6
    frequency:    6.8025407316
  - # 7
    frequency:    7.5795524361
  - # 8
    frequency:    7.5890593413
  - # 9
    frequency:    8.7868145213
  - # 10
    frequency:    8.8540317203
  - # 11
    frequency:   12.5039015150
  - # 12
    frequency:   13.7054810004
  - # 13
    frequency:   13.7483437589
  - # 14
    frequency:   15.0150144685
  - # 15
    frequency:   15.3680836900
  - # 16
    frequency:   15.3867781941
  - # 17
    frequency:   18.4540872641
  - # 18
    frequency:  111.2703161313

- q-position: [    0.0353535,    0.0000000,    0.0000000 ]
  distance:    0.0122975
  band:
  - # 1
    frequency:    0.0507115679
  - # 2
    frequency:    0.4850417116
  - # 3
    frequency:    0.5898103273
  - # 4
    frequency:    3.4331981748
  - # 5
    frequency:    3.4866511051
  - # 6
    frequency:    6.7977758906
  - # 7
    frequency:    7.5749814905
  - # 8
    frequency:    7.5877475489
  - # 9
    frequency:    8.7672242080
  - # 10
    frequency:    8.8579219650
  - # 11
    frequency:   12.4957878015
  - # 12
    frequency:   13.6941327085
  - # 13
    frequency:   13.7516978563
  - # 14
    frequency:   15.0045583422
  - # 15
    frequency:   15.3454879042
  - # 16
    frequency:   15.3704747937
  - # 17
    frequency:   18.4524415571
  - # 18
    frequency:  111.2562873146

- q-position: [    0.0404040,    0.0000000,    0.0000000 ]
  distance:    0.0140543
  band:
  - # 1
    frequency:    0.0655263804
  - # 2
    frequency:    0.5538192224
  - # 3
    frequency:    0.6721061495
  - # 4
    frequency:    3.4425684886
  - # 5
    frequency:    3.5114250763
  - # 6
    frequency:    6.7922920231
  - # 7
    frequency:    7.5698497206
  - # 8
    frequency:    7.5862579070
  - # 9
    frequency:    8.7450397303
  - # 10
    frequency:    8.8622995803
  - # 11
    frequency:   12.4864090110
  - # 12
    frequency:   13.6813935733
  - # 13
    frequency:   13.7554261639
  - # 14
    frequency:   14.9921801450
  - # 15
    frequency:   15.3200506679
  - # 16
    frequency:   15.3519733303
  - # 17
    frequency:   18.4504404147
  - # 18
    frequency:  111.2402679133

- q-position: [    0.0454545,    0.0000000,    0.0000000 ]
  distance:    0.0158111
  band:
  - # 1
    frequency:    0.0819494268
  - # 2
    frequency:    0.6224056224
  - # 3
    frequency:    0.7535269136
  - # 4
    frequency:    3.4531403199
  - # 5
    frequency:    3.5389558730
  - # 6
    frequency:    6.7860957075
  - # 7
    frequency:    7.5642110407
  - # 8
    frequency:    7.5845895193
  - # 9
    frequency:    8.7204558446
  - # 10
    frequency:    8.8671236588
  - # 11
    frequency:   12.4757591600
  - # 12
    frequency:   13.6673997550
  - # 13
    frequency:   13.7594646405
  - # 14
    frequency:   14.9777269423
  - # 15
    frequency:   15.2920670084
  - # 16
    frequency:   15.3314090498
  - # 17
    frequency:   18.4480448085
  - # 18
    frequency:  111.2223285315

- q-position: [    0.0505051,    0.0000000,    0.0000000 ]
  distance:    0.0175679
  band:
  - # 1
    frequency:    0.0998676829
  - # 2
    frequency:    0.6907854136
  - # 3
    frequency:    0.8339118565
  - # 4
    frequency:    3.4648962817
  - # 5
    frequency:    3.5690710654
  - # 6
    frequency:    6.7791945004
  - # 7
    frequency:    7.5581223187
  - # 8
    frequency:    7.5827338621
  - # 9
    frequency:    8.6937031043
  - # 10
    frequency:    8.8723518330
  - # 11
    frequency:   12.4638324013
  - # 12
    frequency:   13.6522955789
  - # 13
    frequency:   13.7637385721
  - # 14
    frequency:   14.9610141405
  - # 15
    frequency:   15.2618851426
  - # 16
    frequency:   15.3089367336
  - # 17
    frequency:   18.4452133819
  - # 18
    frequency:  111.2025483494

- q-position: [    0.0555556,    0.0000000,    0.0000000 ]
  distance:    0.0193247
  band:
  - # 1
    frequency:    0.1191665391
  - # 2
    frequency:    0.7589455123
  - # 3
    frequency:    0.9130859443
  - # 4
    frequency:    3.4778172984
  - # 5
    frequency:    3.6015937579
  - # 6
    frequency:    6.7715967173
  - # 7
    frequency:    7.5516421670
  - # 8
    frequency:    7.5806720119
  - # 9
    frequency:    8.6650513759
  - # 10
    frequency:    8.8779414099
  - # 11
    frequency:   12.4506234551
  - # 12
    frequency:   13.6362303166
  - # 13
    frequency:   13.7681618357
  - # 14
    frequency:   14.9418251388
  - # 15
    frequency:   15.2299075699
  - # 16
    frequency:   15.2847311948
  - # 17
    frequency:   18.4419032816
  - # 18
    frequency:  111.1810148155

- q-position: [    0.0606061,    0.0000000,    0.0000000 ]
  distance:    0.0210815
  band:
  - # 1
    frequency:    0.1397320450
  - # 2
    frequency:    0.8268752442
  - # 3
    frequency:    0.9908603506
  - # 4
    frequency:    3.4918827395
  - # 5
    frequency:    3.6363458223
  - # 6
    frequency:    6.7633110259
  - # 7
    frequency:    7.5448297616
  - # 8
    frequency:    7.5783717070
  - # 9
    frequency:    8.6348135361
  - # 10
    frequency:    8.8838504837
  - # 11
    frequency:   12.4361281166
  - # 12
    frequency:   13.6193548403
  - # 13
    frequency:   13.7726361493
  - # 14
    frequency:   14.9199169417
  - # 15
    frequency:   15.1965862005
  - # 16
    frequency:   15.2589877589
  - # 17
    frequency:   18.4380709729
  - # 18
    frequency:  111.1578233045

- q-position: [    0.0656566,    0.0000000,    0.0000000 ]
  distance:    0.0228382
  band:
  - # 1
    frequency:    0.1614528852
  - # 2
    frequency:    0.8945662762
  - # 3
    frequency:    1.0670335532
  - # 4
    frequency:    3.5070705704
  - # 5
    frequency:    3.6731507667
  - # 6
    frequency:    6.7543457998
  - # 7
    frequency:    7.5377437101
  - # 8
    frequency:    7.5757844346
  - # 9
    frequency:    8.6033491278
  - # 10
    frequency:    8.8900390012
  - # 11
    frequency:   12.4203438291
  - # 12
    frequency:   13.6018182103
  - # 13
    frequency:   13.7770503574
  - # 14
    frequency:   14.8950364696
  - # 15
    frequency:   15.1624067735
  - # 16
    frequency:   15.2319226764
  - # 17
    frequency:   18.4336730176
  - # 18
    frequency:  111.1330767439

- q-position: [    0.0707071,    0.0000000,    0.0000000 ]
  distance:    0.0245950
  band:
  - # 1
    frequency:    0.1842221013
  - # 2
    frequency:    0.9620124859
  - # 3
    frequency:    1.1413931153
  - # 4
    frequency:    3.5233575172
  - # 5
    frequency:    3.7118361936
  - # 6
    frequency:    6.7447081800
  - # 7
    frequency:    7.5304409916
  - # 8
    frequency:    7.5728428673
  - # 9
    frequency:    8.5710676078
  - # 10
    frequency:    8.8964697677
  - # 11
    frequency:   12.4032703084
  - # 12
    frequency:   13.5837642512
  - # 13
    frequency:   13.7812798364
  - # 14
    frequency:   14.8669519858
  - # 15
    frequency:   15.1278581401
  - # 16
    frequency:   15.2037733831
  - # 17
    frequency:   18.4286667994
  - # 18
    frequency:  111.1068852092

- q-position: [    0.0757576,    0.0000000,    0.0000000 ]
  distance:    0.0263518
  band:
  - # 1
    frequency:    0.2079386194
  - # 2
    frequency:    1.0292097753
  - # 3
    frequency:    1.2137182182
  - # 4
    frequency:    3.5407192437
  - # 5
    frequency:    3.7522358309
  - # 6
    frequency:    6.7344028047
  - # 7
    frequency:    7.5229759798
  - # 8
    frequency:    7.5694591592
  - # 9
    frequency:    8.5384306186
  - # 10
    frequency:    8.9031093820
  - # 11
    frequency:   12.3849101936
  - # 12
    frequency:   13.5653281824
  - # 13
    frequency:   13.7851861296
  - # 14
    frequency:   14.8354997116
  - # 15
    frequency:   15.0933863298
  - # 16
    frequency:   15.1747984946
  - # 17
    frequency:   18.4230111840
  - # 18
    frequency:  111.0793654904

- q-position: [    0.0808081,    0.0000000,    0.0000000 ]
  distance:    0.0281086
  band:
  - # 1
    frequency:    0.2325086674
  - # 2
    frequency:    1.0961558339
  - # 3
    frequency:    1.2837830182
  - # 4
    frequency:    3.5591305348
  - # 5
    frequency:    3.7941911360
  - # 6
    frequency:    6.7234301857
  - # 7
    frequency:    7.5153995589
  - # 8
    frequency:    7.5655248538
  - # 9
    frequency:    8.5059524450
  - # 10
    frequency:    8.9099290950
  - # 11
    frequency:   12.3652696931
  - # 12
    frequency:   13.5466333704
  - # 13
    frequency:   13.7886169714
  - # 14
    frequency:   14.8006365715
  - # 15
    frequency:   15.0593424428
  - # 16
    frequency:   15.1452773757
  - # 17
    frequency:   18.4166671062
  - # 18
    frequency:  111.0506406297

- q-position: [    0.0858586,    0.0000000,    0.0000000 ]
  distance:    0.0298654
  band:
  - # 1
    frequency:    0.2578472044
  - # 2
    frequency:    1.1628498585
  - # 3
    frequency:    1.3513608956
  - # 4
    frequency:    3.5785654831
  - # 5
    frequency:    3.8375524900
  - # 6
    frequency:    6.7117847470
  - # 7
    frequency:    7.5077583395
  - # 8
    frequency:    7.5609134221
  - # 9
    frequency:    8.4741975155
  - # 10
    frequency:    8.9169055913
  - # 11
    frequency:   12.3443591889
  - # 12
    frequency:   13.5277882851
  - # 13
    frequency:   13.7914069037
  - # 14
    frequency:   14.7624808954
  - # 15
    frequency:   15.0259425160
  - # 16
    frequency:   15.1155090766
  - # 17
    frequency:   18.4095980779
  - # 18
    frequency:  111.0208394332

- q-position: [    0.0909091,    0.0000000,    0.0000000 ]
  distance:    0.0316222
  band:
  - # 1
    frequency:    0.2838795087
  - # 2
    frequency:    1.2292922393
  - # 3
    frequency:    1.4162296507
  - # 4
    frequency:    3.5989976723
  - # 5
    frequency:    3.8821800077
  - # 6
    frequency:    6.6994525965
  - # 7
    frequency:    7.5000939775
  - # 8
    frequency:    7.5554866656
  - # 9
    frequency:    8.4437735430
  - # 10
    frequency:    8.9240216924
  - # 11
    frequency:   12.3221937641
  - # 12
    frequency:   13.5088837559
  - # 13
    frequency:   13.7933787406
  - # 14
    frequency:   14.7213233023
  - # 15
    frequency:   14.9932570916
  - # 16
    frequency:   15.0858103798
  - # 17
    frequency:   18.4017706161
  - # 18
    frequency:  110.9900959568

- q-position: [    0.0959596,    0.0000000,    0.0000000 ]
  distance:    0.0333790
  band:
  - # 1
    frequency:    0.3105431013
  - # 2
    frequency:    1.2954842212
  - # 3
    frequency:    1.4781776766
  - # 4
    frequency:    3.6204003519
  - # 5
    frequency:    3.9279439925
  - # 6
    frequency:    6.6864091760
  - # 7
    frequency:    7.4924425996
  - # 8
    frequency:    7.5491062129
  - # 9
    frequency:    8.4153188403
  - # 10
    frequency:    8.9312669822
  - # 11
    frequency:   12.2987936148
  - # 12
    frequency:   13.4899906445
  - # 13
    frequency:   13.7943461734
  - # 14
    frequency:   14.6776035822
  - # 15
    frequency:   14.9612345946
  - # 16
    frequency:   15.0565126602
  - # 17
    frequency:   18.3931545908
  - # 18
    frequency:  110.9585489706

- q-position: [    0.1010101,    0.0000000,    0.0000000 ]
  distance:    0.0351358
  band:
  - # 1
    frequency:    0.3377902039
  - # 2
    frequency:    1.3614275491
  - # 3
    frequency:    1.5370110935
  - # 4
    frequency:    3.6427465973
  - # 5
    frequency:    3.9747250711
  - # 6
    frequency:    6.6726170330
  - # 7
    frequency:    7.4848343381
  - # 8
    frequency:    7.5416508731
  - # 9
    frequency:    8.3894827406
  - # 10
    frequency:    8.9386383557
  - # 11
    frequency:   12.2741843213
  - # 12
    frequency:   13.4711580804
  - # 13
    frequency:   13.7941178198
  - # 14
    frequency:   14.6318660897
  - # 15
    frequency:   14.9297458922
  - # 16
    frequency:   15.0279572547
  - # 17
    frequency:   18.3837234947
  - # 18
    frequency:  110.9263414004

- q-position: [    0.1060606,    0.0000000,    0.0000000 ]
  distance:    0.0368926
  band:
  - # 1
    frequency:    0.3655909539
  - # 2
    frequency:    1.4271241068
  - # 3
    frequency:    1.5925617592
  - # 4
    frequency:    3.6660094506
  - # 5
    frequency:    4.0224140402
  - # 6
    frequency:    6.6580240741
  - # 7
    frequency:    7.4772929791
  - # 8
    frequency:    7.5330394347
  - # 9
    frequency:    8.3668991451
  - # 10
    frequency:    8.9461404880
  - # 11
    frequency:   12.2483969594
  - # 12
    frequency:   13.4524124412
  - # 13
    frequency:   13.7925029730
  - # 14
    frequency:   14.5847124194
  - # 15
    frequency:   14.8986310936
  - # 16
    frequency:   15.0004890810
  - # 17
    frequency:   18.3734546404
  - # 18
    frequency:  110.8936197507

- q-position: [    0.1111111,    0.0000000,    0.0000000 ]
  distance:    0.0386493
  band:
  - # 1
    frequency:    0.3939376074
  - # 2
    frequency:    1.4925755602
  - # 3
    frequency:    1.6446959822
  - # 4
    frequency:    3.6901620354
  - # 5
    frequency:    4.0709114601
  - # 6
    frequency:    6.6425627723
  - # 7
    frequency:    7.4698357286
  - # 8
    frequency:    7.5232565753
  - # 9
    frequency:    8.3481550765
  - # 10
    frequency:    8.9537862214
  - # 11
    frequency:   12.2214680506
  - # 12
    frequency:   13.4337573098
  - # 13
    frequency:   13.7893191756
  - # 14
    frequency:   14.5367642098
  - # 15
    frequency:   14.8677355100
  - # 16
    frequency:   14.9744483808
  - # 17
    frequency:   18.3623292877
  - # 18
    frequency:  110.8605335109

- q-position: [    0.1161616,    0.0000000,    0.0000000 ]
  distance:    0.0404061
  band:
  - # 1
    frequency:    0.4228499526
  - # 2
    frequency:    1.5577830102
  - # 3
    frequency:    1.6933236400
  - # 4
    frequency:    3.7151776436
  - # 5
    frequency:    4.1201270305
  - # 6
    frequency:    6.6261508919
  - # 7
    frequency:    7.4624731038
  - # 8
    frequency:    7.5123772942
  - # 9
    frequency:    8.3337583438
  - # 10
    frequency:    8.9615968641
  - # 11
    frequency:   12.1934393638
  - # 12
    frequency:   13.4151746867
  - # 13
    frequency:   13.7844015059
  - # 14
    frequency:   14.4886392864
  - # 15
    frequency:   14.8369312563
  - # 16
    frequency:   14.9501606964
  - # 17
    frequency:   18.3503327084
  - # 18
    frequency:  110.8272345456

- q-position: [    0.1212121,    0.0000000,    0.0000000 ]
  distance:    0.0421629
  band:
  - # 1
    frequency:    0.4523821088
  - # 2
    frequency:    1.6227466662
  - # 3
    frequency:    1.7384072689
  - # 4
    frequency:    3.7410297902
  - # 5
    frequency:    4.1699787852
  - # 6
    frequency:    6.6086943040
  - # 7
    frequency:    7.4552089570
  - # 8
    frequency:    7.5005836916
  - # 9
    frequency:    8.3241100637
  - # 10
    frequency:    8.9696023895
  - # 11
    frequency:   12.1643575992
  - # 12
    frequency:   13.3966277889
  - # 13
    frequency:   13.7776131256
  - # 14
    frequency:   14.4409380859
  - # 15
    frequency:   14.8061271837
  - # 16
    frequency:   14.9279255340
  - # 17
    frequency:   18.3374541949
  - # 18
    frequency:  110.7938764729

- q-position: [    0.1262626,    0.0000000,    0.0000000 ]
  distance:    0.0439197
  band:
  - # 1
    frequency:    0.4826307838
  - # 2
    frequency:    1.6874655439
  - # 3
    frequency:    1.7799705384
  - # 4
    frequency:    3.7676922339
  - # 5
    frequency:    4.2203921443
  - # 6
    frequency:    6.5900923512
  - # 7
    frequency:    7.4480406414
  - # 8
    frequency:    7.4881681882
  - # 9
    frequency:    8.3194877082
  - # 10
    frequency:    8.9778415258
  - # 11
    frequency:   12.1342739968
  - # 12
    frequency:   13.3780657763
  - # 13
    frequency:   13.7688562391
  - # 14
    frequency:   14.3942354955
  - # 15
    frequency:   14.7752716051
  - # 16
    frequency:   14.9080045625
  - # 17
    frequency:   18.3236870176
  - # 18
    frequency:  110.7606140324

- q-position: [    0.1313131,    0.0000000,    0.0000000 ]
  distance:    0.0456765
  band:
  - # 1
    frequency:    0.5137448698
  - # 2
    frequency:    1.7519371952
  - # 3
    frequency:    1.8181053829
  - # 4
    frequency:    3.7951389639
  - # 5
    frequency:    4.2712988649
  - # 6
    frequency:    6.5702459173
  - # 7
    frequency:    7.4409593293
  - # 8
    frequency:    7.4755199415
  - # 9
    frequency:    8.3200420518
  - # 10
    frequency:    8.9863617197
  - # 11
    frequency:   12.1032439217
  - # 12
    frequency:   13.3594307045
  - # 13
    frequency:   13.7580822637
  - # 14
    frequency:   14.3490739522
  - # 15
    frequency:   14.7443516029
  - # 16
    frequency:   14.8906105538
  - # 17
    frequency:   18.3090283395
  - # 18
    frequency:  110.7276024444

- q-position: [    0.1363636,    0.0000000,    0.0000000 ]
  distance:    0.0474333
  band:
  - # 1
    frequency:    0.5459359528
  - # 2
    frequency:    1.8161574730
  - # 3
    frequency:    1.8529769513
  - # 4
    frequency:    3.8233441531
  - # 5
    frequency:    4.3226359320
  - # 6
    frequency:    6.5490678664
  - # 7
    frequency:    7.4339504916
  - # 8
    frequency:    7.4630955298
  - # 9
    frequency:    8.3258076317
  - # 10
    frequency:    8.9952189576
  - # 11
    frequency:   12.0713264828
  - # 12
    frequency:   13.3406668413
  - # 13
    frequency:   13.7452998285
  - # 14
    frequency:   14.3059550937
  - # 15
    frequency:   14.7133914160
  - # 16
    frequency:   14.8758984474
  - # 17
    frequency:   18.2934790931
  - # 18
    frequency:  110.6949967653

- q-position: [    0.1414141,    0.0000000,    0.0000000 ]
  distance:    0.0491901
  band:
  - # 1
    frequency:    0.5794888789
  - # 2
    frequency:    1.8801203342
  - # 3
    frequency:    1.8848255051
  - # 4
    frequency:    3.8522820809
  - # 5
    frequency:    4.3743444271
  - # 6
    frequency:    6.5264948884
  - # 7
    frequency:    7.4269945480
  - # 8
    frequency:    7.4513791315
  - # 9
    frequency:    8.3367228339
  - # 10
    frequency:    9.0044774259
  - # 11
    frequency:   12.0385842374
  - # 12
    frequency:   13.3217321744
  - # 13
    frequency:   13.7305793358
  - # 14
    frequency:   14.2653286142
  - # 15
    frequency:   14.6824513557
  - # 16
    frequency:   14.8639598171
  - # 17
    frequency:   18.2770438273
  - # 18
    frequency:  110.6629512385

- q-position: [    0.1464646,    0.0000000,    0.0000000 ]
  distance:    0.0509469
  band:
  - # 1
    frequency:    0.6147709735
  - # 2
    frequency:    1.9139644599
  - # 3
    frequency:    1.9438176839
  - # 4
    frequency:    3.8819270276
  - # 5
    frequency:    4.4263684120
  - # 6
    frequency:    6.5024992049
  - # 7
    frequency:    7.4200676922
  - # 8
    frequency:    7.4408397422
  - # 9
    frequency:    8.3526540001
  - # 10
    frequency:    9.0142089951
  - # 11
    frequency:   12.0050830259
  - # 12
    frequency:   13.3026114687
  - # 13
    frequency:   13.7140532521
  - # 14
    frequency:   14.2275781021
  - # 15
    frequency:   14.6516280527
  - # 16
    frequency:   14.8548215767
  - # 17
    frequency:   18.2597305297
  - # 18
    frequency:  110.6316186469

- q-position: [    0.1515152,    0.0000000,    0.0000000 ]
  distance:    0.0527036
  band:
  - # 1
    frequency:    0.6522379438
  - # 2
    frequency:    1.9407739908
  - # 3
    frequency:    2.0072392613
  - # 4
    frequency:    3.9122531460
  - # 5
    frequency:    4.4786538511
  - # 6
    frequency:    6.4770982640
  - # 7
    frequency:    7.4131428933
  - # 8
    frequency:    7.4318928431
  - # 9
    frequency:    8.3734183744
  - # 10
    frequency:    9.0244925102
  - # 11
    frequency:   11.9708919630
  - # 12
    frequency:   13.2833296659
  - # 13
    frequency:   13.6959119752
  - # 14
    frequency:   14.1930045374
  - # 15
    frequency:   14.6210565206
  - # 16
    frequency:   14.8484490923
  - # 17
    frequency:   18.2415504308
  - # 18
    frequency:  110.6011496663

- q-position: [    0.1565657,    0.0000000,    0.0000000 ]
  distance:    0.0544604
  band:
  - # 1
    frequency:    0.6924340624
  - # 2
    frequency:    1.9656899922
  - # 3
    frequency:    2.0703725671
  - # 4
    frequency:    3.9432343142
  - # 5
    frequency:    4.5311475888
  - # 6
    frequency:    6.4503606939
  - # 7
    frequency:    7.4061910677
  - # 8
    frequency:    7.4248719176
  - # 9
    frequency:    8.3988025228
  - # 10
    frequency:    9.0354128806
  - # 11
    frequency:   11.9360835952
  - # 12
    frequency:   13.2639639121
  - # 13
    frequency:   13.6763958463
  - # 14
    frequency:   14.1618087882
  - # 15
    frequency:   14.5909143867
  - # 16
    frequency:   14.8447531428
  - # 17
    frequency:   18.2225177970
  - # 18
    frequency:  110.5716922256

- q-position: [    0.1616162,    0.0000000,    0.0000000 ]
  distance:    0.0562172
  band:
  - # 1
    frequency:    0.7359841891
  - # 2
    frequency:    1.9891887108
  - # 3
    frequency:    2.1332028328
  - # 4
    frequency:    3.9748439770
  - # 5
    frequency:    4.5837963814
  - # 6
    frequency:    6.4224074391
  - # 7
    frequency:    7.3991824074
  - # 8
    frequency:    7.4200123850
  - # 9
    frequency:    8.4285749466
  - # 10
    frequency:    9.0470599638
  - # 11
    frequency:   11.9007342052
  - # 12
    frequency:   13.2446522670
  - # 13
    frequency:   13.6557844410
  - # 14
    frequency:   14.1340747702
  - # 15
    frequency:   14.5614285694
  - # 16
    frequency:   14.8435996115
  - # 17
    frequency:   18.2026497159
  - # 18
    frequency:  110.5433908742

- q-position: [    0.1666667,    0.0000000,    0.0000000 ]
  distance:    0.0579740
  band:
  - # 1
    frequency:    0.7835757925
  - # 2
    frequency:    2.0117679686
  - # 3
    frequency:    2.1957130311
  - # 4
    frequency:    4.0070549800
  - # 5
    frequency:    4.6365459710
  - # 6
    frequency:    6.3934079893
  - # 7
    frequency:    7.3920878402
  - # 8
    frequency:    7.4174478325
  - # 9
    frequency:    8.4624932038
  - # 10
    frequency:    9.0595272491
  - # 11
    frequency:   11.8649242232
  - # 12
    frequency:   13.2255973862
  - # 13
    frequency:   13.6343845287
  - # 14
    frequency:   14.1097548762
  - # 15
    frequency:   14.5328845325
  - # 16
    frequency:   14.8448205339
  - # 17
    frequency:   18.1819658830
  - # 18
    frequency:  110.5163861602

- q-position: [    0.1717172,    0.0000000,    0.0000000 ]
  distance:    0.0597308
  band:
  - # 1
    frequency:    0.8359305235
  - # 2
    frequency:    2.0339264722
  - # 3
    frequency:    2.2578839247
  - # 4
    frequency:    4.0398394037
  - # 5
    frequency:    4.6893401710
  - # 6
    frequency:    6.3635726149
  - # 7
    frequency:    7.3848805887
  - # 8
    frequency:    7.4172164560
  - # 9
    frequency:    8.5003067114
  - # 10
    frequency:    9.0729103576
  - # 11
    frequency:   11.8287386802
  - # 12
    frequency:   13.2070642087
  - # 13
    frequency:   13.6125180334
  - # 14
    frequency:   14.0886589809
  - # 15
    frequency:   14.5056378169
  - # 16
    frequency:   14.8482251862
  - # 17
    frequency:   18.1604883913
  - # 18
    frequency:  110.4908140228

- q-position: [    0.1767677,    0.0000000,    0.0000000 ]
  distance:    0.0614876
  band:
  - # 1
    frequency:    0.8937669239
  - # 2
    frequency:    2.0561431181
  - # 3
    frequency:    2.3196941541
  - # 4
    frequency:    4.0731684029
  - # 5
    frequency:    4.7421199210
  - # 6
    frequency:    6.3331422109
  - # 7
    frequency:    7.3775377805
  - # 8
    frequency:    7.4192745772
  - # 9
    frequency:    8.5417566574
  - # 10
    frequency:    9.0873053861
  - # 11
    frequency:   11.7922676195
  - # 12
    frequency:   13.1893717492
  - # 13
    frequency:   13.5905110278
  - # 14