nqpoint: 300    
npath: 3      
segment_nqpoint:
- 100
- 100
- 100
labels:
- [ 'G', 'M' ]
- [ 'M', 'K' ]
- [ 'K', 'G' ]
reciprocal_lattice:
- [   0.27748363,   0.16020525,   0.00000000 ] # a*
- [   0.00000000,   0.32041049,   0.00000000 ] # b*
- [   0.00000000,   0.00000000,   0.03825999 ] # c*
natom: 6      
lattice:
- [     3.603816254166552,     0.000000000000000,     0.000000000000000 ] # a
- [    -1.801908127083276,     3.120996426685992,     0.000000000000000 ] # b
- [     0.000000000000000,     0.000000000000000,    26.136965061832367 ] # c
points:
- symbol: Br # 1
  coordinates: [  0.666666984744047,  0.333332985985144,  0.344339902460314 ]
  mass: 79.904000
- symbol: N # 2
  coordinates: [  0.000000000000000,  0.000000000000000,  0.468735611003643 ]
  mass: 14.006700
- symbol: O # 3
  coordinates: [  0.333332985432215,  0.666666983183674,  0.655660097539686 ]
  mass: 15.999400
- symbol: P # 4
  coordinates: [  0.333332985432215,  0.666666983183674,  0.598363965700402 ]
  mass: 30.973762
- symbol: Y # 5
  coordinates: [  0.333332985432215,  0.666666983183674,  0.420090971302446 ]
  mass: 88.905850
- symbol: Y # 6
  coordinates: [  0.666666984744047,  0.333332985985144,  0.519617752777090 ]
  mass: 88.905850

phonon:
- q-position: [    0.0000000,    0.0000000,    0.0000000 ]
  distance:    0.0000000
  band:
  - # 1
    frequency:   -0.6516112474
  - # 2
    frequency:   -0.6516112473
  - # 3
    frequency:   -0.0000094584
  - # 4
    frequency:   -0.0000001649
  - # 5
    frequency:    0.0000098384
  - # 6
    frequency:    2.6688576615
  - # 7
    frequency:    2.6688576615
  - # 8
    frequency:    3.8592790073
  - # 9
    frequency:    3.9006092560
  - # 10
    frequency:    3.9006092560
  - # 11
    frequency:    4.4897066869
  - # 12
    frequency:    4.4897066869
  - # 13
    frequency:    6.4318368736
  - # 14
    frequency:    7.7273605167
  - # 15
    frequency:   11.2784372456
  - # 16
    frequency:   11.2784372456
  - # 17
    frequency:   11.6132290107
  - # 18
    frequency:   33.8089440080

- q-position: [    0.0050505,    0.0000000,    0.0000000 ]
  distance:    0.0016182
  band:
  - # 1
    frequency:   -0.6618357388
  - # 2
    frequency:   -0.6593962983
  - # 3
    frequency:    0.0007195288
  - # 4
    frequency:    0.0729468870
  - # 5
    frequency:    0.0984035337
  - # 6
    frequency:    2.6692397703
  - # 7
    frequency:    2.6703526532
  - # 8
    frequency:    3.8490097188
  - # 9
    frequency:    3.9005453865
  - # 10
    frequency:    3.9109165877
  - # 11
    frequency:    4.4897884295
  - # 12
    frequency:    4.4899600451
  - # 13
    frequency:    6.4316174983
  - # 14
    frequency:    7.7268724639
  - # 15
    frequency:   11.2781416173
  - # 16
    frequency:   11.2784786618
  - # 17
    frequency:   11.6130683146
  - # 18
    frequency:   33.8087068780

- q-position: [    0.0101010,    0.0000000,    0.0000000 ]
  distance:    0.0032365
  band:
  - # 1
    frequency:   -0.6907376870
  - # 2
    frequency:   -0.6815477082
  - # 3
    frequency:    0.0032070326
  - # 4
    frequency:    0.1427229968
  - # 5
    frequency:    0.1937827419
  - # 6
    frequency:    2.6703852647
  - # 7
    frequency:    2.6748268551
  - # 8
    frequency:    3.8295382555
  - # 9
    frequency:    3.9003549157
  - # 10
    frequency:    3.9304990833
  - # 11
    frequency:    4.4900345532
  - # 12
    frequency:    4.4907252518
  - # 13
    frequency:    6.4309599326
  - # 14
    frequency:    7.7254089908
  - # 15
    frequency:   11.2772557041
  - # 16
    frequency:   11.2786025806
  - # 17
    frequency:   11.6125863481
  - # 18
    frequency:   33.8079959466

- q-position: [    0.0151515,    0.0000000,    0.0000000 ]
  distance:    0.0048547
  band:
  - # 1
    frequency:   -0.7345366172
  - # 2
    frequency:   -0.7153231836
  - # 3
    frequency:    0.0081595755
  - # 4
    frequency:    0.2076639376
  - # 5
    frequency:    0.2851452890
  - # 6
    frequency:    2.6722916454
  - # 7
    frequency:    2.6822481376
  - # 8
    frequency:    3.8080758243
  - # 9
    frequency:    3.9000412506
  - # 10
    frequency:    3.9521362713
  - # 11
    frequency:    4.4904477074
  - # 12
    frequency:    4.4920176228
  - # 13
    frequency:    6.4298658667
  - # 14
    frequency:    7.7229721555
  - # 15
    frequency:   11.2757824236
  - # 16
    frequency:   11.2788080154
  - # 17
    frequency:   11.6117834765
  - # 18
    frequency:   33.8068125892

- q-position: [    0.0202020,    0.0000000,    0.0000000 ]
  distance:    0.0064729
  band:
  - # 1
    frequency:   -0.7896549537
  - # 2
    frequency:   -0.7579026448
  - # 3
    frequency:    0.0161876748
  - # 4
    frequency:    0.2676910001
  - # 5
    frequency:    0.3731294942
  - # 6
    frequency:    2.6749547366
  - # 7
    frequency:    2.6925635931
  - # 8
    frequency:    3.7860741377
  - # 9
    frequency:    3.8996100467
  - # 10
    frequency:    3.9743610991
  - # 11
    frequency:    4.4910321852
  - # 12
    frequency:    4.4938624143
  - # 13
    frequency:    6.4283381463
  - # 14
    frequency:    7.7195653986
  - # 15
    frequency:   11.2737266433
  - # 16
    frequency:   11.2790933317
  - # 17
    frequency:   11.6106603040
  - # 18
    frequency:   33.8051590935

- q-position: [    0.0252525,    0.0000000,    0.0000000 ]
  distance:    0.0080912
  band:
  - # 1
    frequency:   -0.8534303498
  - # 2
    frequency:   -0.8071006168
  - # 3
    frequency:    0.0276323457
  - # 4
    frequency:    0.3235620488
  - # 5
    frequency:    0.4587929654
  - # 6
    frequency:    2.6783686731
  - # 7
    frequency:    2.7057005210
  - # 8
    frequency:    3.7639360620
  - # 9
    frequency:    3.8990691718
  - # 10
    frequency:    3.9967494603
  - # 11
    frequency:    4.4917937450
  - # 12
    frequency:    4.4962944003
  - # 13
    frequency:    6.4263808160
  - # 14
    frequency:    7.7151935575
  - # 15
    frequency:   11.2710951892
  - # 16
    frequency:   11.2794562617
  - # 17
    frequency:   11.6092176681
  - # 18
    frequency:   33.8030386533

- q-position: [    0.0303030,    0.0000000,    0.0000000 ]
  distance:    0.0097094
  band:
  - # 1
    frequency:   -0.9239533469
  - # 2
    frequency:   -0.8613919086
  - # 3
    frequency:    0.0425853541
  - # 4
    frequency:    0.3762419814
  - # 5
    frequency:    0.5429988340
  - # 6
    frequency:    2.6825258863
  - # 7
    frequency:    2.7215678290
  - # 8
    frequency:    3.7418217604
  - # 9
    frequency:    3.8984286513
  - # 10
    frequency:    4.0191143528
  - # 11
    frequency:    4.4927393731
  - # 12
    frequency:    4.4993572454
  - # 13
    frequency:    6.4239991765
  - # 14
    frequency:    7.7098628853
  - # 15
    frequency:   11.2678968563
  - # 16
    frequency:   11.2798939245
  - # 17
    frequency:   11.6074566310
  - # 18
    frequency:   33.8004553590

- q-position: [    0.0353535,    0.0000000,    0.0000000 ]
  distance:    0.0113276
  band:
  - # 1
    frequency:   -0.9998074199
  - # 2
    frequency:   -0.9197239904
  - # 3
    frequency:    0.0609691268
  - # 4
    frequency:    0.4266060843
  - # 5
    frequency:    0.6263068474
  - # 6
    frequency:    2.6874170920
  - # 7
    frequency:    2.7400578397
  - # 8
    frequency:    3.7198133802
  - # 9
    frequency:    3.8977005905
  - # 10
    frequency:    4.0413416705
  - # 11
    frequency:    4.4938769984
  - # 12
    frequency:    4.5031026340
  - # 13
    frequency:    6.4211998556
  - # 14
    frequency:    7.7035810738
  - # 15
    frequency:   11.2641424207
  - # 16
    frequency:   11.2804028511
  - # 17
    frequency:   11.6053784697
  - # 18
    frequency:   33.7974141865

- q-position: [    0.0404040,    0.0000000,    0.0000000 ]
  distance:    0.0129459
  band:
  - # 1
    frequency:   -1.0799000617
  - # 2
    frequency:   -0.9813449041
  - # 3
    frequency:    0.0826096075
  - # 4
    frequency:    0.4753525976
  - # 5
    frequency:    0.7090373082
  - # 6
    frequency:    2.6930312839
  - # 7
    frequency:    2.7610484518
  - # 8
    frequency:    3.6979617247
  - # 9
    frequency:    3.8968990715
  - # 10
    frequency:    4.0633442643
  - # 11
    frequency:    4.4952151713
  - # 12
    frequency:    4.5075891011
  - # 13
    frequency:    6.4179908898
  - # 14
    frequency:    7.6963572780
  - # 15
    frequency:   11.2598446535
  - # 16
    frequency:   11.2809790147
  - # 17
    frequency:   11.6029846638
  - # 18
    frequency:   33.7939209830

- q-position: [    0.0454545,    0.0000000,    0.0000000 ]
  distance:    0.0145641
  band:
  - # 1
    frequency:   -1.1633658231
  - # 2
    frequency:   -1.0456898692
  - # 3
    frequency:    0.1072860009
  - # 4
    frequency:    0.5230045090
  - # 5
    frequency:    0.7913541241
  - # 6
    frequency:    2.6993557371
  - # 7
    frequency:    2.7844055654
  - # 8
    frequency:    3.6763029325
  - # 9
    frequency:    3.8960400205
  - # 10
    frequency:    4.0850463354
  - # 11
    frequency:    4.4967627224
  - # 12
    frequency:    4.5128805014
  - # 13
    frequency:    6.4143818139
  - # 14
    frequency:    7.6882021414
  - # 15
    frequency:   11.2550183349
  - # 16
    frequency:   11.2816178651
  - # 17
    frequency:   11.6002768822
  - # 18
    frequency:   33.7899824497

- q-position: [    0.0505051,    0.0000000,    0.0000000 ]
  distance:    0.0161823
  band:
  - # 1
    frequency:   -1.2495073296
  - # 2
    frequency:   -1.1123138409
  - # 3
    frequency:    0.1347603021
  - # 4
    frequency:    0.5699395304
  - # 5
    frequency:    0.8733269676
  - # 6
    frequency:    2.7063760228
  - # 7
    frequency:    2.8099856485
  - # 8
    frequency:    3.6548655561
  - # 9
    frequency:    3.8951410439
  - # 10
    frequency:    4.1063778627
  - # 11
    frequency:    4.4985284149
  - # 12
    frequency:    4.5190440466
  - # 13
    frequency:    6.4103837551
  - # 14
    frequency:    7.6791278209
  - # 15
    frequency:   11.2496802674
  - # 16
    frequency:   11.2823143664
  - # 17
    frequency:   11.5972569687
  - # 18
    frequency:   33.7856061236

- q-position: [    0.0555556,    0.0000000,    0.0000000 ]
  distance:    0.0178006
  band:
  - # 1
    frequency:   -1.3377556826
  - # 2
    frequency:   -1.1808522087
  - # 3
    frequency:    0.1647933760
  - # 4
    frequency:    0.6164236859
  - # 5
    frequency:    0.9549709798
  - # 6
    frequency:    2.7140760372
  - # 7
    frequency:    2.8376383063
  - # 8
    frequency:    3.6336740193
  - # 9
    frequency:    3.8942212338
  - # 10
    frequency:    4.1272731675
  - # 11
    frequency:    4.5005206041
  - # 12
    frequency:    4.5261478558
  - # 13
    frequency:    6.4060095301
  - # 14
    frequency:    7.6691480080
  - # 15
    frequency:   11.2438492875
  - # 16
    frequency:   11.2830630388
  - # 17
    frequency:   11.5939269267
  - # 18
    frequency:   33.7808003555

- q-position: [    0.0606061,    0.0000000,    0.0000000 ]
  distance:    0.0194188
  band:
  - # 1
    frequency:   -1.4276418789
  - # 2
    frequency:   -1.2509973685
  - # 3
    frequency:    0.1971531620
  - # 4
    frequency:    0.6626403406
  - # 5
    frequency:    1.0362705060
  - # 6
    frequency:    2.7224380451
  - # 7
    frequency:    2.8672087118
  - # 8
    frequency:    3.6127505413
  - # 9
    frequency:    3.8933009416
  - # 10
    frequency:    4.1476715728
  - # 11
    frequency:    4.5027469190
  - # 12
    frequency:    4.5342580023
  - # 13
    frequency:    6.4012737403
  - # 14
    frequency:    7.6582779464
  - # 15
    frequency:   11.2375462740
  - # 16
    frequency:   11.2838580016
  - # 17
    frequency:   11.5902889040
  - # 18
    frequency:   33.7755742864

- q-position: [    0.0656566,    0.0000000,    0.0000000 ]
  distance:    0.0210371
  band:
  - # 1
    frequency:   -1.5187753982
  - # 2
    frequency:   -1.3224840730
  - # 3
    frequency:    0.2316185843
  - # 4
    frequency:    0.7087129499
  - # 5
    frequency:    1.1171928484
  - # 6
    frequency:    2.7314427386
  - # 7
    frequency:    2.8985397683
  - # 8
    frequency:    3.5921163634
  - # 9
    frequency:    3.8924015259
  - # 10
    frequency:    4.1675193007
  - # 11
    frequency:    4.5052139748
  - # 12
    frequency:    4.5434351148
  - # 13
    frequency:    6.3961928633
  - # 14
    frequency:    7.6465344431
  - # 15
    frequency:   11.2307941525
  - # 16
    frequency:   11.2846930199
  - # 17
    frequency:   11.5863451768
  - # 18
    frequency:   33.7699378214

- q-position: [    0.0707071,    0.0000000,    0.0000000 ]
  distance:    0.0226553
  band:
  - # 1
    frequency:   -1.6108279069
  - # 2
    frequency:   -1.3950797170
  - # 3
    frequency:    0.2679812077
  - # 4
    frequency:    0.7547220561
  - # 5
    frequency:    1.1976961068
  - # 6
    frequency:    2.7410693088
  - # 7
    frequency:    2.9314738895
  - # 8
    frequency:    3.5717926712
  - # 9
    frequency:    3.8915450784
  - # 10
    frequency:    4.1867720969
  - # 11
    frequency:    4.5079271264
  - # 12
    frequency:    4.5537306985
  - # 13
    frequency:    6.3907853374
  - # 14
    frequency:    7.6339358727
  - # 15
    frequency:   11.2236178940
  - # 16
    frequency:   11.2855615510
  - # 17
    frequency:   11.5820981345
  - # 18
    frequency:   33.7639016016

- q-position: [    0.0757576,    0.0000000,    0.0000000 ]
  distance:    0.0242735
  band:
  - # 1
    frequency:   -1.7035207689
  - # 2
    frequency:   -1.4685775217
  - # 3
    frequency:    0.3060457323
  - # 4
    frequency:    0.8007176586
  - # 5
    frequency:    1.2777335976
  - # 6
    frequency:    2.7512955284
  - # 7
    frequency:    2.9658542879
  - # 8
    frequency:    3.5518014391
  - # 9
    frequency:    3.8907541359
  - # 10
    frequency:    4.2053981350
  - # 11
    frequency:    4.5108902693
  - # 12
    frequency:    4.5651834647
  - # 13
    frequency:    6.3850716364
  - # 14
    frequency:    7.6205021723
  - # 15
    frequency:   11.2160445061
  - # 16
    frequency:   11.2864567922
  - # 17
    frequency:   11.5775502646
  - # 18
    frequency:   33.7574769737

- q-position: [    0.0808081,    0.0000000,    0.0000000 ]
  distance:    0.0258918
  band:
  - # 1
    frequency:   -1.7966154280
  - # 2
    frequency:   -1.5427915304
  - # 3
    frequency:    0.3456298897
  - # 4
    frequency:    0.8467280797
  - # 5
    frequency:    1.3572563142
  - # 6
    frequency:    2.7620978439
  - # 7
    frequency:    3.0015256397
  - # 8
    frequency:    3.5321664011
  - # 9
    frequency:    3.8900513858
  - # 10
    frequency:    4.2233807231
  - # 11
    frequency:    4.5141056904
  - # 12
    frequency:    4.5778160696
  - # 13
    frequency:    6.3790743321
  - # 14
    frequency:    7.6062548277
  - # 15
    frequency:   11.2081030165
  - # 16
    frequency:   11.2873717288
  - # 17
    frequency:   11.5727041389
  - # 18
    frequency:   33.7506759577

- q-position: [    0.0858586,    0.0000000,    0.0000000 ]
  distance:    0.0275100
  band:
  - # 1
    frequency:   -1.8899059629
  - # 2
    frequency:   -1.6175528196
  - # 3
    frequency:    0.3865640279
  - # 4
    frequency:    0.8927662622
  - # 5
    frequency:    1.4362142684
  - # 6
    frequency:    2.7734514718
  - # 7
    frequency:    3.0383339096
  - # 8
    frequency:    3.5129144171
  - # 9
    frequency:    3.8894593756
  - # 10
    frequency:    4.2407203251
  - # 11
    frequency:    4.5175739712
  - # 12
    frequency:    4.5916327053
  - # 13
    frequency:    6.3728181434
  - # 14
    frequency:    7.5912168478
  - # 15
    frequency:   11.1998244461
  - # 16
    frequency:   11.2882991811
  - # 17
    frequency:   11.5675624003
  - # 18
    frequency:   33.7435112129

- q-position: [    0.0909091,    0.0000000,    0.0000000 ]
  distance:    0.0291282
  band:
  - # 1
    frequency:   -1.9832132828
  - # 2
    frequency:   -1.6927065772
  - # 3
    frequency:    0.4286905336
  - # 4
    frequency:    0.9388342185
  - # 5
    frequency:    1.5145571938
  - # 6
    frequency:    2.7853304976
  - # 7
    frequency:    3.0761248904
  - # 8
    frequency:    3.4940777375
  - # 9
    frequency:    3.8890002343
  - # 10
    frequency:    4.2574354820
  - # 11
    frequency:    4.5212939409
  - # 12
    frequency:    4.6066179299
  - # 13
    frequency:    6.3663299686
  - # 14
    frequency:    7.5754127303
  - # 15
    frequency:   11.1912417707
  - # 16
    frequency:   11.2892318509
  - # 17
    frequency:   11.5621277508
  - # 18
    frequency:   33.7359960018

- q-position: [    0.0959596,    0.0000000,    0.0000000 ]
  distance:    0.0307465
  band:
  - # 1
    frequency:   -2.0763805645
  - # 2
    frequency:   -1.7681098308
  - # 3
    frequency:    0.4718631705
  - # 4
    frequency:    0.9849261670
  - # 5
    frequency:    1.5922348855
  - # 6
    frequency:    2.7977079731
  - # 7
    frequency:    3.1147404333
  - # 8
    frequency:    3.4756982464
  - # 9
    frequency:    3.8886954163
  - # 10
    frequency:    4.2735623985
  - # 11
    frequency:    4.5252626780
  - # 12
    frequency:    4.6227369524
  - # 13
    frequency:    6.3596389007
  - # 14
    frequency:    7.5588684144
  - # 15
    frequency:   11.1823898699
  - # 16
    frequency:   11.2901623659
  - # 17
    frequency:   11.5564029414
  - # 18
    frequency:   33.7281441521

- q-position: [    0.1010101,    0.0000000,    0.0000000 ]
  distance:    0.0323647
  band:
  - # 1
    frequency:   -2.1692696289
  - # 2
    frequency:   -1.8436296782
  - # 3
    frequency:    0.5159463801
  - # 4
    frequency:    1.0310307407
  - # 5
    frequency:    1.6691973305
  - # 6
    frequency:    2.8105560086
  - # 7
    frequency:    3.1540097734
  - # 8
    frequency:    3.4578363397
  - # 9
    frequency:    3.8885654743
  - # 10
    frequency:    4.2891532013
  - # 11
    frequency:    4.5294755535
  - # 12
    frequency:    4.6399373467
  - # 13
    frequency:    6.3527762247
  - # 14
    frequency:    7.5416112241
  - # 15
    frequency:   11.1733054622
  - # 16
    frequency:   11.2910833228
  - # 17
    frequency:   11.5503907633
  - # 18
    frequency:   33.7199700183

- q-position: [    0.1060606,    0.0000000,    0.0000000 ]
  distance:    0.0339829
  band:
  - # 1
    frequency:   -2.2617580297
  - # 2
    frequency:   -1.9191419118
  - # 3
    frequency:    0.5608145707
  - # 4
    frequency:    1.0771325441
  - # 5
    frequency:    1.7453947177
  - # 6
    frequency:    2.8238458590
  - # 7
    frequency:    3.1937286032
  - # 8
    frequency:    3.4405918425
  - # 9
    frequency:    3.8886298672
  - # 10
    frequency:    4.3042731276
  - # 11
    frequency:    4.5339263133
  - # 12
    frequency:    4.6581519210
  - # 13
    frequency:    6.3457753940
  - # 14
    frequency:    7.5236698014
  - # 15
    frequency:   11.1640270246
  - # 16
    frequency:   11.2919873277
  - # 17
    frequency:   11.5440940410
  - # 18
    frequency:   33.7114884402

- q-position: [    0.1111111,    0.0000000,    0.0000000 ]
  distance:    0.0356012
  band:
  - # 1
    frequency:   -2.3537366869
  - # 2
    frequency:   -1.9945299544
  - # 3
    frequency:    0.6063514143
  - # 4
    frequency:    1.1232132540
  - # 5
    frequency:    1.8207773724
  - # 6
    frequency:    2.8375479989
  - # 7
    frequency:    3.2336016709
  - # 8
    frequency:    3.4241612458
  - # 9
    frequency:    3.8889068102
  - # 10
    frequency:    4.3189970690
  - # 11
    frequency:    4.5386071913
  - # 12
    frequency:    4.6773023001
  - # 13
    frequency:    6.3386719883
  - # 14
    frequency:    7.5050740293
  - # 15
    frequency:   11.1545946947
  - # 16
    frequency:   11.2928670342
  - # 17
    frequency:   11.5375156274
  - # 18
    frequency:   33.7027147015

- q-position: [    0.1161616,    0.0000000,    0.0000000 ]
  distance:    0.0372194
  band:
  - # 1
    frequency:   -2.4451079354
  - # 2
    frequency:   -2.0696840395
  - # 3
    frequency:    0.6524491617
  - # 4
    frequency:    1.1692524011
  - # 5
    frequency:    1.8952956412
  - # 6
    frequency:    2.8516321885
  - # 7
    frequency:    3.2730502680
  - # 8
    frequency:    3.4090299524
  - # 9
    frequency:    3.8894131658
  - # 10
    frequency:    4.3334059506
  - # 11
    frequency:    4.5435090475
  - # 12
    frequency:    4.6973027243
  - # 13
    frequency:    6.3315036500
  - # 14
    frequency:    7.4858549477
  - # 15
    frequency:   11.1450501564
  - # 16
    frequency:   11.2937151780
  - # 17
    frequency:   11.5306584014
  - # 18
    frequency:   33.6936644867

- q-position: [    0.1212121,    0.0000000,    0.0000000 ]
  distance:    0.0388376
  band:
  - # 1
    frequency:   -2.5357838951
  - # 2
    frequency:   -2.1445005818
  - # 3
    frequency:    0.6990079850
  - # 4
    frequency:    1.2152279279
  - # 5
    frequency:    1.9688997317
  - # 6
    frequency:    2.8660675260
  - # 7
    frequency:    3.3103548172
  - # 8
    frequency:    3.3968293714
  - # 9
    frequency:    3.8901643800
  - # 10
    frequency:    4.3475833646
  - # 11
    frequency:    4.5486215261
  - # 12
    frequency:    4.7180636296
  - # 13
    frequency:    6.3243099998
  - # 14
    frequency:    7.4660446614
  - # 15
    frequency:   11.1354365059
  - # 16
    frequency:   11.2945246100
  - # 17
    frequency:   11.5235252674
  - # 18
    frequency:   33.6843538370

- q-position: [    0.1262626,    0.0000000,    0.0000000 ]
  distance:    0.0404559
  band:
  - # 1
    frequency:   -2.6256850892
  - # 2
    frequency:   -2.2188816954
  - # 3
    frequency:    0.7459353508
  - # 4
    frequency:    1.2611165929
  - # 5
    frequency:    2.0415395043
  - # 6
    frequency:    2.8808224887
  - # 7
    frequency:    3.3381227321
  - # 8
    frequency:    3.3948687427
  - # 9
    frequency:    3.8911744599
  - # 10
    frequency:    4.3616127401
  - # 11
    frequency:    4.5539332263
  - # 12
    frequency:    4.7394947099
  - # 13
    frequency:    6.3171325317
  - # 14
    frequency:    7.4456762432
  - # 15
    frequency:   11.1257980987
  - # 16
    frequency:   11.2952883246
  - # 17
    frequency:   11.5161191573
  - # 18
    frequency:   33.6747991054

- q-position: [    0.1313131,    0.0000000,    0.0000000 ]
  distance:    0.0420741
  band:
  - # 1
    frequency:   -2.7147392594
  - # 2
    frequency:   -2.2927348234
  - # 3
    frequency:    0.7931454288
  - # 4
    frequency:    1.3068942665
  - # 5
    frequency:    2.1131642007
  - # 6
    frequency:    2.8958649618
  - # 7
    frequency:    3.3422741859
  - # 8
    frequency:    3.4171491058
  - # 9
    frequency:    3.8924559912
  - # 10
    frequency:    4.3755751834
  - # 11
    frequency:    4.5594318821
  - # 12
    frequency:    4.7615073105
  - # 13
    frequency:    6.3100144857
  - # 14
    frequency:    7.4247836331
  - # 15
    frequency:   11.1161803771
  - # 16
    frequency:   11.2959994867
  - # 17
    frequency:   11.5084430358
  - # 18
    frequency:   33.6650169115

- q-position: [    0.1363636,    0.0000000,    0.0000000 ]
  distance:    0.0436923
  band:
  - # 1
    frequency:   -2.8028803352
  - # 2
    frequency:   -2.3659724509
  - # 3
    frequency:    0.8405585357
  - # 4
    frequency:    1.3525361519
  - # 5
    frequency:    2.1837220818
  - # 6
    frequency:    2.9111622563
  - # 7
    frequency:    3.3330531918
  - # 8
    frequency:    3.4533520710
  - # 9
    frequency:    3.8940201902
  - # 10
    frequency:    4.3895479871
  - # 11
    frequency:    4.5651045450
  - # 12
    frequency:    4.7840161390
  - # 13
    frequency:    6.3030006991
  - # 14
    frequency:    7.4034015358
  - # 15
    frequency:   11.1066296762
  - # 16
    frequency:   11.2966514538
  - # 17
    frequency:   11.5004999081
  - # 18
    frequency:   33.6550240951

- q-position: [    0.1414141,    0.0000000,    0.0000000 ]
  distance:    0.0453106
  band:
  - # 1
    frequency:   -2.8900475304
  - # 2
    frequency:   -2.4385118779
  - # 3
    frequency:    0.8881006139
  - # 4
    frequency:    1.3980169559
  - # 5
    frequency:    2.2531599324
  - # 6
    frequency:    2.9266811175
  - # 7
    frequency:    3.3209086902
  - # 8
    frequency:    3.4929587685
  - # 9
    frequency:    3.8958769864
  - # 10
    frequency:    4.4036037184
  - # 11
    frequency:    4.5709377670
  - # 12
    frequency:    4.8069403621
  - # 13
    frequency:    6.2961374356
  - # 14
    frequency:    7.3815653170
  - # 15
    frequency:   11.0971930119
  - # 16
    frequency:   11.2972377974
  - # 17
    frequency:   11.4922928309
  - # 18
    frequency:   33.6448376701

- q-position: [    0.1464646,    0.0000000,    0.0000000 ]
  distance:    0.0469288
  band:
  - # 1
    frequency:   -2.9761845428
  - # 2
    frequency:   -2.5102750362
  - # 3
    frequency:    0.9357027455
  - # 4
    frequency:    1.4433110238
  - # 5
    frequency:    2.3214223665
  - # 6
    frequency:    2.9423877253
  - # 7
    frequency:    3.3082560257
  - # 8
    frequency:    3.5334886870
  - # 9
    frequency:    3.8980351284
  - # 10
    frequency:    4.4178097534
  - # 11
    frequency:    4.5769177796
  - # 12
    frequency:    4.8302042095
  - # 13
    frequency:    6.2894721897
  - # 14
    frequency:    7.3593109024
  - # 15
    frequency:   11.0879178469
  - # 16
    frequency:   11.2977523195
  - # 17
    frequency:   11.4838249265
  - # 18
    frequency:   33.6344747780

- q-position: [    0.1515152,    0.0000000,    0.0000000 ]
  distance:    0.0485470
  band:
  - # 1
    frequency:   -3.0612388425
  - # 2
    frequency:   -2.5811883355
  - # 3
    frequency:    0.9833006978
  - # 4
    frequency:    1.4883924506
  - # 5
    frequency:    2.3884508286
  - # 6
    frequency:    2.9582476908
  - # 7
    frequency:    3.2957541935
  - # 8
    frequency:    3.5742231500
  - # 9
    frequency:    3.9005023062
  - # 10
    frequency:    4.4322281061
  - # 11
    frequency:    4.5830306672
  - # 12
    frequency:    4.8537372118
  - # 13
    frequency:    6.2830534678
  - # 14
    frequency:    7.3366746794
  - # 15
    frequency:   11.0788518393
  - # 16
    frequency:   11.2981890679
  - # 17
    frequency:   11.4750994012
  - # 18
    frequency:   33.6239526416

- q-position: [    0.1565657,    0.0000000,    0.0000000 ]
  distance:    0.0501653
  band:
  - # 1
    frequency:   -3.1451610382
  - # 2
    frequency:   -2.6511825295
  - # 3
    frequency:    1.0308345004
  - # 4
    frequency:    1.5332351774
  - # 5
    frequency:    2.4541821261
  - # 6
    frequency:    2.9742260493
  - # 7
    frequency:    3.2836607930
  - # 8
    frequency:    3.6148516832
  - # 9
    frequency:    3.9032852843
  - # 10
    frequency:    4.4469154172
  - # 11
    frequency:    4.5892625321
  - # 12
    frequency:    4.8774741939
  - # 13
    frequency:    6.2769305416
  - # 14
    frequency:    7.3136934043
  - # 15
    frequency:   11.0700425719
  - # 16
    frequency:   11.2985423486
  - # 17
    frequency:   11.4661195669
  - # 18
    frequency:   33.6132885187

- q-position: [    0.1616162,    0.0000000,    0.0000000 ]
  distance:    0.0517835
  band:
  - # 1
    frequency:   -3.2279043113
  - # 2
    frequency:   -2.7201925943
  - # 3
    frequency:    1.0782480499
  - # 4
    frequency:    1.5778130759
  - # 5
    frequency:    2.5185462225
  - # 6
    frequency:    2.9902872554
  - # 7
    frequency:    3.2721132495
  - # 8
    frequency:    3.6551930069
  - # 9
    frequency:    3.9063900386
  - # 10
    frequency:    4.4619229815
  - # 11
    frequency:    4.5955996486
  - # 12
    frequency:    4.9013551229
  - # 13
    frequency:    6.2711531743
  - # 14
    frequency:    7.2904041158
  - # 15
    frequency:   11.0615372646
  - # 16
    frequency:   11.2988067363
  - # 17
    frequency:   11.4568888677
  - # 18
    frequency:   33.6024996565

- q-position: [    0.1666667,    0.0000000,    0.0000000 ]
  distance:    0.0534017
  band:
  - # 1
    frequency:   -3.3094239143
  - # 2
    frequency:   -2.7881576150
  - # 3
    frequency:    1.1254887396
  - # 4
    frequency:    1.6221000270
  - # 5
    frequency:    2.5814628391
  - # 6
    frequency:    3.0063951830
  - # 7
    frequency:    3.2612097763
  - # 8
    frequency:    3.6951176538
  - # 9
    frequency:    3.9098218885
  - # 10
    frequency:    4.4772967227
  - # 11
    frequency:    4.6020286080
  - # 12
    frequency:    4.9253248894
  - # 13
    frequency:    6.2657713145
  - # 14
    frequency:    7.2668440574
  - # 15
    frequency:   11.0533824720
  - # 16
    frequency:   11.2989770829
  - # 17
    frequency:   11.4474109113
  - # 18
    frequency:   33.5916032459

- q-position: [    0.1717172,    0.0000000,    0.0000000 ]
  distance:    0.0550200
  band:
  - # 1
    frequency:   -3.3896767291
  - # 2
    frequency:   -2.8550206764
  - # 3
    frequency:    1.1725071135
  - # 4
    frequency:    1.6660699949
  - # 5
    frequency:    2.6428360856
  - # 6
    frequency:    3.0225131337
  - # 7
    frequency:    3.2510417692
  - # 8
    frequency:    3.7345213218
  - # 9
    frequency:    3.9135856206
  - # 10
    frequency:    4.4930770441
  - # 11
    frequency:    4.6085364494
  - # 12
    frequency:    4.9493330742
  - # 13
    frequency:    6.2608347581
  - # 14
    frequency:    7.2430506091
  - # 15
    frequency:   11.0456237668
  - # 16
    frequency:   11.2990485243
  - # 17
    frequency:   11.4376895057
  - # 18
    frequency:   33.5806163777

- q-position: [    0.1767677,    0.0000000,    0.0000000 ]
  distance:    0.0566382
  band:
  - # 1
    frequency:   -3.4686208824
  - # 2
    frequency:   -2.9207287571
  - # 3
    frequency:    1.2192565395
  - # 4
    frequency:    1.7096970983
  - # 5
    frequency:    2.7025457347
  - # 6
    frequency:    3.0386038581
  - # 7
    frequency:    3.2417136227
  - # 8
    frequency:    3.7733143686
  - # 9
    frequency:    3.9176855961
  - # 10
    frequency:    4.5092985123
  - # 11
    frequency:    4.6151107795
  - # 12
    frequency:    4.9733337414
  - # 13
    frequency:    6.2563927730
  - # 14