nqpoint: 300    
npath: 3      
segment_nqpoint:
- 100
- 100
- 100
labels:
- [ 'G', 'M' ]
- [ 'M', 'K' ]
- [ 'K', 'G' ]
reciprocal_lattice:
- [   0.30175139,   0.17421625,   0.00000000 ] # a*
- [   0.00000000,   0.34843249,   0.00000000 ] # b*
- [   0.00000000,   0.00000000,   0.03602912 ] # c*
natom: 7      
lattice:
- [     3.313986400406597,     0.000000000000000,     0.000000000000000 ] # a
- [    -1.656993200203298,     2.869996410543391,     0.000000000000000 ] # b
- [     0.000000000000000,     0.000000000000000,    27.755329076370121 ] # c
points:
- symbol: C # 1
  coordinates: [  0.000000000000000,  0.000000000000000,  0.540662408920296 ]
  mass: 12.010700
- symbol: Cl # 2
  coordinates: [  0.666666984744047,  0.333332985985145,  0.324262053432552 ]
  mass: 35.453000
- symbol: N # 3
  coordinates: [  0.333332985432215,  0.666666983183674,  0.629857164549645 ]
  mass: 14.006700
- symbol: O # 4
  coordinates: [  0.333332985432215,  0.666666983183674,  0.675737946567448 ]
  mass: 15.999400
- symbol: O # 5
  coordinates: [  0.666666984744047,  0.333332985985145,  0.455401338147419 ]
  mass: 15.999400
- symbol: Sc # 6
  coordinates: [  0.333332985432215,  0.666666983183674,  0.478767684677434 ]
  mass: 44.955912
- symbol: Sc # 7
  coordinates: [  0.666666984744047,  0.333332985985145,  0.581089423891814 ]
  mass: 44.955912

phonon:
- q-position: [    0.0000000,    0.0000000,    0.0000000 ]
  distance:    0.0000000
  band:
  - # 1
    frequency:   -1.4369634968
  - # 2
    frequency:   -1.4369634968
  - # 3
    frequency:   -0.3567729822
  - # 4
    frequency:   -0.0000139887
  - # 5
    frequency:    0.0000001467
  - # 6
    frequency:    0.0000151780
  - # 7
    frequency:    0.6364660133
  - # 8
    frequency:    0.6364660134
  - # 9
    frequency:    0.9390998256
  - # 10
    frequency:    3.3627573245
  - # 11
    frequency:    3.3627573246
  - # 12
    frequency:    5.2598620291
  - # 13
    frequency:    6.4163975254
  - # 14
    frequency:    6.4163975254
  - # 15
    frequency:   12.3033849558
  - # 16
    frequency:   12.3033849558
  - # 17
    frequency:   12.5102510209
  - # 18
    frequency:   14.3827230602
  - # 19
    frequency:   14.3827230602
  - # 20
    frequency:   14.8302795267
  - # 21
    frequency:   46.7653945120

- q-position: [    0.0050505,    0.0000000,    0.0000000 ]
  distance:    0.0017598
  band:
  - # 1
    frequency:   -1.4433803103
  - # 2
    frequency:   -1.4384387326
  - # 3
    frequency:   -0.5604439754
  - # 4
    frequency:   -0.0769898461
  - # 5
    frequency:   -0.0049665282
  - # 6
    frequency:    0.3767520429
  - # 7
    frequency:    0.6456629756
  - # 8
    frequency:    0.6642761727
  - # 9
    frequency:    0.9538245068
  - # 10
    frequency:    3.3637248180
  - # 11
    frequency:    3.3672999811
  - # 12
    frequency:    5.2591036272
  - # 13
    frequency:    6.4160611782
  - # 14
    frequency:    6.4187185783
  - # 15
    frequency:   12.3031421186
  - # 16
    frequency:   12.3037796603
  - # 17
    frequency:   12.5078802467
  - # 18
    frequency:   14.3805158035
  - # 19
    frequency:   14.3825817253
  - # 20
    frequency:   14.8347719160
  - # 21
    frequency:   46.7646248865

- q-position: [    0.0101010,    0.0000000,    0.0000000 ]
  distance:    0.0035195
  band:
  - # 1
    frequency:   -1.4620723956
  - # 2
    frequency:   -1.4428817052
  - # 3
    frequency:   -0.7494255827
  - # 4
    frequency:   -0.1475191684
  - # 5
    frequency:   -0.0193508478
  - # 6
    frequency:    0.4929246778
  - # 7
    frequency:    0.6711159494
  - # 8
    frequency:    0.7342672353
  - # 9
    frequency:    1.0076945722
  - # 10
    frequency:    3.3666238047
  - # 11
    frequency:    3.3808245175
  - # 12
    frequency:    5.2568584365
  - # 13
    frequency:    6.4150522917
  - # 14
    frequency:    6.4256452038
  - # 15
    frequency:   12.3024159018
  - # 16
    frequency:   12.3049482848
  - # 17
    frequency:   12.5008213637
  - # 18
    frequency:   14.3741663897
  - # 19
    frequency:   14.3821576738
  - # 20
    frequency:   14.8479424201
  - # 21
    frequency:   46.7623169473

- q-position: [    0.0151515,    0.0000000,    0.0000000 ]
  distance:    0.0052793
  band:
  - # 1
    frequency:   -1.4915173834
  - # 2
    frequency:   -1.4503425816
  - # 3
    frequency:   -0.9010827567
  - # 4
    frequency:   -0.2080718007
  - # 5
    frequency:   -0.0416751544
  - # 6
    frequency:    0.5390156924
  - # 7
    frequency:    0.7083008459
  - # 8
    frequency:    0.7890062349
  - # 9
    frequency:    1.1082990698
  - # 10
    frequency:    3.3714438242
  - # 11
    frequency:    3.4030294754
  - # 12
    frequency:    5.2532144021
  - # 13
    frequency:    6.4133713621
  - # 14
    frequency:    6.4370703202
  - # 15
    frequency:   12.3012131702
  - # 16
    frequency:   12.3068370730
  - # 17
    frequency:   12.4892402183
  - # 18
    frequency:   14.3643821567
  - # 19
    frequency:   14.3814507662
  - # 20
    frequency:   14.8689825343
  - # 21
    frequency:   46.7584735042

- q-position: [    0.0202020,    0.0000000,    0.0000000 ]
  distance:    0.0070390
  band:
  - # 1
    frequency:   -1.5296188201
  - # 2
    frequency:   -1.4608991982
  - # 3
    frequency:   -1.0302442590
  - # 4
    frequency:   -0.2578300116
  - # 5
    frequency:   -0.0696957234
  - # 6
    frequency:    0.5716008651
  - # 7
    frequency:    0.7530868778
  - # 8
    frequency:    0.8181797261
  - # 9
    frequency:    1.2339378991
  - # 10
    frequency:    3.3781675114
  - # 11
    frequency:    3.4334400074
  - # 12
    frequency:    5.2483115419
  - # 13
    frequency:    6.4110193202
  - # 14
    frequency:    6.4528234015
  - # 15
    frequency:   12.2995453018
  - # 16
    frequency:   12.3093263141
  - # 17
    frequency:   12.4734376704
  - # 18
    frequency:   14.3520619873
  - # 19
    frequency:   14.3804607698
  - # 20
    frequency:   14.8968304105
  - # 21
    frequency:   46.7530992343

- q-position: [    0.0252525,    0.0000000,    0.0000000 ]
  distance:    0.0087988
  band:
  - # 1
    frequency:   -1.5741754100
  - # 2
    frequency:   -1.4746474619
  - # 3
    frequency:   -1.1449161857
  - # 4
    frequency:   -0.2971023943
  - # 5
    frequency:   -0.1006953218
  - # 6
    frequency:    0.6039515215
  - # 7
    frequency:    0.8026663224
  - # 8
    frequency:    0.8369189532
  - # 9
    frequency:    1.3648714047
  - # 10
    frequency:    3.3867706984
  - # 11
    frequency:    3.4714433187
  - # 12
    frequency:    5.2423335236
  - # 13
    frequency:    6.4079976861
  - # 14
    frequency:    6.4726809642
  - # 15
    frequency:   12.2974280931
  - # 16
    frequency:   12.3121571939
  - # 17
    frequency:   12.4539149101
  - # 18
    frequency:   14.3380742663
  - # 19
    frequency:   14.3791873599
  - # 20
    frequency:   14.9304006984
  - # 21
    frequency:   46.7462006727

- q-position: [    0.0303030,    0.0000000,    0.0000000 ]
  distance:    0.0105586
  band:
  - # 1
    frequency:   -1.6232798311
  - # 2
    frequency:   -1.4916869070
  - # 3
    frequency:   -1.2497746082
  - # 4
    frequency:   -0.3263064419
  - # 5
    frequency:   -0.1318087589
  - # 6
    frequency:    0.6390852094
  - # 7
    frequency:    0.8530983383
  - # 8
    frequency:    0.8553148317
  - # 9
    frequency:    1.4941898357
  - # 10
    frequency:    3.3972225552
  - # 11
    frequency:    3.5163285132
  - # 12
    frequency:    5.2354982526
  - # 13
    frequency:    6.4043087826
  - # 14
    frequency:    6.4963788377
  - # 15
    frequency:   12.2948816269
  - # 16
    frequency:   12.3147326229
  - # 17
    frequency:   12.4315628717
  - # 18
    frequency:   14.3231354364
  - # 19
    frequency:   14.3776301205
  - # 20
    frequency:   14.9687156960
  - # 21
    frequency:   46.7377862003

- q-position: [    0.0353535,    0.0000000,    0.0000000 ]
  distance:    0.0123183
  band:
  - # 1
    frequency:   -1.6755773174
  - # 2
    frequency:   -1.5121020522
  - # 3
    frequency:   -1.3475456501
  - # 4
    frequency:   -0.3455759953
  - # 5
    frequency:   -0.1602882627
  - # 6
    frequency:    0.6773465031
  - # 7
    frequency:    0.8700824218
  - # 8
    frequency:    0.9099808864
  - # 9
    frequency:    1.6201282249
  - # 10
    frequency:    3.4094857687
  - # 11
    frequency:    3.5673248689
  - # 12
    frequency:    5.2280490251
  - # 13
    frequency:    6.3999560044
  - # 14
    frequency:    6.5236246443
  - # 15
    frequency:   12.2919301040
  - # 16
    frequency:   12.3155398348
  - # 17
    frequency:   12.4082288843
  - # 18
    frequency:   14.3077783865
  - # 19
    frequency:   14.3757885458
  - # 20
    frequency:   15.0109476423
  - # 21
    frequency:   46.7278660269

- q-position: [    0.0404040,    0.0000000,    0.0000000 ]
  distance:    0.0140781
  band:
  - # 1
    frequency:   -1.7303978207
  - # 2
    frequency:   -1.5359418189
  - # 3
    frequency:   -1.4395966154
  - # 4
    frequency:   -0.3546358811
  - # 5
    frequency:   -0.1836289363
  - # 6
    frequency:    0.7179995518
  - # 7
    frequency:    0.8897552921
  - # 8
    frequency:    0.9659991161
  - # 9
    frequency:    1.7424293036
  - # 10
    frequency:    3.4235167547
  - # 11
    frequency:    3.6236342694
  - # 12
    frequency:    5.2202474646
  - # 13
    frequency:    6.3949441408
  - # 14
    frequency:    6.5541092536
  - # 15
    frequency:   12.2886016395
  - # 16
    frequency:   12.3107500277
  - # 17
    frequency:   12.3881061821
  - # 18
    frequency:   14.2923696526
  - # 19
    frequency:   14.3736620437
  - # 20
    frequency:   15.0564122715
  - # 21
    frequency:   46.7164521722

- q-position: [    0.0454545,    0.0000000,    0.0000000 ]
  distance:    0.0158378
  band:
  - # 1
    frequency:   -1.7878045301
  - # 2
    frequency:   -1.5632006568
  - # 3
    frequency:   -1.5262238387
  - # 4
    frequency:   -0.3527102559
  - # 5
    frequency:   -0.1995208822
  - # 6
    frequency:    0.7595755782
  - # 7
    frequency:    0.9137515636
  - # 8
    frequency:    1.0229254007
  - # 9
    frequency:    1.8612513234
  - # 10
    frequency:    3.4392659030
  - # 11
    frequency:    3.6844556127
  - # 12
    frequency:    5.2123689869
  - # 13
    frequency:    6.3892797450
  - # 14
    frequency:    6.5875164606
  - # 15
    frequency:   12.2849280243
  - # 16
    frequency:   12.2943798062
  - # 17
    frequency:   12.3775622582
  - # 18
    frequency:   14.2771433613
  - # 19
    frequency:   14.3712499394
  - # 20
    frequency:   15.1045449517
  - # 21
    frequency:   46.7035584428

- q-position: [    0.0505051,    0.0000000,    0.0000000 ]
  distance:    0.0175976
  band:
  - # 1
    frequency:   -1.8485470633
  - # 2
    frequency:   -1.6068592685
  - # 3
    frequency:   -1.5938053406
  - # 4
    frequency:   -0.3383052500
  - # 5
    frequency:   -0.2056051944
  - # 6
    frequency:    0.8000098927
  - # 7
    frequency:    0.9439126008
  - # 8
    frequency:    1.0804470546
  - # 9
    frequency:    1.9768415578
  - # 10
    frequency:    3.4566778511
  - # 11
    frequency:    3.7490008270
  - # 12
    frequency:    5.2047010904
  - # 13
    frequency:    6.3829715477
  - # 14
    frequency:    6.6235305951
  - # 15
    frequency:   12.2658413714
  - # 16
    frequency:   12.2809444550
  - # 17
    frequency:   12.3775796380
  - # 18
    frequency:   14.2622355736
  - # 19
    frequency:   14.3685514814
  - # 20
    frequency:   15.1548752238
  - # 21
    frequency:   46.6892004058

- q-position: [    0.0555556,    0.0000000,    0.0000000 ]
  distance:    0.0193574
  band:
  - # 1
    frequency:   -1.9137901409
  - # 2
    frequency:   -1.6804190870
  - # 3
    frequency:   -1.6276102658
  - # 4
    frequency:   -0.3086002468
  - # 5
    frequency:   -0.1989004782
  - # 6
    frequency:    0.8372043181
  - # 7
    frequency:    0.9819684461
  - # 8
    frequency:    1.1383340284
  - # 9
    frequency:    2.0894356217
  - # 10
    frequency:    3.4756917823
  - # 11
    frequency:    3.8165033109
  - # 12
    frequency:    5.1975444270
  - # 13
    frequency:    6.3760309053
  - # 14
    frequency:    6.6618421188
  - # 15
    frequency:   12.2298070588
  - # 16
    frequency:   12.2766892322
  - # 17
    frequency:   12.3838837655
  - # 18
    frequency:   14.2477130704
  - # 19
    frequency:   14.3655658497
  - # 20
    frequency:   15.2070053971
  - # 21
    frequency:   46.6733953597

- q-position: [    0.0606061,    0.0000000,    0.0000000 ]
  distance:    0.0211171
  band:
  - # 1
    frequency:   -1.9844990161
  - # 2
    frequency:   -1.7459575561
  - # 3
    frequency:   -1.6644018575
  - # 4
    frequency:   -0.2574879788
  - # 5
    frequency:   -0.1742219174
  - # 6
    frequency:    0.8701594535
  - # 7
    frequency:    1.0285070725
  - # 8
    frequency:    1.1964117541
  - # 9
    frequency:    2.1992274844
  - # 10
    frequency:    3.4962417462
  - # 11
    frequency:    3.8862201908
  - # 12
    frequency:    5.1912163906
  - # 13
    frequency:    6.3684722786
  - # 14
    frequency:    6.7021514683
  - # 15
    frequency:   12.1894860760
  - # 16
    frequency:   12.2722034314
  - # 17
    frequency:   12.3936602368
  - # 18
    frequency:   14.2335955364
  - # 19
    frequency:   14.3622921659
  - # 20
    frequency:   15.2605941546
  - # 21
    frequency:   46.6561623018

- q-position: [    0.0656566,    0.0000000,    0.0000000 ]
  distance:    0.0228769
  band:
  - # 1
    frequency:   -2.0607827493
  - # 2
    frequency:   -1.8033460240
  - # 3
    frequency:   -1.7039103992
  - # 4
    frequency:   -0.1655199493
  - # 5
    frequency:   -0.1166370892
  - # 6
    frequency:    0.8994297705
  - # 7
    frequency:    1.0825580788
  - # 8
    frequency:    1.2545453950
  - # 9
    frequency:    2.3063624002
  - # 10
    frequency:    3.5182569957
  - # 11
    frequency:    3.9574299421
  - # 12
    frequency:    5.1860568163
  - # 13
    frequency:    6.3603137317
  - # 14
    frequency:    6.7441714877
  - # 15
    frequency:   12.1464097186
  - # 16
    frequency:   12.2675305479
  - # 17
    frequency:   12.4057650301
  - # 18
    frequency:   14.2198719120
  - # 19
    frequency:   14.3587295069
  - # 20
    frequency:   15.3153444615
  - # 21
    frequency:   46.6375218934

- q-position: [    0.0707071,    0.0000000,    0.0000000 ]
  distance:    0.0246366
  band:
  - # 1
    frequency:   -2.1418178544
  - # 2
    frequency:   -1.8533640993
  - # 3
    frequency:   -1.7458261361
  - # 4
    frequency:    0.1070513114
  - # 5
    frequency:    0.1467779447
  - # 6
    frequency:    0.9262768117
  - # 7
    frequency:    1.1424513486
  - # 8
    frequency:    1.3126301982
  - # 9
    frequency:    2.4109370306
  - # 10
    frequency:    3.5416623384
  - # 11
    frequency:    4.0294268926
  - # 12
    frequency:    5.1824352263
  - # 13
    frequency:    6.3515774437
  - # 14
    frequency:    6.7876287936
  - # 15
    frequency:   12.1014124315
  - # 16
    frequency:   12.2627161190
  - # 17
    frequency:   12.4197401912
  - # 18
    frequency:   14.2065121215
  - # 19
    frequency:   14.3548769212
  - # 20
    frequency:   15.3709947363
  - # 21
    frequency:   46.6174964218

- q-position: [    0.0757576,    0.0000000,    0.0000000 ]
  distance:    0.0263964
  band:
  - # 1
    frequency:   -2.2263487499
  - # 2
    frequency:   -1.8972105371
  - # 3
    frequency:   -1.7898162977
  - # 4
    frequency:    0.2130087813
  - # 5
    frequency:    0.2836086482
  - # 6
    frequency:    0.9518154786
  - # 7
    frequency:    1.2066724690
  - # 8
    frequency:    1.3705852137
  - # 9
    frequency:    2.5130014194
  - # 10
    frequency:    3.5663784979
  - # 11
    frequency:    4.1015141559
  - # 12
    frequency:    5.1807587757
  - # 13
    frequency:    6.3422902210
  - # 14
    frequency:    6.8322643722
  - # 15
    frequency:   12.0550492526
  - # 16
    frequency:   12.2578073278
  - # 17
    frequency:   12.4353942090
  - # 18
    frequency:   14.1934753142
  - # 19
    frequency:   14.3507334483
  - # 20
    frequency:   15.4273123667
  - # 21
    frequency:   46.5961097594

- q-position: [    0.0808081,    0.0000000,    0.0000000 ]
  distance:    0.0281562
  band:
  - # 1
    frequency:   -2.3131706955
  - # 2
    frequency:   -1.9360296042
  - # 3
    frequency:   -1.8355404402
  - # 4
    frequency:    0.2974381802
  - # 5
    frequency:    0.3860795827
  - # 6
    frequency:    0.9767918429
  - # 7
    frequency:    1.2740840746
  - # 8
    frequency:    1.4283489515
  - # 9
    frequency:    2.6125610770
  - # 10
    frequency:    3.5923224815
  - # 11
    frequency:    4.1729968362
  - # 12
    frequency:    5.1814795064
  - # 13
    frequency:    6.3324840014
  - # 14
    frequency:    6.8778336496
  - # 15
    frequency:   12.0077471679
  - # 16
    frequency:   12.2528525915
  - # 17
    frequency:   12.4526493087
  - # 18
    frequency:   14.1807155515
  - # 19
    frequency:   14.3462981424
  - # 20
    frequency:   15.4840888731
  - # 21
    frequency:   46.5733873217

- q-position: [    0.0858586,    0.0000000,    0.0000000 ]
  distance:    0.0299159
  band:
  - # 1
    frequency:   -2.4013178507
  - # 2
    frequency:   -1.9707307155
  - # 3
    frequency:   -1.8826626607
  - # 4
    frequency:    0.3754104023
  - # 5
    frequency:    0.4765458003
  - # 6
    frequency:    1.0016599955
  - # 7
    frequency:    1.3438486326
  - # 8
    frequency:    1.4858762129
  - # 9
    frequency:    2.7095787439
  - # 10
    frequency:    3.6194079535
  - # 11
    frequency:    4.2431780662
  - # 12
    frequency:    5.1850985682
  - # 13
    frequency:    6.3221963357
  - # 14
    frequency:    6.9241062175
  - # 15
    frequency:   11.9598644384
  - # 16
    frequency:   12.2479011391
  - # 17
    frequency:   12.4714813740
  - # 18
    frequency:   14.1681856545
  - # 19
    frequency:   14.3415700995
  - # 20
    frequency:   15.5411362282
  - # 21
    frequency:   46.5493560214

- q-position: [    0.0909091,    0.0000000,    0.0000000 ]
  distance:    0.0316757
  band:
  - # 1
    frequency:   -2.4900610854
  - # 2
    frequency:   -2.0019968201
  - # 3
    frequency:   -1.9308602795
  - # 4
    frequency:    0.4503721655
  - # 5
    frequency:    0.5604898470
  - # 6
    frequency:    1.0266901194
  - # 7
    frequency:    1.4153212973
  - # 8
    frequency:    1.5431356768
  - # 9
    frequency:    2.8039759034
  - # 10
    frequency:    3.6475456102
  - # 11
    frequency:    4.3113616591
  - # 12
    frequency:    5.1921636650
  - # 13
    frequency:    6.3114708356
  - # 14
    frequency:    6.9708653435
  - # 15
    frequency:   11.9117166067
  - # 16
    frequency:   12.2430025828
  - # 17
    frequency:   12.4918935840
  - # 18
    frequency:   14.1558397478
  - # 19
    frequency:   14.3365484880
  - # 20
    frequency:   15.5982839925
  - # 21
    frequency:   46.5240442216

- q-position: [    0.0959596,    0.0000000,    0.0000000 ]
  distance:    0.0334354
  band:
  - # 1
    frequency:   -2.5788505631
  - # 2
    frequency:   -2.0303465897
  - # 3
    frequency:   -1.9798292862
  - # 4
    frequency:    0.5236135987
  - # 5
    frequency:    0.6401171721
  - # 6
    frequency:    1.0520433193
  - # 7
    frequency:    1.4879771424
  - # 8
    frequency:    1.6001079914
  - # 9
    frequency:    2.8956343282
  - # 10
    frequency:    3.6766435578
  - # 11
    frequency:    4.3768665579
  - # 12
    frequency:    5.2032544095
  - # 13
    frequency:    6.3003575708
  - # 14
    frequency:    7.0179073618
  - # 15
    frequency:   11.8635892469
  - # 16
    frequency:   12.2382064874
  - # 17
    frequency:   12.5139035345
  - # 18
    frequency:   14.1436348927
  - # 19
    frequency:   14.3312325833
  - # 20
    frequency:   15.6553770376
  - # 21
    frequency:   46.4974816868

- q-position: [    0.1010101,    0.0000000,    0.0000000 ]
  distance:    0.0351952
  band:
  - # 1
    frequency:   -2.6672610670
  - # 2
    frequency:   -2.0561925551
  - # 3
    frequency:   -2.0292871834
  - # 4
    frequency:    0.5957233429
  - # 5
    frequency:    0.7165041427
  - # 6
    frequency:    1.0778162899
  - # 7
    frequency:    1.5613692194
  - # 8
    frequency:    1.6567842167
  - # 9
    frequency:    2.9843980578
  - # 10
    frequency:    3.7066076938
  - # 11
    frequency:    4.4390588543
  - # 12
    frequency:    5.2189495413
  - # 13
    frequency:    6.2889134035
  - # 14
    frequency:    7.0650410074
  - # 15
    frequency:   11.8157449167
  - # 16
    frequency:   12.2335619437
  - # 17
    frequency:   12.5375362482
  - # 18
    frequency:   14.1315320964
  - # 19
    frequency:   14.3256218063
  - # 20
    frequency:   15.7122737013
  - # 21
    frequency:   46.4696995319

- q-position: [    0.1060606,    0.0000000,    0.0000000 ]
  distance:    0.0369550
  band:
  - # 1
    frequency:   -2.7549525668
  - # 2
    frequency:   -2.0798828477
  - # 3
    frequency:   -2.0789739330
  - # 4
    frequency:    0.6670029374
  - # 5
    frequency:    0.7902312305
  - # 6
    frequency:    1.1040673059
  - # 7
    frequency:    1.6351055082
  - # 8
    frequency:    1.7131645067
  - # 9
    frequency:    3.0700762945
  - # 10
    frequency:    3.7373420939
  - # 11
    frequency:    4.4974048330
  - # 12
    frequency:    5.2397721409
  - # 13
    frequency:    6.2772022406
  - # 14
    frequency:    7.1120867412
  - # 15
    frequency:   11.7684273314
  - # 16
    frequency:   12.2291171497
  - # 17
    frequency:   12.5628199529
  - # 18
    frequency:   14.1194969047
  - # 19
    frequency:   14.3197157647
  - # 20
    frequency:   15.7688442679
  - # 21
    frequency:   46.4407301702

- q-position: [    0.1111111,    0.0000000,    0.0000000 ]
  distance:    0.0387147
  band:
  - # 1
    frequency:   -2.8416441471
  - # 2
    frequency:   -2.1286516355
  - # 3
    frequency:   -2.1017285922
  - # 4
    frequency:    0.7376190210
  - # 5
    frequency:    0.8616275495
  - # 6
    frequency:    1.1308317441
  - # 7
    frequency:    1.7088362744
  - # 8
    frequency:    1.7692569499
  - # 9
    frequency:    3.1524477735
  - # 10
    frequency:    3.7687494079
  - # 11
    frequency:    4.5515409476
  - # 12
    frequency:    5.2661164038
  - # 13
    frequency:    6.2652951885
  - # 14
    frequency:    7.1588760974
  - # 15
    frequency:   11.7218640794
  - # 16
    frequency:   12.2249190051
  - # 17
    frequency:   12.5897832322
  - # 18
    frequency:   14.1074997272
  - # 19
    frequency:   14.3135142984
  - # 20
    frequency:   15.8249697004
  - # 21
    frequency:   46.4106072591

- q-position: [    0.1161616,    0.0000000,    0.0000000 ]
  distance:    0.0404745
  band:
  - # 1
    frequency:   -2.9270971603
  - # 2
    frequency:   -2.1781034410
  - # 3
    frequency:   -2.1220212409
  - # 4
    frequency:    0.8076673094
  - # 5
    frequency:    0.9308818634
  - # 6
    frequency:    1.1581320221
  - # 7
    frequency:    1.7822469245
  - # 8
    frequency:    1.8250765017
  - # 9
    frequency:    3.2312672092
  - # 10
    frequency:    3.8007312715
  - # 11
    frequency:    4.6013441596
  - # 12
    frequency:    5.2981719345
  - # 13
    frequency:    6.2532705929
  - # 14
    frequency:    7.2052510793
  - # 15
    frequency:   11.6762684959
  - # 16
    frequency:   12.2210127239
  - # 17
    frequency:   12.6184528821
  - # 18
    frequency:   14.0955160061
  - # 19
    frequency:   14.3070175273
  - # 20
    frequency:   15.8805405719
  - # 21
    frequency:   46.3793656457

- q-position: [    0.1212121,    0.0000000,    0.0000000 ]
  distance:    0.0422342
  band:
  - # 1
    frequency:   -3.0111042840
  - # 2
    frequency:   -2.2271320524
  - # 3
    frequency:   -2.1410432898
  - # 4
    frequency:    0.8772010972
  - # 5
    frequency:    0.9980989618
  - # 6
    frequency:    1.1859849141
  - # 7
    frequency:    1.8550537036
  - # 8
    frequency:    1.8806439546
  - # 9
    frequency:    3.3062743838
  - # 10
    frequency:    3.8331887399
  - # 11
    frequency:    4.6469753549
  - # 12
    frequency:    5.3358722507
  - # 13
    frequency:    6.2412139438
  - # 14
    frequency:    7.2510636199
  - # 15
    frequency:   11.6318409971
  - # 16
    frequency:   12.2174414695
  - # 17
    frequency:   12.6488521346
  - # 18
    frequency:   14.0835263068
  - # 19
    frequency:   14.3002259015
  - # 20
    frequency:   15.9354561593
  - # 21
    frequency:   46.3470413104

- q-position: [    0.1262626,    0.0000000,    0.0000000 ]
  distance:    0.0439940
  band:
  - # 1
    frequency:   -3.0934822823
  - # 2
    frequency:   -2.2755580645
  - # 3
    frequency:   -2.1590746592
  - # 4
    frequency:    0.9462430044
  - # 5
    frequency:    1.0633309083
  - # 6
    frequency:    1.2144084383
  - # 7
    frequency:    1.9270008471
  - # 8
    frequency:    1.9359849015
  - # 9
    frequency:    3.3772062752
  - # 10
    frequency:    3.8660227520
  - # 11
    frequency:    4.6888707461
  - # 12
    frequency:    5.3788921364
  - # 13
    frequency:    6.2292176300
  - # 14
    frequency:    7.2961751208
  - # 15
    frequency:   11.5887700415
  - # 16
    frequency:   12.2142460164
  - # 17
    frequency:   12.6809990652
  - # 18
    frequency:   14.0715163938
  - # 19
    frequency:   14.2931402540
  - # 20
    frequency:   15.9896236694
  - # 21
    frequency:   46.3136713102

- q-position: [    0.1313131,    0.0000000,    0.0000000 ]
  distance:    0.0457538
  band:
  - # 1
    frequency:   -3.1740670973
  - # 2
    frequency:   -2.3232182939
  - # 3
    frequency:   -2.1763961554
  - # 4
    frequency:    1.0147862937
  - # 5
    frequency:    1.1265957255
  - # 6
    frequency:    1.2434308438
  - # 7
    frequency:    1.9911286633
  - # 8
    frequency:    1.9978584905
  - # 9
    frequency:    3.4438122454
  - # 10
    frequency:    3.8991346358
  - # 11
    frequency:    4.7276756393
  - # 12
    frequency:    5.4266993905
  - # 13
    frequency:    6.2173805234
  - # 14
    frequency:    7.3404560778
  - # 15
    frequency:   11.5472328093
  - # 16
    frequency:   12.2114644423
  - # 17
    frequency:   12.7149050790
  - # 18
    frequency:   14.0594773428
  - # 19
    frequency:   14.2857618551
  - # 20
    frequency:   16.0429575775
  - # 21
    frequency:   46.2792937209

- q-position: [    0.1363636,    0.0000000,    0.0000000 ]
  distance:    0.0475135
  band:
  - # 1
    frequency:   -3.2527104289
  - # 2
    frequency:   -2.3699641914
  - # 3
    frequency:   -2.1932908666
  - # 4
    frequency:    1.0827851211
  - # 5
    frequency:    1.1878893921
  - # 6
    frequency:    1.2731063723
  - # 7
    frequency:    2.0461071610
  - # 8
    frequency:    2.0674210083
  - # 9
    frequency:    3.5058716952
  - # 10
    frequency:    3.9324266624
  - # 11
    frequency:    4.7641400712
  - # 12
    frequency:    5.4786419947
  - # 13
    frequency:    6.2058073794
  - # 14
    frequency:    7.3837857936
  - # 15
    frequency:   11.5073956636
  - # 16
    frequency:   12.2091318538
  - # 17
    frequency:   12.7505734073
  - # 18
    frequency:   14.0474057358
  - # 19
    frequency:   14.2780924674
  - # 20
    frequency:   16.0953790606
  - # 21
    frequency:   46.2439475790

- q-position: [    0.1414141,    0.0000000,    0.0000000 ]
  distance:    0.0492733
  band:
  - # 1
    frequency:   -3.3292772872
  - # 2
    frequency:   -2.4156603829
  - # 3
    frequency:   -2.2100439983
  - # 4
    frequency:    1.1501239413
  - # 5
    frequency:    1.2471940978
  - # 6
    frequency:    1.3035495170
  - # 7
    frequency:    2.1009537334
  - # 8
    frequency:    2.1355056417
  - # 9
    frequency:    3.5632127848
  - # 10
    frequency:    3.9658026620
  - # 11
    frequency:    4.7990085748
  - # 12
    frequency:    5.5340397905
  - # 13
    frequency:    6.1946080387
  - # 14
    frequency:    7.4260521769
  - # 15
    frequency:   11.4694144345
  - # 16
    frequency:   12.2072801482
  - # 17
    frequency:   12.7879975604
  - # 18
    frequency:   14.0353039894
  - # 19
    frequency:   14.2701344016
  - # 20
    frequency:   16.1468155121
  - # 21
    frequency:   46.2076728227

- q-position: [    0.1464646,    0.0000000,    0.0000000 ]
  distance:    0.0510330
  band:
  - # 1
    frequency:   -3.4036441965
  - # 2
    frequency:   -2.4601833599
  - # 3
    frequency:   -2.2269414567
  - # 4
    frequency:    1.2165318099
  - # 5
    frequency:    1.3044843001
  - # 6
    frequency:    1.3350229839
  - # 7
    frequency:    2.1557019153
  - # 8
    frequency:    2.2019513680
  - # 9
    frequency:    3.6157300035
  - # 10
    frequency:    3.9991687067
  - # 11
    frequency:    4.8329308012
  - # 12
    frequency:    5.5922561103
  - # 13
    frequency:    6.1838964210
  - # 14
    frequency:    7.4671516164
  - # 15
    frequency:   11.4334345663
  - # 16
    frequency:   12.2059378132
  - # 17
    frequency:   12.8271596854
  - # 18
    frequency:   14.0231808767
  - # 19
    frequency:   14.2618905720
  - # 20
    frequency:   16.1972001267
  - # 21
    frequency:   46.1705102329

- q-position: [    0.1515152,    0.0000000,    0.0000000 ]
  distance:    0.0527928
  band:
  - # 1
    frequency:   -3.4756978470
  - # 2
    frequency:   -2.5034203234
  - # 3
    frequency:   -2.2442673741
  - # 4
    frequency:    1.2813215743
  - # 5
    frequency:    1.3597314182
  - # 6
    frequency:    1.3681998428
  - # 7
    frequency:    2.2103842105
  - # 8
    frequency:    2.2666179994
  - # 9
    frequency:    3.6633978617
  - # 10
    frequency:    4.0324338685
  - # 11
    frequency:    4.8664051160
  - # 12
    frequency:    5.6527399470
  - # 13
    frequency:    6.1737893056
  - # 14
    frequency:    7.5069889175
  - # 15
    frequency:   11.3995911566
  - # 16
    frequency:   12.2051297666
  - # 17
    frequency:   12.8680287590
  - # 18
    frequency:   14.0110523196
  - # 19
    frequency:   14.2533645515
  - # 20
    frequency:   16.2464715467
  - # 21