nqpoint: 300    
npath: 3      
segment_nqpoint:
- 100
- 100
- 100
labels:
- [ 'G', 'M' ]
- [ 'M', 'K' ]
- [ 'K', 'G' ]
reciprocal_lattice:
- [   0.31642638,   0.18268886,   0.00000000 ] # a*
- [   0.00000000,   0.36537772,   0.00000000 ] # b*
- [   0.00000000,   0.00000000,   0.04460468 ] # c*
natom: 5      
lattice:
- [     3.160292724003988,     0.000000000000000,     0.000000000000000 ] # a
- [    -1.580146362001994,     2.736893782381483,     0.000000000000000 ] # b
- [     0.000000000000000,     0.000000000000000,    22.419172188274192 ] # c
points:
- symbol: F # 1
  coordinates: [  0.666666984744047,  0.333332985985145,  0.401442119468944 ]
  mass: 18.998403
- symbol: N # 2
  coordinates: [  0.000000000000000,  0.000000000000000,  0.502940097338803 ]
  mass: 14.006700
- symbol: O # 3
  coordinates: [  0.333332985432214,  0.666666983183674,  0.598557880531056 ]
  mass: 15.999400
- symbol: Ti # 4
  coordinates: [  0.333332985432214,  0.666666983183674,  0.455262701882578 ]
  mass: 47.867000
- symbol: Ti # 5
  coordinates: [  0.666666984744047,  0.333332985985145,  0.559346745772965 ]
  mass: 47.867000

phonon:
- q-position: [    0.0000000,    0.0000000,    0.0000000 ]
  distance:    0.0000000
  band:
  - # 1
    frequency:   -6.0124773185
  - # 2
    frequency:   -6.0124773185
  - # 3
    frequency:   -0.0000015599
  - # 4
    frequency:    0.0000006985
  - # 5
    frequency:    0.0000014288
  - # 6
    frequency:    4.9832636158
  - # 7
    frequency:    4.9832636158
  - # 8
    frequency:    7.5743483254
  - # 9
    frequency:    8.6199778181
  - # 10
    frequency:    8.6199778181
  - # 11
    frequency:   12.1840054974
  - # 12
    frequency:   13.3737432470
  - # 13
    frequency:   13.3737432470
  - # 14
    frequency:   14.1485285633
  - # 15
    frequency:   15.8392389682

- q-position: [    0.0050505,    0.0000000,    0.0000000 ]
  distance:    0.0018453
  band:
  - # 1
    frequency:   -6.0051362374
  - # 2
    frequency:   -6.0047100105
  - # 3
    frequency:   -0.4778290169
  - # 4
    frequency:    0.0682548657
  - # 5
    frequency:    0.4894074031
  - # 6
    frequency:    4.9849118613
  - # 7
    frequency:    4.9851852130
  - # 8
    frequency:    7.5746265941
  - # 9
    frequency:    8.6200210433
  - # 10
    frequency:    8.6203645592
  - # 11
    frequency:   12.1833533534
  - # 12
    frequency:   13.3745914417
  - # 13
    frequency:   13.3755775166
  - # 14
    frequency:   14.1512483629
  - # 15
    frequency:   15.8384502091

- q-position: [    0.0101010,    0.0000000,    0.0000000 ]
  distance:    0.0036907
  band:
  - # 1
    frequency:   -5.9831148467
  - # 2
    frequency:   -5.9814035714
  - # 3
    frequency:   -0.6668084357
  - # 4
    frequency:    0.1366294125
  - # 5
    frequency:    0.6996987092
  - # 6
    frequency:    4.9898510669
  - # 7
    frequency:    4.9909477567
  - # 8
    frequency:    7.5754645337
  - # 9
    frequency:    8.6201459259
  - # 10
    frequency:    8.6215257621
  - # 11
    frequency:   12.1814187362
  - # 12
    frequency:   13.3771202298
  - # 13
    frequency:   13.3810396684
  - # 14
    frequency:   14.1593842426
  - # 15
    frequency:   15.8360919885

- q-position: [    0.0151515,    0.0000000,    0.0000000 ]
  distance:    0.0055360
  band:
  - # 1
    frequency:   -5.9464185698
  - # 2
    frequency:   -5.9425440210
  - # 3
    frequency:   -0.8049802250
  - # 4
    frequency:    0.2052399271
  - # 5
    frequency:    0.8658370519
  - # 6
    frequency:    4.9980647318
  - # 7
    frequency:    5.0005447398
  - # 8
    frequency:    7.5768714357
  - # 9
    frequency:    8.6203383247
  - # 10
    frequency:    8.6234643827
  - # 11
    frequency:   12.1782652696
  - # 12
    frequency:   13.3812824266
  - # 13
    frequency:   13.3900095873
  - # 14
    frequency:   14.1728658515
  - # 15
    frequency:   15.8321886289

- q-position: [    0.0202020,    0.0000000,    0.0000000 ]
  distance:    0.0073814
  band:
  - # 1
    frequency:   -5.8950559899
  - # 2
    frequency:   -5.8881065774
  - # 3
    frequency:   -0.9150580258
  - # 4
    frequency:    0.2741960568
  - # 5
    frequency:    1.0096871633
  - # 6
    frequency:    5.0095256543
  - # 7
    frequency:    5.0139660914
  - # 8
    frequency:    7.5788624220
  - # 9
    frequency:    8.6205754610
  - # 10
    frequency:    8.6261854047
  - # 11
    frequency:   12.1739932194
  - # 12
    frequency:   13.3870000655
  - # 13
    frequency:   13.4022930087
  - # 14
    frequency:   14.1915765683
  - # 15
    frequency:   15.8267811881

- q-position: [    0.0252525,    0.0000000,    0.0000000 ]
  distance:    0.0092267
  band:
  - # 1
    frequency:   -5.8290381227
  - # 2
    frequency:   -5.8180533095
  - # 3
    frequency:   -1.0057201375
  - # 4
    frequency:    0.3435978494
  - # 5
    frequency:    1.1396453792
  - # 6
    frequency:    5.0241963581
  - # 7
    frequency:    5.0311992859
  - # 8
    frequency:    7.5814578942
  - # 9
    frequency:    8.6208270982
  - # 10
    frequency:    8.6296959254
  - # 11
    frequency:   12.1687317815
  - # 12
    frequency:   13.3941653950
  - # 13
    frequency:   13.4176295792
  - # 14
    frequency:   14.2153542531
  - # 15
    frequency:   15.8199282891

- q-position: [    0.0303030,    0.0000000,    0.0000000 ]
  distance:    0.0110721
  band:
  - # 1
    frequency:   -5.7483773046
  - # 2
    frequency:   -5.7323295832
  - # 3
    frequency:   -1.0812754863
  - # 4
    frequency:    0.4135331954
  - # 5
    frequency:    1.2600174115
  - # 6
    frequency:    5.0420296433
  - # 7
    frequency:    5.0522307903
  - # 8
    frequency:    7.5846827542
  - # 9
    frequency:    8.6210571805
  - # 10
    frequency:    8.6340052744
  - # 11
    frequency:   12.1626299178
  - # 12
    frequency:   13.4026422470
  - # 13
    frequency:   13.4357027105
  - # 14
    frequency:   14.2439919360
  - # 15
    frequency:   15.8117073842

- q-position: [    0.0353535,    0.0000000,    0.0000000 ]
  distance:    0.0129174
  band:
  - # 1
    frequency:   -5.6530855823
  - # 2
    frequency:   -5.6308589929
  - # 3
    frequency:   -1.1441389064
  - # 4
    frequency:    0.4840757598
  - # 5
    frequency:    1.3733875362
  - # 6
    frequency:    5.0629692141
  - # 7
    frequency:    5.0770477458
  - # 8
    frequency:    7.5885653824
  - # 9
    frequency:    8.6212259260
  - # 10
    frequency:    8.6391251647
  - # 11
    frequency:   12.1558468667
  - # 12
    frequency:   13.4122677483
  - # 13
    frequency:   13.4561502404
  - # 14
    frequency:   14.2772381381
  - # 15
    frequency:   15.8022165681

- q-position: [    0.0404040,    0.0000000,    0.0000000 ]
  distance:    0.0147627
  band:
  - # 1
    frequency:   -5.5431724262
  - # 2
    frequency:   -5.5135363069
  - # 3
    frequency:   -1.1957390612
  - # 4
    frequency:    0.5552834576
  - # 5
    frequency:    1.4814766412
  - # 6
    frequency:    5.0869503215
  - # 7
    frequency:    5.1056397482
  - # 8
    frequency:    7.5931363535
  - # 9
    frequency:    8.6212923674
  - # 10
    frequency:    8.6450698725
  - # 11
    frequency:   12.1485432729
  - # 12
    frequency:   13.4228543449
  - # 13
    frequency:   13.4785750626
  - # 14
    frequency:   14.3147964848
  - # 15
    frequency:   15.7915771047

- q-position: [    0.0454545,    0.0000000,    0.0000000 ]
  distance:    0.0166081
  band:
  - # 1
    frequency:   -5.4186414901
  - # 2
    frequency:   -5.3802177295
  - # 3
    frequency:   -1.2369225165
  - # 4
    frequency:    0.6271974997
  - # 5
    frequency:    1.5855202977
  - # 6
    frequency:    5.1139003425
  - # 7
    frequency:    5.1380005584
  - # 8
    frequency:    7.5984268555
  - # 9
    frequency:    8.6212173469
  - # 10
    frequency:    8.6518564441
  - # 11
    frequency:   12.1408735786
  - # 12
    frequency:   13.4341921007
  - # 13
    frequency:   13.5025551283
  - # 14
    frequency:   14.3563242632
  - # 15
    frequency:   15.7799368949

- q-position: [    0.0505051,    0.0000000,    0.0000000 ]
  distance:    0.0184534
  band:
  - # 1
    frequency:   -5.2794859897
  - # 2
    frequency:   -5.2307074334
  - # 3
    frequency:   -1.2681555760
  - # 4
    frequency:    0.6998420037
  - # 5
    frequency:    1.6864575280
  - # 6
    frequency:    5.1437392018
  - # 7
    frequency:    5.1741295397
  - # 8
    frequency:    7.6044667618
  - # 9
    frequency:    8.6209669789
  - # 10
    frequency:    8.6595049202
  - # 11
    frequency:   12.1329799963
  - # 12
    frequency:   13.4460512318
  - # 13
    frequency:   13.5276524671
  - # 14
    frequency:   14.4014295630
  - # 15
    frequency:   15.7674751956

- q-position: [    0.0555556,    0.0000000,    0.0000000 ]
  distance:    0.0202988
  band:
  - # 1
    frequency:   -5.1256820430
  - # 2
    frequency:   -5.0647387888
  - # 3
    frequency:   -1.2896308212
  - # 4
    frequency:    0.7732241473
  - # 5
    frequency:    1.7850333942
  - # 6
    frequency:    5.1763795282
  - # 7
    frequency:    5.2140325785
  - # 8
    frequency:    7.6112822807
  - # 9
    frequency:    8.6205166140
  - # 10
    frequency:    8.6680385725
  - # 11
    frequency:   12.1249881137
  - # 12
    frequency:   13.4581848350
  - # 13
    frequency:   13.5534210699
  - # 14
    frequency:   14.4496666111
  - # 15
    frequency:   15.7544089944

- q-position: [    0.0606061,    0.0000000,    0.0000000 ]
  distance:    0.0221441
  band:
  - # 1
    frequency:   -4.9571789454
  - # 2
    frequency:   -4.8819478781
  - # 3
    frequency:   -1.3013214746
  - # 4
    frequency:    0.8473348309
  - # 5
    frequency:    1.8818580341
  - # 6
    frequency:    5.2117264210
  - # 7
    frequency:    5.2577221991
  - # 8
    frequency:    7.6188930781
  - # 9
    frequency:    8.6198553557
  - # 10
    frequency:    8.6774841361
  - # 11
    frequency:   12.1170039970
  - # 12
    frequency:   13.4703317698
  - # 13
    frequency:   13.5794136067
  - # 14
    frequency:   14.5005288654
  - # 15
    frequency:   15.7410015469

- q-position: [    0.0656566,    0.0000000,    0.0000000 ]
  distance:    0.0239894
  band:
  - # 1
    frequency:   -4.7738847754
  - # 2
    frequency:   -4.6818355380
  - # 3
    frequency:   -1.3030012243
  - # 4
    frequency:    0.9221498199
  - # 5
    frequency:    1.9774418257
  - # 6
    frequency:    5.2496766960
  - # 7
    frequency:    5.3052165401
  - # 8
    frequency:    7.6273087347
  - # 9
    frequency:    8.6189912033
  - # 10
    frequency:    8.6878720212
  - # 11
    frequency:   12.1091125562
  - # 12
    frequency:   13.4822196519
  - # 13
    frequency:   13.6051870191
  - # 14
    frequency:   14.5534393892
  - # 15
    frequency:   15.7275736585

- q-position: [    0.0707071,    0.0000000,    0.0000000 ]
  distance:    0.0258348
  band:
  - # 1
    frequency:   -4.5756447846
  - # 2
    frequency:   -4.4637119288
  - # 3
    frequency:   -1.2942341211
  - # 4
    frequency:    0.9976313560
  - # 5
    frequency:    2.0722165637
  - # 6
    frequency:    5.2901174756
  - # 7
    frequency:    5.3565368177
  - # 8
    frequency:    7.6365243635
  - # 9
    frequency:    8.6179569103
  - # 10
    frequency:    8.6992364781
  - # 11
    frequency:   12.1013769030
  - # 12
    frequency:   13.4935679222
  - # 13
    frequency:   13.6303070624
  - # 14
    frequency:   14.6077380754
  - # 15
    frequency:   15.7145182486

- q-position: [    0.0757576,    0.0000000,    0.0000000 ]
  distance:    0.0276801
  band:
  - # 1
    frequency:   -4.3622084621
  - # 2
    frequency:   -4.2266138024
  - # 3
    frequency:   -1.2743288179
  - # 4
    frequency:    1.0737302706
  - # 5
    frequency:    2.1665479672
  - # 6
    frequency:    5.3329240002
  - # 7
    frequency:    5.4117028765
  - # 8
    frequency:    7.6465151888
  - # 9
    frequency:    8.6168166519
  - # 10
    frequency:    8.7116156827
  - # 11
    frequency:   12.0938384427
  - # 12
    frequency:   13.5040909534
  - # 13
    frequency:   13.6543518861
  - # 14
    frequency:   14.6626656220
  - # 15
    frequency:   15.7023183814

- q-position: [    0.0808081,    0.0000000,    0.0000000 ]
  distance:    0.0295255
  band:
  - # 1
    frequency:   -4.1331784808
  - # 2
    frequency:   -3.9691779000
  - # 3
    frequency:   -1.2422369176
  - # 4
    frequency:    1.1503887117
  - # 5
    frequency:    2.2607425737
  - # 6
    frequency:    5.3779565685
  - # 7
    frequency:    5.4707264451
  - # 8
    frequency:    7.6572298830
  - # 9
    frequency:    8.6156735675
  - # 10
    frequency:    8.7250516979
  - # 11
    frequency:   12.0865174779
  - # 12
    frequency:   13.5135011645
  - # 13
    frequency:   13.6769147464
  - # 14
    frequency:   14.7173451958
  - # 15
    frequency:   15.6915678811

- q-position: [    0.0858586,    0.0000000,    0.0000000 ]
  distance:    0.0313708
  band:
  - # 1
    frequency:   -3.8879299200
  - # 2
    frequency:   -3.6894417593
  - # 3
    frequency:   -1.1963448005
  - # 4
    frequency:    1.2275437361
  - # 5
    frequency:    2.3550509297
  - # 6
    frequency:    5.4250565765
  - # 7
    frequency:    5.5336017936
  - # 8
    frequency:    7.6685825103
  - # 9
    frequency:    8.6146781657
  - # 10
    frequency:    8.7395902552
  - # 11
    frequency:   12.0794141469
  - # 12
    frequency:   13.5215121136
  - # 13
    frequency:   13.6976059546
  - # 14
    frequency:   14.7707651490
  - # 15
    frequency:   15.6829911741

- q-position: [    0.0909091,    0.0000000,    0.0000000 ]
  distance:    0.0332162
  band:
  - # 1
    frequency:   -3.6254790026
  - # 2
    frequency:   -3.3845212526
  - # 3
    frequency:   -1.1340287617
  - # 4
    frequency:    1.3051322686
  - # 5
    frequency:    2.4496684510
  - # 6
    frequency:    5.4740417253
  - # 7
    frequency:    5.6002936724
  - # 8
    frequency:    7.6804430740
  - # 9
    frequency:    8.6140373991
  - # 10
    frequency:    8.7552802877
  - # 11
    frequency:   12.0725095650
  - # 12
    frequency:   13.5278415455
  - # 13
    frequency:   13.7160541691
  - # 14
    frequency:   14.8217709240
  - # 15
    frequency:   15.6774541931

- q-position: [    0.0959596,    0.0000000,    0.0000000 ]
  distance:    0.0350615
  band:
  - # 1
    frequency:   -3.3442618865
  - # 2
    frequency:   -3.0500776963
  - # 3
    frequency:   -1.0505947054
  - # 4
    frequency:    1.3830984133
  - # 5
    frequency:    2.5447351917
  - # 6
    frequency:    5.5247006253
  - # 7
    frequency:    5.6707227316
  - # 8
    frequency:    7.6926269665
  - # 9
    frequency:    8.6140238975
  - # 10
    frequency:    8.7721731288
  - # 11
    frequency:   12.0657670819
  - # 12
    frequency:   13.5322143746
  - # 13
    frequency:   13.7319071509
  - # 14
    frequency:   14.8690817454
  - # 15
    frequency:   15.6759506737

- q-position: [    0.1010101,    0.0000000,    0.0000000 ]
  distance:    0.0369068
  band:
  - # 1
    frequency:   -3.0417422326
  - # 2
    frequency:   -2.6794571164
  - # 3
    frequency:   -0.9362625405
  - # 4
    frequency:    1.4614050612
  - # 5
    frequency:    2.6403359957
  - # 6
    frequency:    5.5767872240
  - # 7
    frequency:    5.7447490882
  - # 8
    frequency:    7.7048841598
  - # 9
    frequency:    8.6149843128
  - # 10
    frequency:    8.7903212782
  - # 11
    frequency:   12.0591336012
  - # 12
    frequency:   13.5343655861
  - # 13
    frequency:   13.7448321062
  - # 14
    frequency:   14.9113552436
  - # 15
    frequency:   15.6795406019

- q-position: [    0.1060606,    0.0000000,    0.0000000 ]
  distance:    0.0387522
  band:
  - # 1
    frequency:   -2.7136615585
  - # 2
    frequency:   -2.2626467459
  - # 3
    frequency:   -0.7647248027
  - # 4
    frequency:    1.5400537997
  - # 5
    frequency:    2.7365032186
  - # 6
    frequency:    5.6300157417
  - # 7
    frequency:    5.8221553051
  - # 8
    frequency:    7.7168897913
  - # 9
    frequency:    8.6173449552
  - # 10
    frequency:    8.8097766272
  - # 11
    frequency:   12.0525409414
  - # 12
    frequency:   13.5340430429
  - # 13
    frequency:   13.7545157600
  - # 14
    frequency:   14.9473213321
  - # 15
    frequency:   15.6892193605

- q-position: [    0.1111111,    0.0000000,    0.0000000 ]
  distance:    0.0405975
  band:
  - # 1
    frequency:   -2.3524423255
  - # 2
    frequency:   -1.7884833038
  - # 3
    frequency:   -0.4094087996
  - # 4
    frequency:    1.6191218633
  - # 5
    frequency:    2.8332257375
  - # 6
    frequency:    5.6840570514
  - # 7
    frequency:    5.9026306858
  - # 8
    frequency:    7.7282388651
  - # 9
    frequency:    8.6216119329
  - # 10
    frequency:    8.8305880274
  - # 11
    frequency:   12.0459072369
  - # 12
    frequency:   13.5310101896
  - # 13
    frequency:   13.7606643119
  - # 14
    frequency:   14.9759803246
  - # 15
    frequency:   15.7057224432

- q-position: [    0.1161616,    0.0000000,    0.0000000 ]
  distance:    0.0424429
  band:
  - # 1
    frequency:   -1.9431646229
  - # 2
    frequency:   -1.2771115688
  - # 3
    frequency:    0.7584768486
  - # 4
    frequency:    1.6988367012
  - # 5
    frequency:    2.9304711339
  - # 6
    frequency:    5.7385376528
  - # 7
    frequency:    5.9857593005
  - # 8
    frequency:    7.7384488604
  - # 9
    frequency:    8.6283621164
  - # 10
    frequency:    8.8527980994
  - # 11
    frequency:   12.0391384000
  - # 12
    frequency:   13.5250486440
  - # 13
    frequency:   13.7630034482
  - # 14
    frequency:   14.9968073192
  - # 15
    frequency:   15.7293235404

- q-position: [    0.1212121,    0.0000000,    0.0000000 ]
  distance:    0.0442882
  band:
  - # 1
    frequency:   -1.4500592999
  - # 2
    frequency:   -0.8311934894
  - # 3
    frequency:    1.3802099541
  - # 4
    frequency:    1.7797412713
  - # 5
    frequency:    3.0282346335
  - # 6
    frequency:    5.7930424587
  - # 7
    frequency:    6.0710143486
  - # 8
    frequency:    7.7469745299
  - # 9
    frequency:    8.6382209992
  - # 10
    frequency:    8.8764392029
  - # 11
    frequency:   12.0321296708
  - # 12
    frequency:   13.5159606729
  - # 13
    frequency:   13.7612785988
  - # 14
    frequency:   15.0098645079
  - # 15
    frequency:   15.7597241538

- q-position: [    0.1262626,    0.0000000,    0.0000000 ]
  distance:    0.0461336
  band:
  - # 1
    frequency:   -0.7268133015
  - # 2
    frequency:   -0.3795794014
  - # 3
    frequency:    1.8631025455
  - # 4
    frequency:    1.8905603692
  - # 5
    frequency:    3.1266431331
  - # 6
    frequency:    5.8471224599
  - # 7
    frequency:    6.1577611170
  - # 8
    frequency:    7.7532382035
  - # 9
    frequency:    8.6518248099
  - # 10
    frequency:    8.9015285442
  - # 11
    frequency:   12.0247672942
  - # 12
    frequency:   13.5035715450
  - # 13
    frequency:   13.7552556331
  - # 14
    frequency:   15.0157542861
  - # 15
    frequency:   15.7961016885

- q-position: [    0.1313131,    0.0000000,    0.0000000 ]
  distance:    0.0479789
  band:
  - # 1
    frequency:    0.5347810137
  - # 2
    frequency:    0.9631048384
  - # 3
    frequency:    1.9520473548
  - # 4
    frequency:    2.3004448168
  - # 5
    frequency:    3.2261754560
  - # 6
    frequency:    5.9003079011
  - # 7
    frequency:    6.2452698452
  - # 8
    frequency:    7.7566756957
  - # 9
    frequency:    8.6697677615
  - # 10
    frequency:    8.9280624864
  - # 11
    frequency:   12.0169303589
  - # 12
    frequency:   13.4877317578
  - # 13
    frequency:   13.7447221802
  - # 14
    frequency:   15.0154405890
  - # 15
    frequency:   15.8372884273

- q-position: [    0.1363636,    0.0000000,    0.0000000 ]
  distance:    0.0498242
  band:
  - # 1
    frequency:    0.8289480957
  - # 2
    frequency:    1.4911560349
  - # 3
    frequency:    2.0549146858
  - # 4
    frequency:    2.6365673608
  - # 5
    frequency:    3.3281261730
  - # 6
    frequency:    5.9521269067
  - # 7
    frequency:    6.3327383657
  - # 8
    frequency:    7.7567926515
  - # 9
    frequency:    8.6925408211
  - # 10
    frequency:    8.9560102459
  - # 11
    frequency:   12.0084928327
  - # 12
    frequency:   13.4683191319
  - # 13
    frequency:   13.7294897179
  - # 14
    frequency:   15.0100339447
  - # 15
    frequency:   15.8819857878

- q-position: [    0.1414141,    0.0000000,    0.0000000 ]
  distance:    0.0516696
  band:
  - # 1
    frequency:    1.0419570381
  - # 2
    frequency:    1.8064893586
  - # 3
    frequency:    2.1913532554
  - # 4
    frequency:    2.9146470313
  - # 5
    frequency:    3.4355000036
  - # 6
    frequency:    6.0021286756
  - # 7
    frequency:    6.4193227662
  - # 8
    frequency:    7.7532208527
  - # 9
    frequency:    8.7204737488
  - # 10
    frequency:    8.9853073157
  - # 11
    frequency:   11.9993258155
  - # 12
    frequency:   13.4452407649
  - # 13
    frequency:   13.7093965021
  - # 14
    frequency:   15.0006226700
  - # 15
    frequency:   15.9289314074

- q-position: [    0.1464646,    0.0000000,    0.0000000 ]
  distance:    0.0535149
  band:
  - # 1
    frequency:    1.2209903863
  - # 2
    frequency:    1.9899553619
  - # 3
    frequency:    2.3739689388
  - # 4
    frequency:    3.1402587067
  - # 5
    frequency:    3.5540266105
  - # 6
    frequency:    6.0499096322
  - # 7
    frequency:    6.5041729431
  - # 8
    frequency:    7.7457618789
  - # 9
    frequency:    8.7536940509
  - # 10
    frequency:    9.0158491162
  - # 11
    frequency:   11.9893000188
  - # 12
    frequency:   13.4184348345
  - # 13
    frequency:   13.6843113014
  - # 14
    frequency:   14.9881772801
  - # 15
    frequency:   15.9769920710

- q-position: [    0.1515152,    0.0000000,    0.0000000 ]
  distance:    0.0553603
  band:
  - # 1
    frequency:    1.3806462846
  - # 2
    frequency:    2.1035745616
  - # 3
    frequency:    2.5716484079
  - # 4
    frequency:    3.3139559606
  - # 5
    frequency:    3.6901641194
  - # 6
    frequency:    6.0951405010
  - # 7
    frequency:    6.5864691387
  - # 8
    frequency:    7.7344087047
  - # 9
    frequency:    8.7921127497
  - # 10
    frequency:    9.0474855264
  - # 11
    frequency:   11.9782884615
  - # 12
    frequency:   13.3878722340
  - # 13
    frequency:   13.6541377752
  - # 14
    frequency:   14.9735145145
  - # 15
    frequency:   16.0251963051

- q-position: [    0.1565657,    0.0000000,    0.0000000 ]
  distance:    0.0572056
  band:
  - # 1
    frequency:    1.5274610605
  - # 2
    frequency:    2.1898510098
  - # 3
    frequency:    2.7569857023
  - # 4
    frequency:    3.4410838040
  - # 5
    frequency:    3.8430184227
  - # 6
    frequency:    6.1375922935
  - # 7
    frequency:    6.6654555492
  - # 8
    frequency:    7.7193430689
  - # 9
    frequency:    8.8354388033
  - # 10
    frequency:    9.0800170339
  - # 11
    frequency:   11.9661693488
  - # 12
    frequency:   13.3535580209
  - # 13
    frequency:   13.6188192118
  - # 14
    frequency:   14.9572962318
  - # 15
    frequency:   16.0727317351

- q-position: [    0.1616162,    0.0000000,    0.0000000 ]
  distance:    0.0590509
  band:
  - # 1
    frequency:    1.6649442913
  - # 2
    frequency:    2.2640036258
  - # 3
    frequency:    2.9236204888
  - # 4
    frequency:    3.5339723020
  - # 5
    frequency:    4.0030546390
  - # 6
    frequency:    6.1771595761
  - # 7
    frequency:    6.7404677755
  - # 8
    frequency:    7.7009136686
  - # 9
    frequency:    8.8832158494
  - # 10
    frequency:    9.1131932409
  - # 11
    frequency:   11.9528290831
  - # 12
    frequency:   13.3155326479
  - # 13
    frequency:   13.5783432546
  - # 14
    frequency:   14.9400436977
  - # 15
    frequency:   16.1189271220

- q-position: [    0.1666667,    0.0000000,    0.0000000 ]
  distance:    0.0608963
  band:
  - # 1
    frequency:    1.7952023399
  - # 2
    frequency:    2.3310355192
  - # 3
    frequency:    3.0723436529
  - # 4
    frequency:    3.6029915339
  - # 5
    frequency:    4.1615287710
  - # 6
    frequency:    6.2138798621
  - # 7
    frequency:    6.8109520287
  - # 8
    frequency:    7.6796037578
  - # 9
    frequency:    8.9348705791
  - # 10
    frequency:    9.1467143217
  - # 11
    frequency:   11.9381653299
  - # 12
    frequency:   13.2738729413
  - # 13
    frequency:   13.5327462174
  - # 14
    frequency:   14.9221562274
  - # 15
    frequency:   16.1632305822

- q-position: [    0.1717172,    0.0000000,    0.0000000 ]
  distance:    0.0627416
  band:
  - # 1
    frequency:    1.9195919323
  - # 2
    frequency:    2.3927492445
  - # 3
    frequency:    3.2054167102
  - # 4
    frequency:    3.6532537017
  - # 5
    frequency:    4.3140585317
  - # 6
    frequency:    6.2479481348
  - # 7
    frequency:    6.8764752891
  - # 8
    frequency:    7.6559959237
  - # 9
    frequency:    8.9897623247
  - # 10
    frequency:    9.1802357715
  - # 11
    frequency:   11.9220900479
  - # 12
    frequency:   13.2286927787
  - # 13
    frequency:   13.4821166365
  - # 14
    frequency:   14.9039293166
  - # 15
    frequency:   16.2051892617

- q-position: [    0.1767677,    0.0000000,    0.0000000 ]
  distance:    0.0645870
  band:
  - # 1
    frequency:    2.0390187375
  - # 2
    frequency:    2.4497998020
  - # 3
    frequency:    3.3251699079
  - # 4
    frequency:    3.6864253613
  - # 5
    frequency:    4.4589736684
  - # 6
    frequency:    6.2797250252
  - # 7
    frequency:    6.9367267998
  - # 8
    frequency:    7.6307386208
  - # 9
    frequency:    9.0472266007
  - # 10
    frequency:    9.2133764306
  - # 11
    frequency:   11.9045323758
  - # 12
    frequency:   13.1801434091
  - # 13
    frequency:   13.4265978193
  - # 14
    frequency:   14.8855707615
  - # 15
    frequency:   16.2444322483

- q-position: [    0.1818182,    0.0000000,    0.0000000 ]
  distance:    0.0664323
  band:
  - # 1
    frequency:    2.1540795245
  - # 2
    frequency:    2.5023606415
  - # 3
    frequency:    3.4336893474
  - # 4
    frequency:    3.7024131976
  - # 5
    frequency:    4.5957391930
  - # 6
    frequency:    6.3097359149
  - # 7
    frequency:    6.9915121839
  - # 8
    frequency:    7.6045158802
  - # 9
    frequency:    9.1066090190
  - # 10
    frequency:    9.2457293914
  - # 11
    frequency:   11.8854412587
  - # 12
    frequency:   13.1284133473
  - # 13
    frequency:   13.3663893006
  - # 14
    frequency:   14.8672147155
  - # 15
    frequency:   16.2806568837

- q-position: [    0.1868687,    0.0000000,    0.0000000 ]
  distance:    0.0682777
  band:
  - # 1
    frequency:    2.2651188276
  - # 2
    frequency:    2.5503751063
  - # 3
    frequency:    3.5327732848
  - # 4
    frequency:    3.7002124800
  - # 5
    frequency:    4.7241992723
  - # 6
    frequency:    6.3386565379
  - # 7
    frequency:    7.0407420365
  - # 8
    frequency:    7.5780198598
  - # 9
    frequency:    9.1672888175
  - # 10
    frequency:    9.2768750727
  - # 11
    frequency:   11.8647876917
  - # 12
    frequency:   13.0737277655
  - # 13
    frequency:   13.3017472750
  - # 14
    frequency:   14.8489340723
  - # 15
    frequency:   16.3136180269

- q-position: [    0.1919192,    0.0000000,    0.0000000 ]
  distance:    0.0701230
  band:
  - # 1
    frequency:    2.3722172996
  - # 2
    frequency:    2.5936652724
  - # 3
    frequency:    3.6239537075
  - # 4
    frequency:    3.6783163066
  - # 5
    frequency:    4.8442762751
  - # 6
    frequency:    6.3672793505
  - # 7
    frequency:    7.0844170547
  - # 8
    frequency:    7.5519257216
  - # 9
    frequency:    9.2286928663
  - # 10
    frequency:    9.3063955448
  - # 11
    frequency:   11.8425664500
  - # 12
    frequency:   13.0163472965
  - # 13
    frequency:   13.2329841984
  - # 14
    frequency:   14.8307515664
  - # 15
    frequency:   16.3431196732

- q-position: [    0.1969697,    0.0000000,    0.0000000 ]
  distance:    0.0719683
  band:
  - # 1
    frequency:    2.4750847655
  - # 2
    frequency:    2.6319850521
  - # 3
    frequency:    3.6349807175
  - # 4
    frequency:    3.7085294978
  - # 5
    frequency:    4.9558770804
  - # 6
    frequency:    6.3964554023
  - # 7
    frequency:    7.1226116902
  - # 8
    frequency:    7.5268691662
  - # 9
    frequency:    9.2903017133
  - # 10
    frequency:    9.3338891384
  - # 11
    frequency:   11.8187971676
  - # 12
    frequency:   12.9565661603
  - # 13
    frequency:   13.1604678400
  - # 14
    frequency:   14.8126498499
  - # 15
    frequency:   16.3690083786

- q-position: [    0.2020202,    0.0000000,    0.0000000 ]
  distance:    0.0738137
  band:
  - # 1
    frequency:    2.5727423906
  - # 2
    frequency:    2.6650489277
  - # 3
    frequency:    3.5685706570
  - # 4
    frequency:    3.7875971811
  - # 5
    frequency:    5.0588947935
  - # 6
    frequency:    6.4270100841
  - # 7
    frequency:    7.1554580096
  - # 8
    frequency:    7.5034280264
  - # 9
    frequency:    9.3516493788
  - # 10
    frequency:    9.3589844626
  - # 11
    frequency:   11.7935246084
  - # 12
    frequency:   12.8947095328
  - # 13
    frequency:   13.0846201033
  - # 14
    frequency:   14.7945806722
  - # 15
    frequency:   16.3911680346

- q-position: [    0.2070707,    0.0000000,    0.0000000 ]
  distance:    0.0756590
  band:
  - # 1
    frequency:    2.6625893146
  - # 2
    frequency:    2.6925487390
  - # 3
    frequency:    3.4784142179
  - # 4
    frequency:    3.8620764854
  - # 5
    frequency:    5.1532546629
  - # 6
    frequency:    6.4596385373
  - # 7
    frequency:    7.1831310401
  - # 8
    frequency:    7.4821099016
  - # 9
    frequency:    9.3813531419
  - # 10
    frequency:    9.4123184963
  - # 11
    frequency:   11.7668179397
  - # 12
    frequency:   12.8311300854
  - # 13
    frequency:   13.0059159448
  - # 14
    frequency:   14.7764732014
  - # 15
    frequency:   16.4095156448

- q-position: [    0.2121212,    0.0000000,    0.0000000 ]
  distance:    0.0775044
  band:
  - # 1
    frequency:    2.7141637545
  - # 2