nqpoint: 300    
npath: 3      
segment_nqpoint:
- 100
- 100
- 100
labels:
- [ 'G', 'M' ]
- [ 'M', 'K' ]
- [ 'K', 'G' ]
reciprocal_lattice:
- [   0.31239843,   0.18036332,   0.00000000 ] # a*
- [   0.00000000,   0.36072664,   0.00000000 ] # b*
- [   0.00000000,   0.00000000,   0.03557345 ] # c*
natom: 9      
lattice:
- [     3.201040401555456,     0.000000000000000,     0.000000000000000 ] # a
- [    -1.600520200777728,     2.772182306278019,     0.000000000000000 ] # b
- [     0.000000000000000,     0.000000000000000,    28.110851500898960 ] # c
points:
- symbol: C # 1
  coordinates: [  0.000000000000000,  0.000000000000000,  0.505884169061929 ]
  mass: 12.010700
- symbol: C # 2
  coordinates: [  0.333332985432214,  0.666666983183674,  0.636981235710294 ]
  mass: 12.010700
- symbol: C # 3
  coordinates: [  0.666666984744047,  0.333332985985144,  0.375314310831066 ]
  mass: 12.010700
- symbol: N # 4
  coordinates: [  0.333332985432214,  0.666666983183674,  0.592643357394502 ]
  mass: 14.006700
- symbol: N # 5
  coordinates: [  0.666666984744047,  0.333332985985144,  0.419890853843445 ]
  mass: 14.006700
- symbol: O # 6
  coordinates: [  0.333332985432214,  0.666666983183674,  0.679838940499110 ]
  mass: 15.999400
- symbol: S # 7
  coordinates: [  0.666666984744047,  0.333332985985144,  0.320161059500890 ]
  mass: 32.065000
- symbol: Ti # 8
  coordinates: [  0.333332985432214,  0.666666983183674,  0.465333213752534 ]
  mass: 47.867000
- symbol: Ti # 9
  coordinates: [  0.666666984744047,  0.333332985985144,  0.545049671724750 ]
  mass: 47.867000

phonon:
- q-position: [    0.0000000,    0.0000000,    0.0000000 ]
  distance:    0.0000000
  band:
  - # 1
    frequency:   -1.0495140523
  - # 2
    frequency:   -1.0495140522
  - # 3
    frequency:   -0.0000213460
  - # 4
    frequency:    0.0000004006
  - # 5
    frequency:    0.0000178961
  - # 6
    frequency:    1.4761211991
  - # 7
    frequency:    1.4761211992
  - # 8
    frequency:    5.3127687861
  - # 9
    frequency:    5.3127687861
  - # 10
    frequency:    5.7931815269
  - # 11
    frequency:    6.9498882098
  - # 12
    frequency:    6.9498882098
  - # 13
    frequency:    7.7363464107
  - # 14
    frequency:    7.7363464107
  - # 15
    frequency:    8.9114418027
  - # 16
    frequency:   11.7188643484
  - # 17
    frequency:   13.8092752424
  - # 18
    frequency:   13.8092752424
  - # 19
    frequency:   17.2944710022
  - # 20
    frequency:   17.2944710023
  - # 21
    frequency:   17.4473387508
  - # 22
    frequency:   17.5445585610
  - # 23
    frequency:   17.5445585610
  - # 24
    frequency:   27.3204187570
  - # 25
    frequency:   38.4761687508
  - # 26
    frequency:   57.2706138291
  - # 27
    frequency:   69.0488100401

- q-position: [    0.0050505,    0.0000000,    0.0000000 ]
  distance:    0.0018219
  band:
  - # 1
    frequency:   -1.0489311141
  - # 2
    frequency:   -1.0464562273
  - # 3
    frequency:    0.0033560907
  - # 4
    frequency:    0.0746470311
  - # 5
    frequency:    0.1338796349
  - # 6
    frequency:    1.4770287309
  - # 7
    frequency:    1.4805152512
  - # 8
    frequency:    5.3129965231
  - # 9
    frequency:    5.3138505762
  - # 10
    frequency:    5.7926605770
  - # 11
    frequency:    6.9499129482
  - # 12
    frequency:    6.9507082213
  - # 13
    frequency:    7.7363739055
  - # 14
    frequency:    7.7372111074
  - # 15
    frequency:    8.9112213897
  - # 16
    frequency:   11.7181782916
  - # 17
    frequency:   13.8093897924
  - # 18
    frequency:   13.8097355533
  - # 19
    frequency:   17.2944691652
  - # 20
    frequency:   17.2946863680
  - # 21
    frequency:   17.4469748018
  - # 22
    frequency:   17.5441730003
  - # 23
    frequency:   17.5450361245
  - # 24
    frequency:   27.3202682581
  - # 25
    frequency:   38.4761513835
  - # 26
    frequency:   57.2697994298
  - # 27
    frequency:   69.0475549082

- q-position: [    0.0101010,    0.0000000,    0.0000000 ]
  distance:    0.0036437
  band:
  - # 1
    frequency:   -1.0471814662
  - # 2
    frequency:   -1.0373387891
  - # 3
    frequency:    0.0133471048
  - # 4
    frequency:    0.1493203788
  - # 5
    frequency:    0.2680016246
  - # 6
    frequency:    1.4797508827
  - # 7
    frequency:    1.4936084943
  - # 8
    frequency:    5.3136783770
  - # 9
    frequency:    5.3170826683
  - # 10
    frequency:    5.7911091631
  - # 11
    frequency:    6.9499866746
  - # 12
    frequency:    6.9531640709
  - # 13
    frequency:    7.7364578032
  - # 14
    frequency:    7.7397985732
  - # 15
    frequency:    8.9105623121
  - # 16
    frequency:   11.7161210567
  - # 17
    frequency:   13.8097332147
  - # 18
    frequency:   13.8111155507
  - # 19
    frequency:   17.2944623550
  - # 20
    frequency:   17.2953280875
  - # 21
    frequency:   17.4459035304
  - # 22
    frequency:   17.5430190814
  - # 23
    frequency:   17.5464501866
  - # 24
    frequency:   27.3198170702
  - # 25
    frequency:   38.4760993410
  - # 26
    frequency:   57.2673573022
  - # 27
    frequency:   69.0437919558

- q-position: [    0.0151515,    0.0000000,    0.0000000 ]
  distance:    0.0054656
  band:
  - # 1
    frequency:   -1.0442625186
  - # 2
    frequency:   -1.0223045044
  - # 3
    frequency:    0.0297554032
  - # 4
    frequency:    0.2240445854
  - # 5
    frequency:    0.4025212146
  - # 6
    frequency:    1.4842864419
  - # 7
    frequency:    1.5151487547
  - # 8
    frequency:    5.3148103042
  - # 9
    frequency:    5.3224249301
  - # 10
    frequency:    5.7885618883
  - # 11
    frequency:    6.9501079316
  - # 12
    frequency:    6.9572432715
  - # 13
    frequency:    7.7366023263
  - # 14
    frequency:    7.7440890317
  - # 15
    frequency:    8.9094710729
  - # 16
    frequency:   11.7126954463
  - # 17
    frequency:   13.8103048265
  - # 18
    frequency:   13.8134124362
  - # 19
    frequency:   17.2944466298
  - # 20
    frequency:   17.2963827388
  - # 21
    frequency:   17.4441827558
  - # 22
    frequency:   17.5411051364
  - # 23
    frequency:   17.5487490720
  - # 24
    frequency:   27.3190661196
  - # 25
    frequency:   38.4760128005
  - # 26
    frequency:   57.2632906547
  - # 27
    frequency:   69.0375285054

- q-position: [    0.0202020,    0.0000000,    0.0000000 ]
  distance:    0.0072874
  band:
  - # 1
    frequency:   -1.0401696713
  - # 2
    frequency:   -1.0015173623
  - # 3
    frequency:    0.0522587063
  - # 4
    frequency:    0.2988406508
  - # 5
    frequency:    0.5374472833
  - # 6
    frequency:    1.4906337855
  - # 7
    frequency:    1.5447603296
  - # 8
    frequency:    5.3163856565
  - # 9
    frequency:    5.3298094263
  - # 10
    frequency:    5.7850774742
  - # 11
    frequency:    6.9502743201
  - # 12
    frequency:    6.9629252330
  - # 13
    frequency:    7.7368144550
  - # 14
    frequency:    7.7500498361
  - # 15
    frequency:    8.9079585719
  - # 16
    frequency:   11.7079061201
  - # 17
    frequency:   13.8111034931
  - # 18
    frequency:   13.8166215718
  - # 19
    frequency:   17.2944152675
  - # 20
    frequency:   17.2978269628
  - # 21
    frequency:   17.4418979466
  - # 22
    frequency:   17.5384451909
  - # 23
    frequency:   17.5518585869
  - # 24
    frequency:   27.3180169475
  - # 25
    frequency:   38.4758920565
  - # 26
    frequency:   57.2576048283
  - # 27
    frequency:   69.0287767395

- q-position: [    0.0252525,    0.0000000,    0.0000000 ]
  distance:    0.0091093
  band:
  - # 1
    frequency:   -1.0348959281
  - # 2
    frequency:   -0.9750823041
  - # 3
    frequency:    0.0804794007
  - # 4
    frequency:    0.3737242834
  - # 5
    frequency:    0.6726240982
  - # 6
    frequency:    1.4987915020
  - # 7
    frequency:    1.5819990909
  - # 8
    frequency:    5.3183953159
  - # 9
    frequency:    5.3391386363
  - # 10
    frequency:    5.7807405620
  - # 11
    frequency:    6.9504825457
  - # 12
    frequency:    6.9701815807
  - # 13
    frequency:    7.7371038395
  - # 14
    frequency:    7.7576359193
  - # 15
    frequency:    8.9060401976
  - # 16
    frequency:   11.7017595785
  - # 17
    frequency:   13.8121276321
  - # 18
    frequency:   13.8207365182
  - # 19
    frequency:   17.2943585310
  - # 20
    frequency:   17.2996258734
  - # 21
    frequency:   17.4391516508
  - # 22
    frequency:   17.5350591806
  - # 23
    frequency:   17.5556942453
  - # 24
    frequency:   27.3166717073
  - # 25
    frequency:   38.4757375203
  - # 26
    frequency:   57.2503072863
  - # 27
    frequency:   69.0175536667

- q-position: [    0.0303030,    0.0000000,    0.0000000 ]
  distance:    0.0109311
  band:
  - # 1
    frequency:   -1.0284314235
  - # 2
    frequency:   -0.9429756738
  - # 3
    frequency:    0.1140361751
  - # 4
    frequency:    0.4487041230
  - # 5
    frequency:    0.8077469844
  - # 6
    frequency:    1.5087593119
  - # 7
    frequency:    1.6264120221
  - # 8
    frequency:    5.3208278785
  - # 9
    frequency:    5.3502825151
  - # 10
    frequency:    5.7756647132
  - # 11
    frequency:    6.9507284827
  - # 12
    frequency:    6.9789765769
  - # 13
    frequency:    7.7374826777
  - # 14
    frequency:    7.7667903843
  - # 15
    frequency:    8.9037359551
  - # 16
    frequency:   11.6942641416
  - # 17
    frequency:   13.8133752196
  - # 18
    frequency:   13.8257490865
  - # 19
    frequency:   17.2942633268
  - # 20
    frequency:   17.3017306288
  - # 21
    frequency:   17.4360560692
  - # 22
    frequency:   17.5309732659
  - # 23
    frequency:   17.5601712198
  - # 24
    frequency:   27.3150331595
  - # 25
    frequency:   38.4755497179
  - # 26
    frequency:   57.2414076003
  - # 27
    frequency:   69.0038810756

- q-position: [    0.0353535,    0.0000000,    0.0000000 ]
  distance:    0.0127530
  band:
  - # 1
    frequency:   -1.0207629016
  - # 2
    frequency:   -0.9049982540
  - # 3
    frequency:    0.1525904932
  - # 4
    frequency:    0.5237798678
  - # 5
    frequency:    0.9423915583
  - # 6
    frequency:    1.5205393437
  - # 7
    frequency:    1.6775931614
  - # 8
    frequency:    5.3236698825
  - # 9
    frequency:    5.3630738991
  - # 10
    frequency:    5.7699971337
  - # 11
    frequency:    6.9510072598
  - # 12
    frequency:    6.9892676212
  - # 13
    frequency:    7.7379655557
  - # 14
    frequency:    7.7774452004
  - # 15
    frequency:    8.9010706283
  - # 16
    frequency:   11.6854299243
  - # 17
    frequency:   13.8148437983
  - # 18
    frequency:   13.8316494004
  - # 19
    frequency:   17.2941127452
  - # 20
    frequency:   17.3040749837
  - # 21
    frequency:   17.4327305711
  - # 22
    frequency:   17.5262202590
  - # 23
    frequency:   17.5652103947
  - # 24
    frequency:   27.3131046658
  - # 25
    frequency:   38.4753292887
  - # 26
    frequency:   57.2309174325
  - # 27
    frequency:   68.9877854754

- q-position: [    0.0404040,    0.0000000,    0.0000000 ]
  distance:    0.0145748
  band:
  - # 1
    frequency:   -1.0118731776
  - # 2
    frequency:   -0.8607455287
  - # 3
    frequency:    0.1958850399
  - # 4
    frequency:    0.5989401864
  - # 5
    frequency:    1.0760366565
  - # 6
    frequency:    1.5341378482
  - # 7
    frequency:    1.7352320778
  - # 8
    frequency:    5.3269060764
  - # 9
    frequency:    5.3773015530
  - # 10
    frequency:    5.7639258542
  - # 11
    frequency:    6.9513133648
  - # 12
    frequency:    7.0010058104
  - # 13
    frequency:    7.7385692504
  - # 14
    frequency:    7.7895219659
  - # 15
    frequency:    8.8980739750
  - # 16
    frequency:   11.6752688103
  - # 17
    frequency:   13.8165304876
  - # 18
    frequency:   13.8384259692
  - # 19
    frequency:   17.2938854677
  - # 20
    frequency:   17.3065706827
  - # 21
    frequency:   17.4293039379
  - # 22
    frequency:   17.5208401751
  - # 23
    frequency:   17.5707408778
  - # 24
    frequency:   27.3108901822
  - # 25
    frequency:   38.4750769829
  - # 26
    frequency:   57.2188505136
  - # 27
    frequency:   68.9692980234

- q-position: [    0.0454545,    0.0000000,    0.0000000 ]
  distance:    0.0163967
  band:
  - # 1
    frequency:   -1.0017405881
  - # 2
    frequency:   -0.8095779056
  - # 3
    frequency:    0.2437749087
  - # 4
    frequency:    0.6741602628
  - # 5
    frequency:    1.2080716398
  - # 6
    frequency:    1.5495674632
  - # 7
    frequency:    1.7991533797
  - # 8
    frequency:    5.3305197197
  - # 9
    frequency:    5.3926999674
  - # 10
    frequency:    5.7576902819
  - # 11
    frequency:    6.9516407705
  - # 12
    frequency:    7.0141365347
  - # 13
    frequency:    7.7393124953
  - # 14
    frequency:    7.8029327019
  - # 15
    frequency:    8.8947809513
  - # 16
    frequency:   11.6637944252
  - # 17
    frequency:   13.8184319951
  - # 18
    frequency:   13.8460657661
  - # 19
    frequency:   17.2935550320
  - # 20
    frequency:   17.3091017844
  - # 21
    frequency:   17.4259200617
  - # 22
    frequency:   17.5148809223
  - # 23
    frequency:   17.5767001520
  - # 24
    frequency:   27.3083942500
  - # 25
    frequency:   38.4747936589
  - # 26
    frequency:   57.2052226176
  - # 27
    frequency:   68.9484544402

- q-position: [    0.0505051,    0.0000000,    0.0000000 ]
  distance:    0.0182185
  band:
  - # 1
    frequency:   -0.9903384202
  - # 2
    frequency:   -0.7505658976
  - # 3
    frequency:    0.2962529478
  - # 4
    frequency:    0.7493987758
  - # 5
    frequency:    1.3377921576
  - # 6
    frequency:    1.5668501863
  - # 7
    frequency:    1.8693440034
  - # 8
    frequency:    5.3344929096
  - # 9
    frequency:    5.4089350131
  - # 10
    frequency:    5.7515960406
  - # 11
    frequency:    6.9519830821
  - # 12
    frequency:    7.0286000909
  - # 13
    frequency:    7.7402157075
  - # 14
    frequency:    7.8175806412
  - # 15
    frequency:    8.8912319610
  - # 16
    frequency:   11.6510221120
  - # 17
    frequency:   13.8205446306
  - # 18
    frequency:   13.8545543124
  - # 19
    frequency:   17.2930889451
  - # 20
    frequency:   17.3115186553
  - # 21
    frequency:   17.4227452115
  - # 22
    frequency:   17.5083991345
  - # 23
    frequency:   17.5830330170
  - # 24
    frequency:   27.3056219858
  - # 25
    frequency:   38.4744802807
  - # 26
    frequency:   57.1900515323
  - # 27
    frequency:   68.9252949123

- q-position: [    0.0555556,    0.0000000,    0.0000000 ]
  distance:    0.0200404
  band:
  - # 1
    frequency:   -0.9776342881
  - # 2
    frequency:   -0.6823676990
  - # 3
    frequency:    0.3534662521
  - # 4
    frequency:    0.8245940720
  - # 5
    frequency:    1.4644016000
  - # 6
    frequency:    1.5860212579
  - # 7
    frequency:    1.9459575919
  - # 8
    frequency:    5.3388069267
  - # 9
    frequency:    5.4255852101
  - # 10
    frequency:    5.7460343532
  - # 11
    frequency:    6.9523337029
  - # 12
    frequency:    7.0443322998
  - # 13
    frequency:    7.7413006786
  - # 14
    frequency:    7.8333609856
  - # 15
    frequency:    8.8874731228
  - # 16
    frequency:   11.6369689097
  - # 17
    frequency:   13.8228643220
  - # 18
    frequency:   13.8638757627
  - # 19
    frequency:   17.2924476598
  - # 20
    frequency:   17.3136337679
  - # 21
    frequency:   17.4199739283
  - # 22
    frequency:   17.5014611376
  - # 23
    frequency:   17.5896901222
  - # 24
    frequency:   27.3025790706
  - # 25
    frequency:   38.4741379139
  - # 26
    frequency:   57.1733570261
  - # 27
    frequency:   68.8998639821

- q-position: [    0.0606061,    0.0000000,    0.0000000 ]
  distance:    0.0218622
  band:
  - # 1
    frequency:   -0.9635894123
  - # 2
    frequency:   -0.6029297030
  - # 3
    frequency:    0.4157074138
  - # 4
    frequency:    0.8996592508
  - # 5
    frequency:    1.5870481449
  - # 6
    frequency:    1.6071342116
  - # 7
    frequency:    2.0292731842
  - # 8
    frequency:    5.3434425914
  - # 9
    frequency:    5.4421207810
  - # 10
    frequency:    5.7415038112
  - # 11
    frequency:    6.9526860194
  - # 12
    frequency:    7.0612651125
  - # 13
    frequency:    7.7425902294
  - # 14
    frequency:    7.8501616149
  - # 15
    frequency:    8.8835565449
  - # 16
    frequency:   11.6216535371
  - # 17
    frequency:   13.8253866324
  - # 18
    frequency:   13.8740129905
  - # 19
    frequency:   17.2915834549
  - # 20
    frequency:   17.3152236941
  - # 21
    frequency:   17.4178287111
  - # 22
    frequency:   17.4941440056
  - # 23
    frequency:   17.5966265410
  - # 24
    frequency:   27.2992717373
  - # 25
    frequency:   38.4737677223
  - # 26
    frequency:   57.1551608114
  - # 27
    frequency:   68.8722104272

- q-position: [    0.0656566,    0.0000000,    0.0000000 ]
  distance:    0.0236841
  band:
  - # 1
    frequency:   -0.9481577434
  - # 2
    frequency:   -0.5086371279
  - # 3
    frequency:    0.4833385937
  - # 4
    frequency:    0.9744758502
  - # 5
    frequency:    1.6302673810
  - # 6
    frequency:    1.7049317170
  - # 7
    frequency:    2.1195792655
  - # 8
    frequency:    5.3483806243
  - # 9
    frequency:    5.4578887714
  - # 10
    frequency:    5.7386262547
  - # 11
    frequency:    6.9530336009
  - # 12
    frequency:    7.0793272010
  - # 13
    frequency:    7.7441078330
  - # 14
    frequency:    7.8678637409
  - # 15
    frequency:    8.8795405927
  - # 16
    frequency:   11.6050963824
  - # 17
    frequency:   13.8281067800
  - # 18
    frequency:   13.8849476714
  - # 19
    frequency:   17.2904393230
  - # 20
    frequency:   17.3160436924
  - # 21
    frequency:   17.4165468839
  - # 22
    frequency:   17.4865366048
  - # 23
    frequency:   17.6038005924
  - # 24
    frequency:   27.2957067564
  - # 25
    frequency:   38.4733709637
  - # 26
    frequency:   57.1354865048
  - # 27
    frequency:   68.8423871266

- q-position: [    0.0707071,    0.0000000,    0.0000000 ]
  distance:    0.0255059
  band:
  - # 1
    frequency:   -0.9312848579
  - # 2
    frequency:   -0.3912836397
  - # 3
    frequency:    0.5565852632
  - # 4
    frequency:    1.0488858634
  - # 5
    frequency:    1.6555321220
  - # 6
    frequency:    1.8174874191
  - # 7
    frequency:    2.2169798779
  - # 8
    frequency:    5.3536020026
  - # 9
    frequency:    5.4721239213
  - # 10
    frequency:    5.7381370860
  - # 11
    frequency:    6.9533704105
  - # 12
    frequency:    7.0984445238
  - # 13
    frequency:    7.7458772105
  - # 14
    frequency:    7.8863425128
  - # 15
    frequency:    8.8754901279
  - # 16
    frequency:   11.5873194994
  - # 17
    frequency:   13.8310196597
  - # 18
    frequency:   13.8966603630
  - # 19
    frequency:   17.2889480635
  - # 20
    frequency:   17.3158595002
  - # 21
    frequency:   17.4163499713
  - # 22
    frequency:   17.4787404283
  - # 23
    frequency:   17.6111729749
  - # 24
    frequency:   27.2918914212
  - # 25
    frequency:   38.4729489853
  - # 26
    frequency:   57.1143595831
  - # 27
    frequency:   68.8104509173

- q-position: [    0.0757576,    0.0000000,    0.0000000 ]
  distance:    0.0273278
  band:
  - # 1
    frequency:   -0.9129065340
  - # 2
    frequency:   -0.2199134240
  - # 3
    frequency:    0.6351953502
  - # 4
    frequency:    1.1226820238
  - # 5
    frequency:    1.6830828045
  - # 6
    frequency:    1.9245773731
  - # 7
    frequency:    2.3211925278
  - # 8
    frequency:    5.3590883047
  - # 9
    frequency:    5.4840168373
  - # 10
    frequency:    5.7408184770
  - # 11
    frequency:    6.9536910222
  - # 12
    frequency:    7.1185408640
  - # 13
    frequency:    7.7479219033
  - # 14
    frequency:    7.9054675969
  - # 15
    frequency:    8.8714766917
  - # 16
    frequency:   11.5683466109
  - # 17
    frequency:   13.8341198664
  - # 18
    frequency:   13.9091305791
  - # 19
    frequency:   17.2870319143
  - # 20
    frequency:   17.3144911717
  - # 21
    frequency:   17.4174007426
  - # 22
    frequency:   17.4708698872
  - # 23
    frequency:   17.6187062070
  - # 24
    frequency:   27.2878335310
  - # 25
    frequency:   38.4725032191
  - # 26
    frequency:   57.0918073370
  - # 27
    frequency:   68.7764624392

- q-position: [    0.0808081,    0.0000000,    0.0000000 ]
  distance:    0.0291496
  band:
  - # 1
    frequency:   -0.8929468894
  - # 2
    frequency:    0.2342142774
  - # 3
    frequency:    0.7181726069
  - # 4
    frequency:    1.1955968917
  - # 5
    frequency:    1.7131280353
  - # 6
    frequency:    2.0265621023
  - # 7
    frequency:    2.4314674346
  - # 8
    frequency:    5.3648220382
  - # 9
    frequency:    5.4928617328
  - # 10
    frequency:    5.7473532198
  - # 11
    frequency:    6.9539908377
  - # 12
    frequency:    7.1395383357
  - # 13
    frequency:    7.7502648320
  - # 14
    frequency:    7.9251037662
  - # 15
    frequency:    8.8675785928
  - # 16
    frequency:   11.5482031195
  - # 17
    frequency:   13.8374017201
  - # 18
    frequency:   13.9223368584
  - # 19
    frequency:   17.2846032268
  - # 20
    frequency:   17.3118498724
  - # 21
    frequency:   17.4197670492
  - # 22
    frequency:   17.4630515569
  - # 23
    frequency:   17.6263643411
  - # 24
    frequency:   27.2835413738
  - # 25
    frequency:   38.4720351764
  - # 26
    frequency:   57.0678588206
  - # 27
    frequency:   68.7404859701

- q-position: [    0.0858586,    0.0000000,    0.0000000 ]
  distance:    0.0309715
  band:
  - # 1
    frequency:   -0.8713159171
  - # 2
    frequency:    0.3966743120
  - # 3
    frequency:    0.8039201498
  - # 4
    frequency:    1.2672926218
  - # 5
    frequency:    1.7459412283
  - # 6
    frequency:    2.1241834488
  - # 7
    frequency:    2.5466962778
  - # 8
    frequency:    5.3707869424
  - # 9
    frequency:    5.4982479517
  - # 10
    frequency:    5.7581350282
  - # 11
    frequency:    6.9542662944
  - # 12
    frequency:    7.1613578554
  - # 13
    frequency:    7.7529278482
  - # 14
    frequency:    7.9451115536
  - # 15
    frequency:    8.8638808504
  - # 16
    frequency:   11.5269161249
  - # 17
    frequency:   13.8408592930
  - # 18
    frequency:   13.9362568267
  - # 19
    frequency:   17.2815668308
  - # 20
    frequency:   17.3079464200
  - # 21
    frequency:   17.4234137042
  - # 22
    frequency:   17.4554217269
  - # 23
    frequency:   17.6341129070
  - # 24
    frequency:   27.2790237067
  - # 25
    frequency:   38.4715464426
  - # 26
    frequency:   57.0425447989
  - # 27
    frequency:   68.7025892507

- q-position: [    0.0909091,    0.0000000,    0.0000000 ]
  distance:    0.0327933
  band:
  - # 1
    frequency:   -0.8479061866
  - # 2
    frequency:    0.5109229217
  - # 3
    frequency:    0.8907648491
  - # 4
    frequency:    1.3373558310
  - # 5
    frequency:    1.7818661001
  - # 6
    frequency:    2.2183378760
  - # 7
    frequency:    2.6656314792
  - # 8
    frequency:    5.3769682630
  - # 9
    frequency:    5.5001845887
  - # 10
    frequency:    5.7731460145
  - # 11
    frequency:    6.9545150585
  - # 12
    frequency:    7.1839195758
  - # 13
    frequency:    7.7559312899
  - # 14
    frequency:    7.9653480385
  - # 15
    frequency:    8.8604749286
  - # 16
    frequency:   11.5045144465
  - # 17
    frequency:   13.8444864383
  - # 18
    frequency:   13.9508672532
  - # 19
    frequency:   17.2778247499
  - # 20
    frequency:   17.3028684362
  - # 21
    frequency:   17.4282255777
  - # 22
    frequency:   17.4481216000
  - # 23
    frequency:   17.6419190472
  - # 24
    frequency:   27.2742897359
  - # 25
    frequency:   38.4710386714
  - # 26
    frequency:   57.0158976914
  - # 27
    frequency:   68.6628433006

- q-position: [    0.0959596,    0.0000000,    0.0000000 ]
  distance:    0.0346152
  band:
  - # 1
    frequency:   -0.8225883662
  - # 2
    frequency:    0.6068118488
  - # 3
    frequency:    0.9774099441
  - # 4
    frequency:    1.4053057589
  - # 5
    frequency:    1.8213088920
  - # 6
    frequency:    2.3098771920
  - # 7
    frequency:    2.7870787715
  - # 8
    frequency:    5.3833529902
  - # 9
    frequency:    5.4990664567
  - # 10
    frequency:    5.7919931449
  - # 11
    frequency:    6.9547361926
  - # 12
    frequency:    7.2071432786
  - # 13
    frequency:    7.7592935504
  - # 14
    frequency:    7.9856678537
  - # 15
    frequency:    8.8574581841
  - # 16
    frequency:   11.4810286518
  - # 17
    frequency:   13.8482768196
  - # 18
    frequency:   13.9661440996
  - # 19
    frequency:   17.2732836162
  - # 20
    frequency:   17.2967432478
  - # 21
    frequency:   17.4340448039
  - # 22
    frequency:   17.4412897864
  - # 23
    frequency:   17.6497518079
  - # 24
    frequency:   27.2693490945
  - # 25
    frequency:   38.4705135786
  - # 26
    frequency:   56.9879515141
  - # 27
    frequency:   68.6213222256

- q-position: [    0.1010101,    0.0000000,    0.0000000 ]
  distance:    0.0364370
  band:
  - # 1
    frequency:   -0.7952050399
  - # 2
    frequency:    0.6935263422
  - # 3
    frequency:    1.0630541784
  - # 4
    frequency:    1.4706272193
  - # 5
    frequency:    1.8647058190
  - # 6
    frequency:    2.3995043269
  - # 7
    frequency:    2.9099951679
  - # 8
    frequency:    5.3899300603
  - # 9
    frequency:    5.4955170652
  - # 10
    frequency:    5.8140680766
  - # 11
    frequency:    6.9549302903
  - # 12
    frequency:    7.2309487231
  - # 13
    frequency:    7.7630306717
  - # 14
    frequency:    8.0059245086
  - # 15
    frequency:    8.8549329394
  - # 16
    frequency:   11.4564910866
  - # 17
    frequency:   13.8522239424
  - # 18
    frequency:   13.9820625643
  - # 19
    frequency:   17.2678643855
  - # 20
    frequency:   17.2897058777
  - # 21
    frequency:   17.4350524956
  - # 22
    frequency:   17.4407027823
  - # 23
    frequency:   17.6575825581
  - # 24
    frequency:   27.2642118200
  - # 25
    frequency:   38.4699729358
  - # 26
    frequency:   56.9587418176
  - # 27
    frequency:   68.5781030161

- q-position: [    0.1060606,    0.0000000,    0.0000000 ]
  distance:    0.0382589
  band:
  - # 1
    frequency:   -0.7655619835
  - # 2
    frequency:    0.7752497937
  - # 3
    frequency:    1.1472900110
  - # 4
    frequency:    1.5328374730
  - # 5
    frequency:    1.9124566072
  - # 6
    frequency:    2.4877507688
  - # 7
    frequency:    3.0335054773
  - # 8
    frequency:    5.3966905136
  - # 9
    frequency:    5.4902237449
  - # 10
    frequency:    5.8387153322
  - # 11
    frequency:    6.9550995708
  - # 12
    frequency:    7.2552559487
  - # 13
    frequency:    7.7671559715
  - # 14
    frequency:    8.0259721373
  - # 15
    frequency:    8.8530050840
  - # 16
    frequency:   11.4309359083
  - # 17
    frequency:   13.8563211864
  - # 18
    frequency:   13.9985971216
  - # 19
    frequency:   17.2615128439
  - # 20
    frequency:   17.2818802263
  - # 21
    frequency:   17.4295129330
  - # 22
    frequency:   17.4480388963
  - # 23
    frequency:   17.6653855131
  - # 24
    frequency:   27.2588883298
  - # 25
    frequency:   38.4694185640
  - # 26
    frequency:   56.9283056238
  - # 27
    frequency:   68.5332653392

- q-position: [    0.1111111,    0.0000000,    0.0000000 ]
  distance:    0.0400807
  band:
  - # 1
    frequency:   -0.7334155307
  - # 2
    frequency:    0.8541850311
  - # 3
    frequency:    1.2299576971
  - # 4
    frequency:    1.5915810050
  - # 5
    frequency:    1.9648301346
  - # 6
    frequency:    2.5749963036
  - # 7
    frequency:    3.1568764723
  - # 8
    frequency:    5.4036276084
  - # 9
    frequency:    5.4838376000
  - # 10
    frequency:    5.8653362340
  - # 11
    frequency:    6.9552479256
  - # 12
    frequency:    7.2799855300
  - # 13
    frequency:    7.7716797147
  - # 14
    frequency:    8.0456677668
  - # 15
    frequency:    8.8517821140
  - # 16
    frequency:   11.4043991179
  - # 17
    frequency:   13.8605618380
  - # 18
    frequency:   14.0157215572
  - # 19
    frequency:   17.2542084497
  - # 20
    frequency:   17.2733717746
  - # 21
    frequency:   17.4247423575
  - # 22
    frequency:   17.4559076357
  - # 23
    frequency:   17.6731383400
  - # 24
    frequency:   27.2533893953
  - # 25
    frequency:   38.4688523269
  - # 26
    frequency:   56.8966813595
  - # 27
    frequency:   68.4868913227

- q-position: [    0.1161616,    0.0000000,    0.0000000 ]
  distance:    0.0419026
  band:
  - # 1
    frequency:   -0.6984536798
  - # 2
    frequency:    0.9315817127
  - # 3
    frequency:    1.3110334803
  - # 4
    frequency:    1.6467200123
  - # 5
    frequency:    2.0218743626
  - # 6
    frequency:    2.6615015166
  - # 7
    frequency:    3.2794780283
  - # 8
    frequency:    5.4107368883
  - # 9
    frequency:    5.4769395141
  - # 10
    frequency:    5.8934274910
  - # 11
    frequency:    6.9553809138
  - # 12
    frequency:    7.3050587835
  - # 13
    frequency:    7.7766088363
  - # 14
    frequency:    8.0648741847
  - # 15
    frequency:    8.8513705402
  - # 16
    frequency:   11.3769185905
  - # 17
    frequency:   13.8649391238
  - # 18
    frequency:   14.0334090002
  - # 19
    frequency:   17.2459689874
  - # 20
    frequency:   17.2642670821
  - # 21
    frequency:   17.4207753224
  - # 22
    frequency:   17.4641788656
  - # 23
    frequency:   17.6808228269
  - # 24
    frequency:   27.2477261155
  - # 25
    frequency:   38.4682761237
  - # 26
    frequency:   56.8639087888
  - # 27
    frequency:   68.4390653334

- q-position: [    0.1212121,    0.0000000,    0.0000000 ]
  distance:    0.0437244
  band:
  - # 1
    frequency:   -0.6602667020
  - # 2
    frequency:    1.0081811557
  - # 3
    frequency:    1.3905605266
  - # 4
    frequency:    1.6983736335
  - # 5
    frequency:    2.0833775232
  - # 6
    frequency:    2.7474387869
  - # 7
    frequency:    3.4007452996
  - # 8
    frequency:    5.4180162016
  - # 9
    frequency:    5.4700447019
  - # 10
    frequency:    5.9225820575