nqpoint: 300    
npath: 3      
segment_nqpoint:
- 100
- 100
- 100
labels:
- [ 'G', 'M' ]
- [ 'M', 'K' ]
- [ 'K', 'G' ]
reciprocal_lattice:
- [   0.29607004,   0.17093612,   0.00000000 ] # a*
- [   0.00000000,   0.34187224,   0.00000000 ] # b*
- [   0.00000000,   0.00000000,   0.04278861 ] # c*
natom: 5      
lattice:
- [     3.377579137446332,     0.000000000000000,     0.000000000000000 ] # a
- [    -1.688789568723166,     2.925069336317364,     0.000000000000000 ] # b
- [     0.000000000000000,     0.000000000000000,    23.370702946941400 ] # c
points:
- symbol: Br # 1
  coordinates: [  0.666666984744047,  0.333332985985145,  0.385097530888683 ]
  mass: 79.904000
- symbol: F # 2
  coordinates: [  0.333332985432215,  0.666666983183674,  0.614902469111317 ]
  mass: 18.998403
- symbol: N # 3
  coordinates: [  0.000000000000000,  0.000000000000000,  0.517037937377138 ]
  mass: 14.006700
- symbol: Sc # 4
  coordinates: [  0.333332985432215,  0.666666983183674,  0.464897879008101 ]
  mass: 44.955912
- symbol: Sc # 5
  coordinates: [  0.666666984744047,  0.333332985985145,  0.566631238747280 ]
  mass: 44.955912

phonon:
- q-position: [    0.0000000,    0.0000000,    0.0000000 ]
  distance:    0.0000000
  band:
  - # 1
    frequency:   -0.0000113380
  - # 2
    frequency:    0.0000001813
  - # 3
    frequency:    0.0000075012
  - # 4
    frequency:    3.6822521821
  - # 5
    frequency:    3.6822521822
  - # 6
    frequency:    5.0541385053
  - # 7
    frequency:    6.4040454490
  - # 8
    frequency:    6.4040454490
  - # 9
    frequency:    6.7573765672
  - # 10
    frequency:    6.7573765672
  - # 11
    frequency:    9.6758020269
  - # 12
    frequency:   11.9975353669
  - # 13
    frequency:   12.6666901052
  - # 14
    frequency:   12.6666901052
  - # 15
    frequency:   13.7339461648

- q-position: [    0.0050505,    0.0000000,    0.0000000 ]
  distance:    0.0017266
  band:
  - # 1
    frequency:   -0.0026003012
  - # 2
    frequency:    0.0260965258
  - # 3
    frequency:    0.0575425907
  - # 4
    frequency:    3.6827453808
  - # 5
    frequency:    3.6839511607
  - # 6
    frequency:    5.0537083163
  - # 7
    frequency:    6.4032383570
  - # 8
    frequency:    6.4037968669
  - # 9
    frequency:    6.7575440230
  - # 10
    frequency:    6.7579124656
  - # 11
    frequency:    9.6748809017
  - # 12
    frequency:   11.9963879421
  - # 13
    frequency:   12.6640578452
  - # 14
    frequency:   12.6667801765
  - # 15
    frequency:   13.7346001345

- q-position: [    0.0101010,    0.0000000,    0.0000000 ]
  distance:    0.0034533
  band:
  - # 1
    frequency:   -0.0099682703
  - # 2
    frequency:    0.0538507125
  - # 3
    frequency:    0.1150021566
  - # 4
    frequency:    3.6842237873
  - # 5
    frequency:    3.6890311692
  - # 6
    frequency:    5.0524180777
  - # 7
    frequency:    6.4008299610
  - # 8
    frequency:    6.4030583961
  - # 9
    frequency:    6.7580402396
  - # 10
    frequency:    6.7595103463
  - # 11
    frequency:    9.6721202543
  - # 12
    frequency:   11.9929318840
  - # 13
    frequency:   12.6562094698
  - # 14
    frequency:   12.6670482438
  - # 15
    frequency:   13.7365331324

- q-position: [    0.0151515,    0.0000000,    0.0000000 ]
  distance:    0.0051799
  band:
  - # 1
    frequency:   -0.0210514503
  - # 2
    frequency:    0.0844415140
  - # 3
    frequency:    0.1722965511
  - # 4
    frequency:    3.6866838430
  - # 5
    frequency:    3.6974417749
  - # 6
    frequency:    5.0502689067
  - # 7
    frequency:    6.3968577731
  - # 8
    frequency:    6.4018511260
  - # 9
    frequency:    6.7588473652
  - # 10
    frequency:    6.7621418540
  - # 11
    frequency:    9.6675282672
  - # 12
    frequency:   11.9871254790
  - # 13
    frequency:   12.6432877137
  - # 14
    frequency:   12.6674878823
  - # 15
    frequency:   13.7396613151

- q-position: [    0.0202020,    0.0000000,    0.0000000 ]
  distance:    0.0069065
  band:
  - # 1
    frequency:   -0.0346032771
  - # 2
    frequency:    0.1184869284
  - # 3
    frequency:    0.2293453881
  - # 4
    frequency:    3.6901196506
  - # 5
    frequency:    3.7091000573
  - # 6
    frequency:    5.0472631038
  - # 7
    frequency:    6.3913808168
  - # 8
    frequency:    6.4002078269
  - # 9
    frequency:    6.7599375779
  - # 10
    frequency:    6.7657630972
  - # 11
    frequency:    9.6611185679
  - # 12
    frequency:   11.9788980310
  - # 13
    frequency:   12.6255227853
  - # 14
    frequency:   12.6680884356
  - # 15
    frequency:   13.7438539646

- q-position: [    0.0252525,    0.0000000,    0.0000000 ]
  distance:    0.0086331
  band:
  - # 1
    frequency:   -0.0494219885
  - # 2
    frequency:    0.1562170326
  - # 3
    frequency:    0.2860709321
  - # 4
    frequency:    3.6945230231
  - # 5
    frequency:    3.7238922176
  - # 6
    frequency:    5.0434048010
  - # 7
    frequency:    6.3844751877
  - # 8
    frequency:    6.3981696397
  - # 9
    frequency:    6.7612757462
  - # 10
    frequency:    6.7703188929
  - # 11
    frequency:    9.6529102148
  - # 12
    frequency:   11.9681482354
  - # 13
    frequency:   12.6032226328
  - # 14
    frequency:   12.6688350916
  - # 15
    frequency:   13.7489450925

- q-position: [    0.0303030,    0.0000000,    0.0000000 ]
  distance:    0.0103598
  band:
  - # 1
    frequency:   -0.0643927244
  - # 2
    frequency:    0.1976505367
  - # 3
    frequency:    0.3423989996
  - # 4
    frequency:    3.6998835516
  - # 5
    frequency:    3.7416756554
  - # 6
    frequency:    5.0387008518
  - # 7
    frequency:    6.3762291416
  - # 8
    frequency:    6.3957819031
  - # 9
    frequency:    6.7628227339
  - # 10
    frequency:    6.7757474077
  - # 11
    frequency:    9.6429276760
  - # 12
    frequency:   11.9547422283
  - # 13
    frequency:   12.5767621658
  - # 14
    frequency:   12.6697089885
  - # 15
    frequency:   13.7547465087

- q-position: [    0.0353535,    0.0000000,    0.0000000 ]
  distance:    0.0120864
  band:
  - # 1
    frequency:   -0.0784426802
  - # 2
    frequency:    0.2427014784
  - # 3
    frequency:    0.3982598715
  - # 4
    frequency:    3.7061886885
  - # 5
    frequency:    3.7622813566
  - # 6
    frequency:    5.0331619490
  - # 7
    frequency:    6.3667384638
  - # 8
    frequency:    6.3930894673
  - # 9
    frequency:    6.7645390411
  - # 10
    frequency:    6.7819844436
  - # 11
    frequency:    9.6312008013
  - # 12
    frequency:   11.9385117723
  - # 13
    frequency:   12.5465729100
  - # 14
    frequency:   12.6706873485
  - # 15
    frequency:   13.7610604093

- q-position: [    0.0404040,    0.0000000,    0.0000000 ]
  distance:    0.0138130
  band:
  - # 1
    frequency:   -0.0904635929
  - # 2
    frequency:    0.2912335320
  - # 3
    frequency:    0.4535892172
  - # 4
    frequency:    3.7134238459
  - # 5
    frequency:    3.7855164109
  - # 6
    frequency:    5.0268039553
  - # 7
    frequency:    6.3561026139
  - # 8
    frequency:    6.3901318313
  - # 9
    frequency:    6.7663884935
  - # 10
    frequency:    6.7889668748
  - # 11
    frequency:    9.6177647859
  - # 12
    frequency:   11.9192533610
  - # 13
    frequency:   12.5131337004
  - # 14
    frequency:   12.6717436383
  - # 15
    frequency:   13.7676900938

- q-position: [    0.0454545,    0.0000000,    0.0000000 ]
  distance:    0.0155396
  band:
  - # 1
    frequency:   -0.0991989498
  - # 2
    frequency:    0.3430865695
  - # 3
    frequency:    0.5083290270
  - # 4
    frequency:    3.7215725053
  - # 5
    frequency:    3.8111664706
  - # 6
    frequency:    5.0196494362
  - # 7
    frequency:    6.3444218476
  - # 8
    frequency:    6.3869383929
  - # 9
    frequency:    6.7683417477
  - # 10
    frequency:    6.7966350380
  - # 11
    frequency:    9.6026601253
  - # 12
    frequency:   11.8967294560
  - # 13
    frequency:   12.4769618945
  - # 14
    frequency:   12.6728477546
  - # 15
    frequency:   13.7744481078

- q-position: [    0.0505051,    0.0000000,    0.0000000 ]
  distance:    0.0172663
  band:
  - # 1
    frequency:   -0.1030421632
  - # 2
    frequency:    0.3980899151
  - # 3
    frequency:    0.5624285446
  - # 4
    frequency:    3.7306163363
  - # 5
    frequency:    3.8389979597
  - # 6
    frequency:    5.0117293948
  - # 7
    frequency:    6.3317952878
  - # 8
    frequency:    6.3835240425
  - # 9
    frequency:    6.7703794411
  - # 10
    frequency:    6.8049341078
  - # 11
    frequency:    9.5859325599
  - # 12
    frequency:   11.8706735275
  - # 13
    frequency:   12.4386035281
  - # 14
    frequency:   12.6739662318
  - # 15
    frequency:   13.7811617108

- q-position: [    0.0555556,    0.0000000,    0.0000000 ]
  distance:    0.0189929
  band:
  - # 1
    frequency:   -0.0995616192
  - # 2
    frequency:    0.4560692636
  - # 3
    frequency:    0.6158451934
  - # 4
    frequency:    3.7405353229
  - # 5
    frequency:    3.8687598508
  - # 6
    frequency:    5.0030852160
  - # 7
    frequency:    6.3183197771
  - # 8
    frequency:    6.3798852871
  - # 9
    frequency:    6.7724948669
  - # 10
    frequency:    6.8138146301
  - # 11
    frequency:    9.5676330071
  - # 12
    frequency:   11.8408008489
  - # 13
    frequency:   12.3986201595
  - # 14
    frequency:   12.6750624717
  - # 15
    frequency:   13.7876759637

- q-position: [    0.0606061,    0.0000000,    0.0000000 ]
  distance:    0.0207195
  band:
  - # 1
    frequency:   -0.0838950320
  - # 2
    frequency:    0.5168504575
  - # 3
    frequency:    0.6685454805
  - # 4
    frequency:    3.7513078923
  - # 5
    frequency:    3.9001848374
  - # 6
    frequency:    4.9937708505
  - # 7
    frequency:    6.3040892969
  - # 8
    frequency:    6.3759970582
  - # 9
    frequency:    6.7746960784
  - # 10
    frequency:    6.8232324350
  - # 11
    frequency:    9.5478174795
  - # 12
    frequency:   11.8068266869
  - # 13
    frequency:   12.3575702591
  - # 14
    frequency:   12.6760969900
  - # 15
    frequency:   13.7938549273

- q-position: [    0.0656566,    0.0000000,    0.0000000 ]
  distance:    0.0224462
  band:
  - # 1
    frequency:   -0.0352103038
  - # 2
    frequency:    0.5802615917
  - # 3
    frequency:    0.7205058628
  - # 4
    frequency:    3.7629110446
  - # 5
    frequency:    3.9329897425
  - # 6
    frequency:    4.9838552869
  - # 7
    frequency:    6.2891947469
  - # 8
    frequency:    6.3718103561
  - # 9
    frequency:    6.7770073352
  - # 10
    frequency:    6.8331481434
  - # 11
    frequency:    9.5265469862
  - # 12
    frequency:   11.7684921825
  - # 13
    frequency:   12.3159843088
  - # 14
    frequency:   12.6770276796
  - # 15
    frequency:   13.7995814975

- q-position: [    0.0707071,    0.0000000,    0.0000000 ]
  distance:    0.0241728
  band:
  - # 1
    frequency:    0.0910621284
  - # 2
    frequency:    0.6461341415
  - # 3
    frequency:    0.7717135533
  - # 4
    frequency:    3.7753204813
  - # 5
    frequency:    3.9668750164
  - # 6
    frequency:    4.9734253838
  - # 7
    frequency:    6.2737239197
  - # 8
    frequency:    6.3672508944
  - # 9
    frequency:    6.7794697805
  - # 10
    frequency:    6.8435264432
  - # 11
    frequency:    9.5038874151
  - # 12
    frequency:   11.7255956504
  - # 13
    frequency:   12.2743353981
  - # 14
    frequency:   12.6778100866
  - # 15
    frequency:   13.8047563506

- q-position: [    0.0757576,    0.0000000,    0.0000000 ]
  distance:    0.0258994
  band:
  - # 1
    frequency:    0.1496812091
  - # 2
    frequency:    0.7143034581
  - # 3
    frequency:    0.8221672437
  - # 4
    frequency:    3.7885107271
  - # 5
    frequency:    4.0015231954
  - # 6
    frequency:    4.9625891496
  - # 7
    frequency:    6.2577615483
  - # 8
    frequency:    6.3622189284
  - # 9
    frequency:    6.7821412183
  - # 10
    frequency:    6.8543352683
  - # 11
    frequency:    9.4799093921
  - # 12
    frequency:   11.6780239231
  - # 13
    frequency:   12.2330102894
  - # 14
    frequency:   12.6783976968
  - # 15
    frequency:   13.8092963798

- q-position: [    0.0808081,    0.0000000,    0.0000000 ]
  distance:    0.0276260
  band:
  - # 1
    frequency:    0.2048535725
  - # 2
    frequency:    0.7846088157
  - # 3
    frequency:    0.8718777131
  - # 4
    frequency:    3.8024552456
  - # 5
    frequency:    4.0365962215
  - # 6
    frequency:    4.9514795574
  - # 7
    frequency:    6.2413893534
  - # 8
    frequency:    6.3565904623
  - # 9
    frequency:    6.7850948417
  - # 10
    frequency:    6.8655449675
  - # 11
    frequency:    9.4546881150
  - # 12
    frequency:   11.6257764045
  - # 13
    frequency:   12.1922879943
  - # 14
    frequency:   12.6787422299
  - # 15
    frequency:   13.8131329002

- q-position: [    0.0858586,    0.0000000,    0.0000000 ]
  distance:    0.0293527
  band:
  - # 1
    frequency:    0.2604767760
  - # 2
    frequency:    0.8568931122
  - # 3
    frequency:    0.9208682939
  - # 4
    frequency:    3.8171265437
  - # 5
    frequency:    4.0717315907
  - # 6
    frequency:    4.9402589396
  - # 7
    frequency:    6.2246860494
  - # 8
    frequency:    6.3502200124
  - # 9
    frequency:    6.7884167785
  - # 10
    frequency:    6.8771275201
  - # 11
    frequency:    9.4283031579
  - # 12
    frequency:   11.5689754491
  - # 13
    frequency:   12.1523320204
  - # 14
    frequency:   12.6787939396
  - # 15
    frequency:   13.8162098172

- q-position: [    0.0909091,    0.0000000,    0.0000000 ]
  distance:    0.0310793
  band:
  - # 1
    frequency:    0.3176774997
  - # 2
    frequency:    0.9310022886
  - # 3
    frequency:    0.9691751593
  - # 4
    frequency:    3.8324962627
  - # 5
    frequency:    4.1065374368
  - # 6
    frequency:    4.9291238860
  - # 7
    frequency:    6.2077272945
  - # 8
    frequency:    6.3429450371
  - # 9
    frequency:    6.7922023853
  - # 10
    frequency:    6.8890558294
  - # 11
    frequency:    9.4008382441
  - # 12
    frequency:   11.5078607785
  - # 13
    frequency:   12.1131984357
  - # 14
    frequency:   12.6785019148
  - # 15
    frequency:   13.8184818799

- q-position: [    0.0959596,    0.0000000,    0.0000000 ]
  distance:    0.0328059
  band:
  - # 1
    frequency:    0.3768537756
  - # 2
    frequency:    1.0067845053
  - # 3
    frequency:    1.0168474020
  - # 4
    frequency:    3.8485352554
  - # 5
    frequency:    4.1405869373
  - # 6
    frequency:    4.9183102976
  - # 7
    frequency:    6.1905855906
  - # 8
    frequency:    6.3345920212
  - # 9
    frequency:    6.7965513474
  - # 10
    frequency:    6.9013031063
  - # 11
    frequency:    9.3723809853
  - # 12
    frequency:   11.4427708148
  - # 13
    frequency:   12.0748567607
  - # 14
    frequency:   12.6778143821
  - # 15
    frequency:   13.8199130907

- q-position: [    0.1010101,    0.0000000,    0.0000000 ]
  distance:    0.0345325
  band:
  - # 1
    frequency:    0.4381223991
  - # 2
    frequency:    1.0639468692
  - # 3
    frequency:    1.0840891049
  - # 4
    frequency:    3.8652136439
  - # 5
    frequency:    4.1734129435
  - # 6
    frequency:    4.9080977424
  - # 7
    frequency:    6.1733301476
  - # 8
    frequency:    6.3249840296
  - # 9
    frequency:    6.8015618154
  - # 10
    frequency:    6.9138423494
  - # 11
    frequency:    9.3430225862
  - # 12
    frequency:   11.3741172276
  - # 13
    frequency:   12.0372173254
  - # 14
    frequency:   12.6766790054
  - # 15
    frequency:   13.8204753066

- q-position: [    0.1060606,    0.0000000,    0.0000000 ]
  distance:    0.0362592
  band:
  - # 1
    frequency:    0.5014677624
  - # 2
    frequency:    1.1105477277
  - # 3
    frequency:    1.1627653725
  - # 4
    frequency:    3.8825008579
  - # 5
    frequency:    4.2045045974
  - # 6
    frequency:    4.8988113978
  - # 7
    frequency:    6.1560267335
  - # 8
    frequency:    6.3139493595
  - # 9
    frequency:    6.8073240069
  - # 10
    frequency:    6.9266459168
  - # 11
    frequency:    9.3128575188
  - # 12
    frequency:   11.3023592588
  - # 13
    frequency:   12.0001584706
  - # 14
    frequency:   12.6750431812
  - # 15
    frequency:   13.8201470417

- q-position: [    0.1111111,    0.0000000,    0.0000000 ]
  distance:    0.0379858
  band:
  - # 1
    frequency:    0.5668036385
  - # 2
    frequency:    1.1567357342
  - # 3
    frequency:    1.2426611034
  - # 4
    frequency:    3.9003656507
  - # 5
    frequency:    4.2333089343
  - # 6
    frequency:    4.8908186267
  - # 7
    frequency:    6.1387375365
  - # 8
    frequency:    6.3013307671
  - # 9
    frequency:    6.8139138554
  - # 10
    frequency:    6.9396851858
  - # 11
    frequency:    9.2819831721
  - # 12
    frequency:   11.2279822913
  - # 13
    frequency:   11.9635490873
  - # 14
    frequency:   12.6728543266
  - # 15
    frequency:   13.8189124683

- q-position: [    0.1161616,    0.0000000,    0.0000000 ]
  distance:    0.0397124
  band:
  - # 1
    frequency:    0.6340027921
  - # 2
    frequency:    1.2026071969
  - # 3
    frequency:    1.3236209720
  - # 4
    frequency:    3.9187760906
  - # 5
    frequency:    4.2592418566
  - # 6
    frequency:    4.8845158481
  - # 7
    frequency:    6.1215210639
  - # 8
    frequency:    6.2869947014
  - # 9
    frequency:    6.8213873420
  - # 10
    frequency:    6.9529302919
  - # 11
    frequency:    9.2504994892
  - # 12
    frequency:   11.1514824079
  - # 13
    frequency:   11.9272647072
  - # 14
    frequency:   12.6700601598
  - # 15
    frequency:   13.8167606001

- q-position: [    0.1212121,    0.0000000,    0.0000000 ]
  distance:    0.0414391
  band:
  - # 1
    frequency:    0.7029126987
  - # 2
    frequency:    1.2482676236
  - # 3
    frequency:    1.4054846896
  - # 4
    frequency:    3.9376995252
  - # 5
    frequency:    4.2817135459
  - # 6
    frequency:    4.8803006893
  - # 7
    frequency:    6.1044321000
  - # 8
    frequency:    6.2708400517
  - # 9
    frequency:    6.8297760707
  - # 10
    frequency:    6.9663499417
  - # 11
    frequency:    9.2185086100
  - # 12
    frequency:   11.0733566296
  - # 13
    frequency:   11.8911974159
  - # 14
    frequency:   12.6666089697
  - # 15
    frequency:   13.8136846404

- q-position: [    0.1262626,    0.0000000,    0.0000000 ]
  distance:    0.0431657
  band:
  - # 1
    frequency:    0.7733645358
  - # 2
    frequency:    1.2938300629
  - # 3
    frequency:    1.4880849274
  - # 4
    frequency:    3.9571025179
  - # 5
    frequency:    4.3001716947
  - # 6
    frequency:    4.8785261025
  - # 7
    frequency:    6.0875217464
  - # 8
    frequency:    6.2528061148
  - # 9
    frequency:    6.8390844367
  - # 10
    frequency:    6.9799112906
  - # 11
    frequency:    9.1861145477
  - # 12
    frequency:   10.9940975053
  - # 13
    frequency:   11.8552608761
  - # 14
    frequency:   12.6624498743
  - # 15
    frequency:   13.8096814736

- q-position: [    0.1313131,    0.0000000,    0.0000000 ]
  distance:    0.0448923
  band:
  - # 1
    frequency:    0.8451785929
  - # 2
    frequency:    1.3394131613
  - # 3
    frequency:    1.5712449667
  - # 4
    frequency:    3.9769507531
  - # 5
    frequency:    4.3141601010
  - # 6
    frequency:    4.8794390030
  - # 7
    frequency:    6.0708375591
  - # 8
    frequency:    6.2328797362
  - # 9
    frequency:    6.8492884690
  - # 10
    frequency:    6.9935798820
  - # 11
    frequency:    9.1534229316
  - # 12
    frequency:   10.9141905131
  - # 13
    frequency:   11.8193919593
  - # 14
    frequency:   12.6575330668
  - # 15
    frequency:   13.8047512769

- q-position: [    0.1363636,    0.0000000,    0.0000000 ]
  distance:    0.0466189
  band:
  - # 1
    frequency:    0.9181675940
  - # 2
    frequency:    1.3851389700
  - # 3
    frequency:    1.6547760225
  - # 4
    frequency:    3.9972089119
  - # 5
    frequency:    4.3233806093
  - # 6
    frequency:    4.8831156095
  - # 7
    frequency:    6.0544237955
  - # 8
    frequency:    6.2111017869
  - # 9
    frequency:    6.8603361614
  - # 10
    frequency:    7.0073196400
  - # 11
    frequency:    9.1205408589
  - # 12
    frequency:   10.8341129439
  - # 13
    frequency:   11.7835502718
  - # 14
    frequency:   12.6518100472
  - # 15
    frequency:   13.7988972336

- q-position: [    0.1414141,    0.0000000,    0.0000000 ]
  distance:    0.0483456
  band:
  - # 1
    frequency:    0.9921386814
  - # 2
    frequency:    1.4311305531
  - # 3
    frequency:    1.7384741706
  - # 4
    frequency:    4.0178405137
  - # 5
    frequency:    4.3277383849
  - # 6
    frequency:    4.8894137706
  - # 7
    frequency:    6.0383217800
  - # 8
    frequency:    6.1875732255
  - # 9
    frequency:    6.8721489297
  - # 10
    frequency:    7.0210929109
  - # 11
    frequency:    9.0875769031
  - # 12
    frequency:   10.7543332885
  - # 13
    frequency:   11.7477165202
  - # 14
    frequency:   12.6452338410
  - # 15
    frequency:   13.7921253250

- q-position: [    0.1464646,    0.0000000,    0.0000000 ]
  distance:    0.0500722
  band:
  - # 1
    frequency:    1.0668944262
  - # 2
    frequency:    1.4775094580
  - # 3
    frequency:    1.8221167862
  - # 4
    frequency:    4.0388077280
  - # 5
    frequency:    4.3273522325
  - # 6
    frequency:    4.8979610132
  - # 7
    frequency:    6.0225703881
  - # 8
    frequency:    6.1624609070
  - # 9
    frequency:    6.8846237620
  - # 10
    frequency:    7.0348605504
  - # 11
    frequency:    9.0546413226
  - # 12
    frequency:   10.6753104809
  - # 13
    frequency:   11.7118903367
  - # 14
    frequency:   12.6377592025
  - # 15
    frequency:   13.7844441856

- q-position: [    0.1515152,    0.0000000,    0.0000000 ]
  distance:    0.0517988
  band:
  - # 1
    frequency:    1.1422330292
  - # 2
    frequency:    1.5243931228
  - # 3
    frequency:    1.9054583798
  - # 4
    frequency:    4.0600711551
  - # 5
    frequency:    4.3225256887
  - # 6
    frequency:    4.9081833073
  - # 7
    frequency:    6.0072066471
  - # 8
    frequency:    6.1360030170
  - # 9
    frequency:    6.8976356677
  - # 10
    frequency:    7.0485820500
  - # 11
    frequency:    9.0218465062
  - # 12
    frequency:   10.5974926150
  - # 13
    frequency:   11.6760879430
  - # 14
    frequency:   12.6293428039
  - # 15
    frequency:   13.7758650039

- q-position: [    0.1565657,    0.0000000,    0.0000000 ]
  distance:    0.0535255
  band:
  - # 1
    frequency:    1.2179477399
  - # 2
    frequency:    1.5718922986
  - # 3
    frequency:    1.9882257030
  - # 4
    frequency:    4.0815895792
  - # 5
    frequency:    4.3136921520
  - # 6
    frequency:    4.9193623963
  - # 7
    frequency:    5.9922664448
  - # 8
    frequency:    6.1085135475
  - # 9
    frequency:    6.9110401377
  - # 10
    frequency:    7.0622156991
  - # 11
    frequency:    8.9893076688
  - # 12
    frequency:   10.5213149500
  - # 13
    frequency:   11.6403398622
  - # 14
    frequency:   12.6199434098
  - # 15
    frequency:   13.7664014541

- q-position: [    0.1616162,    0.0000000,    0.0000000 ]
  distance:    0.0552521
  band:
  - # 1
    frequency:    1.2938254153
  - # 2
    frequency:    1.6201085700
  - # 3
    frequency:    2.0701119910
  - # 4
    frequency:    4.1033196994
  - # 5
    frequency:    4.3013558805
  - # 6
    frequency:    4.9307015087
  - # 7
    frequency:    5.9777853318
  - # 8
    frequency:    6.0803846037
  - # 9
    frequency:    6.9246754660
  - # 10
    frequency:    7.0757187786
  - # 11
    frequency:    8.9571437707
  - # 12
    frequency:   10.4471971636
  - # 13
    frequency:   11.6046887845
  - # 14
    frequency:   12.6095220380
  - # 15
    frequency:   13.7560696480

- q-position: [    0.1666667,    0.0000000,    0.0000000 ]
  distance:    0.0569787
  band:
  - # 1
    frequency:    1.3696440439
  - # 2
    frequency:    1.6691320540
  - # 3
    frequency:    2.1507702422
  - # 4
    frequency:    4.1252158440
  - # 5
    frequency:    4.2860466877
  - # 6
    frequency:    4.9413838853
  - # 7
    frequency:    5.9637993994
  - # 8
    frequency:    6.0520846147
  - # 9
    frequency:    6.9383649183
  - # 10
    frequency:    7.0890477802
  - # 11
    frequency:    8.9254785787
  - # 12
    frequency:   10.3755399254
  - # 13
    frequency:   11.5691876312
  - # 14
    frequency:   12.5980421067
  - # 15
    frequency:   13.7448880951

- q-position: [    0.1717172,    0.0000000,    0.0000000 ]
  distance:    0.0587053
  band:
  - # 1
    frequency:    1.4451689325
  - # 2
    frequency:    1.7190393499
  - # 3
    frequency:    2.2298055401
  - # 4
    frequency:    4.1472296788
  - # 5
    frequency:    4.2682961287
  - # 6
    frequency:    4.9506191468
  - # 7
    frequency:    5.9503462081
  - # 8
    frequency:    6.0241498591
  - # 9
    frequency:    6.9519188489
  - # 10
    frequency:    7.1021586483
  - # 11
    frequency:    8.8944417135
  - # 12
    frequency:   10.3067209546
  - # 13
    frequency:   11.5338978307
  - # 14
    frequency:   12.5854695688
  - # 15
    frequency:   13.7328776632

- q-position: [    0.1767677,    0.0000000,    0.0000000 ]
  distance:    0.0604320
  band:
  - # 1
    frequency:    1.5201470964
  - # 2
    frequency:    1.7698918036
  - # 3
    frequency:    2.3067666739
  - # 4
    frequency:    4.1693099224
  - # 5
    frequency:    4.2486345789
  - # 6
    frequency:    4.9576810422
  - # 7
    frequency:    5.9374657399
  - # 8
    frequency:    5.9971664263
  - # 9
    frequency:    6.9651369517
  - # 10
    frequency:    7.1150070373
  - # 11
    frequency:    8.8641694440
  - # 12
    frequency:   10.2410908013
  - # 13
    frequency:   11.4988878003
  - # 14
    frequency:   12.5717730361
  - # 15
    frequency:   13.7200615322

- q-position: [    0.1818182,    0.0000000,    0.0000000 ]
  distance:    0.0621586
  band:
  - # 1
    frequency:    1.5942991588
  - # 2
    frequency:    1.8217341332
  - # 3
    frequency:    2.3811378278
  - # 4
    frequency:    4.1914020854
  - # 5
    frequency:    4.2276046561
  - # 6
    frequency:    4.9619431605
  - # 7
    frequency:    5.9252013401
  - # 8
    frequency:    5.9717403189
  - # 9
    frequency:    6.9778108854
  - # 10
    frequency:    7.1275485808
  - # 11
    frequency:    8.8348049114
  - # 12
    frequency:   10.1789686506
  - # 13
    frequency:   11.4642316276
  - # 14
    frequency:   12.5569238918
  - # 15
    frequency:   13.7064651357

- q-position: [    0.1868687,    0.0000000,    0.0000000 ]
  distance:    0.0638852
  band:
  - # 1
    frequency:    1.6673077298
  - # 2
    frequency:    1.8745934482
  - # 3
    frequency:    2.4523320977
  - # 4
    frequency:    4.2057856303
  - # 5
    frequency:    4.2134482549
  - # 6
    frequency:    4.9629173078
  - # 7
    frequency:    5.9136006104
  - # 8
    frequency:    5.9484554427
  - # 9
    frequency:    6.9897275336
  - # 10
    frequency:    7.1397391662
  - # 11
    frequency:    8.8064974064
  - # 12
    frequency:   10.1206384798
  - # 13
    frequency:   11.4300079412
  - # 14
    frequency:   12.5408963946
  - # 15
    frequency:   13.6921160869

- q-position: [    0.1919192,    0.0000000,    0.0000000 ]
  distance:    0.0656118
  band:
  - # 1
    frequency:    1.7388007498
  - # 2
    frequency:    1.9284786762
  - # 3
    frequency:    2.5196903307
  - # 4
    frequency:    4.1838234857
  - # 5
    frequency:    4.2353869520
  - # 6
    frequency:    4.9602943038
  - # 7
    frequency:    5.9027162119
  - # 8
    frequency:    5.9278229228
  - # 9
    frequency:    7.0006731415
  - # 10
    frequency:    7.1515352099
  - # 11
    frequency:    8.7794003169
  - # 12
    frequency:   10.0663458923
  - # 13
    frequency:   11.3962989643
  - # 14
    frequency:   12.5236677761
  - # 15
    frequency:   13.6770440849

- q-position: [    0.1969697,    0.0000000,    0.0000000 ]
  distance:    0.0673385
  band:
  - # 1
    frequency:    1.8083276125
  - # 2
    frequency:    1.9833803938
  - # 3
    frequency:    2.5824916105
  - # 4
    frequency:    4.1624604519
  - # 5
    frequency:    4.2571530952
  - # 6
    frequency:    4.9539811491
  - # 7
    frequency:    5.8926065298
  - # 8
    frequency:    5.9102297239
  - # 9
    frequency:    7.0104385061
  - # 10
    frequency:    7.1628939270
  - # 11
    frequency:    8.7536674286
  - # 12
    frequency:   10.0162959038
  - # 13
    frequency:   11.3631897505
  - # 14
    frequency:   12.5052183311
  - # 15
    frequency:   13.6612808022

- q-position: [    0.2020202,    0.0000000,    0.0000000 ]
  distance:    0.0690651
  band:
  - # 1
    frequency:    1.8753250435
  - # 2
    frequency:    2.0392710438
  - # 3
    frequency:    2.6399857505
  - # 4
    frequency:    4.1425553974
  - # 5
    frequency:    4.2786781061
  - # 6
    frequency:    4.9441245720
  - # 7
    frequency:    5.8833361488
  - # 8
    frequency:    5.8958977766
  - # 9
    frequency:    7.0188252840
  - # 10
    frequency:    7.1737735913
  - # 11
    frequency:    8.7294474170
  - # 12
    frequency:    9.9706518494
  - # 13
    frequency:   11.3307676022
  - # 14
    frequency:   12.4855315045
  - # 15
    frequency:   13.6448597498

- q-position: [    0.2070707,    0.0000000,    0.0000000 ]
  distance:    0.0707917
  band:
  - # 1
    frequency:    1.9390689400
  - # 2
    frequency:    2.0961055070
  - # 3
    frequency:    2.6914626950
  - # 4
    frequency:    4.1250828731
  - # 5
    frequency:    4.2998902040
  - # 6
    frequency:    4.9311114826
  - # 7
    frequency:    5.8749760842
  - # 8
    frequency:    5.8848641745
  - # 9
    frequency:    7.0256533096
  - # 10
    frequency:    7.1841337792
  - # 11
    frequency:    8.7068766229
  - # 12
    frequency:    9.9295354390
  - # 13
    frequency:   11.2991216785
  - # 14
    frequency:   12.4645939746
  - # 15
    frequency:   13.6278161238

- q-position: [    0.2121212,    0.0000000,    0.0000000 ]
  distance:    0.0725184
  band:
  - # 1
    frequency:    1.9986085278