nqpoint: 300    
npath: 3      
segment_nqpoint:
- 100
- 100
- 100
labels:
- [ 'G', 'M' ]
- [ 'M', 'K' ]
- [ 'K', 'G' ]
reciprocal_lattice:
- [   0.29607004,   0.17093612,   0.00000000 ] # a*
- [   0.00000000,   0.34187224,   0.00000000 ] # b*
- [   0.00000000,   0.00000000,   0.04278861 ] # c*
natom: 5      
lattice:
- [     3.377579137446332,     0.000000000000000,     0.000000000000000 ] # a
- [    -1.688789568723166,     2.925069336317364,     0.000000000000000 ] # b
- [     0.000000000000000,     0.000000000000000,    23.370702946941400 ] # c
points:
- symbol: Br # 1
  coordinates: [  0.666666984744047,  0.333332985985145,  0.385097530888683 ]
  mass: 79.904000
- symbol: F # 2
  coordinates: [  0.333332985432215,  0.666666983183674,  0.614902469111317 ]
  mass: 18.998403
- symbol: N # 3
  coordinates: [  0.000000000000000,  0.000000000000000,  0.517037937377138 ]
  mass: 14.006700
- symbol: Sc # 4
  coordinates: [  0.333332985432215,  0.666666983183674,  0.464897879008101 ]
  mass: 44.955912
- symbol: Sc # 5
  coordinates: [  0.666666984744047,  0.333332985985145,  0.566631238747280 ]
  mass: 44.955912

phonon:
- q-position: [    0.0000000,    0.0000000,    0.0000000 ]
  distance:    0.0000000
  band:
  - # 1
    frequency:   -0.0000014727
  - # 2
    frequency:   -0.0000001006
  - # 3
    frequency:    0.0000015443
  - # 4
    frequency:    3.1658942701
  - # 5
    frequency:    3.1658942701
  - # 6
    frequency:    5.1335486102
  - # 7
    frequency:    5.9866893780
  - # 8
    frequency:    5.9866893780
  - # 9
    frequency:    6.2407884286
  - # 10
    frequency:    6.2407884286
  - # 11
    frequency:    9.8100795612
  - # 12
    frequency:   12.4089178239
  - # 13
    frequency:   12.5054956746
  - # 14
    frequency:   12.5054956746
  - # 15
    frequency:   14.4639855777

- q-position: [    0.0050505,    0.0000000,    0.0000000 ]
  distance:    0.0017266
  band:
  - # 1
    frequency:   -0.0384035243
  - # 2
    frequency:    0.0733717341
  - # 3
    frequency:    0.1233345881
  - # 4
    frequency:    3.1664563375
  - # 5
    frequency:    3.1678068817
  - # 6
    frequency:    5.1327069514
  - # 7
    frequency:    5.9867322358
  - # 8
    frequency:    5.9875890650
  - # 9
    frequency:    6.2416847480
  - # 10
    frequency:    6.2418633914
  - # 11
    frequency:    9.8088927513
  - # 12
    frequency:   12.4042490523
  - # 13
    frequency:   12.5052825631
  - # 14
    frequency:   12.5070485201
  - # 15
    frequency:   14.4626920064

- q-position: [    0.0101010,    0.0000000,    0.0000000 ]
  distance:    0.0034533
  band:
  - # 1
    frequency:   -0.0712958933
  - # 2
    frequency:    0.1467023844
  - # 3
    frequency:    0.2450053391
  - # 4
    frequency:    3.1681417035
  - # 5
    frequency:    3.1735262224
  - # 6
    frequency:    5.1301932436
  - # 7
    frequency:    5.9868660157
  - # 8
    frequency:    5.9902815042
  - # 9
    frequency:    6.2443587249
  - # 10
    frequency:    6.2450758234
  - # 11
    frequency:    9.8053372734
  - # 12
    frequency:   12.3911668248
  - # 13
    frequency:   12.5046442719
  - # 14
    frequency:   12.5107845452
  - # 15
    frequency:   14.4588215719

- q-position: [    0.0151515,    0.0000000,    0.0000000 ]
  distance:    0.0051799
  band:
  - # 1
    frequency:   -0.1041154001
  - # 2
    frequency:    0.2199505719
  - # 3
    frequency:    0.3666824977
  - # 4
    frequency:    3.1709478821
  - # 5
    frequency:    3.1829975469
  - # 6
    frequency:    5.1260408310
  - # 7
    frequency:    5.9871056502
  - # 8
    frequency:    5.9947466077
  - # 9
    frequency:    6.2487661720
  - # 10
    frequency:    6.2503891467
  - # 11
    frequency:    9.7994279649
  - # 12
    frequency:   12.3714156948
  - # 13
    frequency:   12.5035839092
  - # 14
    frequency:   12.5149641560
  - # 15
    frequency:   14.4524049113

- q-position: [    0.0202020,    0.0000000,    0.0000000 ]
  distance:    0.0069065
  band:
  - # 1
    frequency:   -0.1355680683
  - # 2
    frequency:    0.2930743382
  - # 3
    frequency:    0.4879651406
  - # 4
    frequency:    3.1748708028
  - # 5
    frequency:    3.1961319939
  - # 6
    frequency:    5.1203037934
  - # 7
    frequency:    5.9874739138
  - # 8
    frequency:    6.0009502032
  - # 9
    frequency:    6.2548358699
  - # 10
    frequency:    6.2577448540
  - # 11
    frequency:    9.7911894979
  - # 12
    frequency:   12.3463421903
  - # 13
    frequency:   12.5021065860
  - # 14
    frequency:   12.5182498649
  - # 15
    frequency:   14.4434924179

- q-position: [    0.0252525,    0.0000000,    0.0000000 ]
  distance:    0.0086331
  band:
  - # 1
    frequency:   -0.1649324252
  - # 2
    frequency:    0.3660308831
  - # 3
    frequency:    0.6086470787
  - # 4
    frequency:    3.1799049137
  - # 5
    frequency:    3.2128099066
  - # 6
    frequency:    5.1130548547
  - # 7
    frequency:    5.9879987991
  - # 8
    frequency:    6.0088431499
  - # 9
    frequency:    6.2624728981
  - # 10
    frequency:    6.2670656364
  - # 11
    frequency:    9.7806562984
  - # 12
    frequency:   12.3167295372
  - # 13
    frequency:   12.5002193138
  - # 14
    frequency:   12.5198727088
  - # 15
    frequency:   14.4321532473

- q-position: [    0.0303030,    0.0000000,    0.0000000 ]
  distance:    0.0103598
  band:
  - # 1
    frequency:   -0.1915855171
  - # 2
    frequency:    0.4387763336
  - # 3
    frequency:    0.7285585894
  - # 4
    frequency:    3.1860433152
  - # 5
    frequency:    3.2328850227
  - # 6
    frequency:    5.1043827278
  - # 7
    frequency:    5.9887107124
  - # 8
    frequency:    6.0183603608
  - # 9
    frequency:    6.2715627582
  - # 10
    frequency:    6.2782588733
  - # 11
    frequency:    9.7678724408
  - # 12
    frequency:   12.2830062871
  - # 13
    frequency:   12.4979308676
  - # 14
    frequency:   12.5194251839
  - # 15
    frequency:   14.4184739443

- q-position: [    0.0353535,    0.0000000,    0.0000000 ]
  distance:    0.0120864
  band:
  - # 1
    frequency:   -0.2149141688
  - # 2
    frequency:    0.5112655548
  - # 3
    frequency:    0.8475434325
  - # 4
    frequency:    3.1932779128
  - # 5
    frequency:    3.2561891689
  - # 6
    frequency:    5.0943891215
  - # 7
    frequency:    5.9896399693
  - # 8
    frequency:    6.0294198900
  - # 9
    frequency:    6.2819758991
  - # 10
    frequency:    6.2912199822
  - # 11
    frequency:    9.7528915250
  - # 12
    frequency:   12.2454172013
  - # 13
    frequency:   12.4952516172
  - # 14
    frequency:   12.5166923049
  - # 15
    frequency:   14.4025567128

- q-position: [    0.0404040,    0.0000000,    0.0000000 ]
  distance:    0.0138130
  band:
  - # 1
    frequency:   -0.2342752810
  - # 2
    frequency:    0.5834520118
  - # 3
    frequency:    0.9654535479
  - # 4
    frequency:    3.2015995782
  - # 5
    frequency:    3.2825370908
  - # 6
    frequency:    5.0831856352
  - # 7
    frequency:    5.9908148789
  - # 8
    frequency:    6.0419221953
  - # 9
    frequency:    6.2935722985
  - # 10
    frequency:    6.3058353171
  - # 11
    frequency:    9.7357765434
  - # 12
    frequency:   12.2041182326
  - # 13
    frequency:   12.4921933350
  - # 14
    frequency:   12.5115588952
  - # 15
    frequency:   14.3845173613

- q-position: [    0.0454545,    0.0000000,    0.0000000 ]
  distance:    0.0155396
  band:
  - # 1
    frequency:   -0.2489568439
  - # 2
    frequency:    0.6552876902
  - # 3
    frequency:    1.0821477056
  - # 4
    frequency:    3.2109983055
  - # 5
    frequency:    3.3117310969
  - # 6
    frequency:    5.0708907475
  - # 7
    frequency:    5.9922605068
  - # 8
    frequency:    6.0557496108
  - # 9
    frequency:    6.3062058553
  - # 10
    frequency:    6.3219844976
  - # 11
    frequency:    9.7165997427
  - # 12
    frequency:   12.1592257903
  - # 13
    frequency:   12.4887689849
  - # 14
    frequency:   12.5039628565
  - # 15
    frequency:   14.3644829670

- q-position: [    0.0505051,    0.0000000,    0.0000000 ]
  distance:    0.0172663
  band:
  - # 1
    frequency:   -0.2581212834
  - # 2
    frequency:    0.7267230814
  - # 3
    frequency:    1.1974913090
  - # 4
    frequency:    3.2214633494
  - # 5
    frequency:    3.3435652649
  - # 6
    frequency:    5.0576270604
  - # 7
    frequency:    5.9939980484
  - # 8
    frequency:    6.0707659898
  - # 9
    frequency:    6.3197284621
  - # 10
    frequency:    6.3395422065
  - # 11
    frequency:    9.6954424875
  - # 12
    frequency:   12.1108425449
  - # 13
    frequency:   12.4849925016
  - # 14
    frequency:   12.4938720780
  - # 15
    frequency:   14.3425893209

- q-position: [    0.0555556,    0.0000000,    0.0000000 ]
  distance:    0.0189929
  band:
  - # 1
    frequency:   -0.2607087121
  - # 2
    frequency:    0.7977072398
  - # 3
    frequency:    1.3113565732
  - # 4
    frequency:    3.2329833334
  - # 5
    frequency:    3.3778290436
  - # 6
    frequency:    5.0435189115
  - # 7
    frequency:    5.9960446672
  - # 8
    frequency:    6.0868164187
  - # 9
    frequency:    6.3339937392
  - # 10
    frequency:    6.3583795689
  - # 11
    frequency:    9.6723951228
  - # 12
    frequency:   12.0590713122
  - # 13
    frequency:   12.4808785671
  - # 14
    frequency:   12.4812733510
  - # 15
    frequency:   14.3189782260

- q-position: [    0.0606061,    0.0000000,    0.0000000 ]
  distance:    0.0207195
  band:
  - # 1
    frequency:   -0.2552511438
  - # 2
    frequency:    0.8681879123
  - # 3
    frequency:    1.4236228072
  - # 4
    frequency:    3.2455463176
  - # 5
    frequency:    3.4143101685
  - # 6
    frequency:    5.0286904118
  - # 7
    frequency:    5.9984136318
  - # 8
    frequency:    6.1037268691
  - # 9
    frequency:    6.3488605036
  - # 10
    frequency:    6.3783652503
  - # 11
    frequency:    9.6475568365
  - # 12
    frequency:   12.0040226680
  - # 13
    frequency:   12.4661675250
  - # 14
    frequency:   12.4764423926
  - # 15
    frequency:   14.2937947413

- q-position: [    0.0656566,    0.0000000,    0.0000000 ]
  distance:    0.0224462
  band:
  - # 1
    frequency:   -0.2394611134
  - # 2
    frequency:    0.9381117436
  - # 3
    frequency:    1.5341766836
  - # 4
    frequency:    3.2591398175
  - # 5
    frequency:    3.4527968777
  - # 6
    frequency:    5.0132639265
  - # 7
    frequency:    6.0011146010
  - # 8
    frequency:    6.1213036453
  - # 9
    frequency:    6.3641960992
  - # 10
    frequency:    6.3993663904
  - # 11
    frequency:    9.6210355088
  - # 12
    frequency:   11.9458191126
  - # 13
    frequency:   12.4485679679
  - # 14
    frequency:   12.4716995128
  - # 15
    frequency:   14.2671844737

- q-position: [    0.0707071,    0.0000000,    0.0000000 ]
  distance:    0.0241728
  band:
  - # 1
    frequency:   -0.2091030503
  - # 2
    frequency:    1.0074245552
  - # 3
    frequency:    1.6429124338
  - # 4
    frequency:    3.2737507676
  - # 5
    frequency:    3.4930794694
  - # 6
    frequency:    4.9973589775
  - # 7
    frequency:    6.0041539442
  - # 8
    frequency:    6.1393325084
  - # 9
    frequency:    6.3798797318
  - # 10
    frequency:    6.4212494621
  - # 11
    frequency:    9.5929475363
  - # 12
    frequency:   11.8845972457
  - # 13
    frequency:   12.4285007422
  - # 14
    frequency:   12.4666655995
  - # 15
    frequency:   14.2392910318

- q-position: [    0.0757576,    0.0000000,    0.0000000 ]
  distance:    0.0258994
  band:
  - # 1
    frequency:   -0.1533803950
  - # 2
    frequency:    1.0760716931
  - # 3
    frequency:    1.7497319271
  - # 4
    frequency:    3.2893654269
  - # 5
    frequency:    3.5349512802
  - # 6
    frequency:    4.9810915263
  - # 7
    frequency:    6.0075350175
  - # 8
    frequency:    6.1575774247
  - # 9
    frequency:    6.3958059152
  - # 10
    frequency:    6.4438811064
  - # 11
    frequency:    9.5634176053
  - # 12
    frequency:   11.8205087504
  - # 13
    frequency:   12.4060055778
  - # 14
    frequency:   12.4613563007
  - # 15
    frequency:   14.2102537534

- q-position: [    0.0808081,    0.0000000,    0.0000000 ]
  distance:    0.0276260
  band:
  - # 1
    frequency:    0.0631421795
  - # 2
    frequency:    1.1439984387
  - # 3
    frequency:    1.8545446003
  - # 4
    frequency:    3.3059692262
  - # 5
    frequency:    3.5782091789
  - # 6
    frequency:    4.9645735844
  - # 7
    frequency:    6.0112583507
  - # 8
    frequency:    6.1757790026
  - # 9
    frequency:    6.4118880342
  - # 10
    frequency:    6.4671289731
  - # 11
    frequency:    9.5325783867
  - # 12
    frequency:   11.7537206437
  - # 13
    frequency:   12.3811370725
  - # 14
    frequency:   12.4557871075
  - # 15
    frequency:   14.1802058172

- q-position: [    0.0858586,    0.0000000,    0.0000000 ]
  distance:    0.0293527
  band:
  - # 1
    frequency:    0.1987438502
  - # 2
    frequency:    1.2111504729
  - # 3
    frequency:    1.9572672075
  - # 4
    frequency:    3.3235465611
  - # 5
    frequency:    3.6226536833
  - # 6
    frequency:    4.9479130911
  - # 7
    frequency:    6.0153217217
  - # 8
    frequency:    6.1936528777
  - # 9
    frequency:    6.4280618465
  - # 10
    frequency:    6.4908625733
  - # 11
    frequency:    9.5005701098
  - # 12
    frequency:   11.6844150695
  - # 13
    frequency:   12.3539657539
  - # 14
    frequency:   12.4499732534
  - # 15
    frequency:   14.1492728286

- q-position: [    0.0909091,    0.0000000,    0.0000000 ]
  distance:    0.0310793
  band:
  - # 1
    frequency:    0.2892156017
  - # 2
    frequency:    1.2774743796
  - # 3
    frequency:    2.0578233608
  - # 4
    frequency:    3.3420805358
  - # 5
    frequency:    3.6680887982
  - # 6
    frequency:    4.9312140037
  - # 7
    frequency:    6.0197201163
  - # 8
    frequency:    6.2108885898
  - # 9
    frequency:    6.4442884701
  - # 10
    frequency:    6.5149541405
  - # 11
    frequency:    9.4675399724
  - # 12
    frequency:   11.6127888090
  - # 13
    frequency:   12.3245787689
  - # 14
    frequency:   12.4439296454
  - # 15
    frequency:   14.1175719469

- q-position: [    0.0959596,    0.0000000,    0.0000000 ]
  distance:    0.0328059
  band:
  - # 1
    frequency:    0.3701447567
  - # 2
    frequency:    1.3429181762
  - # 3
    frequency:    2.1561428335
  - # 4
    frequency:    3.3615526676
  - # 5
    frequency:    3.7143216690
  - # 6
    frequency:    4.9145765468
  - # 7
    frequency:    6.0244455794
  - # 8
    frequency:    6.2271498383
  - # 9
    frequency:    6.4605560587
  - # 10
    frequency:    6.5392794915
  - # 11
    frequency:    9.4336413324
  - # 12
    frequency:   11.5390526263
  - # 13
    frequency:   12.2930800610
  - # 14
    frequency:   12.4376708262
  - # 15
    frequency:   14.0852115883

- q-position: [    0.1010101,    0.0000000,    0.0000000 ]
  distance:    0.0345325
  band:
  - # 1
    frequency:    0.4473340272
  - # 2
    frequency:    1.4074318515
  - # 3
    frequency:    2.2521605977
  - # 4
    frequency:    3.3819425642
  - # 5
    frequency:    3.7611621297
  - # 6
    frequency:    4.8980975758
  - # 7
    frequency:    6.0294869736
  - # 8
    frequency:    6.2420773146
  - # 9
    frequency:    6.4768790591
  - # 10
    frequency:    6.5637188753
  - # 11
    frequency:    9.3990326234
  - # 12
    frequency:   11.4634305332
  - # 13
    frequency:   12.2595899727
  - # 14
    frequency:   12.4312109633
  - # 15
    frequency:   14.0522917011

- q-position: [    0.1060606,    0.0000000,    0.0000000 ]
  distance:    0.0362592
  band:
  - # 1
    frequency:    0.5228895312
  - # 2
    frequency:    1.4709678945
  - # 3
    frequency:    2.3458155698
  - # 4
    frequency:    3.4032275864
  - # 5
    frequency:    3.8084222109
  - # 6
    frequency:    4.8818710127
  - # 7
    frequency:    6.0348296683
  - # 8
    frequency:    6.2552953639
  - # 9
    frequency:    6.4932938869
  - # 10
    frequency:    6.5881577991
  - # 11
    frequency:    9.3638759388
  - # 12
    frequency:   11.3861590346
  - # 13
    frequency:   12.2242442723
  - # 14
    frequency:   12.4245638603
  - # 15
    frequency:   14.0189045717

- q-position: [    0.1111111,    0.0000000,    0.0000000 ]
  distance:    0.0379858
  band:
  - # 1
    frequency:    0.5977715214
  - # 2
    frequency:    1.5334817953
  - # 3
    frequency:    2.4370490366
  - # 4
    frequency:    3.4253825130
  - # 5
    frequency:    3.8559156598
  - # 6
    frequency:    4.8659883204
  - # 7
    frequency:    6.0404551821
  - # 8
    frequency:    6.2664232497
  - # 9
    frequency:    6.5098503345
  - # 10
    frequency:    6.6124878231
  - # 11
    frequency:    9.3283352300
  - # 12
    frequency:   11.3074864061
  - # 13
    frequency:   12.1871926534
  - # 14
    frequency:   12.4177429834
  - # 15
    frequency:   13.9851360840

- q-position: [    0.1161616,    0.0000000,    0.0000000 ]
  distance:    0.0397124
  band:
  - # 1
    frequency:    0.6724622573
  - # 2
    frequency:    1.5949324998
  - # 3
    frequency:    2.5258027368
  - # 4
    frequency:    3.4483792226
  - # 5
    frequency:    3.9034575089
  - # 6
    frequency:    4.8505389831
  - # 7
    frequency:    6.0463408083
  - # 8
    frequency:    6.2750906172
  - # 9
    frequency:    6.5265991923
  - # 10
    frequency:    6.6366073159
  - # 11
    frequency:    9.2925740782
  - # 12
    frequency:   11.2276720450
  - # 13
    frequency:   12.1485967946
  - # 14
    frequency:   12.4107614939
  - # 15
    frequency:   13.9510673272

- q-position: [    0.1212121,    0.0000000,    0.0000000 ]
  distance:    0.0414391
  band:
  - # 1
    frequency:    0.7472092709
  - # 2
    frequency:    1.6552828016
  - # 3
    frequency:    2.6120165723
  - # 4
    frequency:    3.4721864100
  - # 5
    frequency:    3.9508637235
  - # 6
    frequency:    4.8356109634
  - # 7
    frequency:    6.0524592510
  - # 8
    frequency:    6.2809551557
  - # 9
    frequency:    6.5435781506
  - # 10
    frequency:    6.6604221634
  - # 11
    frequency:    9.2567530223
  - # 12
    frequency:   11.1469859273
  - # 13
    frequency:   12.1086280909
  - # 14
    frequency:   12.4036322771
  - # 15
    frequency:   13.9167764247

- q-position: [    0.1262626,    0.0000000,    0.0000000 ]
  distance:    0.0431657
  band:
  - # 1
    frequency:    0.8221320981
  - # 2
    frequency:    1.7144996588
  - # 3
    frequency:    2.6956259231
  - # 4
    frequency:    3.4967693517
  - # 5
    frequency:    3.9979509445
  - # 6
    frequency:    4.8212911075
  - # 7
    frequency:    6.0587783051
  - # 8
    frequency:    6.2837192724
  - # 9
    frequency:    6.5607992163
  - # 10
    frequency:    6.6838464263
  - # 11
    frequency:    9.2210264532
  - # 12
    frequency:   11.0657081976
  - # 13
    frequency:   12.0674651799
  - # 14
    frequency:   12.3963679577
  - # 15
    frequency:   13.8823404510

- q-position: [    0.1313131,    0.0000000,    0.0000000 ]
  distance:    0.0448923
  band:
  - # 1
    frequency:    0.8972751953
  - # 2
    frequency:    1.7725544261
  - # 3
    frequency:    2.7765585408
  - # 4
    frequency:    3.5220897354
  - # 5
    frequency:    4.0445363413
  - # 6
    frequency:    4.8076654693
  - # 7
    frequency:    6.0652606094
  - # 8
    frequency:    6.2831427115
  - # 9
    frequency:    6.5782407352
  - # 10
    frequency:    6.7068029374
  - # 11
    frequency:    9.1855391332
  - # 12
    frequency:   10.9841289039
  - # 13
    frequency:   12.0252913864
  - # 14
    frequency:   12.3889808904
  - # 15
    frequency:   13.8478373009

- q-position: [    0.1363636,    0.0000000,    0.0000000 ]
  distance:    0.0466189
  band:
  - # 1
    frequency:    0.9726365641
  - # 2
    frequency:    1.8294229961
  - # 3
    frequency:    2.8547309921
  - # 4
    frequency:    3.5481055655
  - # 5
    frequency:    4.0904375843
  - # 6
    frequency:    4.7948195255
  - # 7
    frequency:    6.0718635046
  - # 8
    frequency:    6.2790496508
  - # 9
    frequency:    6.5958454780
  - # 10
    frequency:    6.7292238321
  - # 11
    frequency:    9.1504224526
  - # 12
    frequency:   10.9025478746
  - # 13
    frequency:   11.9822921984
  - # 14
    frequency:   12.3814831162
  - # 15
    frequency:   13.8133473860

- q-position: [    0.1414141,    0.0000000,    0.0000000 ]
  distance:    0.0483456
  band:
  - # 1
    frequency:    1.0481842864
  - # 2
    frequency:    1.8850858535
  - # 3
    frequency:    2.9300446282
  - # 4
    frequency:    3.5747711547
  - # 5
    frequency:    4.1354729428
  - # 6
    frequency:    4.7828382579
  - # 7
    frequency:    6.0785390283
  - # 8
    frequency:    6.2713309763
  - # 9
    frequency:    6.6135240421
  - # 10
    frequency:    6.7510509976
  - # 11
    frequency:    9.1157905988
  - # 12
    frequency:   10.8212747110
  - # 13
    frequency:   11.9386528711
  - # 14
    frequency:   12.3738862763
  - # 15
    frequency:   13.7789550529

- q-position: [    0.1464646,    0.0000000,    0.0000000 ]
  distance:    0.0500722
  band:
  - # 1
    frequency:    1.1238665799
  - # 2
    frequency:    1.9395280447
  - # 3
    frequency:    3.0023810577
  - # 4
    frequency:    3.6020372075
  - # 5
    frequency:    4.1794615068
  - # 6
    frequency:    4.7718060928
  - # 7
    frequency:    6.0852340728
  - # 8
    frequency:    6.2599439181
  - # 9
    frequency:    6.6311612989
  - # 10
    frequency:    6.7722364296
  - # 11
    frequency:    9.0817368864
  - # 12
    frequency:   10.7406288349
  - # 13
    frequency:   11.8945562333
  - # 14
    frequency:   12.3662014746
  - # 15
    frequency:   13.7447496340

- q-position: [    0.1515152,    0.0000000,    0.0000000 ]
  distance:    0.0517988
  band:
  - # 1
    frequency:    1.1996181690
  - # 2
    frequency:    1.9927390771
  - # 3
    frequency:    3.0715971132
  - # 4
    frequency:    3.6298510022
  - # 5
    frequency:    4.2222235052
  - # 6
    frequency:    4.7618067229
  - # 7
    frequency:    6.0918907359
  - # 8
    frequency:    6.2449114248
  - # 9
    frequency:    6.6486233740
  - # 10
    frequency:    6.7927424745
  - # 11
    frequency:    9.0483305618
  - # 12
    frequency:   10.6609394906
  - # 13
    frequency:   11.8501807485
  - # 14
    frequency:   12.3584390852
  - # 15
    frequency:   13.7108260719

- q-position: [    0.1565657,    0.0000000,    0.0000000 ]
  distance:    0.0535255
  band:
  - # 1
    frequency:    1.2753644535
  - # 2
    frequency:    2.0447127606
  - # 3
    frequency:    3.1375193278
  - # 4
    frequency:    3.6581566704
  - # 5
    frequency:    4.2635806382
  - # 6
    frequency:    4.7529229164
  - # 7
    frequency:    6.0984468836
  - # 8
    frequency:    6.2263228783
  - # 9
    frequency:    6.6657633851
  - # 10
    frequency:    6.8125419372
  - # 11
    frequency:    9.0156144559
  - # 12
    frequency:   10.5825455454
  - # 13
    frequency:   11.8056988602
  - # 14
    frequency:   12.3506085030
  - # 15
    frequency:   13.6772850778

- q-position: [    0.1616162,    0.0000000,    0.0000000 ]
  distance:    0.0552521
  band:
  - # 1
    frequency:    1.3510242950
  - # 2
    frequency:    2.0954470117
  - # 3
    frequency:    3.1999379820
  - # 4
    frequency:    3.6868955747
  - # 5
    frequency:    4.3033562117
  - # 6
    frequency:    4.7452365723
  - # 7
    frequency:    6.1048369456
  - # 8
    frequency:    6.2043366735
  - # 9
    frequency:    6.6824251766
  - # 10
    frequency:    6.8316180293
  - # 11
    frequency:    8.9836038980
  - # 12
    frequency:   10.5057948748
  - # 13
    frequency:   11.7612756294
  - # 14
    frequency:   12.3427178374
  - # 15
    frequency:   13.6442328128

- q-position: [    0.1666667,    0.0000000,    0.0000000 ]
  distance:    0.0569787
  band:
  - # 1
    frequency:    1.4265118878
  - # 2
    frequency:    2.1449436386
  - # 3
    frequency:    3.2586008579
  - # 4
    frequency:    3.7160067822
  - # 5
    frequency:    4.3413746240
  - # 6
    frequency:    4.7388295694
  - # 7
    frequency:    6.1109929529
  - # 8
    frequency:    6.1791843195
  - # 9
    frequency:    6.6984451019
  - # 10
    frequency:    6.8499641319
  - # 11
    frequency:    8.9522873111
  - # 12
    frequency:   10.4310430561
  - # 13
    frequency:   11.7170676594
  - # 14
    frequency:   12.3347735535
  - # 15
    frequency:   13.6117801003

- q-position: [    0.1717172,    0.0000000,    0.0000000 ]
  distance:    0.0587053
  band:
  - # 1
    frequency:    1.5017379759
  - # 2
    frequency:    2.1932081273
  - # 3
    frequency:    3.3132069583
  - # 4
    frequency:    3.7454276301
  - # 5
    frequency:    4.3774593420
  - # 6
    frequency:    4.7337864361
  - # 7
    frequency:    6.1168458210
  - # 8
    frequency:    6.1511751809
  - # 9
    frequency:    6.7136523394
  - # 10
    frequency:    6.8675833468
  - # 11
    frequency:    8.9216288738
  - # 12
    frequency:   10.3586510429
  - # 13
    frequency:   11.6732222877
  - # 14
    frequency:   12.3267800686
  - # 15
    frequency:   13.5800411994

- q-position: [    0.1767677,    0.0000000,    0.0000000 ]
  distance:    0.0604320
  band:
  - # 1
    frequency:    1.5766105545
  - # 2
    frequency:    2.2402494466
  - # 3
    frequency:    3.3634006191
  - # 4
    frequency:    3.7750943782
  - # 5
    frequency:    4.4114279046
  - # 6
    frequency:    4.7302005546
  - # 7
    frequency:    6.1207006776
  - # 8
    frequency:    6.1223268712
  - # 9
    frequency:    6.7278683796
  - # 10
    frequency:    6.8844878183
  - # 11
    frequency:    8.8915735403
  - # 12
    frequency:   10.2889814747
  - # 13
    frequency:   11.6298770182
  - # 14
    frequency:   12.3187393155
  - # 15
    frequency:   13.5491321875

- q-position: [    0.1818182,    0.0000000,    0.0000000 ]
  distance:    0.0621586
  band:
  - # 1
    frequency:    1.6510351007
  - # 2
    frequency:    2.2860798872
  - # 3
    frequency:    3.4087666832
  - # 4
    frequency:    3.8049429440
  - # 5
    frequency:    4.4430818854
  - # 6
    frequency:    4.7281863385
  - # 7
    frequency:    6.0882365558
  - # 8
    frequency:    6.1273695695
  - # 9
    frequency:    6.7409063182
  - # 10
    frequency:    6.9006978087
  - # 11
    frequency:    8.8620545402
  - # 12
    frequency:   10.2223933098
  - # 13
    frequency:   11.5871591645
  - # 14
    frequency:   12.3106502842
  - # 15
    frequency:   13.5191690117

- q-position: [    0.1868687,    0.0000000,    0.0000000 ]
  distance:    0.0638852
  band:
  - # 1
    frequency:    1.7249143122
  - # 2
    frequency:    2.3307149436
  - # 3
    frequency:    3.4488277008
  - # 4
    frequency:    3.8349097138
  - # 5
    frequency:    4.4721898634
  - # 6
    frequency:    4.7278998251
  - # 7
    frequency:    6.0543416376
  - # 8
    frequency:    6.1319114473
  - # 9
    frequency:    6.7525705231
  - # 10
    frequency:    6.9162405280
  - # 11
    frequency:    8.8330032190
  - # 12
    frequency:   10.1592345930
  - # 13
    frequency:   11.5451856743
  - # 14
    frequency:   12.3025085604
  - # 15
    frequency:   13.4902652849

- q-position: [    0.1919192,    0.0000000,    0.0000000 ]
  distance:    0.0656118
  band:
  - # 1
    frequency:    1.7981472510
  - # 2
    frequency:    2.3741732460
  - # 3
    frequency:    3.4830444850
  - # 4
    frequency:    3.8649324244
  - # 5
    frequency:    4.4984642062
  - # 6
    frequency:    4.7295674280
  - # 7
    frequency:    6.0196512499
  - # 8
    frequency:    6.1358961544
  - # 9
    frequency:    6.7626571794
  - # 10
    frequency:    6.9311487281
  - # 11
    frequency:    8.8043607256
  - # 12
    frequency:   10.0998333960
  - # 13
    frequency:   11.5040631095
  - # 14
    frequency:   12.2943058777
  - # 15
    frequency:   13.4625299075

- q-position: [    0.1969697,    0.0000000,    0.0000000 ]
  distance:    0.0673385
  band:
  - # 1
    frequency:    1.8706277051
  - # 2
    frequency:    2.4164765408
  - # 3
    frequency:    3.5108217345
  - # 4
    frequency:    3.8949511055
  - # 5
    frequency:    4.5215413472
  - # 6
    frequency:    4.7335136167
  - # 7
    frequency:    5.9848634614
  - # 8
    frequency:    6.1392755740
  - # 9
    frequency:    6.7709561632
  - # 10
    frequency:    6.9454590925
  - # 11
    frequency:    8.7760906192
  - # 12
    frequency:   10.0444873078
  - # 13
    frequency:   11.4638877617
  - # 14
    frequency:   12.2860297017
  - # 15
    frequency:   13.4360646031

- q-position: [    0.2020202,    0.0000000,    0.0000000 ]
  distance:    0.0690651
  band:
  - # 1
    frequency:    1.9422414426
  - # 2
    frequency:    2.4576497144
  - # 3
    frequency:    3.5315208301
  - # 4
    frequency:    3.9249090755
  - # 5
    frequency:    4.5409921073
  - # 6
    frequency:    4.7401609374
  - # 7
    frequency:    5.9507165502
  - # 8
    frequency:    6.1420119174
  - # 9
    frequency:    6.7772546333
  - # 10
    frequency:    6.9592104670
  - # 11
    frequency:    8.7481910164
  - # 12
    frequency:    9.9934522457
  - # 13
    frequency:   11.4247458906
  - # 14
    frequency:   12.2776628668
  - # 15
    frequency:   13.4109614574

- q-position: [    0.2070707,    0.0000000,    0.0000000 ]
  distance:    0.0707917
  band:
  - # 1
    frequency:    2.0128618280
  - # 2
    frequency:    2.4977208494
  - # 3
    frequency:    3.5444822136
  - # 4
    frequency:    3.9547539758
  - # 5
    frequency:    4.5564012137
  - # 6
    frequency:    4.7499621556
  - # 7
    frequency:    5.9179570851
  - # 8
    frequency:    6.1440797021
  - # 9
    frequency:    6.7813426611
  - # 10
    frequency:    6.9724419979
  - # 11
    frequency:    8.7207045461
  - # 12
    frequency:    9.9469317337
  - # 13
    frequency:   11.3867140804
  - # 14
    frequency:   12.2691832826
  - # 15
    frequency:   13.3873005504

- q-position: [    0.2121212,    0.0000000,    0.0000000 ]
  distance:    0.0725184
  band:
  - # 1
    frequency:    2.0823429256