nqpoint: 300    
npath: 3      
segment_nqpoint:
- 100
- 100
- 100
labels:
- [ 'G', 'M' ]
- [ 'M', 'K' ]
- [ 'K', 'G' ]
reciprocal_lattice:
- [   0.27608556,   0.15939807,   0.00000000 ] # a*
- [   0.00000000,   0.31879614,   0.00000000 ] # b*
- [   0.00000000,   0.00000000,   0.03635821 ] # c*
natom: 8      
lattice:
- [     3.622065588326174,     0.000000000000000,     0.000000000000000 ] # a
- [    -1.811032794163086,     3.136800813672284,     0.000000000000000 ] # b
- [     0.000000000000000,     0.000000000000000,    27.504104082038491 ] # c
points:
- symbol: C # 1
  coordinates: [  0.333332985432215,  0.666666983183674,  0.629509401551258 ]
  mass: 12.010700
- symbol: H # 2
  coordinates: [  0.666666984744047,  0.333332985985145,  0.327223892592722 ]
  mass: 1.007940
- symbol: N # 3
  coordinates: [  0.000000000000000,  0.000000000000000,  0.455058156497860 ]
  mass: 14.006700
- symbol: N # 4
  coordinates: [  0.333332985432215,  0.666666983183674,  0.672776107407278 ]
  mass: 14.006700
- symbol: O # 5
  coordinates: [  0.666666984744047,  0.333332985985145,  0.363114379040604 ]
  mass: 15.999400
- symbol: S # 6
  coordinates: [  0.333332985432215,  0.666666983183674,  0.568509609784197 ]
  mass: 32.065000
- symbol: Y # 7
  coordinates: [  0.333332985432215,  0.666666983183674,  0.409257468768236 ]
  mass: 88.905850
- symbol: Y # 8
  coordinates: [  0.666666984744047,  0.333332985985145,  0.504977529221576 ]
  mass: 88.905850

phonon:
- q-position: [    0.0000000,    0.0000000,    0.0000000 ]
  distance:    0.0000000
  band:
  - # 1
    frequency:   -0.0000116720
  - # 2
    frequency:   -0.0000005040
  - # 3
    frequency:    0.0000085999
  - # 4
    frequency:    1.4170223286
  - # 5
    frequency:    1.4170223286
  - # 6
    frequency:    2.9637691075
  - # 7
    frequency:    2.9637691075
  - # 8
    frequency:    4.4224617800
  - # 9
    frequency:    5.3608304047
  - # 10
    frequency:    5.3608304047
  - # 11
    frequency:    6.4225306711
  - # 12
    frequency:    6.4225306711
  - # 13
    frequency:    7.0289341608
  - # 14
    frequency:    9.8659728211
  - # 15
    frequency:    9.8659728211
  - # 16
    frequency:   10.4318287608
  - # 17
    frequency:   10.4318287608
  - # 18
    frequency:   10.5466147589
  - # 19
    frequency:   10.8870542224
  - # 20
    frequency:   14.1148984108
  - # 21
    frequency:   14.1148984109
  - # 22
    frequency:   20.4360892538
  - # 23
    frequency:   65.1085712311
  - # 24
    frequency:  112.9963429873

- q-position: [    0.0050505,    0.0000000,    0.0000000 ]
  distance:    0.0016101
  band:
  - # 1
    frequency:   -0.0553635973
  - # 2
    frequency:   -0.0551436858
  - # 3
    frequency:    0.0010467930
  - # 4
    frequency:    1.4193458638
  - # 5
    frequency:    1.4199678511
  - # 6
    frequency:    2.9639402769
  - # 7
    frequency:    2.9645081749
  - # 8
    frequency:    4.4220670671
  - # 9
    frequency:    5.3606377442
  - # 10
    frequency:    5.3606478645
  - # 11
    frequency:    6.4218477466
  - # 12
    frequency:    6.4227112285
  - # 13
    frequency:    7.0291345393
  - # 14
    frequency:    9.8647298462
  - # 15
    frequency:    9.8657833505
  - # 16
    frequency:   10.4281312410
  - # 17
    frequency:   10.4326900622
  - # 18
    frequency:   10.5488543232
  - # 19
    frequency:   10.8866225182
  - # 20
    frequency:   14.1142565102
  - # 21
    frequency:   14.1148718579
  - # 22
    frequency:   20.4360182673
  - # 23
    frequency:   65.1085035120
  - # 24
    frequency:  112.9954831083

- q-position: [    0.0101010,    0.0000000,    0.0000000 ]
  distance:    0.0032202
  band:
  - # 1
    frequency:   -0.1096856978
  - # 2
    frequency:   -0.1095966691
  - # 3
    frequency:    0.0039450094
  - # 4
    frequency:    1.4262378661
  - # 5
    frequency:    1.4286886974
  - # 6
    frequency:    2.9644552165
  - # 7
    frequency:    2.9667177307
  - # 8
    frequency:    4.4208843456
  - # 9
    frequency:    5.3600623503
  - # 10
    frequency:    5.3600994471
  - # 11
    frequency:    6.4197990930
  - # 12
    frequency:    6.4232519141
  - # 13
    frequency:    7.0297337163
  - # 14
    frequency:    9.8609837609
  - # 15
    frequency:    9.8652152531
  - # 16
    frequency:   10.4179238750
  - # 17
    frequency:   10.4352678235
  - # 18
    frequency:   10.5546903416
  - # 19
    frequency:   10.8853471223
  - # 20
    frequency:   14.1123390360
  - # 21
    frequency:   14.1147925954
  - # 22
    frequency:   20.4358053382
  - # 23
    frequency:   65.1083004465
  - # 24
    frequency:  112.9929068103

- q-position: [    0.0151515,    0.0000000,    0.0000000 ]
  distance:    0.0048302
  band:
  - # 1
    frequency:   -0.1627185598
  - # 2
    frequency:   -0.1620055367
  - # 3
    frequency:    0.0087872793
  - # 4
    frequency:    1.4374735977
  - # 5
    frequency:    1.4428573895
  - # 6
    frequency:    2.9653181921
  - # 7
    frequency:    2.9703747585
  - # 8
    frequency:    4.4189178147
  - # 9
    frequency:    5.3591119412
  - # 10
    frequency:    5.3591826514
  - # 11
    frequency:    6.4163852962
  - # 12
    frequency:    6.4241497827
  - # 13
    frequency:    7.0307257489
  - # 14
    frequency:    9.8546841332
  - # 15
    frequency:    9.8642694175
  - # 16
    frequency:   10.4030144002
  - # 17
    frequency:   10.4395437175
  - # 18
    frequency:   10.5623220236
  - # 19
    frequency:   10.8832868058
  - # 20
    frequency:   14.1091706165
  - # 21
    frequency:   14.1146618184
  - # 22
    frequency:   20.4354505583
  - # 23
    frequency:   65.1079623100
  - # 24
    frequency:  112.9886240984

- q-position: [    0.0202020,    0.0000000,    0.0000000 ]
  distance:    0.0064403
  band:
  - # 1
    frequency:   -0.2139587271
  - # 2
    frequency:   -0.2115031011
  - # 3
    frequency:    0.0155983526
  - # 4
    frequency:    1.4527119332
  - # 5
    frequency:    1.4619865065
  - # 6
    frequency:    2.9665362209
  - # 7
    frequency:    2.9754406456
  - # 8
    frequency:    4.4161743004
  - # 9
    frequency:    5.3577992352
  - # 10
    frequency:    5.3578929381
  - # 11
    frequency:    6.4116080773
  - # 12
    frequency:    6.4253999731
  - # 13
    frequency:    7.0321005207
  - # 14
    frequency:    9.8457504966
  - # 15
    frequency:    9.8629471521
  - # 16
    frequency:   10.3850015948
  - # 17
    frequency:   10.4454875312
  - # 18
    frequency:   10.5701603258
  - # 19
    frequency:   10.8805379775
  - # 20
    frequency:   14.1047921153
  - # 21
    frequency:   14.1144815387
  - # 22
    frequency:   20.4349540833
  - # 23
    frequency:   65.1074895609
  - # 24
    frequency:  112.9826516051

- q-position: [    0.0252525,    0.0000000,    0.0000000 ]
  distance:    0.0080504
  band:
  - # 1
    frequency:   -0.2628783907
  - # 2
    frequency:   -0.2575273920
  - # 3
    frequency:    0.0244092941
  - # 4
    frequency:    1.4715351996
  - # 5
    frequency:    1.4854953056
  - # 6
    frequency:    2.9681189335
  - # 7
    frequency:    2.9818608111
  - # 8
    frequency:    4.4126630018
  - # 9
    frequency:    5.3561417363
  - # 10
    frequency:    5.3562231800
  - # 11
    frequency:    6.4054713730
  - # 12
    frequency:    6.4269957773
  - # 13
    frequency:    7.0338434627
  - # 14
    frequency:    9.8340779914
  - # 15
    frequency:    9.8612499464
  - # 16
    frequency:   10.3649905168
  - # 17
    frequency:   10.4530576373
  - # 18
    frequency:   10.5771106358
  - # 19
    frequency:   10.8772314246
  - # 20
    frequency:   14.0992603514
  - # 21
    frequency:   14.1142546141
  - # 22
    frequency:   20.4343161367
  - # 23
    frequency:   65.1068828396
  - # 24
    frequency:  112.9750125275

- q-position: [    0.0303030,    0.0000000,    0.0000000 ]
  distance:    0.0096605
  band:
  - # 1
    frequency:   -0.3091548723
  - # 2
    frequency:   -0.2995943780
  - # 3
    frequency:    0.0352575754
  - # 4
    frequency:    1.4934894868
  - # 5
    frequency:    1.5127731625
  - # 6
    frequency:    2.9700783849
  - # 7
    frequency:    2.9895641975
  - # 8
    frequency:    4.4083951476
  - # 9
    frequency:    5.3541614443
  - # 10
    frequency:    5.3541629028
  - # 11
    frequency:    6.3979827792
  - # 12
    frequency:    6.4289287338
  - # 13
    frequency:    7.0359352350
  - # 14
    frequency:    9.8195456019
  - # 15
    frequency:    9.8591791774
  - # 16
    frequency:   10.3437169762
  - # 17
    frequency:   10.4622016098
  - # 18
    frequency:   10.5824467853
  - # 19
    frequency:   10.8735260188
  - # 20
    frequency:   14.0926476988
  - # 21
    frequency:   14.1139847892
  - # 22
    frequency:   20.4335370150
  - # 23
    frequency:   65.1061429674
  - # 24
    frequency:  112.9657365392

- q-position: [    0.0353535,    0.0000000,    0.0000000 ]
  distance:    0.0112706
  band:
  - # 1
    frequency:   -0.3525721325
  - # 2
    frequency:   -0.3373642799
  - # 3
    frequency:    0.0481856847
  - # 4
    frequency:    1.5181183383
  - # 5
    frequency:    1.5432283623
  - # 6
    frequency:    2.9724288165
  - # 7
    frequency:    2.9984626336
  - # 8
    frequency:    4.4033835729
  - # 9
    frequency:    5.3516973303
  - # 10
    frequency:    5.3518844965
  - # 11
    frequency:    6.3891553065
  - # 12
    frequency:    6.4311887400
  - # 13
    frequency:    7.0383514278
  - # 14
    frequency:    9.8020269244
  - # 15
    frequency:    9.8567357908
  - # 16
    frequency:   10.3216893807
  - # 17
    frequency:   10.4728569432
  - # 18
    frequency:   10.5856695160
  - # 19
    frequency:   10.8695981944
  - # 20
    frequency:   14.0850415580
  - # 21
    frequency:   14.1136767442
  - # 22
    frequency:   20.4326170944
  - # 23
    frequency:   65.1052709450
  - # 24
    frequency:  112.9548596768

- q-position: [    0.0404040,    0.0000000,    0.0000000 ]
  distance:    0.0128807
  band:
  - # 1
    frequency:   -0.3930034705
  - # 2
    frequency:   -0.3706095239
  - # 3
    frequency:    0.0632393933
  - # 4
    frequency:    1.5449866292
  - # 5
    frequency:    1.5763188542
  - # 6
    frequency:    2.9751863733
  - # 7
    frequency:    3.0084500727
  - # 8
    frequency:    4.3976422301
  - # 9
    frequency:    5.3488062537
  - # 10
    frequency:    5.3493407512
  - # 11
    frequency:    6.3790093893
  - # 12
    frequency:    6.4337641823
  - # 13
    frequency:    7.0410623385
  - # 14
    frequency:    9.7814028905
  - # 15
    frequency:    9.8539199860
  - # 16
    frequency:   10.2992723407
  - # 17
    frequency:   10.4849518409
  - # 18
    frequency:   10.5864260340
  - # 19
    frequency:   10.8656267547
  - # 20
    frequency:   14.0765436911
  - # 21
    frequency:   14.1133361544
  - # 22
    frequency:   20.4315568381
  - # 23
    frequency:   65.1042679501
  - # 24
    frequency:  112.9424242034

- q-position: [    0.0454545,    0.0000000,    0.0000000 ]
  distance:    0.0144907
  band:
  - # 1
    frequency:   -0.4303916511
  - # 2
    frequency:   -0.3991820572
  - # 3
    frequency:    0.0804657799
  - # 4
    frequency:    1.5736947095
  - # 5
    frequency:    1.6115671842
  - # 6
    frequency:    2.9783687811
  - # 7
    frequency:    3.0194017036
  - # 8
    frequency:    4.3911856507
  - # 9
    frequency:    5.3454627562
  - # 10
    frequency:    5.3465633242
  - # 11
    frequency:    6.3675751022
  - # 12
    frequency:    6.4366420760
  - # 13
    frequency:    7.0440328774
  - # 14
    frequency:    9.7575752020
  - # 15
    frequency:    9.8507309291
  - # 16
    frequency:   10.2767272293
  - # 17
    frequency:   10.4984060376
  - # 18
    frequency:   10.5844754474
  - # 19
    frequency:   10.8617742596
  - # 20
    frequency:   14.0672694125
  - # 21
    frequency:   14.1129697542
  - # 22
    frequency:   20.4303568046
  - # 23
    frequency:   65.1031353355
  - # 24
    frequency:  112.9284784467

- q-position: [    0.0505051,    0.0000000,    0.0000000 ]
  distance:    0.0161008
  band:
  - # 1
    frequency:   -0.4647300143
  - # 2
    frequency:   -0.4229848593
  - # 3
    frequency:    0.0999109828
  - # 4
    frequency:    1.6038847027
  - # 5
    frequency:    1.6485640864
  - # 6
    frequency:    2.9819949874
  - # 7
    frequency:    3.0311729236
  - # 8
    frequency:    4.3840283756
  - # 9
    frequency:    5.3416318375
  - # 10
    frequency:    5.3435880889
  - # 11
    frequency:    6.3548945403
  - # 12
    frequency:    6.4398082140
  - # 13
    frequency:    7.0472226367
  - # 14
    frequency:    9.7304786595
  - # 15
    frequency:    9.8471665112
  - # 16
    frequency:   10.2542299143
  - # 17
    frequency:   10.5131316306
  - # 18
    frequency:   10.5796781896
  - # 19
    frequency:   10.8581684913
  - # 20
    frequency:   14.0573466262
  - # 21
    frequency:   14.1125854068
  - # 22
    frequency:   20.4290176570
  - # 23
    frequency:   65.1018746265
  - # 24
    frequency:  112.9130766151

- q-position: [    0.0555556,    0.0000000,    0.0000000 ]
  distance:    0.0177109
  band:
  - # 1
    frequency:   -0.4960463852
  - # 2
    frequency:   -0.4419493071
  - # 3
    frequency:    0.1216175635
  - # 4
    frequency:    1.6352413763
  - # 5
    frequency:    1.6869651691
  - # 6
    frequency:    2.9860847725
  - # 7
    frequency:    3.0435981502
  - # 8
    frequency:    4.3761843767
  - # 9
    frequency:    5.3372690084
  - # 10
    frequency:    5.3404531516
  - # 11
    frequency:    6.3410243291
  - # 12
    frequency:    6.4432473179
  - # 13
    frequency:    7.0505861433
  - # 14
    frequency:    9.7000904095
  - # 15
    frequency:    9.8432231607
  - # 16
    frequency:   10.2318787640
  - # 17
    frequency:   10.5290339012
  - # 18
    frequency:   10.5719933141
  - # 19
    frequency:   10.8548889815
  - # 20
    frequency:   14.0469147069
  - # 21
    frequency:   14.1121921765
  - # 22
    frequency:   20.4275401717
  - # 23
    frequency:   65.1004875177
  - # 24
    frequency:  112.8962785902

- q-position: [    0.0606061,    0.0000000,    0.0000000 ]
  distance:    0.0193210
  band:
  - # 1
    frequency:   -0.5243903334
  - # 2
    frequency:   -0.4560180892
  - # 3
    frequency:    0.1456212587
  - # 4
    frequency:    1.6674897458
  - # 5
    frequency:    1.7264840866
  - # 6
    frequency:    2.9906583347
  - # 7
    frequency:    3.0564894356
  - # 8
    frequency:    4.3676664939
  - # 9
    frequency:    5.3323189569
  - # 10
    frequency:    5.3371983116
  - # 11
    frequency:    6.3260382234
  - # 12
    frequency:    6.4469431888
  - # 13
    frequency:    7.0540732963
  - # 14
    frequency:    9.6664345962
  - # 15
    frequency:    9.8388957108
  - # 16
    frequency:   10.2097003415
  - # 17
    frequency:   10.5460121148
  - # 18
    frequency:   10.5614735143
  - # 19
    frequency:   10.8519628314
  - # 20
    frequency:   14.0361232233
  - # 21
    frequency:   14.1118004002
  - # 22
    frequency:   20.4259252479
  - # 23
    frequency:   65.0989758698
  - # 24
    frequency:  112.8781496973

- q-position: [    0.0656566,    0.0000000,    0.0000000 ]
  distance:    0.0209311
  band:
  - # 1
    frequency:   -0.5498235940
  - # 2
    frequency:   -0.4651323307
  - # 3
    frequency:    0.1719467662
  - # 4
    frequency:    1.7003910400
  - # 5
    frequency:    1.7668844003
  - # 6
    frequency:    2.9957358562
  - # 7
    frequency:    3.0696348423
  - # 8
    frequency:    4.3584859165
  - # 9
    frequency:    5.3267144343
  - # 10
    frequency:    5.3338645164
  - # 11
    frequency:    6.3100297386
  - # 12
    frequency:    6.4508788548
  - # 13
    frequency:    7.0576299749
  - # 14
    frequency:    9.6295819190
  - # 15
    frequency:    9.8341773199
  - # 16
    frequency:   10.1876563850
  - # 17
    frequency:   10.5482536868
  - # 18
    frequency:   10.5639602947
  - # 19
    frequency:   10.8493708906
  - # 20
    frequency:   14.0251305057
  - # 21
    frequency:   14.1114217560
  - # 22
    frequency:   20.4241739160
  - # 23
    frequency:   65.0973417059
  - # 24
    frequency:  112.8587604550

- q-position: [    0.0707071,    0.0000000,    0.0000000 ]
  distance:    0.0225411
  band:
  - # 1
    frequency:   -0.5724131425
  - # 2
    frequency:   -0.4692210306
  - # 3
    frequency:    0.2006020690
  - # 4
    frequency:    1.7337381066
  - # 5
    frequency:    1.8079713756
  - # 6
    frequency:    3.0013370542
  - # 7
    frequency:    3.0827965270
  - # 8
    frequency:    4.3486517442
  - # 9
    frequency:    5.3203755737
  - # 10
    frequency:    5.3304933197
  - # 11
    frequency:    6.2931147184
  - # 12
    frequency:    6.4550367125
  - # 13
    frequency:    7.0611987886
  - # 14
    frequency:    9.5896447701
  - # 15
    frequency:    9.8290594367
  - # 16
    frequency:   10.1656530846
  - # 17
    frequency:   10.5325340693
  - # 18
    frequency:   10.5827679691
  - # 19
    frequency:   10.8470615529
  - # 20
    frequency:   14.0141020701
  - # 21
    frequency:   14.1110693255
  - # 22
    frequency:   20.4222873461
  - # 23
    frequency:   65.0955872080
  - # 24
    frequency:  112.8381863043

- q-position: [    0.0757576,    0.0000000,    0.0000000 ]
  distance:    0.0241512
  band:
  - # 1
    frequency:   -0.5922263367
  - # 2
    frequency:   -0.4681903854
  - # 3
    frequency:    0.2315706860
  - # 4
    frequency:    1.7673509013
  - # 5
    frequency:    1.8495843032
  - # 6
    frequency:    3.0074807242
  - # 7
    frequency:    3.0957084920
  - # 8
    frequency:    4.3381706685
  - # 9
    frequency:    5.3132099314
  - # 10
    frequency:    5.3271263494
  - # 11
    frequency:    6.2754336823
  - # 12
    frequency:    6.4593986609
  - # 13
    frequency:    7.0647199375
  - # 14
    frequency:    9.5467694944
  - # 15
    frequency:    9.8235318012
  - # 16
    frequency:   10.1435521118
  - # 17
    frequency:   10.5145617902
  - # 18
    frequency:   10.6023208932
  - # 19
    frequency:   10.8449672962
  - # 20
    frequency:   14.0032089141
  - # 21
    frequency:   14.1107576467
  - # 22
    frequency:   20.4202668554
  - # 23
    frequency:   65.0937147121
  - # 24
    frequency:  112.8165073176

- q-position: [    0.0808081,    0.0000000,    0.0000000 ]
  distance:    0.0257613
  band:
  - # 1
    frequency:   -0.6093275886
  - # 2
    frequency:   -0.4619096986
  - # 3
    frequency:    0.2648012295
  - # 4
    frequency:    1.8010724017
  - # 5
    frequency:    1.8915895225
  - # 6
    frequency:    3.0141842804
  - # 7
    frequency:    3.1080739834
  - # 8
    frequency:    4.3270468267
  - # 9
    frequency:    5.3051136365
  - # 10
    frequency:    5.3238047913
  - # 11
    frequency:    6.2571537091
  - # 12
    frequency:    6.4639462272
  - # 13
    frequency:    7.0681321409
  - # 14
    frequency:    9.5011275969
  - # 15
    frequency:    9.8175824730
  - # 16
    frequency:   10.1211822460
  - # 17
    frequency:   10.4946145822
  - # 18
    frequency:   10.6225017508
  - # 19
    frequency:   10.8430194997
  - # 20
    frequency:   13.9926257086
  - # 21
    frequency:   14.1105027529
  - # 22
    frequency:   20.4181139141
  - # 23
    frequency:   65.0917267042
  - # 24
    frequency:  112.7938078901

- q-position: [    0.0858586,    0.0000000,    0.0000000 ]
  distance:    0.0273714
  band:
  - # 1
    frequency:   -0.6237761193
  - # 2
    frequency:   -0.4501889666
  - # 3
    frequency:    0.3001938792
  - # 4
    frequency:    1.8347650891
  - # 5
    frequency:    1.9338740820
  - # 6
    frequency:    3.0214632997
  - # 7
    frequency:    3.1195625726
  - # 8
    frequency:    4.3152818908
  - # 9
    frequency:    5.2959741277
  - # 10
    frequency:    5.3205688944
  - # 11
    frequency:    6.2384695116
  - # 12
    frequency:    6.4686606826
  - # 13
    frequency:    7.0713735974
  - # 14
    frequency:    9.4529074576
  - # 15
    frequency:    9.8111978779
  - # 16
    frequency:   10.0983505803
  - # 17
    frequency:   10.4729885698
  - # 18
    frequency:   10.6431908392
  - # 19
    frequency:   10.8411590348
  - # 20
    frequency:   13.9825289168
  - # 21
    frequency:   14.1103221946
  - # 22
    frequency:   20.4158301500
  - # 23
    frequency:   65.0896258156
  - # 24
    frequency:  112.7701764127

- q-position: [    0.0909091,    0.0000000,    0.0000000 ]
  distance:    0.0289815
  band:
  - # 1
    frequency:   -0.6356244511
  - # 2
    frequency:   -0.4327402022
  - # 3
    frequency:    0.3375839967
  - # 4
    frequency:    1.8683080297
  - # 5
    frequency:    1.9763398199
  - # 6
    frequency:    3.0293310785
  - # 7
    frequency:    3.1298070658
  - # 8
    frequency:    4.3028754666
  - # 9
    frequency:    5.2856750316
  - # 10
    frequency:    5.3174574999
  - # 11
    frequency:    6.2196032561
  - # 12
    frequency:    6.4735231500
  - # 13
    frequency:    7.0743829376
  - # 14
    frequency:    9.4023075453
  - # 15
    frequency:    9.8043628654
  - # 16
    frequency:   10.0748528071
  - # 17
    frequency:   10.4499900436
  - # 18
    frequency:   10.6642667421
  - # 19
    frequency:   10.8393421557
  - # 20
    frequency:   13.9730948775
  - # 21
    frequency:   14.1102350406
  - # 22
    frequency:   20.4134173523
  - # 23
    frequency:   65.0874148174
  - # 24
    frequency:  112.7457049300

- q-position: [    0.0959596,    0.0000000,    0.0000000 ]
  distance:    0.0305915
  band:
  - # 1
    frequency:   -0.6449173717
  - # 2
    frequency:   -0.4091083763
  - # 3
    frequency:    0.3767242020
  - # 4
    frequency:    1.9015945221
  - # 5
    frequency:    2.0188975420
  - # 6
    frequency:    3.0377982079
  - # 7
    frequency:    3.1384005738
  - # 8
    frequency:    4.2898258870
  - # 9
    frequency:    5.2741037467
  - # 10
    frequency:    5.3145075984
  - # 11
    frequency:    6.2008026080
  - # 12
    frequency:    6.4785147025
  - # 13
    frequency:    7.0771001369
  - # 14
    frequency:    9.3495315331
  - # 15
    frequency:    9.7970607713
  - # 16
    frequency:   10.0504826609
  - # 17
    frequency:   10.4259298938
  - # 18
    frequency:   10.6856069956
  - # 19
    frequency:   10.8375424750
  - # 20
    frequency:   13.9644978954
  - # 21
    frequency:   14.1102618534
  - # 22
    frequency:   20.4108774721
  - # 23
    frequency:   65.0850966153
  - # 24
    frequency:  112.7204887816

- q-position: [    0.1010101,    0.0000000,    0.0000000 ]
  distance:    0.0322016
  band:
  - # 1
    frequency:   -0.6516911742
  - # 2
    frequency:   -0.3785430739
  - # 3
    frequency:    0.4172676699
  - # 4
    frequency:    1.9345302470
  - # 5
    frequency:    2.0614608514
  - # 6
    frequency:    3.0468721796
  - # 7
    frequency:    3.1448944007
  - # 8
    frequency:    4.2761314861
  - # 9
    frequency:    5.2611621879
  - # 10
    frequency:    5.3117539177
  - # 11
    frequency:    6.1823364954
  - # 12
    frequency:    6.4836164537
  - # 13
    frequency:    7.0794673569
  - # 14
    frequency:    9.2947852686
  - # 15
    frequency:    9.7892734821
  - # 16
    frequency:   10.0250409685
  - # 17
    frequency:   10.4011190108
  - # 18
    frequency:   10.7070887499
  - # 19
    frequency:   10.8357502370
  - # 20
    frequency:   13.9569083826
  - # 21
    frequency:   14.1104246360
  - # 22
    frequency:   20.4082126224
  - # 23
    frequency:   65.0826742446
  - # 24
    frequency:  112.6946262309

- q-position: [    0.1060606,    0.0000000,    0.0000000 ]
  distance:    0.0338117
  band:
  - # 1
    frequency:   -0.6559730213
  - # 2
    frequency:   -0.3397387885
  - # 3
    frequency:    0.4587567783
  - # 4
    frequency:    1.9670318430
  - # 5
    frequency:    2.1039390300
  - # 6
    frequency:    3.0565570311
  - # 7
    frequency:    3.1487979372
  - # 8
    frequency:    4.2617924175
  - # 9
    frequency:    5.2467808444
  - # 10
    frequency:    5.3092285441
  - # 11
    frequency:    6.1644882156
  - # 12
    frequency:    6.4888096416
  - # 13
    frequency:    7.0814296905
  - # 14
    frequency:    9.2382753011
  - # 15
    frequency:    9.7809814964
  - # 16
    frequency:    9.9983448189
  - # 17
    frequency:   10.3758632352
  - # 18
    frequency:   10.7285894317
  - # 19
    frequency:   10.8339700196
  - # 20
    frequency:   13.9504910978
  - # 21
    frequency:   14.1107467459
  - # 22
    frequency:   20.4054250755
  - # 23
    frequency:   65.0801508636
  - # 24
    frequency:  112.6682180812

- q-position: [    0.1111111,    0.0000000,    0.0000000 ]
  distance:    0.0354218
  band:
  - # 1
    frequency:   -0.6577803133
  - # 2
    frequency:   -0.2902149116
  - # 3
    frequency:    0.5006221569
  - # 4
    frequency:    1.9990258280
  - # 5
    frequency:    2.1462280998
  - # 6
    frequency:    3.0668530442
  - # 7
    frequency:    3.1495825915
  - # 8
    frequency:    4.2468130252
  - # 9
    frequency:    5.2309357624
  - # 10
    frequency:    5.3069605786
  - # 11
    frequency:    6.1475458215
  - # 12
    frequency:    6.4940757050
  - # 13
    frequency:    7.0829357860
  - # 14
    frequency:    9.1802085747
  - # 15
    frequency:    9.7721639827
  - # 16
    frequency:    9.9702371019
  - # 17
    frequency:   10.3504570779
  - # 18
    frequency:   10.7499874086
  - # 19
    frequency:   10.8322177223
  - # 20
    frequency:   13.9454035250
  - # 21
    frequency:   14.1112527740
  - # 22
    frequency:   20.4025172577
  - # 23
    frequency:   65.0775297484
  - # 24
    frequency:  112.6413672798

- q-position: [    0.1161616,    0.0000000,    0.0000000 ]
  distance:    0.0370319
  band:
  - # 1
    frequency:   -0.6571199531
  - # 2
    frequency:   -0.2243223723
  - # 3
    frequency:    0.5421980868
  - # 4
    frequency:    2.0304477893
  - # 5
    frequency:    2.1881987580
  - # 6
    frequency:    3.0777565098
  - # 7
    frequency:    3.1466931023
  - # 8
    frequency:    4.2312046545
  - # 9
    frequency:    5.2136672740
  - # 10
    frequency:    5.3049758312
  - # 11
    frequency:    6.1317901919
  - # 12
    frequency:    6.4993963561
  - # 13
    frequency:    7.0839383307
  - # 14
    frequency:    9.1207929046
  - # 15
    frequency:    9.7627988332
  - # 16
    frequency:    9.9405961397
  - # 17
    frequency:   10.3251762407
  - # 18
    frequency:   10.7711626594
  - # 19
    frequency:   10.8305174072
  - # 20
    frequency:   13.9417944310
  - # 21
    frequency:   14.1119683841
  - # 22
    frequency:   20.3994917434
  - # 23
    frequency:   65.0748142863
  - # 24
    frequency:  112.6141785142

- q-position: [    0.1212121,    0.0000000,    0.0000000 ]
  distance:    0.0386420
  band:
  - # 1
    frequency:   -0.6539874010
  - # 2
    frequency:   -0.1208622886
  - # 3
    frequency:    0.5827632577
  - # 4
    frequency:    2.0612417691
  - # 5
    frequency:    2.2296791205
  - # 6
    frequency:    3.0892595714
  - # 7
    frequency:    3.1395715599
  - # 8
    frequency:    4.2149885974
  - # 9
    frequency:    5.1950983604
  - # 10
    frequency:    5.3032965566
  - # 11
    frequency:    6.1174817614
  - # 12
    frequency:    6.5047536475
  - # 13
    frequency:    7.0843943755
  - # 14
    frequency:    9.0602379114
  - # 15
    frequency:    9.7528627113
  - # 16
    frequency:    9.9093445381
  - # 17
    frequency:   10.3002697553
  - # 18
    frequency:   10.7919974511
  - # 19
    frequency:   10.8288983354
  - # 20
    frequency:   13.9398026309
  - # 21
    frequency:   14.1129201127
  - # 22
    frequency:   20.3963512454
  - # 23
    frequency:   65.0720079694
  - # 24
    frequency:  112.5867577990

- q-position: [    0.1262626,    0.0000000,    0.0000000 ]
  distance:    0.0402520
  band:
  - # 1
    frequency:   -0.6483653975
  - # 2
    frequency:    0.1465536031
  - # 3
    frequency:    0.6216248600
  - # 4
    frequency:    2.0913597788
  - # 5
    frequency:    2.2704289309
  - # 6
    frequency:    3.1013501633
  - # 7
    frequency:    3.1277023547
  - # 8
    frequency:    4.1981985970
  - # 9
    frequency:    5.1754496679
  - # 10
    frequency:    5.3019412329
  - # 11
    frequency:    6.1048473753
  - # 12
    frequency:    6.5101300360
  - # 13
    frequency:    7.0842654840
  - # 14
    frequency:    8.9987561599
  - # 15
    frequency:    9.7423310958
  - # 16
    frequency:    9.8764559645
  - # 17
    frequency:   10.2759530817
  - # 18
    frequency:   10.8123770231
  - # 19
    frequency:   10.8273923799
  - # 20
    frequency:   13.9395559833
  - # 21
    frequency:   14.1141351279
  - # 22
    frequency:   20.3930986047
  - # 23
    frequency:   65.0691143884
  - # 24
    frequency:  112.5592120565

- q-position: [    0.1313131,    0.0000000,    0.0000000 ]
  distance:    0.0418621
  band:
  - # 1
    frequency:   -0.6402221962
  - # 2
    frequency:    0.2355670207
  - # 3
    frequency:    0.6582807146
  - # 4
    frequency:    2.1207613822
  - # 5
    frequency:    2.3100997601
  - # 6
    frequency:    3.1106903236
  - # 7
    frequency:    3.1140120535
  - # 8
    frequency:    4.1808820511
  - # 9
    frequency:    5.1550477195
  - # 10
    frequency:    5.3009243869
  - # 11
    frequency:    6.0940689755
  - # 12
    frequency:    6.5155084439
  - # 13
    frequency:    7.0835176924
  - # 14
    frequency:    8.9365643134
  - # 15
    frequency:    9.7311783205
  - # 16
    frequency:    9.8419585599
  - # 17
    frequency:   10.2524035716
  - # 18
    frequency:   10.8260318967
  - # 19
    frequency:   10.8321902792
  - # 20
    frequency:   13.9411706256
  - # 21
    frequency:   14.1156409467
  - # 22
    frequency:   20.3897367777
  - # 23
    frequency:   65.0661372257
  - # 24
    frequency:  112.5316486933

- q-position: [    0.1363636,    0.0000000,    0.0000000 ]
  distance:    0.0434722
  band:
  - # 1
    frequency:   -0.6295090844
  - # 2
    frequency:    0.2884218919
  - # 3
    frequency:    0.6927042795
  - # 4
    frequency:    2.1494132972
  - # 5
    frequency:    2.3481724299
  - # 6
    frequency:    3.0883895670
  - # 7