nqpoint: 300    
npath: 3      
segment_nqpoint:
- 100
- 100
- 100
labels:
- [ 'G', 'M' ]
- [ 'M', 'K' ]
- [ 'K', 'G' ]
reciprocal_lattice:
- [   0.30826685,   0.17797795,   0.00000000 ] # a*
- [   0.00000000,   0.35595590,   0.00000000 ] # b*
- [   0.00000000,   0.00000000,   0.04274156 ] # c*
natom: 5      
lattice:
- [     3.243942719286380,     0.000000000000000,     0.000000000000000 ] # a
- [    -1.621971359643190,     2.809336803314700,     0.000000000000000 ] # b
- [     0.000000000000000,     0.000000000000000,    23.396431141999937 ] # c
points:
- symbol: Cl # 1
  coordinates: [  0.333332985432215,  0.666666983183674,  0.615325946706303 ]
  mass: 35.453000
- symbol: Cl # 2
  coordinates: [  0.666666984744047,  0.333332985985145,  0.384674053293697 ]
  mass: 35.453000
- symbol: N # 3
  coordinates: [  0.000000000000000,  0.000000000000000,  0.500000037942630 ]
  mass: 14.006700
- symbol: Ti # 4
  coordinates: [  0.333332985432215,  0.666666983183674,  0.456501072462589 ]
  mass: 47.867000
- symbol: Ti # 5
  coordinates: [  0.666666984744047,  0.333332985985145,  0.543498926971093 ]
  mass: 47.867000

phonon:
- q-position: [    0.0000000,    0.0000000,    0.0000000 ]
  distance:    0.0000000
  band:
  - # 1
    frequency:   -0.0000271473
  - # 2
    frequency:   -0.0000002011
  - # 3
    frequency:    0.0000125800
  - # 4
    frequency:    4.0234432033
  - # 5
    frequency:    4.0234432034
  - # 6
    frequency:    6.4106980065
  - # 7
    frequency:    6.4123359430
  - # 8
    frequency:    6.4123359430
  - # 9
    frequency:    7.9959667449
  - # 10
    frequency:    7.9959667449
  - # 11
    frequency:    9.7907333794
  - # 12
    frequency:   12.5329447280
  - # 13
    frequency:   15.2296195227
  - # 14
    frequency:   17.1213559469
  - # 15
    frequency:   17.1213559470

- q-position: [    0.0050505,    0.0000000,    0.0000000 ]
  distance:    0.0017978
  band:
  - # 1
    frequency:    0.0023943581
  - # 2
    frequency:    0.0800204253
  - # 3
    frequency:    0.1308000333
  - # 4
    frequency:    4.0239410723
  - # 5
    frequency:    4.0254243638
  - # 6
    frequency:    6.3747427659
  - # 7
    frequency:    6.4124745615
  - # 8
    frequency:    6.4491195846
  - # 9
    frequency:    7.9955590345
  - # 10
    frequency:    7.9960179978
  - # 11
    frequency:    9.7904842780
  - # 12
    frequency:   12.5316098077
  - # 13
    frequency:   15.2294503579
  - # 14
    frequency:   17.1212764588
  - # 15
    frequency:   17.1214598393

- q-position: [    0.0101010,    0.0000000,    0.0000000 ]
  distance:    0.0035955
  band:
  - # 1
    frequency:    0.0095615362
  - # 2
    frequency:    0.1599958214
  - # 3
    frequency:    0.2615347524
  - # 4
    frequency:    4.0254335091
  - # 5
    frequency:    4.0313519419
  - # 6
    frequency:    6.3388518925
  - # 7
    frequency:    6.4128903885
  - # 8
    frequency:    6.4874924989
  - # 9
    frequency:    7.9943361770
  - # 10
    frequency:    7.9961722949
  - # 11
    frequency:    9.7897376519
  - # 12
    frequency:   12.5276079392
  - # 13
    frequency:   15.2289422391
  - # 14
    frequency:   17.1210383573
  - # 15
    frequency:   17.1217712423

- q-position: [    0.0151515,    0.0000000,    0.0000000 ]
  distance:    0.0053933
  band:
  - # 1
    frequency:    0.0214543550
  - # 2
    frequency:    0.2398812939
  - # 3
    frequency:    0.3921389349
  - # 4
    frequency:    4.0279170096
  - # 5
    frequency:    4.0411787380
  - # 6
    frequency:    6.3038660672
  - # 7
    frequency:    6.4135833355
  - # 8
    frequency:    6.5266045461
  - # 9
    frequency:    7.9922990001
  - # 10
    frequency:    7.9964312325
  - # 11
    frequency:    9.7884955367
  - # 12
    frequency:   12.5209477909
  - # 13
    frequency:   15.2280933130
  - # 14
    frequency:   17.1206427201
  - # 15
    frequency:   17.1222893319

- q-position: [    0.0202020,    0.0000000,    0.0000000 ]
  distance:    0.0071910
  band:
  - # 1
    frequency:    0.0379958453
  - # 2
    frequency:    0.3196322217
  - # 3
    frequency:    0.5225475577
  - # 4
    frequency:    4.0313857531
  - # 5
    frequency:    4.0548277472
  - # 6
    frequency:    6.2698226457
  - # 7
    frequency:    6.4145532450
  - # 8
    frequency:    6.5664026987
  - # 9
    frequency:    7.9894489035
  - # 10
    frequency:    7.9967974075
  - # 11
    frequency:    9.7867613303
  - # 12
    frequency:   12.5116437818
  - # 13
    frequency:   15.2269005553
  - # 14
    frequency:   17.1200913068
  - # 15
    frequency:   17.1230127282

- q-position: [    0.0252525,    0.0000000,    0.0000000 ]
  distance:    0.0089888
  band:
  - # 1
    frequency:    0.0590816119
  - # 2
    frequency:    0.3992043918
  - # 3
    frequency:    0.6526958842
  - # 4
    frequency:    4.0358316323
  - # 5
    frequency:    4.0721945212
  - # 6
    frequency:    6.2367540929
  - # 7
    frequency:    6.4157998756
  - # 8
    frequency:    6.6068327464
  - # 9
    frequency:    7.9857878892
  - # 10
    frequency:    7.9972743236
  - # 11
    frequency:    9.7845397987
  - # 12
    frequency:   12.4997160398
  - # 13
    frequency:   15.2253598657
  - # 14
    frequency:   17.1193865063
  - # 15
    frequency:   17.1239394859

- q-position: [    0.0303030,    0.0000000,    0.0000000 ]
  distance:    0.0107865
  band:
  - # 1
    frequency:    0.0845828997
  - # 2
    frequency:    0.4785541341
  - # 3
    frequency:    0.7825195507
  - # 4
    frequency:    4.0412442932
  - # 5
    frequency:    4.0931502311
  - # 6
    frequency:    6.2046895678
  - # 7
    frequency:    6.4173228816
  - # 8
    frequency:    6.6478379048
  - # 9
    frequency:    7.9813186033
  - # 10
    frequency:    7.9978662616
  - # 11
    frequency:    9.7818370851
  - # 12
    frequency:   12.4851903444
  - # 13
    frequency:   15.2234661982
  - # 14
    frequency:   17.1185312630
  - # 15
    frequency:   17.1250670814

- q-position: [    0.0353535,    0.0000000,    0.0000000 ]
  distance:    0.0125843
  band:
  - # 1
    frequency:    0.1143501569
  - # 2
    frequency:    0.5576384561
  - # 3
    frequency:    0.9119546431
  - # 4
    frequency:    4.0476111875
  - # 5
    frequency:    4.1175452262
  - # 6
    frequency:    6.1736552490
  - # 7
    frequency:    6.4191217873
  - # 8
    frequency:    6.6893587370
  - # 9
    frequency:    7.9760443886
  - # 10
    frequency:    7.9985781180
  - # 11
    frequency:    9.7786607168
  - # 12
    frequency:   12.4680980548
  - # 13
    frequency:   15.2212137225
  - # 14
    frequency:   17.1175289862
  - # 15
    frequency:   17.1263923960

- q-position: [    0.0404040,    0.0000000,    0.0000000 ]
  distance:    0.0143821
  band:
  - # 1
    frequency:    0.1482168765
  - # 2
    frequency:    0.6364151757
  - # 3
    frequency:    1.0409377640
  - # 4
    frequency:    4.0549176342
  - # 5
    frequency:    4.1452128687
  - # 6
    frequency:    6.1436745281
  - # 7
    frequency:    6.4211959560
  - # 8
    frequency:    6.7313332599
  - # 9
    frequency:    7.9699693470
  - # 10
    frequency:    7.9994152137
  - # 11
    frequency:    9.7750196127
  - # 12
    frequency:   12.4484760268
  - # 13
    frequency:   15.2185960139
  - # 14
    frequency:   17.1163834435
  - # 15
    frequency:   17.1279116969

- q-position: [    0.0454545,    0.0000000,    0.0000000 ]
  distance:    0.0161798
  band:
  - # 1
    frequency:    0.1860035064
  - # 2
    frequency:    0.7148430530
  - # 3
    frequency:    1.1694060865
  - # 4
    frequency:    4.0631468915
  - # 5
    frequency:    4.1759734355
  - # 6
    frequency:    6.1147681950
  - # 7
    frequency:    6.4235445550
  - # 8
    frequency:    6.7736971082
  - # 9
    frequency:    7.9630984119
  - # 10
    frequency:    8.0003830776
  - # 11
    frequency:    9.7709240864
  - # 12
    frequency:   12.4263665168
  - # 13
    frequency:   15.2156062667
  - # 14
    frequency:   17.1150986403
  - # 15
    frequency:   17.1296206155

- q-position: [    0.0505051,    0.0000000,    0.0000000 ]
  distance:    0.0179776
  band:
  - # 1
    frequency:    0.2275212433
  - # 2
    frequency:    0.7928819200
  - # 3
    frequency:    1.2972973932
  - # 4
    frequency:    4.0722802373
  - # 5
    frequency:    4.2096379024
  - # 6
    frequency:    6.0869546402
  - # 7
    frequency:    6.4261665159
  - # 8
    frequency:    6.8163837304
  - # 9
    frequency:    7.9554374278
  - # 10
    frequency:    8.0014872087
  - # 11
    frequency:    9.7663858433
  - # 12
    frequency:   12.4018170781
  - # 13
    frequency:   15.2122375252
  - # 14
    frequency:   17.1136786895
  - # 15
    frequency:   17.1315141229

- q-position: [    0.0555556,    0.0000000,    0.0000000 ]
  distance:    0.0197753
  band:
  - # 1
    frequency:    0.2725755667
  - # 2
    frequency:    0.8704928081
  - # 3
    frequency:    1.4245500986
  - # 4
    frequency:    4.0822970587
  - # 5
    frequency:    4.2460114631
  - # 6
    frequency:    6.0602500802
  - # 7
    frequency:    6.4290604920
  - # 8
    frequency:    6.8593246086
  - # 9
    frequency:    7.9469932376
  - # 10
    frequency:    8.0027328226
  - # 11
    frequency:    9.7614179701
  - # 12
    frequency:   12.3748804495
  - # 13
    frequency:   15.2084829293
  - # 14
    frequency:   17.1121276737
  - # 15
    frequency:   17.1335865046

- q-position: [    0.0606061,    0.0000000,    0.0000000 ]
  distance:    0.0215731
  band:
  - # 1
    frequency:    0.3209694053
  - # 2
    frequency:    0.9476380729
  - # 3
    frequency:    1.5511032530
  - # 4
    frequency:    4.0931749478
  - # 5
    frequency:    4.2848966808
  - # 6
    frequency:    6.0346688062
  - # 7
    frequency:    6.4322248129
  - # 8
    frequency:    6.9024494968
  - # 9
    frequency:    7.9377737756
  - # 10
    frequency:    8.0041245884
  - # 11
    frequency:    9.7560349131
  - # 12
    frequency:   12.3456144386
  - # 13
    frequency:   15.2043359670
  - # 14
    frequency:   17.1104495040
  - # 15
    frequency:   17.1358313343

- q-position: [    0.0656566,    0.0000000,    0.0000000 ]
  distance:    0.0233708
  band:
  - # 1
    frequency:    0.3725058780
  - # 2
    frequency:    1.0242815161
  - # 3
    frequency:    1.6768965250
  - # 4
    frequency:    4.1048898051
  - # 5
    frequency:    4.3260962083
  - # 6
    frequency:    6.0102234584
  - # 7
    frequency:    6.4356574362
  - # 8
    frequency:    6.9456866771
  - # 9
    frequency:    7.9277881641
  - # 10
    frequency:    8.0056663610
  - # 11
    frequency:    9.7502524416
  - # 12
    frequency:   12.3140818021
  - # 13
    frequency:   15.1997907291
  - # 14
    frequency:   17.1086477772
  - # 15
    frequency:   17.1382414463

- q-position: [    0.0707071,    0.0000000,    0.0000000 ]
  distance:    0.0251686
  band:
  - # 1
    frequency:    0.4269905811
  - # 2
    frequency:    1.1003885026
  - # 3
    frequency:    1.8018701612
  - # 4
    frequency:    4.1174159481
  - # 5
    frequency:    4.3694150509
  - # 6
    frequency:    5.9869253225
  - # 7
    frequency:    6.4393558983
  - # 8
    frequency:    6.9889632292
  - # 9
    frequency:    7.9170468137
  - # 10
    frequency:    8.0073609172
  - # 11
    frequency:    9.7440875938
  - # 12
    frequency:   12.2803501238
  - # 13
    frequency:   15.1948421606
  - # 14
    frequency:   17.1067256379
  - # 15
    frequency:   17.1408089097

- q-position: [    0.0757576,    0.0000000,    0.0000000 ]
  distance:    0.0269664
  band:
  - # 1
    frequency:    0.4842334271
  - # 2
    frequency:    1.1759260743
  - # 3
    frequency:    1.9259649209
  - # 4
    frequency:    4.1307262242
  - # 5
    frequency:    4.4146623779
  - # 6
    frequency:    5.9647846505
  - # 7
    frequency:    6.4433172640
  - # 8
    frequency:    7.0322053122
  - # 9
    frequency:    7.9055615250
  - # 10
    frequency:    8.0092097025
  - # 11
    frequency:    9.7375586014
  - # 12
    frequency:   12.2444916944
  - # 13
    frequency:   15.1894863035
  - # 14
    frequency:   17.1046856467
  - # 15
    frequency:   17.1435250018

- q-position: [    0.0808081,    0.0000000,    0.0000000 ]
  distance:    0.0287641
  band:
  - # 1
    frequency:    0.5440500632
  - # 2
    frequency:    1.2508630578
  - # 3
    frequency:    2.0491219828
  - # 4
    frequency:    4.1447921283
  - # 5
    frequency:    4.4616529070
  - # 6
    frequency:    5.9438110026
  - # 7
    frequency:    6.4475380761
  - # 8
    frequency:    7.0753384551
  - # 9
    frequency:    7.8933455890
  - # 10
    frequency:    8.0112125962
  - # 11
    frequency:    9.7306847886
  - # 12
    frequency:   12.2065833914
  - # 13
    frequency:   15.1837205255
  - # 14
    frequency:   17.1025296584
  - # 15
    frequency:   17.1463801851

- q-position: [    0.0858586,    0.0000000,    0.0000000 ]
  distance:    0.0305619
  band:
  - # 1
    frequency:    0.6062629082
  - # 2
    frequency:    1.3251701668
  - # 3
    frequency:    2.1712828214
  - # 4
    frequency:    4.1595839220
  - # 5
    frequency:    4.5102079041
  - # 6
    frequency:    5.9240136112
  - # 7
    frequency:    6.4520143056
  - # 8
    frequency:    7.1182878525
  - # 9
    frequency:    7.8804138872
  - # 10
    frequency:    8.0133677050
  - # 11
    frequency:    9.7234864409
  - # 12
    frequency:   12.1667065642
  - # 13
    frequency:   15.1775437306
  - # 14
    frequency:   17.1002587147
  - # 15
    frequency:   17.1493640850

- q-position: [    0.0909091,    0.0000000,    0.0000000 ]
  distance:    0.0323596
  band:
  - # 1
    frequency:    0.6707018585
  - # 2
    frequency:    1.3988200976
  - # 3
    frequency:    2.2923890516
  - # 4
    frequency:    4.1750707563
  - # 5
    frequency:    4.5601558456
  - # 6
    frequency:    5.9054017666
  - # 7
    frequency:    6.4567413021
  - # 8
    frequency:    7.1609786628
  - # 9
    frequency:    7.8667829875
  - # 10
    frequency:    8.0156711916
  - # 11
    frequency:    9.7159846413
  - # 12
    frequency:   12.1249469231
  - # 13
    frequency:   15.1709565470
  - # 14
    frequency:   17.0978729526
  - # 15
    frequency:   17.1524654716

- q-position: [    0.0959596,    0.0000000,    0.0000000 ]
  distance:    0.0341574
  band:
  - # 1
    frequency:    0.7372047134
  - # 2
    frequency:    1.4717876175
  - # 3
    frequency:    2.4123822358
  - # 4
    frequency:    4.1912207940
  - # 5
    frequency:    4.6113327964
  - # 6
    frequency:    5.8879852234
  - # 7
    frequency:    6.4617137477
  - # 8
    frequency:    7.2033363026
  - # 9
    frequency:    7.8524712355
  - # 10
    frequency:    8.0181171515
  - # 11
    frequency:    9.7082010672
  - # 12
    frequency:   12.0813944353
  - # 13
    frequency:   15.1639614895
  - # 14
    frequency:   17.0953715322
  - # 15
    frequency:   17.1556722450

- q-position: [    0.1010101,    0.0000000,    0.0000000 ]
  distance:    0.0359551
  band:
  - # 1
    frequency:    0.8056173719
  - # 2
    frequency:    1.5440496447
  - # 3
    frequency:    2.5312036526
  - # 4
    frequency:    4.2080013332
  - # 5
    frequency:    4.6635825523
  - # 6
    frequency:    5.8717746298
  - # 7
    frequency:    6.4669256116
  - # 8
    frequency:    7.2452867335
  - # 9
    frequency:    7.8374988389
  - # 10
    frequency:    8.0206975457
  - # 11
    frequency:    9.7001577460
  - # 12
    frequency:   12.0361432283
  - # 13
    frequency:   15.1565630923
  - # 14
    frequency:   17.0927525858
  - # 15
    frequency:   17.1589714254

- q-position: [    0.1060606,    0.0000000,    0.0000000 ]
  distance:    0.0377529
  band:
  - # 1
    frequency:    0.8757938451
  - # 2
    frequency:    1.6155853196
  - # 3
    frequency:    2.6487940221
  - # 4
    frequency:    4.2253789299
  - # 5
    frequency:    4.7167565953
  - # 6
    frequency:    5.8567819787
  - # 7
    frequency:    6.4723701086
  - # 8
    frequency:    7.2867567336
  - # 9
    frequency:    7.8218879450
  - # 10
    frequency:    8.0234022019
  - # 11
    frequency:    9.6918767636
  - # 12
    frequency:   11.9892915021
  - # 13
    frequency:   15.1487680125
  - # 14
    frequency:   17.0900131889
  - # 15
    frequency:   17.1623491478

- q-position: [    0.1111111,    0.0000000,    0.0000000 ]
  distance:    0.0395507
  band:
  - # 1
    frequency:    0.9475961290
  - # 2
    frequency:    1.6863760659
  - # 3
    frequency:    2.7650931839
  - # 4
    frequency:    4.2433195192
  - # 5
    frequency:    4.7707139032
  - # 6
    frequency:    5.8430210846
  - # 7
    frequency:    6.4780396611
  - # 8
    frequency:    7.3276741461
  - # 9
    frequency:    7.8056627074
  - # 10
    frequency:    8.0262188955
  - # 11
    frequency:    9.6833799237
  - # 12
    frequency:   11.9409414516
  - # 13
    frequency:   15.1405850995
  - # 14
    frequency:   17.0871493560
  - # 15
    frequency:   17.1657906636

- q-position: [    0.1161616,    0.0000000,    0.0000000 ]
  distance:    0.0413484
  band:
  - # 1
    frequency:    1.0208939712
  - # 2
    frequency:    1.7564056424
  - # 3
    frequency:    2.8800397231
  - # 4
    frequency:    4.2617885351
  - # 5
    frequency:    4.8253206502
  - # 6
    frequency:    5.8305080866
  - # 7
    frequency:    6.4839258638
  - # 8
    frequency:    7.3679680949
  - # 9
    frequency:    7.7888493436
  - # 10
    frequency:    8.0291335235
  - # 11
    frequency:    9.6746883541
  - # 12
    frequency:   11.8911992002
  - # 13
    frequency:   15.1320254338
  - # 14
    frequency:   17.0841560588
  - # 15
    frequency:   17.1692803472

- q-position: [    0.1212121,    0.0000000,    0.0000000 ]
  distance:    0.0431462
  band:
  - # 1
    frequency:    1.0955645630
  - # 2
    frequency:    1.8256601820
  - # 3
    frequency:    2.9935705392
  - # 4
    frequency:    4.2807510266
  - # 5
    frequency:    4.8804498299
  - # 6
    frequency:    5.8192619810
  - # 7
    frequency:    6.4900194544
  - # 8
    frequency:    7.4075691569
  - # 9
    frequency:    7.7714761797
  - # 10
    frequency:    8.0321303841
  - # 11
    frequency:    9.6658220579
  - # 12
    frequency:   11.8401747447
  - # 13
    frequency:   15.1231023307
  - # 14
    frequency:   17.0810272698
  - # 15
    frequency:   17.1728017111

- q-position: [    0.1262626,    0.0000000,    0.0000000 ]
  distance:    0.0449439
  band:
  - # 1
    frequency:    1.1714921821
  - # 2
    frequency:    1.8941282206
  - # 3
    frequency:    3.1056203541
  - # 4
    frequency:    4.3001717713
  - # 5
    frequency:    4.9359808264
  - # 6
    frequency:    5.8093051867
  - # 7
    frequency:    6.4963102873
  - # 8
    frequency:    7.4464094748
  - # 9
    frequency:    7.7535736819
  - # 10
    frequency:    8.0351925777
  - # 11
    frequency:    9.6567994101
  - # 12
    frequency:   11.7879819131
  - # 13
    frequency:   15.1138313142
  - # 14
    frequency:   17.0777560276
  - # 15
    frequency:   17.1763374272

- q-position: [    0.1313131,    0.0000000,    0.0000000 ]
  distance:    0.0467417
  band:
  - # 1
    frequency:    1.2485678042
  - # 2
    frequency:    1.9618007124
  - # 3
    frequency:    3.2161211523
  - # 4
    frequency:    4.3200153849
  - # 5
    frequency:    4.9917989549
  - # 6
    frequency:    5.8006641464
  - # 7
    frequency:    6.5027873130
  - # 8
    frequency:    7.4844227946
  - # 9
    frequency:    7.7351744750
  - # 10
    frequency:    8.0383025432
  - # 11
    frequency:    9.6476365987
  - # 12
    frequency:   11.7347383355
  - # 13
    frequency:   15.1042300587
  - # 14
    frequency:   17.0743345247
  - # 15
    frequency:   17.1798693569

- q-position: [    0.1363636,    0.0000000,    0.0000000 ]
  distance:    0.0485394
  band:
  - # 1
    frequency:    1.3266887002
  - # 2
    frequency:    2.0286710334
  - # 3
    frequency:    3.3250015513
  - # 4
    frequency:    4.3402464259
  - # 5
    frequency:    5.0477949885
  - # 6
    frequency:    5.7933699661
  - # 7
    frequency:    6.5094385619
  - # 8
    frequency:    7.5215444075
  - # 9
    frequency:    7.7163133448
  - # 10
    frequency:    8.0414427495
  - # 11
    frequency:    9.6383470152
  - # 12
    frequency:   11.6805654271
  - # 13
    frequency:   15.0943183023
  - # 14
    frequency:   17.0707542146
  - # 15
    frequency:   17.1833785884

- q-position: [    0.1414141,    0.0000000,    0.0000000 ]
  distance:    0.0503372
  band:
  - # 1
    frequency:    1.4057580310
  - # 2
    frequency:    2.0947349700
  - # 3
    frequency:    3.4321860990
  - # 4
    frequency:    4.3608294957
  - # 5
    frequency:    5.1038646849
  - # 6
    frequency:    5.7874590956
  - # 7
    frequency:    6.5162511336
  - # 8
    frequency:    7.5577109694
  - # 9
    frequency:    7.6970272255
  - # 10
    frequency:    8.0445965589
  - # 11
    frequency:    9.6289405991
  - # 12
    frequency:   11.6255883835
  - # 13
    frequency:   15.0841177334
  - # 14
    frequency:   17.0670059371
  - # 15
    frequency:   17.1868454832

- q-position: [    0.1464646,    0.0000000,    0.0000000 ]
  distance:    0.0521350
  band:
  - # 1
    frequency:    1.4856844474
  - # 2
    frequency:    2.1599906959
  - # 3
    frequency:    3.5375944996
  - # 4
    frequency:    4.3817293337
  - # 5
    frequency:    5.1599083218
  - # 6
    frequency:    5.7829740477
  - # 7
    frequency:    6.5232111912
  - # 8
    frequency:    7.5928601699
  - # 9
    frequency:    7.6773551704
  - # 10
    frequency:    8.0477492864
  - # 11
    frequency:    9.6194231459
  - # 12
    frequency:   11.5699361856
  - # 13
    frequency:   15.0736518533
  - # 14
    frequency:   17.0630800585
  - # 15
    frequency:   17.1902497310

- q-position: [    0.1515152,    0.0000000,    0.0000000 ]
  distance:    0.0539327
  band:
  - # 1
    frequency:    1.5663817028
  - # 2
    frequency:    2.2244387334
  - # 3
    frequency:    3.6411407738
  - # 4
    frequency:    4.4029109059
  - # 5
    frequency:    5.2158302480
  - # 6
    frequency:    5.7799641552
  - # 7
    frequency:    6.5303039606
  - # 8
    frequency:    7.6269302145
  - # 9
    frequency:    7.6573383061
  - # 10
    frequency:    8.0508894780
  - # 11
    frequency:    9.6097955902
  - # 12
    frequency:   11.5137416115
  - # 13
    frequency:   15.0629458173
  - # 14
    frequency:   17.0589666248
  - # 15
    frequency:   17.1935704127

- q-position: [    0.1565657,    0.0000000,    0.0000000 ]
  distance:    0.0557305
  band:
  - # 1
    frequency:    1.6477682815
  - # 2
    frequency:    2.2880819009
  - # 3
    frequency:    3.7427323701
  - # 4
    frequency:    4.4243394884
  - # 5
    frequency:    5.2715384486
  - # 6
    frequency:    5.7784863535
  - # 7
    frequency:    6.5375137349
  - # 8
    frequency:    7.6370197689
  - # 9
    frequency:    7.6598590787
  - # 10
    frequency:    8.0540104356
  - # 11
    frequency:    9.6000532824
  - # 12
    frequency:   11.4571412493
  - # 13
    frequency:   15.0520262571
  - # 14
    frequency:   17.0546555243
  - # 15
    frequency:   17.1967860722

- q-position: [    0.1616162,    0.0000000,    0.0000000 ]
  distance:    0.0575282
  band:
  - # 1
    frequency:    1.7297670469
  - # 2
    frequency:    2.3509252467
  - # 3
    frequency:    3.8422692552
  - # 4
    frequency:    4.4459807437
  - # 5
    frequency:    5.3269441174
  - # 6
    frequency:    5.7786059795
  - # 7
    frequency:    6.5448238853
  - # 8
    frequency:    7.6164446240
  - # 9
    frequency:    7.6915834914
  - # 10
    frequency:    8.0571120170
  - # 11
    frequency:    9.5901852781
  - # 12
    frequency:   11.4002755034
  - # 13
    frequency:   15.0409210889
  - # 14
    frequency:   17.0501366565
  - # 15
    frequency:   17.1998747971

- q-position: [    0.1666667,    0.0000000,    0.0000000 ]
  distance:    0.0593260
  band:
  - # 1
    frequency:    1.8123049094
  - # 2
    frequency:    2.4129759679
  - # 3
    frequency:    3.9396430319
  - # 4
    frequency:    4.4678007915
  - # 5
    frequency:    5.3819612076
  - # 6
    frequency:    5.7803975675
  - # 7
    frequency:    6.5522168756
  - # 8
    frequency:    7.5956597668
  - # 9
    frequency:    7.7220376036
  - # 10
    frequency:    8.0602027325
  - # 11
    frequency:    9.5801736697
  - # 12
    frequency:   11.3432885835
  - # 13
    frequency:   15.0296593075
  - # 14
    frequency:   17.0454001060
  - # 15
    frequency:   17.2028143068

- q-position: [    0.1717172,    0.0000000,    0.0000000 ]
  distance:    0.0611237
  band:
  - # 1
    frequency:    1.8953125159
  - # 2
    frequency:    2.4742433149
  - # 3
    frequency:    4.0347361623
  - # 4
    frequency:    4.4897662722
  - # 5
    frequency:    5.4365058992
  - # 6
    frequency:    5.7839456356
  - # 7
    frequency:    6.5596742840
  - # 8
    frequency:    7.5747138062
  - # 9
    frequency:    7.7511513205
  - # 10
    frequency:    8.0633021444
  - # 11
    frequency:    9.5699929902
  - # 12
    frequency:   11.2863284590
  - # 13
    frequency:   15.0182707719
  - # 14
    frequency:   17.0404363159
  - # 15
    frequency:   17.2055820488

- q-position: [    0.1767677,    0.0000000,    0.0000000 ]
  distance:    0.0629215
  band:
  - # 1
    frequency:    1.9787239596
  - # 2
    frequency:    2.5347384824
  - # 3
    frequency:    4.1274214097
  - # 4
    frequency:    4.5118444040
  - # 5
    frequency:    5.4904958435
  - # 6
    frequency:    5.7893454943
  - # 7
    frequency:    6.5671768303
  - # 8
    frequency:    7.5536569292
  - # 9
    frequency:    7.7788483164
  - # 10
    frequency:    8.0664435219
  - # 11
    frequency:    9.5596097284
  - # 12
    frequency:   11.2295467602
  - # 13
    frequency:   15.0067859836
  - # 14
    frequency:   17.0352362611
  - # 15
    frequency:   17.2081553023

- q-position: [    0.1818182,    0.0000000,    0.0000000 ]
  distance:    0.0647193
  band:
  - # 1
    frequency:    2.0624765106
  - # 2
    frequency:    2.5944744861
  - # 3
    frequency:    4.2175616631
  - # 4
    frequency:    4.5340030330
  - # 5
    frequency:    5.5438488669
  - # 6
    frequency:    5.7967042374
  - # 7
    frequency:    6.5747044100
  - # 8
    frequency:    7.5325407478
  - # 9
    frequency:    7.8050438675
  - # 10
    frequency:    8.0696765996
  - # 11
    frequency:    9.5489820018
  - # 12
    frequency:   11.1730985958
  - # 13
    frequency:   14.9952358607
  - # 14
    frequency:   17.0297916159
  - # 15
    frequency:   17.2105112888

- q-position: [    0.1868687,    0.0000000,    0.0000000 ]
  distance:    0.0665170
  band:
  - # 1
    frequency:    2.1465103652
  - # 2
    frequency:    2.6534660261
  - # 3
    frequency:    4.3050103647
  - # 4
    frequency:    4.5562106775
  - # 5
    frequency:    5.5964803997
  - # 6
    frequency:    5.8061424370
  - # 7
    frequency:    6.5822361364
  - # 8
    frequency:    7.5114181258
  - # 9
    frequency:    7.8296428451
  - # 10
    frequency:    8.0730700687
  - # 11
    frequency:    9.5380594356
  - # 12
    frequency:   11.1171422545
  - # 13
    frequency:   14.9836515097
  - # 14
    frequency:   17.0240949162
  - # 15
    frequency:   17.2126272888

- q-position: [    0.1919192,    0.0000000,    0.0000000 ]
  distance:    0.0683148
  band:
  - # 1
    frequency:    2.2307684133
  - # 2
    frequency:    2.7117293369
  - # 3
    frequency:    4.3896128221
  - # 4
    frequency:    4.5784365647
  - # 5
    frequency:    5.6482978117
  - # 6
    frequency:    5.8177980883
  - # 7
    frequency:    6.5897503917
  - # 8
    frequency:    7.4903429869
  - # 9
    frequency:    7.8525386023
  - # 10
    frequency:    8.0767130505
  - # 11
    frequency:    9.5267833064
  - # 12
    frequency:   11.0618387457
  - # 13
    frequency:   14.9720639978
  - # 14
    frequency:   17.0181397125
  - # 15
    frequency:   17.2144807643

- q-position: [    0.1969697,    0.0000000,    0.0000000 ]
  distance:    0.0701125
  band:
  - # 1
    frequency:    2.3151960223
  - # 2
    frequency:    2.7692820257
  - # 3
    frequency:    4.4712087349
  - # 4
    frequency:    4.6006506618
  - # 5
    frequency:    5.6991868097
  - # 6
    frequency:    5.8318373294
  - # 7
    frequency:    6.5972248890
  - # 8
    frequency:    7.4693701015
  - # 9
    frequency:    7.8736140644
  - # 10
    frequency:    8.0807142181
  - # 11
    frequency:    9.5150870125
  - # 12
    frequency:   11.0073511301
  - # 13
    frequency:   14.9605041270
  - # 14
    frequency:   17.0119207128
  - # 15
    frequency:   17.2160494854

- q-position: [    0.2020202,    0.0000000,    0.0000000 ]
  distance:    0.0719103
  band:
  - # 1
    frequency:    2.3997408367
  - # 2
    frequency:    2.8261428980
  - # 3
    frequency:    4.5496362812
  - # 4
    frequency:    4.6228237004
  - # 5
    frequency:    5.7489756237
  - # 6
    frequency:    5.8484858736
  - # 7
    frequency:    6.6046367481
  - # 8
    frequency:    7.4485548522
  - # 9
    frequency:    7.8927470073
  - # 10
    frequency:    8.0851965668
  - # 11
    frequency:    9.5028969334
  - # 12
    frequency:   10.9538435820
  - # 13
    frequency:   14.9490022119
  - # 14
    frequency:   17.0054339131
  - # 15
    frequency:   17.2173116625

- q-position: [    0.2070707,    0.0000000,    0.0000000 ]
  distance:    0.0737080
  band:
  - # 1
    frequency:    2.4843525906
  - # 2
    frequency:    2.8823317718
  - # 3
    frequency:    4.6247380500
  - # 4
    frequency:    4.6449271957
  - # 5
    frequency:    5.7973303004
  - # 6
    frequency:    5.8681275648
  - # 7
    frequency:    6.6119625876
  - # 8
    frequency:    7.4279529746
  - # 9
    frequency:    7.9098217856
  - # 10
    frequency:    8.0902855534
  - # 11
    frequency:    9.4901337429
  - # 12
    frequency:   10.9014801249
  - # 13
    frequency:   14.9375878629
  - # 14
    frequency:   16.9986767159
  - # 15
    frequency:   17.2182460797

- q-position: [    0.2121212,    0.0000000,    0.0000000 ]
  distance:    0.0755058
  band:
  - # 1
    frequency:    2.5689829327