nqpoint: 300    
npath: 3      
segment_nqpoint:
- 100
- 100
- 100
labels:
- [ 'G', 'M' ]
- [ 'M', 'K' ]
- [ 'K', 'G' ]
reciprocal_lattice:
- [   0.30826685,   0.17797795,   0.00000000 ] # a*
- [   0.00000000,   0.35595590,   0.00000000 ] # b*
- [   0.00000000,   0.00000000,   0.04274156 ] # c*
natom: 5      
lattice:
- [     3.243942719286380,     0.000000000000000,     0.000000000000000 ] # a
- [    -1.621971359643190,     2.809336803314700,     0.000000000000000 ] # b
- [     0.000000000000000,     0.000000000000000,    23.396431141999937 ] # c
points:
- symbol: Cl # 1
  coordinates: [  0.333332985432215,  0.666666983183674,  0.615325946706303 ]
  mass: 35.453000
- symbol: Cl # 2
  coordinates: [  0.666666984744047,  0.333332985985145,  0.384674053293697 ]
  mass: 35.453000
- symbol: N # 3
  coordinates: [  0.000000000000000,  0.000000000000000,  0.500000037942630 ]
  mass: 14.006700
- symbol: Ti # 4
  coordinates: [  0.333332985432215,  0.666666983183674,  0.456501072462589 ]
  mass: 47.867000
- symbol: Ti # 5
  coordinates: [  0.666666984744047,  0.333332985985145,  0.543498926971093 ]
  mass: 47.867000

phonon:
- q-position: [    0.0000000,    0.0000000,    0.0000000 ]
  distance:    0.0000000
  band:
  - # 1
    frequency:   -0.0000022261
  - # 2
    frequency:   -0.0000000199
  - # 3
    frequency:    0.0000022739
  - # 4
    frequency:    4.0812116803
  - # 5
    frequency:    4.0812116803
  - # 6
    frequency:    6.4153802973
  - # 7
    frequency:    6.4153802973
  - # 8
    frequency:    6.4574053123
  - # 9
    frequency:    7.9887572157
  - # 10
    frequency:    7.9887572157
  - # 11
    frequency:    9.8048917056
  - # 12
    frequency:   12.6204113318
  - # 13
    frequency:   15.2406252196
  - # 14
    frequency:   17.2071600487
  - # 15
    frequency:   17.2071600487

- q-position: [    0.0050505,    0.0000000,    0.0000000 ]
  distance:    0.0017978
  band:
  - # 1
    frequency:    0.0205990723
  - # 2
    frequency:    0.0881718827
  - # 3
    frequency:    0.1399749925
  - # 4
    frequency:    4.0816357995
  - # 5
    frequency:    4.0831283998
  - # 6
    frequency:    6.3958249685
  - # 7
    frequency:    6.4155129249
  - # 8
    frequency:    6.4779433503
  - # 9
    frequency:    7.9883264137
  - # 10
    frequency:    7.9889953107
  - # 11
    frequency:    9.8045917298
  - # 12
    frequency:   12.6189067421
  - # 13
    frequency:   15.2404324982
  - # 14
    frequency:   17.2067494690
  - # 15
    frequency:   17.2071635387

- q-position: [    0.0101010,    0.0000000,    0.0000000 ]
  distance:    0.0035955
  band:
  - # 1
    frequency:    0.0419403611
  - # 2
    frequency:    0.1762666843
  - # 3
    frequency:    0.2798426152
  - # 4
    frequency:    4.0829077818
  - # 5
    frequency:    4.0888639917
  - # 6
    frequency:    6.3647619811
  - # 7
    frequency:    6.4159107446
  - # 8
    frequency:    6.5119489173
  - # 9
    frequency:    7.9870348327
  - # 10
    frequency:    7.9897087966
  - # 11
    frequency:    9.8036929142
  - # 12
    frequency:   12.6143965951
  - # 13
    frequency:   15.2398535743
  - # 14
    frequency:   17.2055211906
  - # 15
    frequency:   17.2071742843

- q-position: [    0.0151515,    0.0000000,    0.0000000 ]
  distance:    0.0053933
  band:
  - # 1
    frequency:    0.0647086664
  - # 2
    frequency:    0.2642076212
  - # 3
    frequency:    0.4194960058
  - # 4
    frequency:    4.0850264999
  - # 5
    frequency:    4.0983751911
  - # 6
    frequency:    6.3329869482
  - # 7
    frequency:    6.4165735643
  - # 8
    frequency:    6.5486098087
  - # 9
    frequency:    7.9848849457
  - # 10
    frequency:    7.9908952735
  - # 11
    frequency:    9.8021985950
  - # 12
    frequency:   12.6068917488
  - # 13
    frequency:   15.2388861901
  - # 14
    frequency:   17.2034855518
  - # 15
    frequency:   17.2071931069

- q-position: [    0.0202020,    0.0000000,    0.0000000 ]
  distance:    0.0071910
  band:
  - # 1
    frequency:    0.0894875205
  - # 2
    frequency:    0.3519185029
  - # 3
    frequency:    0.5588293090
  - # 4
    frequency:    4.0879900685
  - # 5
    frequency:    4.1115913098
  - # 6
    frequency:    6.3017453950
  - # 7
    frequency:    6.4175010552
  - # 8
    frequency:    6.5866530190
  - # 9
    frequency:    7.9818808656
  - # 10
    frequency:    7.9925507311
  - # 11
    frequency:    9.8001143367
  - # 12
    frequency:   12.5964102741
  - # 13
    frequency:   15.2375266551
  - # 14
    frequency:   17.2006596413
  - # 15
    frequency:   17.2072213592

- q-position: [    0.0252525,    0.0000000,    0.0000000 ]
  distance:    0.0089888
  band:
  - # 1
    frequency:    0.1167361221
  - # 2
    frequency:    0.4393240265
  - # 3
    frequency:    0.6977381583
  - # 4
    frequency:    4.0917958359
  - # 5
    frequency:    4.1284162604
  - # 6
    frequency:    6.2713265323
  - # 7
    frequency:    6.4186927393
  - # 8
    frequency:    6.6257512251
  - # 9
    frequency:    7.9780283332
  - # 10
    frequency:    7.9946695319
  - # 11
    frequency:    9.7974479366
  - # 12
    frequency:   12.5829774162
  - # 13
    frequency:   15.2357699532
  - # 14
    frequency:   17.1970670856
  - # 15
    frequency:   17.2072608997

- q-position: [    0.0303030,    0.0000000,    0.0000000 ]
  distance:    0.0107865
  band:
  - # 1
    frequency:    0.1467862259
  - # 2
    frequency:    0.5263500685
  - # 3
    frequency:    0.8361201332
  - # 4
    frequency:    4.0964403701
  - # 5
    frequency:    4.1487311947
  - # 6
    frequency:    6.2418296410
  - # 7
    frequency:    6.4201479719
  - # 8
    frequency:    6.6657567613
  - # 9
    frequency:    7.9733346998
  - # 10
    frequency:    7.9972443894
  - # 11
    frequency:    9.7942094302
  - # 12
    frequency:   12.5666255406
  - # 13
    frequency:   15.2336098923
  - # 14
    frequency:   17.1927377544
  - # 15
    frequency:   17.2073140594

- q-position: [    0.0353535,    0.0000000,    0.0000000 ]
  distance:    0.0125843
  band:
  - # 1
    frequency:    0.1798530428
  - # 2
    frequency:    0.6129239715
  - # 3
    frequency:    0.9738751828
  - # 4
    frequency:    4.1019194423
  - # 5
    frequency:    4.1723975878
  - # 6
    frequency:    6.2132951186
  - # 7
    frequency:    6.4218659189
  - # 8
    frequency:    6.7065710310
  - # 9
    frequency:    7.9678089065
  - # 10
    frequency:    8.0002663385
  - # 11
    frequency:    9.7904110959
  - # 12
    frequency:   12.5473940664
  - # 13
    frequency:   15.2310392931
  - # 14
    frequency:   17.1877073859
  - # 15
    frequency:   17.2073835970

- q-position: [    0.0404040,    0.0000000,    0.0000000 ]
  distance:    0.0143821
  band:
  - # 1
    frequency:    0.2160532186
  - # 2
    frequency:    0.6989748276
  - # 3
    frequency:    1.1109060098
  - # 4
    frequency:    4.1082280053
  - # 5
    frequency:    4.1992605873
  - # 6
    frequency:    6.1857395342
  - # 7
    frequency:    6.4238455303
  - # 8
    frequency:    6.7481100086
  - # 9
    frequency:    7.9614614606
  - # 10
    frequency:    8.0037246994
  - # 11
    frequency:    9.7860674548
  - # 12
    frequency:   12.5253293853
  - # 13
    frequency:   15.2280502159
  - # 14
    frequency:   17.1820171362
  - # 15
    frequency:   17.2074726473

- q-position: [    0.0454545,    0.0000000,    0.0000000 ]
  distance:    0.0161798
  band:
  - # 1
    frequency:    0.2554245513
  - # 2
    frequency:    0.7844337558
  - # 3
    frequency:    1.2471184056
  - # 4
    frequency:    4.1153601672
  - # 5
    frequency:    4.2291524519
  - # 6
    frequency:    6.1591680053
  - # 7
    frequency:    6.4260855090
  - # 8
    frequency:    6.7902925157
  - # 9
    frequency:    7.9543044085
  - # 10
    frequency:    8.0076070341
  - # 11
    frequency:    9.7811952666
  - # 12
    frequency:   12.5004847691
  - # 13
    frequency:   15.2246342233
  - # 14
    frequency:   17.1757130566
  - # 15
    frequency:   17.2075846597

- q-position: [    0.0505051,    0.0000000,    0.0000000 ]
  distance:    0.0179776
  band:
  - # 1
    frequency:    0.2979443426
  - # 2
    frequency:    0.8692341730
  - # 3
    frequency:    1.3824215327
  - # 4
    frequency:    4.1233091611
  - # 5
    frequency:    4.2618959209
  - # 6
    frequency:    6.1335795677
  - # 7
    frequency:    6.4285842758
  - # 8
    frequency:    6.8330355994
  - # 9
    frequency:    7.9463513077
  - # 10
    frequency:    8.0118990941
  - # 11
    frequency:    9.7758135146
  - # 12
    frequency:   12.4729202657
  - # 13
    frequency:   15.2207826735
  - # 14
    frequency:   17.1688455040
  - # 15
    frequency:   17.2077233293

- q-position: [    0.0555556,    0.0000000,    0.0000000 ]
  distance:    0.0197753
  band:
  - # 1
    frequency:    0.3435450491
  - # 2
    frequency:    0.9533120581
  - # 3
    frequency:    1.5167281466
  - # 4
    frequency:    4.1320673088
  - # 5
    frequency:    4.2973073867
  - # 6
    frequency:    6.1089699481
  - # 7
    frequency:    6.4313399309
  - # 8
    frequency:    6.8762526004
  - # 9
    frequency:    7.9376171975
  - # 10
    frequency:    8.0165847600
  - # 11
    frequency:    9.7699433799
  - # 12
    frequency:   12.4427025849
  - # 13
    frequency:   15.2164870417
  - # 14
    frequency:   17.1614684928
  - # 15
    frequency:   17.2078925215

- q-position: [    0.0606061,    0.0000000,    0.0000000 ]
  distance:    0.0215731
  band:
  - # 1
    frequency:    0.3921269721
  - # 2
    frequency:    1.0366062085
  - # 3
    frequency:    1.6499547531
  - # 4
    frequency:    4.1416259801
  - # 5
    frequency:    4.3351997736
  - # 6
    frequency:    6.0853332341
  - # 7
    frequency:    6.4343502128
  - # 8
    frequency:    6.9198524156
  - # 9
    frequency:    7.9281185699
  - # 10
    frequency:    8.0216459695
  - # 11
    frequency:    9.7636081969
  - # 12
    frequency:   12.4099049755
  - # 13
    frequency:   15.2117392631
  - # 14
    frequency:   17.1536389949
  - # 15
    frequency:   17.2080961887

- q-position: [    0.0656566,    0.0000000,    0.0000000 ]
  distance:    0.0233708
  band:
  - # 1
    frequency:    0.4435682329
  - # 2
    frequency:    1.1190584888
  - # 3
    frequency:    1.7820216959
  - # 4
    frequency:    4.1519755464
  - # 5
    frequency:    4.3753850620
  - # 6
    frequency:    6.0626630230
  - # 7
    frequency:    6.4376124546
  - # 8
    frequency:    6.9637393724
  - # 9
    frequency:    7.9178733406
  - # 10
    frequency:    8.0270626341
  - # 11
    frequency:    9.7568333885
  - # 12
    frequency:   12.3746070946
  - # 13
    frequency:   15.2065320922
  - # 14
    frequency:   17.1454161973
  - # 15
    frequency:   17.2083382829

- q-position: [    0.0707071,    0.0000000,    0.0000000 ]
  distance:    0.0251686
  band:
  - # 1
    frequency:    0.4977324600
  - # 2
    frequency:    1.2006140695
  - # 3
    frequency:    1.9128531721
  - # 4
    frequency:    4.1631053295
  - # 5
    frequency:    4.4176764269
  - # 6
    frequency:    6.0409532993
  - # 7
    frequency:    6.4411235387
  - # 8
    frequency:    7.0078134656
  - # 9
    frequency:    7.9069008211
  - # 10
    frequency:    8.0328125419
  - # 11
    frequency:    9.7496463736
  - # 12
    frequency:   12.3368948689
  - # 13
    frequency:   15.2008594716
  - # 14
    frequency:   17.1368607293
  - # 15
    frequency:   17.2086226620

- q-position: [    0.0757576,    0.0000000,    0.0000000 ]
  distance:    0.0269664
  band:
  - # 1
    frequency:    0.5544746300
  - # 2
    frequency:    1.2812216569
  - # 3
    frequency:    2.0423771702
  - # 4
    frequency:    4.1750035450
  - # 5
    frequency:    4.4618899864
  - # 6
    frequency:    6.0201991573
  - # 7
    frequency:    6.4448798508
  - # 8
    frequency:    7.0519708369
  - # 9
    frequency:    7.8952216932
  - # 10
    frequency:    8.0388712461
  - # 11
    frequency:    9.7420764411
  - # 12
    frequency:   12.2968603519
  - # 13
    frequency:   15.1947169008
  - # 14
    frequency:   17.1280338698
  - # 15
    frequency:   17.2089529937

- q-position: [    0.0808081,    0.0000000,    0.0000000 ]
  distance:    0.0287641
  band:
  - # 1
    frequency:    0.6136454489
  - # 2
    frequency:    1.3608337124
  - # 3
    frequency:    2.1705253298
  - # 4
    frequency:    4.1876572416
  - # 5
    frequency:    4.5078461749
  - # 6
    frequency:    6.0003974309
  - # 7
    frequency:    6.4488772337
  - # 8
    frequency:    7.0961044384
  - # 9
    frequency:    7.8828579847
  - # 10
    frequency:    8.0452119374
  - # 11
    frequency:    9.7341545849
  - # 12
    frequency:   12.2546015753
  - # 13
    frequency:   15.1881017980
  - # 14
    frequency:   17.1189967485
  - # 15
    frequency:   17.2093326550

- q-position: [    0.0858586,    0.0000000,    0.0000000 ]
  distance:    0.0305619
  band:
  - # 1
    frequency:    0.6750945951
  - # 2
    frequency:    1.4394066602
  - # 3
    frequency:    2.2972327207
  - # 4
    frequency:    4.2010522361
  - # 5
    frequency:    4.5553707721
  - # 6
    frequency:    5.9815472624
  - # 7
    frequency:    6.4531109423
  - # 8
    frequency:    7.1401048463
  - # 9
    frequency:    7.8698330475
  - # 10
    frequency:    8.0518053021
  - # 11
    frequency:    9.7259132901
  - # 12
    frequency:   12.2102223966
  - # 13
    frequency:   15.1810138450
  - # 14
    frequency:   17.1098095550
  - # 15
    frequency:   17.2097646315

- q-position: [    0.0909091,    0.0000000,    0.0000000 ]
  distance:    0.0323596
  band:
  - # 1
    frequency:    0.7386730806
  - # 2
    frequency:    1.5169010834
  - # 3
    frequency:    2.4224375379
  - # 4
    frequency:    4.2151730459
  - # 5
    frequency:    4.6042956234
  - # 6
    frequency:    5.9636506325
  - # 7
    frequency:    6.4575756004
  - # 8
    frequency:    7.1838612007
  - # 9
    frequency:    7.8561715374
  - # 10
    frequency:    8.0586193660
  - # 11
    frequency:    9.7173862652
  - # 12
    frequency:   12.1638323453
  - # 13
    frequency:   15.1734553048
  - # 14
    frequency:   17.1005307694
  - # 15
    frequency:   17.2102514147

- q-position: [    0.0959596,    0.0000000,    0.0000000 ]
  distance:    0.0341574
  band:
  - # 1
    frequency:    0.8042349292
  - # 2
    frequency:    1.5932819059
  - # 3
    frequency:    2.5460807130
  - # 4
    frequency:    4.2300028191
  - # 5
    frequency:    4.6544590962
  - # 6
    frequency:    5.9467128669
  - # 7
    frequency:    6.4622651602
  - # 8
    frequency:    7.2272622566
  - # 9
    frequency:    7.8418993963
  - # 10
    frequency:    8.0656193298
  - # 11
    frequency:    9.7086081105
  - # 12
    frequency:   12.1155464664
  - # 13
    frequency:   15.1654313036
  - # 14
    frequency:   17.0912164309
  - # 15
    frequency:   17.2107949004

- q-position: [    0.1010101,    0.0000000,    0.0000000 ]
  distance:    0.0359551
  band:
  - # 1
    frequency:    0.8716383335
  - # 2
    frequency:    1.6685185609
  - # 3
    frequency:    2.6681054377
  - # 4
    frequency:    4.2455232645
  - # 5
    frequency:    4.7057063125
  - # 6
    frequency:    5.9307431304
  - # 7
    frequency:    6.4671728662
  - # 8
    frequency:    7.2701975281
  - # 9
    frequency:    7.8270438348
  - # 10
    frequency:    8.0727674024
  - # 11
    frequency:    9.6996139142
  - # 12
    frequency:   12.0654851644
  - # 13
    frequency:   15.1569500663
  - # 14
    frequency:   17.0819194552
  - # 15
    frequency:   17.2113962884

- q-position: [    0.1060606,    0.0000000,    0.0000000 ]
  distance:    0.0377529
  band:
  - # 1
    frequency:    0.9407464104
  - # 2
    frequency:    1.7425851414
  - # 3
    frequency:    2.7884565988
  - # 4
    frequency:    4.2617145829
  - # 5
    frequency:    4.7578892011
  - # 6
    frequency:    5.9157549228
  - # 7
    frequency:    6.4722912236
  - # 8
    frequency:    7.3125585080
  - # 9
    frequency:    7.8116333158
  - # 10
    frequency:    8.0800226438
  - # 11
    frequency:    9.6904387691
  - # 12
    frequency:   12.0137740483
  - # 13
    frequency:   15.1480230989
  - # 14
    frequency:   17.0726890181
  - # 15
    frequency:   17.2120559855

- q-position: [    0.1111111,    0.0000000,    0.0000000 ]
  distance:    0.0395507
  band:
  - # 1
    frequency:    1.0114276553
  - # 2
    frequency:    1.8154605347
  - # 3
    frequency:    2.9070801209
  - # 4
    frequency:    4.2785554015
  - # 5
    frequency:    4.8108664044
  - # 6
    frequency:    5.9017665862
  - # 7
    frequency:    6.4776119727
  - # 8
    frequency:    7.3542399402
  - # 9
    frequency:    7.7956975377
  - # 10
    frequency:    8.0873408317
  - # 11
    frequency:    9.6811172020
  - # 12
    frequency:   11.9605437787
  - # 13
    frequency:   15.1386653089
  - # 14
    frequency:   17.0635700134
  - # 15
    frequency:   17.2127735114

- q-position: [    0.1161616,    0.0000000,    0.0000000 ]
  distance:    0.0413484
  band:
  - # 1
    frequency:    1.0835561691
  - # 2
    frequency:    1.8871285351
  - # 3
    frequency:    3.0239222143
  - # 4
    frequency:    4.2960227145
  - # 5
    frequency:    4.8645030754
  - # 6
    frequency:    5.8888018359
  - # 7
    frequency:    6.4831260712
  - # 8
    frequency:    7.3951411185
  - # 9
    frequency:    7.7792674152
  - # 10
    frequency:    8.0946743746
  - # 11
    frequency:    9.6716825091
  - # 12
    frequency:   11.9059299175
  - # 13
    frequency:   15.1288950592
  - # 14
    frequency:   17.0546025978
  - # 15
    frequency:   17.2135474114

- q-position: [    0.1212121,    0.0000000,    0.0000000 ]
  distance:    0.0431462
  band:
  - # 1
    frequency:    1.1570117179
  - # 2
    frequency:    1.9575779359
  - # 3
    frequency:    3.1389285219
  - # 4
    frequency:    4.3140918307
  - # 5
    frequency:    4.9186705943
  - # 6
    frequency:    5.8768903284
  - # 7
    frequency:    6.4888236830
  - # 8
    frequency:    7.4351671772
  - # 9
    frequency:    7.7623750586
  - # 10
    frequency:    8.1019722956
  - # 11
    frequency:    9.6621659955
  - # 12
    frequency:   11.8500727827
  - # 13
    frequency:   15.1187341520
  - # 14
    frequency:   17.0458218297
  - # 15
    frequency:   17.2143751736

- q-position: [    0.1262626,    0.0000000,    0.0000000 ]
  distance:    0.0449439
  band:
  - # 1
    frequency:    1.2316796724
  - # 2
    frequency:    2.0268025961
  - # 3
    frequency:    3.2520431625
  - # 4
    frequency:    4.3327363325
  - # 5
    frequency:    4.9732462279
  - # 6
    frequency:    5.8660682773
  - # 7
    frequency:    6.4946941767
  - # 8
    frequency:    7.4742303367
  - # 9
    frequency:    7.7450537475
  - # 10
    frequency:    8.1091803164
  - # 11
    frequency:    9.6525961175
  - # 12
    frequency:   11.7931173065
  - # 13
    frequency:   15.1082077405
  - # 14
    frequency:   17.0372574056
  - # 15
    frequency:   17.2152531551

- q-position: [    0.1313131,    0.0000000,    0.0000000 ]
  distance:    0.0467417
  band:
  - # 1
    frequency:    1.3074508618
  - # 2
    frequency:    2.0948014800
  - # 3
    frequency:    3.3632076636
  - # 4
    frequency:    4.3519280473
  - # 5
    frequency:    5.0281127564
  - # 6
    frequency:    5.8563791297
  - # 7
    frequency:    6.5007261334
  - # 8
    frequency:    7.5122510566
  - # 9
    frequency:    7.7273378996
  - # 10
    frequency:    8.1162410768
  - # 11
    frequency:    9.6429975321
  - # 12
    frequency:   11.7352128989
  - # 13
    frequency:   15.0973441713
  - # 14
    frequency:   17.0289334991
  - # 15
    frequency:   17.2161765160

- q-position: [    0.1363636,    0.0000000,    0.0000000 ]
  distance:    0.0485394
  band:
  - # 1
    frequency:    1.3842213714
  - # 2
    frequency:    2.1615786673
  - # 3
    frequency:    3.4723597798
  - # 4
    frequency:    4.3716370353
  - # 5
    frequency:    5.0831580852
  - # 6
    frequency:    5.8478743129
  - # 7
    frequency:    6.5069073648
  - # 8
    frequency:    7.5491590475
  - # 9
    frequency:    7.7092630318
  - # 10
    frequency:    8.1230945227
  - # 11
    frequency:    9.6333900646
  - # 12
    frequency:   11.6765133136
  - # 13
    frequency:   15.0861747600
  - # 14
    frequency:   17.0208686987
  - # 15
    frequency:   17.2171391632

- q-position: [    0.1414141,    0.0000000,    0.0000000 ]
  distance:    0.0503372
  band:
  - # 1
    frequency:    1.4618923047
  - # 2
    frequency:    2.2271433313
  - # 3
    frequency:    3.5794321948
  - # 4
    frequency:    4.3918315945
  - # 5
    frequency:    5.1382748578
  - # 6
    frequency:    5.8406140568
  - # 7
    frequency:    6.5132249420
  - # 8
    frequency:    7.5848940904
  - # 9
    frequency:    7.6908657123
  - # 10
    frequency:    8.1296784960
  - # 11
    frequency:    9.6237876122
  - # 12
    frequency:   11.6171765150
  - # 13
    frequency:   15.0747335053
  - # 14
    frequency:   17.0130760438
  - # 15
    frequency:   17.2181337047

- q-position: [    0.1464646,    0.0000000,    0.0000000 ]
  distance:    0.0521350
  band:
  - # 1
    frequency:    1.5403695260
  - # 2
    frequency:    2.2915096814
  - # 3
    frequency:    3.6843511086
  - # 4
    frequency:    4.4124782865
  - # 5
    frequency:    5.1933600876
  - # 6
    frequency:    5.8346682915
  - # 7
    frequency:    6.5196652349
  - # 8
    frequency:    7.6194066108
  - # 9
    frequency:    7.6721835027
  - # 10
    frequency:    8.1359295519
  - # 11
    frequency:    9.6141970086
  - # 12
    frequency:   11.5573645411
  - # 13
    frequency:   15.0630567516
  - # 14
    frequency:   17.0055631504
  - # 15
    frequency:   17.2191514159

- q-position: [    0.1515152,    0.0000000,    0.0000000 ]
  distance:    0.0539327
  band:
  - # 1
    frequency:    1.6195633965
  - # 2
    frequency:    2.3546968702
  - # 3
    frequency:    3.7870347230
  - # 4
    frequency:    4.4335419835
  - # 5
    frequency:    5.2483148220
  - # 6
    frequency:    5.8301176080
  - # 7
    frequency:    6.5262139646
  - # 8
    frequency:    7.6526579624
  - # 9
    frequency:    7.6532548880
  - # 10
    frequency:    8.1417840226
  - # 11
    frequency:    9.6046168863
  - # 12
    frequency:   11.4972433548
  - # 13
    frequency:   15.0511828076
  - # 14
    frequency:   16.9983324200
  - # 15
    frequency:   17.2201822181

- q-position: [    0.1565657,    0.0000000,    0.0000000 ]
  distance:    0.0557305
  band:
  - # 1
    frequency:    1.6993885117
  - # 2
    frequency:    2.4167288598
  - # 3
    frequency:    3.8873916528
  - # 4
    frequency:    4.4549859391
  - # 5
    frequency:    5.3030438556
  - # 6
    frequency:    5.8270542489
  - # 7
    frequency:    6.5328562659
  - # 8
    frequency:    7.6341191927
  - # 9
    frequency:    7.6846203809
  - # 10
    frequency:    8.1471793291
  - # 11
    frequency:    9.5950365823
  - # 12
    frequency:   11.4369826737
  - # 13
    frequency:   15.0391515320
  - # 14
    frequency:   16.9913813208
  - # 15
    frequency:   17.2212146695

- q-position: [    0.1616162,    0.0000000,    0.0000000 ]
  distance:    0.0575282
  band:
  - # 1
    frequency:    1.7797634480
  - # 2
    frequency:    2.4776342491
  - # 3
    frequency:    3.9853193145
  - # 4
    frequency:    4.4767718822
  - # 5
    frequency:    5.3574555099
  - # 6
    frequency:    5.8255830714
  - # 7
    frequency:    6.5395767627
  - # 8
    frequency:    7.6148164839
  - # 9
    frequency:    7.7152765819
  - # 10
    frequency:    8.1520555310
  - # 11
    frequency:    9.5854351415
  - # 12
    frequency:   11.3767557603
  - # 13
    frequency:   15.0270038986
  - # 14
    frequency:   16.9847027303
  - # 15
    frequency:   17.2222359708

- q-position: [    0.1666667,    0.0000000,    0.0000000 ]
  distance:    0.0593260
  band:
  - # 1
    frequency:    1.8606105221
  - # 2
    frequency:    2.5374460590
  - # 3
    frequency:    4.0807023856
  - # 4
    frequency:    4.4988601352
  - # 5
    frequency:    5.4114614972
  - # 6
    frequency:    5.8258223792
  - # 7
    frequency:    6.5463596551
  - # 8
    frequency:    7.5953874578
  - # 9
    frequency:    7.7446189907
  - # 10
    frequency:    8.1563570853
  - # 11
    frequency:    9.5757804838
  - # 12
    frequency:   11.3167391536
  - # 13
    frequency:   15.0147815502
  - # 14
    frequency:   16.9782853273
  - # 15
    frequency:   17.2232319850

- q-position: [    0.1717172,    0.0000000,    0.0000000 ]
  distance:    0.0611237
  band:
  - # 1
    frequency:    1.9418555668
  - # 2
    frequency:    2.5962014756
  - # 3
    frequency:    4.1734114830
  - # 4
    frequency:    4.5212097553
  - # 5
    frequency:    5.4649768846
  - # 6
    frequency:    5.8279044685
  - # 7
    frequency:    6.5531888175
  - # 8
    frequency:    7.5758733102
  - # 9
    frequency:    7.7726486011
  - # 10
    frequency:    8.1600347750
  - # 11
    frequency:    9.5660288065
  - # 12
    frequency:   11.2571123111
  - # 13
    frequency:   15.0025263538
  - # 14
    frequency:   16.9721140218
  - # 15
    frequency:   17.2241872710

- q-position: [    0.1767677,    0.0000000,    0.0000000 ]
  distance:    0.0629215
  band:
  - # 1
    frequency:    2.0234277253
  - # 2
    frequency:    2.6539415515
  - # 3
    frequency:    4.2633022839
  - # 4
    frequency:    4.5437786977
  - # 5
    frequency:    5.5179201652
  - # 6
    frequency:    5.8319756624
  - # 7
    frequency:    6.5600479088
  - # 8
    frequency:    7.5563155911
  - # 9
    frequency:    7.7993734745
  - # 10
    frequency:    8.1630477619
  - # 11
    frequency:    9.5561243002
  - # 12
    frequency:   11.1980571239
  - # 13
    frequency:   14.9902799661
  - # 14
    frequency:   16.9661704101
  - # 15
    frequency:   17.2250851336

- q-position: [    0.1818182,    0.0000000,    0.0000000 ]
  distance:    0.0647193
  band:
  - # 1
    frequency:    2.1052592636
  - # 2
    frequency:    2.7107108665
  - # 3
    frequency:    4.3502154171
  - # 4
    frequency:    4.5665239990
  - # 5
    frequency:    5.5702134061
  - # 6
    frequency:    5.8381955443
  - # 7
    frequency:    6.5669204931
  - # 8
    frequency:    7.5367560416
  - # 9
    frequency:    7.8248068884
  - # 10
    frequency:    8.1653657211
  - # 11
    frequency:    9.5459992597
  - # 12
    frequency:   11.1397572602
  - # 13
    frequency:   14.9780834180
  - # 14
    frequency:   16.9604332451
  - # 15
    frequency:   17.2259076871

- q-position: [    0.1868687,    0.0000000,    0.0000000 ]
  distance:    0.0665170
  band:
  - # 1
    frequency:    2.1872854045
  - # 2
    frequency:    2.7665571488
  - # 3
    frequency:    4.4339775612
  - # 4
    frequency:    4.5894019788
  - # 5
    frequency:    5.6217823469
  - # 6
    frequency:    5.8467350864
  - # 7
    frequency:    6.5737901709
  - # 8
    frequency:    7.5172364142
  - # 9
    frequency:    7.8489651356
  - # 10
    frequency:    8.1669710356
  - # 11
    frequency:    9.5355746675
  - # 12
    frequency:   11.0823972801
  - # 13
    frequency:   14.9659767261
  - # 14
    frequency:   16.9548789112
  - # 15
    frequency:   17.2266359350

- q-position: [    0.1919192,    0.0000000,    0.0000000 ]
  distance:    0.0683148
  band:
  - # 1
    frequency:    2.2694441793
  - # 2
    frequency:    2.8215308588
  - # 3
    frequency:    4.5144042966
  - # 4
    frequency:    4.6123684557
  - # 5
    frequency:    5.6725560462
  - # 6
    frequency:    5.8577735351
  - # 7
    frequency:    6.5806407201
  - # 8
    frequency:    7.4977982770
  - # 9
    frequency:    7.8718649522
  - # 10
    frequency:    8.1678610631
  - # 11
    frequency:    9.5247613264
  - # 12
    frequency:   11.0261614610
  - # 13
    frequency:   14.9539985358
  - # 14
    frequency:   16.9494818958
  - # 15
    frequency:   17.2272498642

- q-position: [    0.1969697,    0.0000000,    0.0000000 ]
  distance:    0.0701125
  band:
  - # 1
    frequency:    2.3516762995
  - # 2
    frequency:    2.8756847391
  - # 3
    frequency:    4.5913053156
  - # 4
    frequency:    4.6353789748
  - # 5
    frequency:    5.7224649377
  - # 6
    frequency:    5.8714945969
  - # 7
    frequency:    6.5874562453
  - # 8
    frequency:    7.4784828019
  - # 9
    frequency:    7.8935205074
  - # 10
    frequency:    8.1680505435
  - # 11
    frequency:    9.5134616023
  - # 12
    frequency:   10.9712322680
  - # 13
    frequency:   14.9421858008
  - # 14
    frequency:   16.9442152495
  - # 15
    frequency:   17.2277285544

- q-position: [    0.2020202,    0.0000000,    0.0000000 ]
  distance:    0.0719103
  band:
  - # 1
    frequency:    2.4339250469
  - # 2
    frequency:    2.9290733337
  - # 3
    frequency:    4.6583890443
  - # 4
    frequency:    4.6644925343
  - # 5
    frequency:    5.7714340933
  - # 6
    frequency:    5.8880845919
  - # 7
    frequency:    6.5942213353
  - # 8
    frequency:    7.4593305380
  - # 9
    frequency:    7.9139398276
  - # 10
    frequency:    8.1675742924
  - # 11
    frequency:    9.5015718223
  - # 12
    frequency:   10.9177884103
  - # 13
    frequency:   14.9305735005
  - # 14
    frequency:   16.9390510291
  - # 15
    frequency:   17.2280503012

- q-position: [    0.2070707,    0.0000000,    0.0000000 ]
  distance:    0.0737080
  band:
  - # 1
    frequency:    2.5161361804
  - # 2
    frequency:    2.9817524804
  - # 3
    frequency:    4.6813543761
  - # 4
    frequency:    4.7337913819
  - # 5
    frequency:    5.8193625582
  - # 6
    frequency:    5.9077414435
  - # 7
    frequency:    6.6009212264
  - # 8
    frequency:    7.4403811727
  - # 9
    frequency:    7.9331204374
  - # 10
    frequency:    8.1664904228
  - # 11
    frequency:    9.4889853431
  - # 12
    frequency:   10.8660024376
  - # 13
    frequency:   14.9191943972
  - # 14
    frequency:   16.9339607201
  - # 15
    frequency:   17.2281927527

- q-position: [    0.2121212,    0.0000000,    0.0000000 ]
  distance:    0.0755058
  band:
  - # 1
    frequency:    2.5982578595