nqpoint: 300    
npath: 3      
segment_nqpoint:
- 100
- 100
- 100
labels:
- [ 'G', 'M' ]
- [ 'M', 'K' ]
- [ 'K', 'G' ]
reciprocal_lattice:
- [   0.28212492,   0.16288490,   0.00000000 ] # a*
- [   0.00000000,   0.32576979,   0.00000000 ] # b*
- [   0.00000000,   0.00000000,   0.04095048 ] # c*
natom: 6      
lattice:
- [     3.544529168258042,     0.000000000000000,     0.000000000000000 ] # a
- [    -1.772264584129021,     3.069652304164491,     0.000000000000000 ] # b
- [     0.000000000000000,     0.000000000000000,    24.419739146646641 ] # c
points:
- symbol: C # 1
  coordinates: [  0.333332985432215,  0.666666983183674,  0.582324085717534 ]
  mass: 12.010700
- symbol: H # 2
  coordinates: [  0.666666984744048,  0.333332985985145,  0.368554305431059 ]
  mass: 1.007940
- symbol: N # 3
  coordinates: [  0.000000000000000,  0.000000000000000,  0.465342938741492 ]
  mass: 14.006700
- symbol: N # 4
  coordinates: [  0.333332985432215,  0.666666983183674,  0.631445694568941 ]
  mass: 14.006700
- symbol: Y # 5
  coordinates: [  0.333332985432215,  0.666666983183674,  0.410330757864301 ]
  mass: 88.905850
- symbol: Y # 6
  coordinates: [  0.666666984744048,  0.333332985985145,  0.519621194045362 ]
  mass: 88.905850

phonon:
- q-position: [    0.0000000,    0.0000000,    0.0000000 ]
  distance:    0.0000000
  band:
  - # 1
    frequency:   -2.4890702233
  - # 2
    frequency:   -2.4890702233
  - # 3
    frequency:   -0.0000067245
  - # 4
    frequency:   -0.0000004450
  - # 5
    frequency:    0.0000067346
  - # 6
    frequency:    3.7615291665
  - # 7
    frequency:    3.7615291665
  - # 8
    frequency:    5.6544653240
  - # 9
    frequency:    7.6587283429
  - # 10
    frequency:    7.6587283429
  - # 11
    frequency:    8.1166454462
  - # 12
    frequency:   10.9369333520
  - # 13
    frequency:   11.1887647193
  - # 14
    frequency:   11.1887647193
  - # 15
    frequency:   25.1761840800
  - # 16
    frequency:   27.2330702949
  - # 17
    frequency:   27.2330702949
  - # 18
    frequency:   62.1663739168

- q-position: [    0.0050505,    0.0000000,    0.0000000 ]
  distance:    0.0016453
  band:
  - # 1
    frequency:   -2.4890077977
  - # 2
    frequency:   -2.4887779891
  - # 3
    frequency:    0.0015040177
  - # 4
    frequency:    0.0774178262
  - # 5
    frequency:    0.0920542186
  - # 6
    frequency:    3.7615285457
  - # 7
    frequency:    3.7621317596
  - # 8
    frequency:    5.6542950744
  - # 9
    frequency:    7.6586438458
  - # 10
    frequency:    7.6589946455
  - # 11
    frequency:    8.1162660218
  - # 12
    frequency:   10.9369928093
  - # 13
    frequency:   11.1887425705
  - # 14
    frequency:   11.1887994043
  - # 15
    frequency:   25.1750787471
  - # 16
    frequency:   27.2329222067
  - # 17
    frequency:   27.2334883284
  - # 18
    frequency:   62.1662963836

- q-position: [    0.0101010,    0.0000000,    0.0000000 ]
  distance:    0.0032906
  band:
  - # 1
    frequency:   -2.4888217995
  - # 2
    frequency:   -2.4879053085
  - # 3
    frequency:    0.0060111868
  - # 4
    frequency:    0.1547837089
  - # 5
    frequency:    0.1840760624
  - # 6
    frequency:    3.7615282704
  - # 7
    frequency:    3.7639380074
  - # 8
    frequency:    5.6537844060
  - # 9
    frequency:    7.6583906242
  - # 10
    frequency:    7.6597935883
  - # 11
    frequency:    8.1151287426
  - # 12
    frequency:   10.9371713908
  - # 13
    frequency:   11.1886758327
  - # 14
    frequency:   11.1889029421
  - # 15
    frequency:   25.1717658066
  - # 16
    frequency:   27.2324780155
  - # 17
    frequency:   27.2347416142
  - # 18
    frequency:   62.1660639671

- q-position: [    0.0151515,    0.0000000,    0.0000000 ]
  distance:    0.0049359
  band:
  - # 1
    frequency:   -2.4885160209
  - # 2
    frequency:   -2.4864641613
  - # 3
    frequency:    0.0135070111
  - # 4
    frequency:    0.2320454774
  - # 5
    frequency:    0.2760326315
  - # 6
    frequency:    3.7615330885
  - # 7
    frequency:    3.7669433446
  - # 8
    frequency:    5.6529335626
  - # 9
    frequency:    7.6579694879
  - # 10
    frequency:    7.6611252708
  - # 11
    frequency:    8.1132365994
  - # 12
    frequency:   10.9374696612
  - # 13
    frequency:   11.1885636309
  - # 14
    frequency:   11.1890738452
  - # 15
    frequency:   25.1662544028
  - # 16
    frequency:   27.2317379427
  - # 17
    frequency:   27.2368277293
  - # 18
    frequency:   62.1656772159

- q-position: [    0.0202020,    0.0000000,    0.0000000 ]
  distance:    0.0065812
  band:
  - # 1
    frequency:   -2.4880966392
  - # 2
    frequency:   -2.4844742307
  - # 3
    frequency:    0.0239673897
  - # 4
    frequency:    0.3091505236
  - # 5
    frequency:    0.3678900039
  - # 6
    frequency:    3.7615508705
  - # 7
    frequency:    3.7711402575
  - # 8
    frequency:    5.6517429594
  - # 9
    frequency:    7.6573817867
  - # 10
    frequency:    7.6629898423
  - # 11
    frequency:    8.1105946091
  - # 12
    frequency:   10.9378883521
  - # 13
    frequency:   11.1884045049
  - # 14
    frequency:   11.1893098424
  - # 15
    frequency:   25.1585596748
  - # 16
    frequency:   27.2307023587
  - # 17
    frequency:   27.2397427052
  - # 18
    frequency:   62.1651370424

- q-position: [    0.0252525,    0.0000000,    0.0000000 ]
  distance:    0.0082265
  band:
  - # 1
    frequency:   -2.4875720123
  - # 2
    frequency:   -2.4819624883
  - # 3
    frequency:    0.0373587496
  - # 4
    frequency:    0.3860456306
  - # 5
    frequency:    0.4596127893
  - # 6
    frequency:    3.7615925439
  - # 7
    frequency:    3.7765184219
  - # 8
    frequency:    5.6502131971
  - # 9
    frequency:    7.6566294117
  - # 10
    frequency:    7.6653874756
  - # 11
    frequency:    8.1072098624
  - # 12
    frequency:   10.9384280565
  - # 13
    frequency:   11.1881964057
  - # 14
    frequency:   11.1896081825
  - # 15
    frequency:   25.1487026088
  - # 16
    frequency:   27.2293717856
  - # 17
    frequency:   27.2434811290
  - # 18
    frequency:   62.1644447196

- q-position: [    0.0303030,    0.0000000,    0.0000000 ]
  distance:    0.0098718
  band:
  - # 1
    frequency:   -2.4869524076
  - # 2
    frequency:   -2.4789626327
  - # 3
    frequency:    0.0536382114
  - # 4
    frequency:    0.4626768502
  - # 5
    frequency:    0.5511637580
  - # 6
    frequency:    3.7616720037
  - # 7
    frequency:    3.7830648878
  - # 8
    frequency:    5.6483450800
  - # 9
    frequency:    7.6557147955
  - # 10
    frequency:    7.6683183267
  - # 11
    frequency:    8.1030915904
  - # 12
    frequency:   10.9390888219
  - # 13
    frequency:   11.1879366918
  - # 14
    frequency:   11.1899660415
  - # 15
    frequency:   25.1367098398
  - # 16
    frequency:   27.2277469000
  - # 17
    frequency:   27.2480362767
  - # 18
    frequency:   62.1636018773

- q-position: [    0.0353535,    0.0000000,    0.0000000 ]
  distance:    0.0115171
  band:
  - # 1
    frequency:   -2.4862496826
  - # 2
    frequency:   -2.4755143987
  - # 3
    frequency:    0.0727537991
  - # 4
    frequency:    0.5389894445
  - # 5
    frequency:    0.6425035588
  - # 6
    frequency:    3.7618059970
  - # 7
    frequency:    3.7907643009
  - # 8
    frequency:    5.6461396398
  - # 9
    frequency:    7.6546409122
  - # 10
    frequency:    7.6717824785
  - # 11
    frequency:    8.0982512503
  - # 12
    frequency:   10.9398696578
  - # 13
    frequency:   11.1876221246
  - # 14
    frequency:   11.1903810186
  - # 15
    frequency:   25.1226134092
  - # 16
    frequency:   27.2258285379
  - # 17
    frequency:   27.2534002726
  - # 18
    frequency:   62.1626104961

- q-position: [    0.0404040,    0.0000000,    0.0000000 ]
  distance:    0.0131624
  band:
  - # 1
    frequency:   -2.4854769315
  - # 2
    frequency:   -2.4716627574
  - # 3
    frequency:    0.0946446931
  - # 4
    frequency:    0.6149278937
  - # 5
    frequency:    0.7335905385
  - # 6
    frequency:    3.7620139834
  - # 7
    frequency:    3.7995991523
  - # 8
    frequency:    5.6435981636
  - # 9
    frequency:    7.6534112762
  - # 10
    frequency:    7.6757798626
  - # 11
    frequency:    8.0927026307
  - # 12
    frequency:   10.9407679814
  - # 13
    frequency:   11.1872488634
  - # 14
    frequency:   11.1908517004
  - # 15
    frequency:   25.1064504873
  - # 16
    frequency:   27.2236176996
  - # 17
    frequency:   27.2595642661
  - # 18
    frequency:   62.1614729017

- q-position: [    0.0454545,    0.0000000,    0.0000000 ]
  distance:    0.0148077
  band:
  - # 1
    frequency:   -2.4846481171
  - # 2
    frequency:   -2.4674570302
  - # 3
    frequency:    0.1192415266
  - # 4
    frequency:    0.6904359751
  - # 5
    frequency:    0.8243806662
  - # 6
    frequency:    3.7623179719
  - # 7
    frequency:    3.8095500457
  - # 8
    frequency:    5.6407222250
  - # 9
    frequency:    7.6520299392
  - # 10
    frequency:    7.6803101527
  - # 11
    frequency:    8.0864619801
  - # 12
    frequency:   10.9417790248
  - # 13
    frequency:   11.1868124607
  - # 14
    frequency:   11.1913782711
  - # 15
    frequency:   25.0882630700
  - # 16
    frequency:   27.2211155560
  - # 17
    frequency:   27.2665186189
  - # 18
    frequency:   62.1601917566

- q-position: [    0.0505051,    0.0000000,    0.0000000 ]
  distance:    0.0164530
  band:
  - # 1
    frequency:   -2.4837777048
  - # 2
    frequency:   -2.4629499370
  - # 3
    frequency:    0.1464667281
  - # 4
    frequency:    0.7654569099
  - # 5
    frequency:    0.9148275605
  - # 6
    frequency:    3.7627423342
  - # 7
    frequency:    3.8205959706
  - # 8
    frequency:    5.6375137200
  - # 9
    frequency:    7.6505014850
  - # 10
    frequency:    7.6853726202
  - # 11
    frequency:    8.0795481634
  - # 12
    frequency:   10.9428952334
  - # 13
    frequency:   11.1863078585
  - # 14
    frequency:   11.1919631446
  - # 15
    frequency:   25.0680976581
  - # 16
    frequency:   27.2183234558
  - # 17
    frequency:   27.2742530923
  - # 18
    frequency:   62.1587700517

- q-position: [    0.0555556,    0.0000000,    0.0000000 ]
  distance:    0.0180983
  band:
  - # 1
    frequency:   -2.4828803125
  - # 2
    frequency:   -2.4581966038
  - # 3
    frequency:    0.1762349135
  - # 4
    frequency:    0.8399335697
  - # 5
    frequency:    1.0048826129
  - # 6
    frequency:    3.7633135969
  - # 7
    frequency:    3.8327145712
  - # 8
    frequency:    5.6339749038
  - # 9
    frequency:    7.6488310209
  - # 10
    frequency:    7.6909659369
  - # 11
    frequency:    8.0719828557
  - # 12
    frequency:   10.9441056837
  - # 13
    frequency:   11.1857293855
  - # 14
    frequency:   11.1926115887
  - # 15
    frequency:   25.0460049274
  - # 16
    frequency:   27.2152429335
  - # 17
    frequency:   27.2827570286
  - # 18
    frequency:   62.1572110963

- q-position: [    0.0606061,    0.0000000,    0.0000000 ]
  distance:    0.0197436
  band:
  - # 1
    frequency:   -2.4819703910
  - # 2
    frequency:   -2.4532535490
  - # 3
    frequency:    0.2084533332
  - # 4
    frequency:    0.9138087365
  - # 5
    frequency:    1.0944951952
  - # 6
    frequency:    3.7640602120
  - # 7
    frequency:    3.8458824014
  - # 8
    frequency:    5.6301084306
  - # 9
    frequency:    7.6470241659
  - # 10
    frequency:    7.6970879040
  - # 11
    frequency:    8.0637907909
  - # 12
    frequency:   10.9453955560
  - # 13
    frequency:   11.1850707561
  - # 14
    frequency:   11.1933323126
  - # 15
    frequency:   25.0220393989
  - # 16
    frequency:   27.2118757188
  - # 17
    frequency:   27.2920195201
  - # 18
    frequency:   62.1555185075

- q-position: [    0.0656566,    0.0000000,    0.0000000 ]
  distance:    0.0213889
  band:
  - # 1
    frequency:   -2.4810619416
  - # 2
    frequency:   -2.4481776697
  - # 3
    frequency:    0.2430223831
  - # 4
    frequency:    0.9870254020
  - # 5
    frequency:    1.1836129367
  - # 6
    frequency:    3.7650123087
  - # 7
    frequency:    3.8600751575
  - # 8
    frequency:    5.6259173933
  - # 9
    frequency:    7.6450870338
  - # 10
    frequency:    7.7037350759
  - # 11
    frequency:    8.0550000918
  - # 12
    frequency:   10.9467456975
  - # 13
    frequency:   11.1843250722
  - # 14
    frequency:   11.1941379801
  - # 15
    frequency:   24.9962591129
  - # 16
    frequency:   27.2082237465
  - # 17
    frequency:   27.3020295586
  - # 18
    frequency:   62.1536961983

- q-position: [    0.0707071,    0.0000000,    0.0000000 ]
  distance:    0.0230342
  band:
  - # 1
    frequency:   -2.4801682795
  - # 2
    frequency:   -2.4430252495
  - # 3
    frequency:    0.2798361848
  - # 4
    frequency:    1.0595270968
  - # 5
    frequency:    1.2721820551
  - # 6
    frequency:    3.7662014265
  - # 7
    frequency:    3.8752678808
  - # 8
    frequency:    5.6214053629
  - # 9
    frequency:    7.6430262123
  - # 10
    frequency:    7.7109022293
  - # 11
    frequency:    8.0456427271
  - # 12
    frequency:   10.9481323187
  - # 13
    frequency:   11.1834848274
  - # 14
    frequency:   11.1950456102
  - # 15
    frequency:   24.9687253142
  - # 16
    frequency:   27.2042891672
  - # 17
    frequency:   27.3127761635
  - # 18
    frequency:   62.1517483648

- q-position: [    0.0757576,    0.0000000,    0.0000000 ]
  distance:    0.0246795
  band:
  - # 1
    frequency:   -2.4793018430
  - # 2
    frequency:   -2.4378510064
  - # 3
    frequency:    0.3187832452
  - # 4
    frequency:    1.1312582353
  - # 5
    frequency:    1.3601477239
  - # 6
    frequency:    3.7676602313
  - # 7
    frequency:    3.8914351273
  - # 8
    frequency:    5.6165764274
  - # 9
    frequency:    7.6408487356
  - # 10
    frequency:    7.7185816004
  - # 11
    frequency:    8.0357551699
  - # 12
    frequency:   10.9495268657
  - # 13
    frequency:   11.1825419147
  - # 14
    frequency:   11.1960768211
  - # 15
    frequency:   24.9395021509
  - # 16
    frequency:   27.2000743592
  - # 17
    frequency:   27.3242484845
  - # 18
    frequency:   62.1496794723

- q-position: [    0.0808081,    0.0000000,    0.0000000 ]
  distance:    0.0263248
  band:
  - # 1
    frequency:   -2.4784740508
  - # 2
    frequency:   -2.4327072018
  - # 3
    frequency:    0.3597471972
  - # 4
    frequency:    1.2021644669
  - # 5
    frequency:    1.4474544631
  - # 6
    frequency:    3.7694222180
  - # 7
    frequency:    3.9085510979
  - # 8
    frequency:    5.6114352263
  - # 9
    frequency:    7.6385620516
  - # 10
    frequency:    7.7267617645
  - # 11
    frequency:    8.0253793806
  - # 12
    frequency:   10.9508961188
  - # 13
    frequency:   11.1814876385
  - # 14
    frequency:   11.1972578674
  - # 15
    frequency:   24.9086563898
  - # 16
    frequency:   27.1955819413
  - # 17
    frequency:   27.3364358790
  - # 18
    frequency:   62.1474942415

- q-position: [    0.0858586,    0.0000000,    0.0000000 ]
  distance:    0.0279701
  band:
  - # 1
    frequency:   -2.4776952034
  - # 2
    frequency:   -2.4276428310
  - # 3
    frequency:    0.4026076267
  - # 4
    frequency:    1.2721930224
  - # 5
    frequency:    1.5340465363
  - # 6
    frequency:    3.7715213984
  - # 7
    frequency:    3.9265897306
  - # 8
    frequency:    5.6059869826
  - # 9
    frequency:    7.6361739835
  - # 10
    frequency:    7.7354259484
  - # 11
    frequency:    8.0145643210
  - # 12
    frequency:   10.9522025635
  - # 13
    frequency:   11.1803127303
  - # 14
    frequency:   11.1986194239
  - # 15
    frequency:   24.8762571487
  - # 16
    frequency:   27.1908147858
  - # 17
    frequency:   27.3493279626
  - # 18
    frequency:   62.1451976324

- q-position: [    0.0909091,    0.0000000,    0.0000000 ]
  distance:    0.0296154
  band:
  - # 1
    frequency:   -2.4769744262
  - # 2
    frequency:   -2.4227029149
  - # 3
    frequency:    0.4472409784
  - # 4
    frequency:    1.3412930488
  - # 5
    frequency:    1.6198683460
  - # 6
    frequency:    3.7739919798
  - # 7
    frequency:    3.9455247534
  - # 8
    frequency:    5.6002375282
  - # 9
    frequency:    7.6336926838
  - # 10
    frequency:    7.7445494150
  - # 11
    frequency:    8.0033683620
  - # 12
    frequency:   10.9534050759
  - # 13
    frequency:   11.1790073701
  - # 14
    frequency:   11.2001960717
  - # 15
    frequency:   24.8423756467
  - # 16
    frequency:   27.1857760322
  - # 17
    frequency:   27.3629146362
  - # 18
    frequency:   62.1427948288

- q-position: [    0.0959596,    0.0000000,    0.0000000 ]
  distance:    0.0312607
  band:
  - # 1
    frequency:   -2.4763196474
  - # 2
    frequency:   -2.4179279115
  - # 3
    frequency:    0.4935215337
  - # 4
    frequency:    1.4094159249
  - # 5
    frequency:    1.7048648171
  - # 6
    frequency:    3.7768680338
  - # 7
    frequency:    3.9653297005
  - # 8
    frequency:    5.5941933235
  - # 9
    frequency:    7.6311265838
  - # 10
    frequency:    7.7540952791
  - # 11
    frequency:    7.9918632230
  - # 12
    frequency:   10.9544599513
  - # 13
    frequency:   11.1775612114
  - # 14
    frequency:   11.2020254558
  - # 15
    frequency:   24.8070849716
  - # 16
    frequency:   27.1804691025
  - # 17
    frequency:   27.3771860886
  - # 18
    frequency:   62.1402912212

- q-position: [    0.1010101,    0.0000000,    0.0000000 ]
  distance:    0.0329060
  band:
  - # 1
    frequency:   -2.4757376071
  - # 2
    frequency:   -2.4133532646
  - # 3
    frequency:    0.5413224414
  - # 4
    frequency:    1.4765155538
  - # 5
    frequency:    1.7889817615
  - # 6
    frequency:    3.7801831593
  - # 7
    frequency:    3.9859778948
  - # 8
    frequency:    5.5878614677
  - # 9
    frequency:    7.6284843353
  - # 10
    frequency:    7.7640075791
  - # 11
    frequency:    7.9801406223
  - # 12
    frequency:   10.9553222772
  - # 13
    frequency:   11.1759634125
  - # 14
    frequency:   11.2041471083
  - # 15
    frequency:   24.7704598625
  - # 16
    frequency:   27.1748977149
  - # 17
    frequency:   27.3921327799
  - # 18
    frequency:   62.1376923899

- q-position: [    0.1060606,    0.0000000,    0.0000000 ]
  distance:    0.0345513
  band:
  - # 1
    frequency:   -2.4752338895
  - # 2
    frequency:   -2.4090091015
  - # 3
    frequency:    0.5905167800
  - # 4
    frequency:    1.5425486305
  - # 5
    frequency:    1.8721662214
  - # 6
    frequency:    3.7839701422
  - # 7
    frequency:    4.0074424015
  - # 8
    frequency:    5.5812497014
  - # 9
    frequency:    7.6257747482
  - # 10
    frequency:    7.7741993860
  - # 11
    frequency:    7.9683238567
  - # 12
    frequency:   10.9559476189
  - # 13
    frequency:   11.1742026727
  - # 14
    frequency:   11.2066009664
  - # 15
    frequency:   24.7325765070
  - # 16
    frequency:   27.1690659000
  - # 17
    frequency:   27.4077454069
  - # 18
    frequency:   62.1350040868

- q-position: [    0.1111111,    0.0000000,    0.0000000 ]
  distance:    0.0361966
  band:
  - # 1
    frequency:   -2.4748129758
  - # 2
    frequency:   -2.4049200859
  - # 3
    frequency:    0.6409786214
  - # 4
    frequency:    1.6074748806
  - # 5
    frequency:    1.9543667877
  - # 6
    frequency:    3.7882606138
  - # 7
    frequency:    4.0296959582
  - # 8
    frequency:    5.5743663968
  - # 9
    frequency:    7.6230067221
  - # 10
    frequency:    7.7845316802
  - # 11
    frequency:    7.9565885851
  - # 12
    frequency:   10.9562939394
  - # 13
    frequency:   11.1722672738
  - # 14
    frequency:   11.2094256574
  - # 15
    frequency:   24.6935123503
  - # 16
    frequency:   27.1629780152
  - # 17
    frequency:   27.4240148544
  - # 18
    frequency:   62.1322322172

- q-position: [    0.1161616,    0.0000000,    0.0000000 ]
  distance:    0.0378419
  band:
  - # 1
    frequency:   -2.4744783094
  - # 2
    frequency:   -2.4011054266
  - # 3
    frequency:    0.6925840647
  - # 4
    frequency:    1.6712572724
  - # 5
    frequency:    2.0355338920
  - # 6
    frequency:    3.7930847116
  - # 7
    frequency:    4.0527108889
  - # 8
    frequency:    5.5672205387
  - # 9
    frequency:    7.6201891739
  - # 10
    frequency:    7.7947748666
  - # 11
    frequency:    7.9452009466
  - # 12
    frequency:   10.9563236309
  - # 13
    frequency:   11.1701451269
  - # 14
    frequency:   11.2126566691
  - # 15
    frequency:   24.6533459147
  - # 16
    frequency:   27.1566387605
  - # 17
    frequency:   27.4409321341
  - # 18
    frequency:   62.1293828209

- q-position: [    0.1212121,    0.0000000,    0.0000000 ]
  distance:    0.0394872
  band:
  - # 1
    frequency:   -2.4742323721
  - # 2
    frequency:   -2.3975790342
  - # 3
    frequency:    0.7452122062
  - # 4
    frequency:    1.7338622007
  - # 5
    frequency:    2.1156200735
  - # 6
    frequency:    3.7984707450
  - # 7
    frequency:    4.0764590077
  - # 8
    frequency:    5.5598216920
  - # 9
    frequency:    7.6173309617
  - # 10
    frequency:    7.8045389044
  - # 11
    frequency:    7.9345870446
  - # 12
    frequency:   10.9560054985
  - # 13
    frequency:   11.1678238242
  - # 14
    frequency:   11.2163245588
  - # 15
    frequency:   24.6121566276
  - # 16
    frequency:   27.1500531929
  - # 17
    frequency:   27.4584883170
  - # 18
    frequency:   62.1264620530

- q-position: [    0.1262626,    0.0000000,    0.0000000 ]
  distance:    0.0411325
  band:
  - # 1
    frequency:   -2.4740767650
  - # 2
    frequency:   -2.3943498086
  - # 3
    frequency:    0.7987460135
  - # 4
    frequency:    1.7952596441
  - # 5
    frequency:    2.1945802188
  - # 6
    frequency:    3.8044448704
  - # 7
    frequency:    4.1009115202
  - # 8
    frequency:    5.5521799581
  - # 9
    frequency:    7.6144408065
  - # 10
    frequency:    7.8131572774
  - # 11
    frequency:    7.9254485730
  - # 12
    frequency:   10.9553165203
  - # 13
    frequency:   11.1652906957
  - # 14
    frequency:   11.2204533716
  - # 15
    frequency:   24.5700246558
  - # 16
    frequency:   27.1432267414
  - # 17
    frequency:   27.4766744582
  - # 18
    frequency:   62.1234761651

- q-position: [    0.1313131,    0.0000000,    0.0000000 ]
  distance:    0.0427779
  band:
  - # 1
    frequency:   -2.4740122931
  - # 2
    frequency:   -2.3914220369
  - # 3
    frequency:    0.8530730760
  - # 4
    frequency:    1.8554232963
  - # 5
    frequency:    2.2723717760
  - # 6
    frequency:    3.8110307771
  - # 7
    frequency:    4.1260389305
  - # 8
    frequency:    5.5443059186
  - # 9
    frequency:    7.6115272126
  - # 10
    frequency:    7.8195581559
  - # 11
    frequency:    7.9188912412
  - # 12
    frequency:   10.9542432209
  - # 13
    frequency:   11.1625328702
  - # 14
    frequency:   11.2250594258
  - # 15
    frequency:   24.5270307447
  - # 16
    frequency:   27.1361652199
  - # 17
    frequency:   27.4954815207
  - # 18
    frequency:   62.1204314848

- q-position: [    0.1363636,    0.0000000,    0.0000000 ]
  distance:    0.0444232
  band:
  - # 1
    frequency:   -2.4740390493
  - # 2
    frequency:   -2.3887958729
  - # 3
    frequency:    0.9080862107
  - # 4
    frequency:    1.9143306733
  - # 5
    frequency:    2.3489549406
  - # 6
    frequency:    3.8182493898
  - # 7
    frequency:    4.1518109613
  - # 8
    frequency:    5.5362105683
  - # 9
    frequency:    7.6085983873
  - # 10
    frequency:    7.8223607889
  - # 11
    frequency:    7.9163279654
  - # 12
    frequency:   10.9527825363
  - # 13
    frequency:   11.1595373409
  - # 14
    frequency:   11.2301505790
  - # 15
    frequency:   24.4832560608
  - # 16
    frequency:   27.1288748412
  - # 17
    frequency:   27.5149002973
  - # 18
    frequency:   62.1173343966

- q-position: [    0.1414141,    0.0000000,    0.0000000 ]
  distance:    0.0460685
  band:
  - # 1
    frequency:   -2.4741564973
  - # 2
    frequency:   -2.3864678667
  - # 3
    frequency:    0.9636839078
  - # 4
    frequency:    1.9719631959
  - # 5
    frequency:    2.4242928158
  - # 6
    frequency:    3.8261185900
  - # 7
    frequency:    4.1781964925
  - # 8
    frequency:    5.5279052368
  - # 9
    frequency:    7.6056621621
  - # 10
    frequency:    7.8205942472
  - # 11
    frequency:    7.9187597096
  - # 12
    frequency:   10.9509421158
  - # 13
    frequency:   11.1562910338
  - # 14
    frequency:   11.2357260290
  - # 15
    frequency:   24.4387820372
  - # 16
    frequency:   27.1213622276
  - # 17
    frequency:   27.5349213345
  - # 18
    frequency:   62.1141913221

- q-position: [    0.1464646,    0.0000000,    0.0000000 ]
  distance:    0.0477138
  band:
  - # 1
    frequency:   -2.4743635513
  - # 2
    frequency:   -2.3844315143
  - # 3
    frequency:    1.0197706135
  - # 4
    frequency:    2.0283062498
  - # 5
    frequency:    2.4983515415
  - # 6
    frequency:    3.8346529595
  - # 7
    frequency:    4.2051635278
  - # 8
    frequency:    5.5194015020
  - # 9
    frequency:    7.6027259167
  - # 10
    frequency:    7.8145145427
  - # 11
    frequency:    7.9259579619
  - # 12
    frequency:   10.9487400715
  - # 13
    frequency:   11.1527808802
  - # 14
    frequency:   11.2417766294
  - # 15
    frequency:   24.3936902192
  - # 16
    frequency:   27.1136344218
  - # 17
    frequency:   27.5555348592
  - # 18
    frequency:   62.1110086997

- q-position: [    0.1515152,    0.0000000,    0.0000000 ]
  distance:    0.0493591
  band:
  - # 1
    frequency:   -2.4746586513
  - # 2
    frequency:   -2.3826777960
  - # 3
    frequency:    1.0762568516
  - # 4
    frequency:    2.0833492231
  - # 5
    frequency:    2.5711003939
  - # 6
    frequency:    3.8438635517
  - # 7
    frequency:    4.2326791915
  - # 8
    frequency:    5.5107110961
  - # 9
    frequency:    7.5997965058
  - # 10
    frequency:    7.8052600063
  - # 11
    frequency:    7.9368089661
  - # 12
    frequency:   10.9462042540
  - # 13
    frequency:   11.1489938908
  - # 14
    frequency:   11.2482856397
  - # 15
    frequency:   24.3480621113
  - # 16
    frequency:   27.1056988955
  - # 17
    frequency:   27.5767307097
  - # 18
    frequency:   62.1077929658

- q-position: [    0.1565657,    0.0000000,    0.0000000 ]
  distance:    0.0510044
  band:
  - # 1
    frequency:   -2.4750398333
  - # 2
    frequency:   -2.3811956780
  - # 3
    frequency:    1.1330591960
  - # 4
    frequency:    2.1370855212
  - # 5
    frequency:    2.6425118514
  - # 6
    frequency:    3.8537576919
  - # 7
    frequency:    4.2607097627
  - # 8
    frequency:    5.5018458072
  - # 9
    frequency:    7.5968801914
  - # 10
    frequency:    7.7939622448
  - # 11
    frequency:    7.9502023984
  - # 12
    frequency:   10.9433711685
  - # 13
    frequency:   11.1449172322
  - # 14
    frequency:   11.2552297923
  - # 15
    frequency:   24.3019790231
  - # 16
    frequency:   27.0975635560
  - # 17
    frequency:   27.5984982720
  - # 18
    frequency:   62.1045505345

- q-position: [    0.1616162,    0.0000000,    0.0000000 ]
  distance:    0.0526497
  band:
  - # 1
    frequency:   -2.4755047945
  - # 2
    frequency:   -2.3799725561
  - # 3
    frequency:    1.1901001107
  - # 4
    frequency:    2.1895125591
  - # 5
    frequency:    2.7125616254
  - # 6
    frequency:    3.8643388112
  - # 7
    frequency:    4.2892207476
  - # 8
    frequency:    5.4928173795
  - # 9
    frequency:    7.5939825818
  - # 10
    frequency:    7.7814011706
  - # 11
    frequency:    7.9653760011
  - # 12
    frequency:   10.9402846639
  - # 13
    frequency:   11.1405383050
  - # 14
    frequency:   11.2625805398
  - # 15
    frequency:   24.2555219159
  - # 16
    frequency:   27.0892367510
  - # 17
    frequency:   27.6208264222
  - # 18
    frequency:   62.1012877786

- q-position: [    0.1666667,    0.0000000,    0.0000000 ]
  distance:    0.0542950
  band:
  - # 1
    frequency:   -2.4760509518
  - # 2
    frequency:   -2.3789946261
  - # 3
    frequency:    1.2473076807
  - # 4
    frequency:    2.2406317319
  - # 5
    frequency:    2.7812286545
  - # 6
    frequency:    3.8756063165
  - # 7
    frequency:    4.3181769918
  - # 8
    frequency:    5.4836374144
  - # 9
    frequency:    7.5911085761
  - # 10
    frequency:    7.7680576318
  - # 11
    frequency:    7.9818626513
  - # 12
    frequency:   10.9369945168
  - # 13
    frequency:   11.1358448222
  - # 14
    frequency:   11.2703053604
  - # 15
    frequency:   24.2087712472
  - # 16
    frequency:   27.0807272706
  - # 17
    frequency:   27.6437034754
  - # 18
    frequency:   62.0980110109

- q-position: [    0.1717172,    0.0000000,    0.0000000 ]
  distance:    0.0559403
  band:
  - # 1
    frequency:   -2.4766754947
  - # 2
    frequency:   -2.3782471741
  - # 3
    frequency:    1.3046152566
  - # 4
    frequency:    2.2904483616
  - # 5
    frequency:    2.8484950597
  - # 6
    frequency:    3.8875555002
  - # 7
    frequency:    4.3475428327
  - # 8
    frequency:    5.4743172768
  - # 9
    frequency:    7.5882623192
  - # 10
    frequency:    7.7542267292
  - # 11
    frequency:    7.9993767863
  - # 12
    frequency:   10.9335550109
  - # 13
    frequency:   11.1308248880
  - # 14
    frequency:   11.2783690197
  - # 15
    frequency:   24.1618068151
  - # 16
    frequency:   27.0720443475
  - # 17
    frequency:   27.6671171407
  - # 18
    frequency:   62.0947264651

- q-position: [    0.1767677,    0.0000000,    0.0000000 ]
  distance:    0.0575856
  band:
  - # 1
    frequency:   -2.4773754324
  - # 2
    frequency:   -2.3777147835
  - # 3
    frequency:    1.3619610413
  - # 4
    frequency:    2.3389716223
  - # 5
    frequency:    2.9143460613
  - # 6
    frequency:    3.9001774893
  - # 7
    frequency:    4.3772822869
  - # 8
    frequency:    5.4648680107
  - # 9
    frequency:    7.5854471637
  - # 10
    frequency:    7.7400963508
  - # 11
    frequency:    8.0177356596
  - # 12
    frequency:   10.9300235805
  - # 13
    frequency:   11.1254670762
  - # 14