nqpoint: 300    
npath: 3      
segment_nqpoint:
- 100
- 100
- 100
labels:
- [ 'G', 'M' ]
- [ 'M', 'K' ]
- [ 'K', 'G' ]
reciprocal_lattice:
- [   0.27635744,   0.15955504,   0.00000000 ] # a*
- [   0.00000000,   0.31911008,   0.00000000 ] # b*
- [   0.00000000,   0.00000000,   0.03717348 ] # c*
natom: 8      
lattice:
- [     3.618502193187161,     0.000000000000000,     0.000000000000000 ] # a
- [    -1.809251096593580,     3.133714822950419,     0.000000000000000 ] # b
- [     0.000000000000000,     0.000000000000000,    26.900898306187802 ] # c
points:
- symbol: C # 1
  coordinates: [  0.666666984744047,  0.333332985985145,  0.378760359276834 ]
  mass: 12.010700
- symbol: N # 2
  coordinates: [  0.000000000000000,  0.000000000000000,  0.518188018029937 ]
  mass: 14.006700
- symbol: N # 3
  coordinates: [  0.333332985432215,  0.666666983183674,  0.615547643166367 ]
  mass: 14.006700
- symbol: N # 4
  coordinates: [  0.666666984744047,  0.333332985985145,  0.334561318271286 ]
  mass: 14.006700
- symbol: O # 5
  coordinates: [  0.333332985432215,  0.666666983183674,  0.665438681728714 ]
  mass: 15.999400
- symbol: O # 6
  coordinates: [  0.666666984744047,  0.333332985985145,  0.428379526960206 ]
  mass: 15.999400
- symbol: Y # 7
  coordinates: [  0.333332985432215,  0.666666983183674,  0.476742412838948 ]
  mass: 88.905850
- symbol: Y # 8
  coordinates: [  0.666666984744047,  0.333332985985145,  0.581901795814784 ]
  mass: 88.905850

phonon:
- q-position: [    0.0000000,    0.0000000,    0.0000000 ]
  distance:    0.0000000
  band:
  - # 1
    frequency:   -5.6805107210
  - # 2
    frequency:   -5.6805107210
  - # 3
    frequency:   -1.5170161826
  - # 4
    frequency:   -1.5170161826
  - # 5
    frequency:   -0.0000037738
  - # 6
    frequency:    0.0000002376
  - # 7
    frequency:    0.0000041540
  - # 8
    frequency:    1.9966500650
  - # 9
    frequency:    1.9966500651
  - # 10
    frequency:    4.3592889624
  - # 11
    frequency:    5.4615838105
  - # 12
    frequency:    5.6750848859
  - # 13
    frequency:    5.6750848859
  - # 14
    frequency:    7.6333919528
  - # 15
    frequency:    9.7512029946
  - # 16
    frequency:    9.7512029946
  - # 17
    frequency:   11.3021256704
  - # 18
    frequency:   11.3021256704
  - # 19
    frequency:   13.8268711599
  - # 20
    frequency:   13.8495740103
  - # 21
    frequency:   13.8495740103
  - # 22
    frequency:   32.2807359465
  - # 23
    frequency:   37.0972280890
  - # 24
    frequency:   67.9346404809

- q-position: [    0.0050505,    0.0000000,    0.0000000 ]
  distance:    0.0016117
  band:
  - # 1
    frequency:   -5.6800355262
  - # 2
    frequency:   -5.6792418626
  - # 3
    frequency:   -1.5167590558
  - # 4
    frequency:   -1.5157733206
  - # 5
    frequency:    0.0012673135
  - # 6
    frequency:    0.0407204824
  - # 7
    frequency:    0.0792504674
  - # 8
    frequency:    1.9972810796
  - # 9
    frequency:    1.9985790329
  - # 10
    frequency:    4.3590724940
  - # 11
    frequency:    5.4552166857
  - # 12
    frequency:    5.6750330971
  - # 13
    frequency:    5.6815815236
  - # 14
    frequency:    7.6328519295
  - # 15
    frequency:    9.7510979610
  - # 16
    frequency:    9.7542502088
  - # 17
    frequency:   11.3021232179
  - # 18
    frequency:   11.3021505957
  - # 19
    frequency:   13.8238959939
  - # 20
    frequency:   13.8495992870
  - # 21
    frequency:   13.8522007850
  - # 22
    frequency:   32.2802893348
  - # 23
    frequency:   37.0965965474
  - # 24
    frequency:   67.9343903781

- q-position: [    0.0101010,    0.0000000,    0.0000000 ]
  distance:    0.0032233
  band:
  - # 1
    frequency:   -5.6786102130
  - # 2
    frequency:   -5.6754386855
  - # 3
    frequency:   -1.5159882784
  - # 4
    frequency:   -1.5120469425
  - # 5
    frequency:    0.0050730006
  - # 6
    frequency:    0.0814176931
  - # 7
    frequency:    0.1584492690
  - # 8
    frequency:    1.9991740916
  - # 9
    frequency:    2.0043480854
  - # 10
    frequency:    4.3584229554
  - # 11
    frequency:    5.4381077623
  - # 12
    frequency:    5.6748777677
  - # 13
    frequency:    5.6990868571
  - # 14
    frequency:    7.6312345289
  - # 15
    frequency:    9.7507830376
  - # 16
    frequency:    9.7633748573
  - # 17
    frequency:   11.3021168642
  - # 18
    frequency:   11.3022253748
  - # 19
    frequency:   13.8171446313
  - # 20
    frequency:   13.8496750920
  - # 21
    frequency:   13.8579092636
  - # 22
    frequency:   32.2789506003
  - # 23
    frequency:   37.0947029423
  - # 24
    frequency:   67.9336406219

- q-position: [    0.0151515,    0.0000000,    0.0000000 ]
  distance:    0.0048350
  band:
  - # 1
    frequency:   -5.6762355989
  - # 2
    frequency:   -5.6691113761
  - # 3
    frequency:   -1.5147056458
  - # 4
    frequency:   -1.5058434514
  - # 5
    frequency:    0.0113748432
  - # 6
    frequency:    0.1220685379
  - # 7
    frequency:    0.2375418562
  - # 8
    frequency:    2.0023289780
  - # 9
    frequency:    2.0139046474
  - # 10
    frequency:    4.3573399477
  - # 11
    frequency:    5.4141224467
  - # 12
    frequency:    5.6746190082
  - # 13
    frequency:    5.7237590432
  - # 14
    frequency:    7.6285476305
  - # 15
    frequency:    9.7502587554
  - # 16
    frequency:    9.7785260815
  - # 17
    frequency:   11.3021097086
  - # 18
    frequency:   11.3023500197
  - # 19
    frequency:   13.8087904711
  - # 20
    frequency:   13.8498013503
  - # 21
    frequency:   13.8645329063
  - # 22
    frequency:   32.2767230403
  - # 23
    frequency:   37.0915503298
  - # 24
    frequency:   67.9323928667

- q-position: [    0.0202020,    0.0000000,    0.0000000 ]
  distance:    0.0064467
  band:
  - # 1
    frequency:   -5.6729130592
  - # 2
    frequency:   -5.6602768839
  - # 3
    frequency:   -1.5129141063
  - # 4
    frequency:   -1.4971727944
  - # 5
    frequency:    0.0201141304
  - # 6
    frequency:    0.1626502799
  - # 7
    frequency:    0.3164680043
  - # 8
    frequency:    2.0067454404
  - # 9
    frequency:    2.0271642560
  - # 10
    frequency:    4.3558228152
  - # 11
    frequency:    5.3864056582
  - # 12
    frequency:    5.6742570040
  - # 13
    frequency:    5.7524922527
  - # 14
    frequency:    7.6248039518
  - # 15
    frequency:    9.7495259978
  - # 16
    frequency:    9.7996195129
  - # 17
    frequency:   11.3021072175
  - # 18
    frequency:   11.3025245572
  - # 19
    frequency:   13.7995627847
  - # 20
    frequency:   13.8499779369
  - # 21
    frequency:   13.8713538374
  - # 22
    frequency:   32.2736121370
  - # 23
    frequency:   37.0871437954
  - # 24
    frequency:   67.9306498637

- q-position: [    0.0252525,    0.0000000,    0.0000000 ]
  distance:    0.0080583
  band:
  - # 1
    frequency:   -5.6686445467
  - # 2
    frequency:   -5.6489588804
  - # 3
    frequency:   -1.5106176961
  - # 4
    frequency:   -1.4860474030
  - # 5
    frequency:    0.0312134429
  - # 6
    frequency:    0.2031407247
  - # 7
    frequency:    0.3951592286
  - # 8
    frequency:    2.0124228683
  - # 9
    frequency:    2.0440149802
  - # 10
    frequency:    4.3538706709
  - # 11
    frequency:    5.3569352810
  - # 12
    frequency:    5.6737920151
  - # 13
    frequency:    5.7833629126
  - # 14
    frequency:    7.6200204740
  - # 15
    frequency:    9.7485859974
  - # 16
    frequency:    9.8265378097
  - # 17
    frequency:   11.3021177008
  - # 18
    frequency:   11.3027490392
  - # 19
    frequency:   13.7896971677
  - # 20
    frequency:   13.8502046769
  - # 21
    frequency:   13.8781523394
  - # 22
    frequency:   32.2696255382
  - # 23
    frequency:   37.0814904420
  - # 24
    frequency:   67.9284154514

- q-position: [    0.0303030,    0.0000000,    0.0000000 ]
  distance:    0.0096700
  band:
  - # 1
    frequency:   -5.6634326184
  - # 2
    frequency:   -5.6351877006
  - # 3
    frequency:   -1.5078214526
  - # 4
    frequency:   -1.4724807684
  - # 5
    frequency:    0.0445809121
  - # 6
    frequency:    0.2435184110
  - # 7
    frequency:    0.4735364977
  - # 8
    frequency:    2.0193601538
  - # 9
    frequency:    2.0643230149
  - # 10
    frequency:    4.3514824545
  - # 11
    frequency:    5.3269110842
  - # 12
    frequency:    5.6732243783
  - # 13
    frequency:    5.8152402940
  - # 14
    frequency:    7.6142177228
  - # 15
    frequency:    9.7474403316
  - # 16
    frequency:    9.8591312943
  - # 17
    frequency:   11.3021530354
  - # 18
    frequency:   11.3030235576
  - # 19
    frequency:   13.7792838134
  - # 20
    frequency:   13.8504813452
  - # 21
    frequency:   13.8848585027
  - # 22
    frequency:   32.2647730298
  - # 23
    frequency:   37.0745993729
  - # 24
    frequency:   67.9256945425

- q-position: [    0.0353535,    0.0000000,    0.0000000 ]
  distance:    0.0112817
  band:
  - # 1
    frequency:   -5.6572804698
  - # 2
    frequency:   -5.6190002672
  - # 3
    frequency:   -1.5045313081
  - # 4
    frequency:   -1.4564857076
  - # 5
    frequency:    0.0601149145
  - # 6
    frequency:    0.2837628073
  - # 7
    frequency:    0.5515083446
  - # 8
    frequency:    2.0275554632
  - # 9
    frequency:    2.0879389739
  - # 10
    frequency:    4.3486570473
  - # 11
    frequency:    5.2971005309
  - # 12
    frequency:    5.6725545083
  - # 13
    frequency:    5.8474399707
  - # 14
    frequency:    7.6074189740
  - # 15
    frequency:    9.7460909170
  - # 16
    frequency:    9.8972185801
  - # 17
    frequency:   11.3022296989
  - # 18
    frequency:   11.3033482617
  - # 19
    frequency:   13.7683643711
  - # 20
    frequency:   13.8508076669
  - # 21
    frequency:   13.8914552670
  - # 22
    frequency:   32.2590665006
  - # 23
    frequency:   37.0664816701
  - # 24
    frequency:   67.9224931073

- q-position: [    0.0404040,    0.0000000,    0.0000000 ]
  distance:    0.0128933
  band:
  - # 1
    frequency:   -5.6501919758
  - # 2
    frequency:   -5.6004399978
  - # 3
    frequency:   -1.5007539676
  - # 4
    frequency:   -1.4380723912
  - # 5
    frequency:    0.0777088681
  - # 6
    frequency:    0.3238545140
  - # 7
    frequency:    0.6289694697
  - # 8
    frequency:    2.0370059742
  - # 9
    frequency:    2.1147043957
  - # 10
    frequency:    4.3453934688
  - # 11
    frequency:    5.2680353158
  - # 12
    frequency:    5.6717829004
  - # 13
    frequency:    5.8795262520
  - # 14
    frequency:    7.5996494532
  - # 15
    frequency:    9.7445400019
  - # 16
    frequency:    9.9405870373
  - # 17
    frequency:   11.3023702121
  - # 18
    frequency:   11.3037233812
  - # 19
    frequency:   13.7569632229
  - # 20
    frequency:   13.8511833169
  - # 21
    frequency:   13.8979470208
  - # 22
    frequency:   32.2525199005
  - # 23
    frequency:   37.0571503684
  - # 24
    frequency:   67.9188181536

- q-position: [    0.0454545,    0.0000000,    0.0000000 ]
  distance:    0.0145050
  band:
  - # 1
    frequency:   -5.6421717389
  - # 2
    frequency:   -5.5795566929
  - # 3
    frequency:   -1.4964967761
  - # 4
    frequency:   -1.4172462113
  - # 5
    frequency:    0.0972558312
  - # 6
    frequency:    0.3637754674
  - # 7
    frequency:    0.7057999227
  - # 8
    frequency:    2.0477075868
  - # 9
    frequency:    2.1444580177
  - # 10
    frequency:    4.3416911843
  - # 11
    frequency:    5.2401135139
  - # 12
    frequency:    5.6709101331
  - # 13
    frequency:    5.9112086529
  - # 14
    frequency:    7.5909355887
  - # 15
    frequency:    9.7427901567
  - # 16
    frequency:    9.9889929045
  - # 17
    frequency:   11.3026051351
  - # 18
    frequency:   11.3041492511
  - # 19
    frequency:   13.7450993610
  - # 20
    frequency:   13.8516079205
  - # 21
    frequency:   13.9043475750
  - # 22
    frequency:   32.2451491908
  - # 23
    frequency:   37.0466204240
  - # 24
    frequency:   67.9146777024

- q-position: [    0.0505051,    0.0000000,    0.0000000 ]
  distance:    0.0161167
  band:
  - # 1
    frequency:   -5.6332251423
  - # 2
    frequency:   -5.5564064065
  - # 3
    frequency:   -1.4917675789
  - # 4
    frequency:   -1.3940055708
  - # 5
    frequency:    0.1186527050
  - # 6
    frequency:    0.4035091416
  - # 7
    frequency:    0.7818649458
  - # 8
    frequency:    2.0596546173
  - # 9
    frequency:    2.1770414461
  - # 10
    frequency:    4.3375505525
  - # 11
    frequency:    5.2136525208
  - # 12
    frequency:    5.6699368720
  - # 13
    frequency:    5.9422871802
  - # 14
    frequency:    7.5813043656
  - # 15
    frequency:    9.7408442626
  - # 16
    frequency:   10.0421607808
  - # 17
    frequency:   11.3029758342
  - # 18
    frequency:   11.3046263411
  - # 19
    frequency:   13.7327914996
  - # 20
    frequency:   13.8520810529
  - # 21
    frequency:   13.9106748765
  - # 22
    frequency:   32.2369722879
  - # 23
    frequency:   37.0349086795
  - # 24
    frequency:   67.9100807617

- q-position: [    0.0555556,    0.0000000,    0.0000000 ]
  distance:    0.0177283
  band:
  - # 1
    frequency:   -5.6233584098
  - # 2
    frequency:   -5.5310512966
  - # 3
    frequency:   -1.4865745787
  - # 4
    frequency:   -1.3683396687
  - # 5
    frequency:    0.1418039363
  - # 6
    frequency:    0.4430407416
  - # 7
    frequency:    0.8570155487
  - # 8
    frequency:    2.0728394890
  - # 9
    frequency:    2.2123039259
  - # 10
    frequency:    4.3329734313
  - # 11
    frequency:    5.1889169789
  - # 12
    frequency:    5.6688638747
  - # 13
    frequency:    5.9726222222
  - # 14
    frequency:    7.5707828094
  - # 15
    frequency:    9.7387054976
  - # 16
    frequency:   10.0997821346
  - # 17
    frequency:   11.3035383436
  - # 18
    frequency:   11.3051552873
  - # 19
    frequency:   13.7200604620
  - # 20
    frequency:   13.8526022399
  - # 21
    frequency:   13.9169484186
  - # 22
    frequency:   32.2280090004
  - # 23
    frequency:   37.0220338244
  - # 24
    frequency:   67.9050372954

- q-position: [    0.0606061,    0.0000000,    0.0000000 ]
  distance:    0.0193400
  band:
  - # 1
    frequency:   -5.6125786701
  - # 2
    frequency:   -5.5035594564
  - # 3
    frequency:   -1.4809261951
  - # 4
    frequency:   -1.3402263419
  - # 5
    frequency:    0.1666247183
  - # 6
    frequency:    0.4823573826
  - # 7
    frequency:    0.9310898806
  - # 8
    frequency:    2.0872524271
  - # 9
    frequency:    2.2501059910
  - # 10
    frequency:    4.3279639495
  - # 11
    frequency:    5.1661336908
  - # 12
    frequency:    5.6676919959
  - # 13
    frequency:    6.0021170472
  - # 14
    frequency:    7.5593976147
  - # 15
    frequency:    9.7363773199
  - # 16
    frequency:   10.1615122970
  - # 17
    frequency:   11.3043688137
  - # 18
    frequency:   11.3057369272
  - # 19
    frequency:   13.7069303248
  - # 20
    frequency:   13.8531709574
  - # 21
    frequency:   13.9231878678
  - # 22
    frequency:   32.2182809603
  - # 23
    frequency:   37.0080163503
  - # 24
    frequency:   67.8995581908

- q-position: [    0.0656566,    0.0000000,    0.0000000 ]
  distance:    0.0209517
  band:
  - # 1
    frequency:   -5.6008940250
  - # 2
    frequency:   -5.4740047259
  - # 3
    frequency:   -1.4748309295
  - # 4
    frequency:   -1.3096300026
  - # 5
    frequency:    0.1930437593
  - # 6
    frequency:    0.5214482451
  - # 7
    frequency:    1.0039154519
  - # 8
    frequency:    2.1028811737
  - # 9
    frequency:    2.2903218373
  - # 10
    frequency:    4.3225294323
  - # 11
    frequency:    5.1454995082
  - # 12
    frequency:    5.6664221947
  - # 13
    frequency:    6.0307069698
  - # 14
    frequency:    7.5471749174
  - # 15
    frequency:    9.7338634489
  - # 16
    frequency:   10.2269651584
  - # 17
    frequency:   11.3055712938
  - # 18
    frequency:   11.3063723372
  - # 19
    frequency:   13.6934289265
  - # 20
    frequency:   13.8537866322
  - # 21
    frequency:   13.9294122977
  - # 22
    frequency:   32.2078115475
  - # 23
    frequency:   36.9928785036
  - # 24
    frequency:   67.8936552215

- q-position: [    0.0707071,    0.0000000,    0.0000000 ]
  distance:    0.0225633
  band:
  - # 1
    frequency:   -5.5883136215
  - # 2
    frequency:   -5.4424664828
  - # 3
    frequency:   -1.4682972382
  - # 4
    frequency:   -1.2764996886
  - # 5
    frequency:    0.2210057450
  - # 6
    frequency:    0.5603046996
  - # 7
    frequency:    1.0753122453
  - # 8
    frequency:    2.1197107309
  - # 9
    frequency:    2.3328403191
  - # 10
    frequency:    4.3166814412
  - # 11
    frequency:    5.1271852961
  - # 12
    frequency:    5.6650555423
  - # 13
    frequency:    6.0583521691
  - # 14
    frequency:    7.5341402016
  - # 15
    frequency:    9.7311678429
  - # 16
    frequency:   10.2957043856
  - # 17
    frequency:   11.3070628714
  - # 18
    frequency:   11.3072889997
  - # 19
    frequency:   13.6795880157
  - # 20
    frequency:   13.8544486418
  - # 21
    frequency:   13.9356397527
  - # 22
    frequency:   32.1966258095
  - # 23
    frequency:   36.9766442326
  - # 24
    frequency:   67.8873410092

- q-position: [    0.0757576,    0.0000000,    0.0000000 ]
  distance:    0.0241750
  band:
  - # 1
    frequency:   -5.5748477268
  - # 2
    frequency:   -5.4090294127
  - # 3
    frequency:   -1.4613334175
  - # 4
    frequency:   -1.2407672197
  - # 5
    frequency:    0.2504736511
  - # 6
    frequency:    0.5989203918
  - # 7
    frequency:    1.1450967237
  - # 8
    frequency:    2.1377231441
  - # 9
    frequency:    2.3775645208
  - # 10
    frequency:    4.3104368633
  - # 11
    frequency:    5.1113376667
  - # 12
    frequency:    5.6635932312
  - # 13
    frequency:    6.0850325864
  - # 14
    frequency:    7.5203183254
  - # 15
    frequency:    9.7282946732
  - # 16
    frequency:   10.3672293666
  - # 17
    frequency:   11.3078102025
  - # 18
    frequency:   11.3097208250
  - # 19
    frequency:   13.6654431774
  - # 20
    frequency:   13.8551563152
  - # 21
    frequency:   13.9418870071
  - # 22
    frequency:   32.1847503757
  - # 23
    frequency:   36.9593391322
  - # 24
    frequency:   67.8806289813

- q-position: [    0.0808081,    0.0000000,    0.0000000 ]
  distance:    0.0257867
  band:
  - # 1
    frequency:   -5.5605078037
  - # 2
    frequency:   -5.3737832605
  - # 3
    frequency:   -1.4539475011
  - # 4
    frequency:   -1.2023454345
  - # 5
    frequency:    0.2814310678
  - # 6
    frequency:    0.6372912812
  - # 7
    frequency:    1.2130866991
  - # 8
    frequency:    2.1568973340
  - # 9
    frequency:    2.4244099236
  - # 10
    frequency:    4.3038189647
  - # 11
    frequency:    5.0980794781
  - # 12
    frequency:    5.6620365860
  - # 13
    frequency:    6.1107440636
  - # 14
    frequency:    7.5057336458
  - # 15
    frequency:    9.7252482963
  - # 16
    frequency:   10.4409531984
  - # 17
    frequency:   11.3086163641
  - # 18
    frequency:   11.3131457561
  - # 19
    frequency:   13.6510336086
  - # 20
    frequency:   13.8559089328
  - # 21
    frequency:   13.9481694452
  - # 22
    frequency:   32.1722133670
  - # 23
    frequency:   36.9409903837
  - # 24
    frequency:   67.8735333276

- q-position: [    0.0858586,    0.0000000,    0.0000000 ]
  distance:    0.0273983
  band:
  - # 1
    frequency:   -5.5453065882
  - # 2
    frequency:   -5.3368225603
  - # 3
    frequency:   -1.4461471725
  - # 4
    frequency:   -1.1611264623
  - # 5
    frequency:    0.3138846784
  - # 6
    frequency:    0.6754156277
  - # 7
    frequency:    1.2791069496
  - # 8
    frequency:    2.1772089854
  - # 9
    frequency:    2.4733012654
  - # 10
    frequency:    4.2968583109
  - # 11
    frequency:    5.0875097276
  - # 12
    frequency:    5.6603870750
  - # 13
    frequency:    6.1354952633
  - # 14
    frequency:    7.4904102243
  - # 15
    frequency:    9.7220332216
  - # 16
    frequency:   10.5161688634
  - # 17
    frequency:   11.3094837929
  - # 18
    frequency:   11.3179590139
  - # 19
    frequency:   13.6364017869
  - # 20
    frequency:   13.8567057273
  - # 21
    frequency:   13.9545010207
  - # 22
    frequency:   32.1590443009
  - # 23
    frequency:   36.9216266919
  - # 24
    frequency:   67.8660689536

- q-position: [    0.0909091,    0.0000000,    0.0000000 ]
  distance:    0.0290100
  band:
  - # 1
    frequency:   -5.5292581652
  - # 2
    frequency:   -5.2982463481
  - # 3
    frequency:   -1.4379396927
  - # 4
    frequency:   -1.1169799624
  - # 5
    frequency:    0.3478669645
  - # 6
    frequency:    0.7132939209
  - # 7
    frequency:    1.3429953813
  - # 8
    frequency:    2.1986304971
  - # 9
    frequency:    2.5241682950
  - # 10
    frequency:    4.2895934652
  - # 11
    frequency:    5.0797032624
  - # 12
    frequency:    5.6586463233
  - # 13
    frequency:    6.1593051155
  - # 14
    frequency:    7.4743720967
  - # 15
    frequency:    9.7186540763
  - # 16
    frequency:   10.5919987074
  - # 17
    frequency:   11.3104153711
  - # 18
    frequency:   11.3247247907
  - # 19
    frequency:   13.6215930607
  - # 20
    frequency:   13.8575458841
  - # 21
    frequency:   13.9608942702
  - # 22
    frequency:   32.1452739933
  - # 23
    frequency:   36.9012782182
  - # 24
    frequency:   67.8582514325

- q-position: [    0.0959596,    0.0000000,    0.0000000 ]
  distance:    0.0306217
  band:
  - # 1
    frequency:   -5.5123780430
  - # 2
    frequency:   -5.2581578566
  - # 3
    frequency:   -1.4293318413
  - # 4
    frequency:   -1.0697511924
  - # 5
    frequency:    0.3834390804
  - # 6
    frequency:    0.7509287504
  - # 7
    frequency:    1.4046094152
  - # 8
    frequency:    2.2211309957
  - # 9
    frequency:    2.5769407287
  - # 10
    frequency:    4.2820714058
  - # 11
    frequency:    5.0747105948
  - # 12
    frequency:    5.6568161273
  - # 13
    frequency:    6.1822006437
  - # 14
    frequency:    7.4576435938
  - # 15
    frequency:    9.7151155678
  - # 16
    frequency:   10.6673231515
  - # 17
    frequency:   11.3114144686
  - # 18
    frequency:   11.3342496257
  - # 19
    frequency:   13.6066551800
  - # 20
    frequency:   13.8584285421
  - # 21
    frequency:   13.9673603628
  - # 22
    frequency:   32.1309344564
  - # 23
    frequency:   36.8799765119
  - # 24
    frequency:   67.8500969554

- q-position: [    0.1010101,    0.0000000,    0.0000000 ]
  distance:    0.0322333
  band:
  - # 1
    frequency:   -5.4946832247
  - # 2
    frequency:   -5.2166641944
  - # 3
    frequency:   -1.4203298739
  - # 4
    frequency:   -1.0192585953
  - # 5
    frequency:    0.4206935732
  - # 6
    frequency:    0.7883246181
  - # 7
    frequency:    1.4638321863
  - # 8
    frequency:    2.2446764142
  - # 9
    frequency:    2.6315428149
  - # 10
    frequency:    4.2743476491
  - # 11
    frequency:    5.0725580006
  - # 12
    frequency:    5.6548984700
  - # 13
    frequency:    6.2042150862
  - # 14
    frequency:    7.4402497021
  - # 15
    frequency:    9.7114224429
  - # 16
    frequency:   10.7406925588
  - # 17
    frequency:   11.3124849828
  - # 18
    frequency:   11.3476724860
  - # 19
    frequency:   13.5916377814
  - # 20
    frequency:   13.8593527943
  - # 21
    frequency:   13.9739091762
  - # 22
    frequency:   32.1160587933
  - # 23
    frequency:   36.8577544367
  - # 24
    frequency:   67.8416222791

- q-position: [    0.1060606,    0.0000000,    0.0000000 ]
  distance:    0.0338450
  band:
  - # 1
    frequency:   -5.4761922753
  - # 2
    frequency:   -5.1738760118
  - # 3
    frequency:   -1.4109394909
  - # 4
    frequency:   -0.9652901199
  - # 5
    frequency:    0.4597561653
  - # 6
    frequency:    0.8254876932
  - # 7
    frequency:    1.5205780695
  - # 8
    frequency:    2.2692296326
  - # 9
    frequency:    2.6878879746
  - # 10
    frequency:    4.2664861230
  - # 11
    frequency:    5.0732479927
  - # 12
    frequency:    5.6528955377
  - # 13
    frequency:    6.2253862527
  - # 14
    frequency:    7.4222164616
  - # 15
    frequency:    9.7075794439
  - # 16
    frequency:   10.8102535880
  - # 17
    frequency:   11.3136313778
  - # 18
    frequency:   11.3665402068
  - # 19
    frequency:   13.5765918429
  - # 20
    frequency:   13.8603176886
  - # 21
    frequency:   13.9805493907
  - # 22
    frequency:   32.1006810915
  - # 23
    frequency:   36.8346460961
  - # 24
    frequency:   67.8328446741

- q-position: [    0.1111111,    0.0000000,    0.0000000 ]
  distance:    0.0354567
  band:
  - # 1
    frequency:   -5.4569253824
  - # 2
    frequency:   -5.1299071565
  - # 3
    frequency:   -1.4011658194
  - # 4
    frequency:   -0.9075963398
  - # 5
    frequency:    0.5007850485
  - # 6
    frequency:    0.8624255161
  - # 7
    frequency:    1.5747970530
  - # 8
    frequency:    2.2947506756
  - # 9
    frequency:    2.7458739725
  - # 10
    frequency:    4.2585588946
  - # 11
    frequency:    5.0767601806
  - # 12
    frequency:    5.6508097365
  - # 13
    frequency:    6.2457550780
  - # 14
    frequency:    7.4035713978
  - # 15
    frequency:    9.7035912640
  - # 16
    frequency:   10.8737829867
  - # 17
    frequency:   11.3148587196
  - # 18
    frequency:   11.3927753313
  - # 19
    frequency:   13.5615691161
  - # 20
    frequency:   13.8613222293
  - # 21
    frequency:   13.9872885951
  - # 22
    frequency:   32.0848363122
  - # 23
    frequency:   36.8106867557
  - # 24
    frequency:   67.8237818694

- q-position: [    0.1161616,    0.0000000,    0.0000000 ]
  distance:    0.0370683
  band:
  - # 1
    frequency:   -5.4369044096
  - # 2
    frequency:   -5.0848743217
  - # 3
    frequency:   -1.3910134053
  - # 4
    frequency:   -0.8458757390
  - # 5
    frequency:    0.5439650314
  - # 6
    frequency:    0.8991466576
  - # 7
    frequency:    1.6264775539
  - # 8
    frequency:    2.3211969609
  - # 9
    frequency:    2.8053789913
  - # 10
    frequency:    4.2506459032
  - # 11
    frequency:    5.0830524752
  - # 12
    frequency:    5.6486437106
  - # 13
    frequency:    6.2653643351
  - # 14
    frequency:    7.3843439924
  - # 15
    frequency:    9.6994624998
  - # 16
    frequency:   10.9289899075
  - # 17
    frequency:   11.3161727083
  - # 18
    frequency:   11.4283752607
  - # 19
    frequency:   13.5466215501
  - # 20
    frequency:   13.8623653776
  - # 21
    frequency:   13.9941334033
  - # 22
    frequency:   32.0685601800
  - # 23
    frequency:   36.7859127630
  - # 24
    frequency:   67.8144519987

- q-position: [    0.1212121,    0.0000000,    0.0000000 ]
  distance:    0.0386800
  band:
  - # 1
    frequency:   -5.4161529415
  - # 2
    frequency:   -5.0388966901
  - # 3
    frequency:   -1.3804862138
  - # 4
    frequency:   -0.7797414706
  - # 5
    frequency:    0.5894926444
  - # 6
    frequency:    0.9356603409
  - # 7
    frequency:    1.6756474228
  - # 8
    frequency:    2.3485235898
  - # 9
    frequency:    2.8662588134
  - # 10
    frequency:    4.2428348828
  - # 11
    frequency:    5.0920625573
  - # 12
    frequency:    5.6464003591
  - # 13
    frequency:    6.2842574766
  - # 14
    frequency:    7.3645662014
  - # 15
    frequency:    9.6951976040
  - # 16
    frequency:   10.9741619354
  - # 17
    frequency:   11.3175797059
  - # 18
    frequency:   11.4747675248
  - # 19
    frequency:   13.5318007157
  - # 20
    frequency:   13.8634460531
  - # 21
    frequency:   14.0010895762
  - # 22
    frequency:   32.0518890698
  - # 23
    frequency:   36.7603614657
  - # 24
    frequency:   67.8048735435

- q-position: [    0.1262626,    0.0000000,    0.0000000 ]
  distance:    0.0402917
  band:
  - # 1
    frequency:   -5.3946963175
  - # 2
    frequency:   -4.9920955772
  - # 3
    frequency:   -1.3695876376
  - # 4
    frequency:   -0.7086455368
  - # 5
    frequency:    0.6375477914
  - # 6
    frequency:    0.9719760368
  - # 7
    frequency:    1.7223730834
  - # 8
    frequency:    2.3766836696
  - # 9
    frequency:    2.9283451017
  - # 10
    frequency:    4.2352216768
  - # 11
    frequency:    5.1037095210
  - # 12
    frequency:    5.6440828546
  - # 13
    frequency:    6.3024775658
  - # 14
    frequency:    7.3442730320
  - # 15
    frequency:    9.6908008369
  - # 16
    frequency:   11.0088354409
  - # 17
    frequency:   11.3190867588
  - # 18
    frequency:   11.5321405561
  - # 19
    frequency:   13.5171572422
  - # 20
    frequency:   13.8645631350
  - # 21
    frequency:   14.0081621506
  - # 22
    frequency:   32.0348598935
  - # 23
    frequency:   36.7340711282
  - # 24
    frequency:   67.7950652778

- q-position: [    0.1313131,    0.0000000,    0.0000000 ]
  distance:    0.0419033
  band:
  - # 1
    frequency:   -5.3725616533
  - # 2
    frequency:   -4.9445940782
  - # 3
    frequency:   -1.3583205102
  - # 4
    frequency:   -0.6317059804
  - # 5
    frequency:    0.6882496272
  - # 6
    frequency:    1.0081030411
  - # 7
    frequency:    1.7667569509
  - # 8
    frequency:    2.4056286597
  - # 9
    frequency:    2.9914445460
  - # 10
    frequency:    4.2279111563
  - # 11
    frequency:    5.1178956056
  - # 12
    frequency:    5.6416946590
  - # 13
    frequency:    6.3200662608
  - # 14
    frequency:    7.3235031989
  - # 15
    frequency:    9.6862762191
  - # 16
    frequency:   11.0338987697
  - # 17
    frequency:   11.3207016143
  - # 18
    frequency:   11.5993414559
  - # 19
    frequency:   13.5027402792
  - # 20
    frequency:   13.8657154636
  - # 21
    frequency:   14.0153555726
  - # 22
    frequency:   32.0175099865
  - # 23
    frequency:   36.7070808460
  - # 24
    frequency:   67.7850462114

- q-position: [    0.1363636,    0.0000000,    0.0000000 ]
  distance:    0.0435150
  band:
  - # 1
    frequency:   -5.3497778493
  - # 2
    frequency:   -4.8965167197
  - # 3
    frequency:   -1.3466871238
  - # 4
    frequency:   -0.5473041065
  - # 5
    frequency:    0.7416013164
  - # 6
    frequency:    1.0440500448
  - # 7