nqpoint: 300    
npath: 3      
segment_nqpoint:
- 100
- 100
- 100
labels:
- [ 'G', 'M' ]
- [ 'M', 'K' ]
- [ 'K', 'G' ]
reciprocal_lattice:
- [   0.31038709,   0.17920207,   0.00000000 ] # a*
- [   0.00000000,   0.35840414,   0.00000000 ] # b*
- [   0.00000000,   0.00000000,   0.04208126 ] # c*
natom: 6      
lattice:
- [     3.221783478587958,     0.000000000000000,     0.000000000000000 ] # a
- [    -1.610891739293979,     2.790146337950008,     0.000000000000000 ] # b
- [     0.000000000000000,     0.000000000000000,    23.763546970174858 ] # c
points:
- symbol: C # 1
  coordinates: [  0.000000000000000,  0.000000000000000,  0.471802382225865 ]
  mass: 12.010700
- symbol: F # 2
  coordinates: [  0.666666984744048,  0.333332985985145,  0.378731340540018 ]
  mass: 18.998403
- symbol: N # 3
  coordinates: [  0.333332985432215,  0.666666983183674,  0.565929390577900 ]
  mass: 14.006700
- symbol: O # 4
  coordinates: [  0.333332985432215,  0.666666983183674,  0.621268659459982 ]
  mass: 15.999400
- symbol: Ti # 5
  coordinates: [  0.333332985432215,  0.666666983183674,  0.428662346816204 ]
  mass: 47.867000
- symbol: Ti # 6
  coordinates: [  0.666666984744048,  0.333332985985145,  0.527893461713181 ]
  mass: 47.867000

phonon:
- q-position: [    0.0000000,    0.0000000,    0.0000000 ]
  distance:    0.0000000
  band:
  - # 1
    frequency:   -4.2659985177
  - # 2
    frequency:   -4.2659985177
  - # 3
    frequency:   -0.0000031271
  - # 4
    frequency:   -0.0000003477
  - # 5
    frequency:    0.0000026965
  - # 6
    frequency:    4.8066545268
  - # 7
    frequency:    4.8066545268
  - # 8
    frequency:    6.3124511836
  - # 9
    frequency:    6.3124511836
  - # 10
    frequency:    7.0889455810
  - # 11
    frequency:   10.4442264293
  - # 12
    frequency:   11.1051551611
  - # 13
    frequency:   11.1051551611
  - # 14
    frequency:   12.9920914384
  - # 15
    frequency:   15.6743890309
  - # 16
    frequency:   15.6743890309
  - # 17
    frequency:   17.9740396703
  - # 18
    frequency:   41.0173696265

- q-position: [    0.0050505,    0.0000000,    0.0000000 ]
  distance:    0.0018101
  band:
  - # 1
    frequency:   -4.2662724938
  - # 2
    frequency:   -4.2648891097
  - # 3
    frequency:    0.0022771534
  - # 4
    frequency:    0.0838011018
  - # 5
    frequency:    0.1355869920
  - # 6
    frequency:    4.8068166922
  - # 7
    frequency:    4.8078032358
  - # 8
    frequency:    6.3124465659
  - # 9
    frequency:    6.3133800205
  - # 10
    frequency:    7.0895341044
  - # 11
    frequency:   10.4409935285
  - # 12
    frequency:   11.1050012337
  - # 13
    frequency:   11.1077922627
  - # 14
    frequency:   12.9914114692
  - # 15
    frequency:   15.6741488478
  - # 16
    frequency:   15.6747856125
  - # 17
    frequency:   17.9739314178
  - # 18
    frequency:   41.0167039190

- q-position: [    0.0101010,    0.0000000,    0.0000000 ]
  distance:    0.0036202
  band:
  - # 1
    frequency:   -4.2670950487
  - # 2
    frequency:   -4.2615649670
  - # 3
    frequency:    0.0090989950
  - # 4
    frequency:    0.1675999797
  - # 5
    frequency:    0.2711909572
  - # 6
    frequency:    4.8073031616
  - # 7
    frequency:    4.8112390160
  - # 8
    frequency:    6.3124325764
  - # 9
    frequency:    6.3161603561
  - # 10
    frequency:    7.0912999963
  - # 11
    frequency:   10.4314666198
  - # 12
    frequency:   11.1045409674
  - # 13
    frequency:   11.1155372431
  - # 14
    frequency:   12.9893720832
  - # 15
    frequency:   15.6734284744
  - # 16
    frequency:   15.6759766694
  - # 17
    frequency:   17.9736054451
  - # 18
    frequency:   41.0147076921

- q-position: [    0.0151515,    0.0000000,    0.0000000 ]
  distance:    0.0054304
  band:
  - # 1
    frequency:   -4.2684680282
  - # 2
    frequency:   -4.2560382326
  - # 3
    frequency:    0.0204328152
  - # 4
    frequency:    0.2513938799
  - # 5
    frequency:    0.4068271628
  - # 6
    frequency:    4.8081138541
  - # 7
    frequency:    4.8169310520
  - # 8
    frequency:    6.3124088087
  - # 9
    frequency:    6.3207737714
  - # 10
    frequency:    7.0942442055
  - # 11
    frequency:   10.4161203308
  - # 12
    frequency:   11.1037789001
  - # 13
    frequency:   11.1279318608
  - # 14
    frequency:   12.9859748524
  - # 15
    frequency:   15.6722284397
  - # 16
    frequency:   15.6779661020
  - # 17
    frequency:   17.9730581265
  - # 18
    frequency:   41.0113836313

- q-position: [    0.0202020,    0.0000000,    0.0000000 ]
  distance:    0.0072405
  band:
  - # 1
    frequency:   -4.2703943991
  - # 2
    frequency:   -4.2483288072
  - # 3
    frequency:    0.0362254906
  - # 4
    frequency:    0.3351790028
  - # 5
    frequency:    0.5425074862
  - # 6
    frequency:    4.8092486348
  - # 7
    frequency:    4.8248287204
  - # 8
    frequency:    6.3123745963
  - # 9
    frequency:    6.3271899208
  - # 10
    frequency:    7.0983682575
  - # 11
    frequency:   10.3956311577
  - # 12
    frequency:   11.1027225617
  - # 13
    frequency:   11.1443268531
  - # 14
    frequency:   12.9812224189
  - # 15
    frequency:   15.6705496311
  - # 16
    frequency:   15.6807602936
  - # 17
    frequency:   17.9722834843
  - # 18
    frequency:   41.0067362066

- q-position: [    0.0252525,    0.0000000,    0.0000000 ]
  distance:    0.0090506
  band:
  - # 1
    frequency:   -4.2728780882
  - # 2
    frequency:   -4.2384638457
  - # 3
    frequency:    0.0564041085
  - # 4
    frequency:    0.4189500155
  - # 5
    frequency:    0.6782387758
  - # 6
    frequency:    4.8107073126
  - # 7
    frequency:    4.8348626562
  - # 8
    frequency:    6.3123290284
  - # 9
    frequency:    6.3353670509
  - # 10
    frequency:    7.1036741776
  - # 11
    frequency:   10.3707621967
  - # 12
    frequency:   11.1013824244
  - # 13
    frequency:   11.1639970894
  - # 14
    frequency:   12.9751185277
  - # 15
    frequency:   15.6683933028
  - # 16
    frequency:   15.6843679356
  - # 17
    frequency:   17.9712732855
  - # 18
    frequency:   41.0007716633

- q-position: [    0.0303030,    0.0000000,    0.0000000 ]
  distance:    0.0108607
  band:
  - # 1
    frequency:   -4.2759237658
  - # 2
    frequency:   -4.2264770592
  - # 3
    frequency:    0.0808773387
  - # 4
    frequency:    0.5026996045
  - # 5
    frequency:    0.8140212803
  - # 6
    frequency:    4.8124896397
  - # 7
    frequency:    4.8469461729
  - # 8
    frequency:    6.3122709721
  - # 9
    frequency:    6.3452527027
  - # 10
    frequency:    7.1101643917
  - # 11
    frequency:   10.3422712500
  - # 12
    frequency:   11.0997718325
  - # 13
    frequency:   11.1862332975
  - # 14
    frequency:   12.9676680719
  - # 15
    frequency:   15.6657610873
  - # 16
    frequency:   15.6887997903
  - # 17
    frequency:   17.9700171740
  - # 18
    frequency:   40.9934980103

- q-position: [    0.0353535,    0.0000000,    0.0000000 ]
  distance:    0.0126709
  band:
  - # 1
    frequency:   -4.2795365806
  - # 2
    frequency:   -4.2124078295
  - # 3
    frequency:    0.1095370795
  - # 4
    frequency:    0.5864180812
  - # 5
    frequency:    0.9498471713
  - # 6
    frequency:    4.8145953092
  - # 7
    frequency:    4.8609769720
  - # 8
    frequency:    6.3121991003
  - # 9
    frequency:    6.3567845771
  - # 10
    frequency:    7.1178416183
  - # 11
    frequency:   10.3108559416
  - # 12
    frequency:   11.0979069147
  - # 13
    frequency:   11.2103967286
  - # 14
    frequency:   12.9588771501
  - # 15
    frequency:   15.6626550104
  - # 16
    frequency:   15.6940683938
  - # 17
    frequency:   17.9685028367
  - # 18
    frequency:   40.9849250038

- q-position: [    0.0404040,    0.0000000,    0.0000000 ]
  distance:    0.0144810
  band:
  - # 1
    frequency:   -4.2837218558
  - # 2
    frequency:   -4.1963001486
  - # 3
    frequency:    0.1422603044
  - # 4
    frequency:    0.6700930475
  - # 5
    frequency:    1.0856991849
  - # 6
    frequency:    4.8170239527
  - # 7
    frequency:    4.8768390717
  - # 8
    frequency:    6.3121119257
  - # 9
    frequency:    6.3698915337
  - # 10
    frequency:    7.1267087642
  - # 11
    frequency:   10.2771309493
  - # 12
    frequency:   11.0958064755
  - # 13
    frequency:   11.2359416467
  - # 14
    frequency:   12.9487531341
  - # 15
    frequency:   15.6590775081
  - # 16
    frequency:   15.7001877074
  - # 17
    frequency:   17.9667161994
  - # 18
    frequency:   40.9750641286

- q-position: [    0.0454545,    0.0000000,    0.0000000 ]
  distance:    0.0162911
  band:
  - # 1
    frequency:   -4.2884847567
  - # 2
    frequency:   -4.1782014000
  - # 3
    frequency:    0.1789110348
  - # 4
    frequency:    0.7537091307
  - # 5
    frequency:    1.2215494073
  - # 6
    frequency:    4.8197751374
  - # 7
    frequency:    4.8944048787
  - # 8
    frequency:    6.3120078400
  - # 9
    frequency:    6.3844946886
  - # 10
    frequency:    7.1367688417
  - # 11
    frequency:   10.2416258983
  - # 12
    frequency:   11.0934918699
  - # 13
    frequency:   11.2624170924
  - # 14
    frequency:   12.9373047462
  - # 15
    frequency:   15.6550314471
  - # 16
    frequency:   15.7071727250
  - # 17
    frequency:   17.9646416490
  - # 18
    frequency:   40.9639285752

- q-position: [    0.0505051,    0.0000000,    0.0000000 ]
  distance:    0.0181012
  band:
  - # 1
    frequency:   -4.2938299419
  - # 2
    frequency:   -4.1581610042
  - # 3
    frequency:    0.2193423658
  - # 4
    frequency:    0.8372477915
  - # 5
    frequency:    1.3573582310
  - # 6
    frequency:    4.8228483629
  - # 7
    frequency:    4.9135373352
  - # 8
    frequency:    6.3118851584
  - # 9
    frequency:    6.4005085727
  - # 10
    frequency:    7.1480249275
  - # 11
    frequency:   10.2047936357
  - # 12
    frequency:   11.0909868593
  - # 13
    frequency:   11.2894581980
  - # 14
    frequency:   12.9245421452
  - # 15
    frequency:   15.6505201465
  - # 16
    frequency:   15.7150390454
  - # 17
    frequency:   17.9622622794
  - # 18
    frequency:   40.9515332146

- q-position: [    0.0555556,    0.0000000,    0.0000000 ]
  distance:    0.0199113
  band:
  - # 1
    frequency:   -4.2997612082
  - # 2
    frequency:   -4.1362289558
  - # 3
    frequency:    0.2633984791
  - # 4
    frequency:    0.9206872064
  - # 5
    frequency:    1.4930735014
  - # 6
    frequency:    4.8262430567
  - # 7
    frequency:    4.9340920771
  - # 8
    frequency:    6.3117421683
  - # 9
    frequency:    6.4178423063
  - # 10
    frequency:    7.1604801858
  - # 11
    frequency:   10.1670221612
  - # 12
    frequency:   11.0883174514
  - # 13
    frequency:   11.3167737703
  - # 14
    frequency:   12.9104770197
  - # 15
    frequency:   15.6455474021
  - # 16
    frequency:   15.7238024181
  - # 17
    frequency:   17.9595601538
  - # 18
    frequency:   40.9378945691

- q-position: [    0.0606061,    0.0000000,    0.0000000 ]
  distance:    0.0217215
  band:
  - # 1
    frequency:   -4.3062811425
  - # 2
    frequency:   -4.1124542871
  - # 3
    frequency:    0.3109165899
  - # 4
    frequency:    1.0040022260
  - # 5
    frequency:    1.6286298738
  - # 6
    frequency:    4.8299585702
  - # 7
    frequency:    4.9559195524
  - # 8
    frequency:    6.3115771826
  - # 9
    frequency:    6.4364007442
  - # 10
    frequency:    7.1741379782
  - # 11
    frequency:   10.1286466251
  - # 12
    frequency:   11.0855117232
  - # 13
    frequency:   11.3441337258
  - # 14
    frequency:   12.8951226858
  - # 15
    frequency:   15.6401175119
  - # 16
    frequency:   15.7334782743
  - # 17
    frequency:   17.9565165825
  - # 18
    frequency:   40.9230307803

- q-position: [    0.0656566,    0.0000000,    0.0000000 ]
  distance:    0.0235316
  band:
  - # 1
    frequency:   -4.3133907901
  - # 2
    frequency:   -4.0868834942
  - # 3
    frequency:    0.3617287829
  - # 4
    frequency:    1.0871644058
  - # 5
    frequency:    1.7639483927
  - # 6
    frequency:    4.8339941725
  - # 7
    frequency:    4.9788670612
  - # 8
    frequency:    6.3113885965
  - # 9
    frequency:    6.4560855477
  - # 10
    frequency:    7.1890020833
  - # 11
    frequency:   10.0899598373
  - # 12
    frequency:   11.0825996297
  - # 13
    frequency:   11.3713579273
  - # 14
    frequency:   12.8784941893
  - # 15
    frequency:   15.6342353031
  - # 16
    frequency:   15.7440812522
  - # 17
    frequency:   17.9531124089
  - # 18
    frequency:   40.9069615748

- q-position: [    0.0707071,    0.0000000,    0.0000000 ]
  distance:    0.0253417
  band:
  - # 1
    frequency:   -4.3210893493
  - # 2
    frequency:   -4.0595589675
  - # 3
    frequency:    0.4156637088
  - # 4
    frequency:    1.1701421039
  - # 5
    frequency:    1.8989362987
  - # 6
    frequency:    4.8383490445
  - # 7
    frequency:    5.0027806903
  - # 8
    frequency:    6.3111749470
  - # 9
    frequency:    6.4767961384
  - # 10
    frequency:    7.2050770417
  - # 11
    frequency:   10.0512208305
  - # 12
    frequency:   11.0796127983
  - # 13
    frequency:   11.3983068778
  - # 14
    frequency:   12.8606084097
  - # 15
    frequency:   15.6279061587
  - # 16
    frequency:   15.7556247266
  - # 17
    frequency:   17.9493283005
  - # 18
    frequency:   40.8897082255

- q-position: [    0.0757576,    0.0000000,    0.0000000 ]
  distance:    0.0271518
  band:
  - # 1
    frequency:   -4.3293739008
  - # 2
    frequency:   -4.0305174660
  - # 3
    frequency:    0.4725481220
  - # 4
    frequency:    1.2529006409
  - # 5
    frequency:    2.0334870625
  - # 6
    frequency:    4.8430222714
  - # 7
    frequency:    5.0275071287
  - # 8
    frequency:    6.3109349751
  - # 9
    frequency:    6.4984305014
  - # 10
    frequency:    7.2223686381
  - # 11
    frequency:   10.0126615296
  - # 12
    frequency:   11.0765843108
  - # 13
    frequency:   11.4248742111
  - # 14
    frequency:   12.8414841653
  - # 15
    frequency:   15.6211360459
  - # 16
    frequency:   15.7681203541
  - # 17
    frequency:   17.9451450409
  - # 18
    frequency:   40.8712935123

- q-position: [    0.0808081,    0.0000000,    0.0000000 ]
  distance:    0.0289620
  band:
  - # 1
    frequency:   -4.3382391784
  - # 2
    frequency:   -3.9997886752
  - # 3
    frequency:    0.5322082508
  - # 4
    frequency:    1.3354025127
  - # 5
    frequency:    2.1674806342
  - # 6
    frequency:    4.8480128339
  - # 7
    frequency:    5.0528953596
  - # 8
    frequency:    6.3106676890
  - # 9
    frequency:    6.5208858128
  - # 10
    frequency:    7.2408845152
  - # 11
    frequency:    9.9744917809
  - # 12
    frequency:   11.0735484742
  - # 13
    frequency:   11.4509807313
  - # 14
    frequency:   12.8211423165
  - # 15
    frequency:   15.6139315429
  - # 16
    frequency:   15.7815776412
  - # 17
    frequency:   17.9405438181
  - # 18
    frequency:   40.8517416780

- q-position: [    0.0858586,    0.0000000,    0.0000000 ]
  distance:    0.0307721
  band:
  - # 1
    frequency:   -4.3476773856
  - # 2
    frequency:   -3.9673938826
  - # 3
    frequency:    0.5944710007
  - # 4
    frequency:    1.4176076475
  - # 5
    frequency:    2.3007838938
  - # 6
    frequency:    4.8533195984
  - # 7
    frequency:    5.0787982338
  - # 8
    frequency:    6.3103724287
  - # 9
    frequency:    6.5440588838
  - # 10
    frequency:    7.2606349016
  - # 11
    frequency:    9.9369030325
  - # 12
    frequency:   11.0705405820
  - # 13
    frequency:   11.4765697064
  - # 14
    frequency:   12.7996058693
  - # 15
    frequency:   15.6062998663
  - # 16
    frequency:   15.7960035456
  - # 17
    frequency:   17.9355065057
  - # 18
    frequency:   40.8310783835

- q-position: [    0.0909091,    0.0000000,    0.0000000 ]
  distance:    0.0325822
  band:
  - # 1
    frequency:   -4.3576780609
  - # 2
    frequency:   -3.9333447972
  - # 3
    frequency:    0.6591649974
  - # 4
    frequency:    1.4994736988
  - # 5
    frequency:    2.4332512803
  - # 6
    frequency:    4.8589413052
  - # 7
    frequency:    5.1050739328
  - # 8
    frequency:    6.3100489297
  - # 9
    frequency:    6.5678464348
  - # 10
    frequency:    7.2816334110
  - # 11
    frequency:    9.9000709432
  - # 12
    frequency:   11.0675966673
  - # 13
    frequency:   11.5016031465
  - # 14
    frequency:   12.7769000751
  - # 15
    frequency:   15.5982488961
  - # 16
    frequency:   15.8114021164
  - # 17
    frequency:   17.9300159338
  - # 18
    frequency:   40.8093306598

- q-position: [    0.0959596,    0.0000000,    0.0000000 ]
  distance:    0.0343923
  band:
  - # 1
    frequency:   -4.3682279927
  - # 2
    frequency:   -3.8976425337
  - # 3
    frequency:    0.7261214788
  - # 4
    frequency:    1.5809563632
  - # 5
    frequency:    2.5647255730
  - # 6
    frequency:    4.8648765549
  - # 7
    frequency:    5.1315873361
  - # 8
    frequency:    6.3096973866
  - # 9
    frequency:    6.5921452358
  - # 10
    frequency:    7.3038978459
  - # 11
    frequency:    9.8641571560
  - # 12
    frequency:   11.0647532504
  - # 13
    frequency:   11.5260588420
  - # 14
    frequency:   12.7530525308
  - # 15
    frequency:   15.5897872000
  - # 16
    frequency:   15.8277741810
  - # 17
    frequency:   17.9240561471
  - # 18
    frequency:   40.7865268577

- q-position: [    0.1010101,    0.0000000,    0.0000000 ]
  distance:    0.0362024
  band:
  - # 1
    frequency:   -4.3793111840
  - # 2
    frequency:   -3.8602767691
  - # 3
    frequency:    0.7951750516
  - # 4
    frequency:    1.6620097153
  - # 5
    frequency:    2.6950387993
  - # 6
    frequency:    4.8711237933
  - # 7
    frequency:    5.1582113068
  - # 8
    frequency:    6.3093185135
  - # 9
    frequency:    6.6168521748
  - # 10
    frequency:    7.3274509141
  - # 11
    frequency:    9.8293104298
  - # 12
    frequency:   11.0620470814
  - # 13
    frequency:   11.5499279781
  - # 14
    frequency:   12.7280932777
  - # 15
    frequency:   15.5809240558
  - # 16
    frequency:   15.8451170818
  - # 17
    frequency:   17.9176126472
  - # 18
    frequency:   40.7626965961

- q-position: [    0.1060606,    0.0000000,    0.0000000 ]
  distance:    0.0380126
  band:
  - # 1
    frequency:   -4.3909088633
  - # 2
    frequency:   -3.8212250704
  - # 3
    frequency:    0.8661643229
  - # 4
    frequency:    1.7425865496
  - # 5
    frequency:    2.8240132410
  - # 6
    frequency:    4.8776812935
  - # 7
    frequency:    5.1848279087
  - # 8
    frequency:    6.3089136027
  - # 9
    frequency:    6.6418643415
  - # 10
    frequency:    7.3523207366
  - # 11
    frequency:    9.7956672919
  - # 12
    frequency:   11.0595148815
  - # 13
    frequency:   11.5732131864
  - # 14
    frequency:   12.7020549041
  - # 15
    frequency:   15.5716694702
  - # 16
    frequency:   15.8634244665
  - # 17
    frequency:   17.9106726171
  - # 18
    frequency:   40.7378707077

- q-position: [    0.1111111,    0.0000000,    0.0000000 ]
  distance:    0.0398227
  band:
  - # 1
    frequency:   -4.4029995407
  - # 2
    frequency:   -3.7804523839
  - # 3
    frequency:    0.9389324254
  - # 4
    frequency:    1.8226387228
  - # 5
    frequency:    2.9514625164
  - # 6
    frequency:    4.8845471363
  - # 7
    frequency:    5.2113295663
  - # 8
    frequency:    6.3084845781
  - # 9
    frequency:    6.6670792297
  - # 10
    frequency:    7.3785410118
  - # 11
    frequency:    9.7633523445
  - # 12
    frequency:   11.0571930835
  - # 13
    frequency:   11.5959269211
  - # 14
    frequency:   12.6749726558
  - # 15
    frequency:   15.5620341966
  - # 16
    frequency:   15.8826861347
  - # 17
    frequency:   17.9032251274
  - # 18
    frequency:   40.7120811835

- q-position: [    0.1161616,    0.0000000,    0.0000000 ]
  distance:    0.0416328
  band:
  - # 1
    frequency:   -4.4155591024
  - # 2
    frequency:   -3.7379106633
  - # 3
    frequency:    1.0133274443
  - # 4
    frequency:    1.9021174897
  - # 5
    frequency:    3.0771927153
  - # 6
    frequency:    4.8917191876
  - # 7
    frequency:    5.2376201777
  - # 8
    frequency:    6.3080340448
  - # 9
    frequency:    6.6923951737
  - # 10
    frequency:    7.4061506852
  - # 11
    frequency:    9.7324783380
  - # 12
    frequency:   11.0551175754
  - # 13
    frequency:   11.6180900755
  - # 14
    frequency:   12.6468845611
  - # 15
    frequency:   15.5520297477
  - # 16
    frequency:   15.9028879393
  - # 17
    frequency:   17.8952613228
  - # 18
    frequency:   40.6853611153

- q-position: [    0.1212121,    0.0000000,    0.0000000 ]
  distance:    0.0434429
  band:
  - # 1
    frequency:   -4.4285609405
  - # 2
    frequency:   -3.6935386107
  - # 3
    frequency:    1.0892027608
  - # 4
    frequency:    1.9809738249
  - # 5
    frequency:    3.2010035717
  - # 6
    frequency:    4.8991950742
  - # 7
    frequency:    5.2636161842
  - # 8
    frequency:    6.3075653318
  - # 9
    frequency:    6.7177121234
  - # 10
    frequency:    7.4351929871
  - # 11
    frequency:    9.7031461103
  - # 12
    frequency:   11.0533234475
  - # 13
    frequency:   11.6397307665
  - # 14
    frequency:   12.6178315837
  - # 15
    frequency:   15.5416684058
  - # 16
    frequency:   15.9240117424
  - # 17
    frequency:   17.8867745878
  - # 18
    frequency:   40.6577446368

- q-position: [    0.1262626,    0.0000000,    0.0000000 ]
  distance:    0.0452530
  band:
  - # 1
    frequency:   -4.4419761126
  - # 2
    frequency:   -3.6472614912
  - # 3
    frequency:    1.1664173204
  - # 4
    frequency:    2.0591587291
  - # 5
    frequency:    3.3226896616
  - # 6
    frequency:    4.9069721569
  - # 7
    frequency:    5.2892475982
  - # 8
    frequency:    6.3070825279
  - # 9
    frequency:    6.7429328435
  - # 10
    frequency:    7.4657137226
  - # 11
    frequency:    9.6754444800
  - # 12
    frequency:   11.0518447467
  - # 13
    frequency:   11.6608832292
  - # 14
    frequency:   12.5878578178
  - # 15
    frequency:   15.5309632285
  - # 16
    frequency:   15.9460354234
  - # 17
    frequency:   17.8777606929
  - # 18
    frequency:   40.6292668639

- q-position: [    0.1313131,    0.0000000,    0.0000000 ]
  distance:    0.0470632
  band:
  - # 1
    frequency:   -4.4557735257
  - # 2
    frequency:   -3.5989909823
  - # 3
    frequency:    1.2448358338
  - # 4
    frequency:    2.1366235127
  - # 5
    frequency:    3.4420416152
  - # 6
    frequency:    4.9150475022
  - # 7
    frequency:    5.3144589878
  - # 8
    frequency:    6.3065905098
  - # 9
    frequency:    6.7679645686
  - # 10
    frequency:    7.4977587540
  - # 11
    frequency:    9.6494501679
  - # 12
    frequency:   11.0507142394
  - # 13
    frequency:   11.6815867633
  - # 14
    frequency:   12.5570107529
  - # 15
    frequency:   15.5199280505
  - # 16
    frequency:   15.9689329344
  - # 17
    frequency:   17.8682179210
  - # 18
    frequency:   40.5999638327

- q-position: [    0.1363636,    0.0000000,    0.0000000 ]
  distance:    0.0488733
  band:
  - # 1
    frequency:   -4.4699201394
  - # 2
    frequency:   -3.5486250071
  - # 3
    frequency:    1.3243289178
  - # 4
    frequency:    2.2133200575
  - # 5
    frequency:    3.5588473412
  - # 6
    frequency:    4.9234178516
  - # 7
    frequency:    5.3392104090
  - # 8
    frequency:    6.3060949612
  - # 9
    frequency:    6.7927210888
  - # 10
    frequency:    7.5313706833
  - # 11
    frequency:    9.6252278181
  - # 12
    frequency:   11.0499631854
  - # 13
    frequency:   11.7018846700
  - # 14
    frequency:   12.5253416460
  - # 15
    frequency:   15.5085774803
  - # 16
    frequency:   15.9926743990
  - # 17
    frequency:   17.8581471750
  - # 18
    frequency:   40.5698724378

- q-position: [    0.1414141,    0.0000000,    0.0000000 ]
  distance:    0.0506834
  band:
  - # 1
    frequency:   -4.4843811827
  - # 2
    frequency:   -3.4960474997
  - # 3
    frequency:    1.4047731806
  - # 4
    frequency:    2.2892010519
  - # 5
    frequency:    3.6728932579
  - # 6
    frequency:    4.9320795914
  - # 7
    frequency:    5.3634782748
  - # 8
    frequency:    6.3056023818
  - # 9
    frequency:    6.8171251581
  - # 10
    frequency:    7.5665848317
  - # 11
    frequency:    9.6028301728
  - # 12
    frequency:   11.0496211248
  - # 13
    frequency:   11.7218231033
  - # 14
    frequency:   12.4929060614
  - # 15
    frequency:   15.4969268928
  - # 16
    frequency:   16.0172262476
  - # 17
    frequency:   17.8475520682
  - # 18
    frequency:   40.5390303687

- q-position: [    0.1464646,    0.0000000,    0.0000000 ]
  distance:    0.0524935
  band:
  - # 1
    frequency:   -4.4991203818
  - # 2
    frequency:   -3.4411280413
  - # 3
    frequency:    1.4860512555
  - # 4
    frequency:    2.3642202010
  - # 5
    frequency:    3.7839655344
  - # 6
    frequency:    4.9410287210
  - # 7
    frequency:    5.3872561402
  - # 8
    frequency:    6.3051200865
  - # 9
    frequency:    6.8411110486
  - # 10
    frequency:    7.6034247008
  - # 11
    frequency:    9.5822984479
  - # 12
    frequency:   11.0497156803
  - # 13
    frequency:   11.7414497255
  - # 14
    frequency:   12.4597646756
  - # 15
    frequency:   15.4849924160
  - # 16
    frequency:   16.0425513842
  - # 17
    frequency:   17.8364389994
  - # 18
    frequency:   40.5074760458

- q-position: [    0.1515152,    0.0000000,    0.0000000 ]
  distance:    0.0543037
  band:
  - # 1
    frequency:   -4.5141001926
  - # 2
    frequency:   -3.3837212976
  - # 3
    frequency:    1.5680517876
  - # 4
    frequency:    2.4383324093
  - # 5
    frequency:    3.8918513499
  - # 6
    frequency:    4.9502608231
  - # 7
    frequency:    5.4105553749
  - # 8
    frequency:    6.3046561926
  - # 9
    frequency:    6.8646270113
  - # 10
    frequency:    7.6418971765
  - # 11
    frequency:    9.5636629380
  - # 12
    frequency:   11.0502723754
  - # 13
    frequency:   11.7608120000
  - # 14
    frequency:   12.4259845061
  - # 15
    frequency:   15.4727909136
  - # 16
    frequency:   16.0686093754
  - # 17
    frequency:   17.8248172154
  - # 18
    frequency:   40.4752485559

- q-position: [    0.1565657,    0.0000000,    0.0000000 ]
  distance:    0.0561138
  band:
  - # 1
    frequency:   -4.5292820361
  - # 2
    frequency:   -3.3236661792
  - # 3
    frequency:    1.6506693753
  - # 4
    frequency:    2.5114939378
  - # 5
    frequency:    3.9963401877
  - # 6
    frequency:    4.9597710357
  - # 7
    frequency:    5.4334056752
  - # 8
    frequency:    6.3042195956
  - # 9
    frequency:    6.8876373813
  - # 10
    frequency:    7.6819877821
  - # 11
    frequency:    9.5469438653
  - # 12
    frequency:   11.0513144723
  - # 13
    frequency:   11.7799548388
  - # 14
    frequency:   12.3916408385
  - # 15
    frequency:   15.4603399611
  - # 16
    frequency:   16.0953566552
  - # 17
    frequency:   17.8126988618
  - # 18
    frequency:   40.4423875871

- q-position: [    0.1616162,    0.0000000,    0.0000000 ]
  distance:    0.0579239
  band:
  - # 1
    frequency:   -4.5446265329
  - # 2
    frequency:   -3.2607846265
  - # 3
    frequency:    1.7338044695
  - # 4
    frequency:    2.5836625340
  - # 5
    frequency:    4.0972252022
  - # 6
    frequency:    4.9695540274
  - # 7
    frequency:    5.4558553514
  - # 8
    frequency:    6.3038199331
  - # 9
    frequency:    6.9101240762
  - # 10
    frequency:    7.7236563017
  - # 11
    frequency:    9.5321524643
  - # 12
    frequency:   11.0528628278
  - # 13
    frequency:   11.7989171137
  - # 14
    frequency:   12.3568203377
  - # 15
    frequency:   15.4476578176
  - # 16
    frequency:   16.1227467377
  - # 17
    frequency:   17.8000990289
  - # 18
    frequency:   40.4089333632

- q-position: [    0.1666667,    0.0000000,    0.0000000 ]
  distance:    0.0597340
  band:
  - # 1
    frequency:   -4.5600937347
  - # 2
    frequency:   -3.1948799003
  - # 3
    frequency:    1.8173632341
  - # 4
    frequency:    2.6547975378
  - # 5
    frequency:    4.1943047204
  - # 6
    frequency:    4.9796039784
  - # 7
    frequency:    5.4779712875
  - # 8
    frequency:    6.3034675352
  - # 9
    frequency:    6.9320872941
  - # 10
    frequency:    7.7668330580
  - # 11
    frequency:    9.5192922750
  - # 12
    frequency:   11.0549357723
  - # 13
    frequency:   11.8177261203
  - # 14
    frequency:   12.3216262476
  - # 15
    frequency:   15.4347633915
  - # 16
    frequency:   16.1507304280
  - # 17
    frequency:   17.7870357923
  - # 18
    frequency:   40.3749265783

- q-position: [    0.1717172,    0.0000000,    0.0000000 ]
  distance:    0.0615441
  band:
  - # 1
    frequency:   -4.5756433510
  - # 2
    frequency:   -3.1257342244
  - # 3
    frequency:    1.9012573689
  - # 4
    frequency:    2.7248599616
  - # 5
    frequency:    4.2873839796
  - # 6
    frequency:    4.9899145683
  - # 7
    frequency:    5.4998384356
  - # 8
    frequency:    6.3031733630
  - # 9
    frequency:    6.9535453002
  - # 10
    frequency:    7.8114160758
  - # 11
    frequency:    9.5083605931
  - # 12
    frequency:   11.0575490081
  - # 13
    frequency:   11.8363882263
  - # 14
    frequency:   12.2861874405
  - # 15
    frequency:   15.4216762007
  - # 16
    frequency:   16.1792560240
  - # 17
    frequency:   17.7735302560
  - # 18
    frequency:   40.3404083305

- q-position: [    0.1767677,    0.0000000,    0.0000000 ]
  distance:    0.0633543
  band:
  - # 1
    frequency:   -4.5912349688
  - # 2
    frequency:   -3.0531055772
  - # 3
    frequency:    1.9854038991
  - # 4
    frequency:    2.7938125474
  - # 5
    frequency:    4.3762772550
  - # 6
    frequency:    5.0004789724
  - # 7
    frequency:    5.5215586536
  - # 8
    frequency:    6.3029489342
  - # 9
    frequency:    6.9745332928
  - # 10
    frequency:    7.8572692813
  - # 11
    frequency:    9.4993500009
  - # 12
    frequency:   11.0607155325
  - # 13
    frequency:   11.8548720775
  - # 14