nqpoint: 300    
npath: 3      
segment_nqpoint:
- 100
- 100
- 100
labels:
- [ 'G', 'M' ]
- [ 'M', 'K' ]
- [ 'K', 'G' ]
reciprocal_lattice:
- [   0.28952319,   0.16715629,   0.00000000 ] # a*
- [   0.00000000,   0.33431258,   0.00000000 ] # b*
- [   0.00000000,   0.00000000,   0.04167381 ] # c*
natom: 5      
lattice:
- [     3.453954790094751,     0.000000000000000,     0.000000000000000 ] # a
- [    -1.726977395047376,     2.991212591740306,     0.000000000000000 ] # b
- [     0.000000000000000,     0.000000000000000,    23.995886992090245 ] # c
points:
- symbol: C # 1
  coordinates: [  0.000000000000000,  0.000000000000000,  0.500000032632722 ]
  mass: 12.010700
- symbol: Cl # 2
  coordinates: [  0.333332985432215,  0.666666983183674,  0.624935723235958 ]
  mass: 35.453000
- symbol: Cl # 3
  coordinates: [  0.666666984744047,  0.333332985985144,  0.375064276764042 ]
  mass: 35.453000
- symbol: Zr # 4
  coordinates: [  0.333332985432215,  0.666666983183674,  0.449980176798571 ]
  mass: 91.224000
- symbol: Zr # 5
  coordinates: [  0.666666984744047,  0.333332985985144,  0.550019822714365 ]
  mass: 91.224000

phonon:
- q-position: [    0.0000000,    0.0000000,    0.0000000 ]
  distance:    0.0000000
  band:
  - # 1
    frequency:   -0.0000143278
  - # 2
    frequency:   -0.0000001010
  - # 3
    frequency:    0.0000076270
  - # 4
    frequency:    3.7924497228
  - # 5
    frequency:    3.7924497228
  - # 6
    frequency:    5.3049160272
  - # 7
    frequency:    5.3049160272
  - # 8
    frequency:    5.5997563345
  - # 9
    frequency:    5.7874371268
  - # 10
    frequency:    5.7874371268
  - # 11
    frequency:    8.5276398496
  - # 12
    frequency:   10.1900019712
  - # 13
    frequency:   15.2717045385
  - # 14
    frequency:   17.1681715756
  - # 15
    frequency:   17.1681715756

- q-position: [    0.0050505,    0.0000000,    0.0000000 ]
  distance:    0.0016884
  band:
  - # 1
    frequency:    0.0017370574
  - # 2
    frequency:    0.0603521422
  - # 3
    frequency:    0.1068192036
  - # 4
    frequency:    3.7926582050
  - # 5
    frequency:    3.7938129444
  - # 6
    frequency:    5.3026435044
  - # 7
    frequency:    5.3048592235
  - # 8
    frequency:    5.6025253266
  - # 9
    frequency:    5.7873668393
  - # 10
    frequency:    5.7877179655
  - # 11
    frequency:    8.5273319856
  - # 12
    frequency:   10.1889355097
  - # 13
    frequency:   15.2714191002
  - # 14
    frequency:   17.1677443445
  - # 15
    frequency:   17.1683205515

- q-position: [    0.0101010,    0.0000000,    0.0000000 ]
  distance:    0.0033769
  band:
  - # 1
    frequency:    0.0069395603
  - # 2
    frequency:    0.1206922832
  - # 3
    frequency:    0.2136225383
  - # 4
    frequency:    3.7932832921
  - # 5
    frequency:    3.7978933057
  - # 6
    frequency:    5.2960802048
  - # 7
    frequency:    5.3046887197
  - # 8
    frequency:    5.6105768944
  - # 9
    frequency:    5.7871569349
  - # 10
    frequency:    5.7885601814
  - # 11
    frequency:    8.5264091427
  - # 12
    frequency:   10.1857385139
  - # 13
    frequency:   15.2705636081
  - # 14
    frequency:   17.1664645111
  - # 15
    frequency:   17.1687649462

- q-position: [    0.0151515,    0.0000000,    0.0000000 ]
  distance:    0.0050653
  band:
  - # 1
    frequency:    0.0155817164
  - # 2
    frequency:    0.1810084280
  - # 3
    frequency:    0.3203937949
  - # 4
    frequency:    3.7943239089
  - # 5
    frequency:    3.8046631165
  - # 6
    frequency:    5.2858804989
  - # 7
    frequency:    5.3044042398
  - # 8
    frequency:    5.6232530803
  - # 9
    frequency:    5.7868102809
  - # 10
    frequency:    5.7899630425
  - # 11
    frequency:    8.5248735709
  - # 12
    frequency:   10.1804181311
  - # 13
    frequency:   15.2691405279
  - # 14
    frequency:   17.1643376479
  - # 15
    frequency:   17.1694971873

- q-position: [    0.0202020,    0.0000000,    0.0000000 ]
  distance:    0.0067538
  band:
  - # 1
    frequency:    0.0276212455
  - # 2
    frequency:    0.2412885954
  - # 3
    frequency:    0.4271160903
  - # 4
    frequency:    3.7957782758
  - # 5
    frequency:    3.8140769479
  - # 6
    frequency:    5.2728666614
  - # 7
    frequency:    5.3040053333
  - # 8
    frequency:    5.6397249929
  - # 9
    frequency:    5.7863316296
  - # 10
    frequency:    5.7919259677
  - # 11
    frequency:    8.5227290280
  - # 12
    frequency:   10.1729862139
  - # 13
    frequency:   15.2671539591
  - # 14
    frequency:   17.1613730200
  - # 15
    frequency:   17.1705047451

- q-position: [    0.0252525,    0.0000000,    0.0000000 ]
  distance:    0.0084422
  band:
  - # 1
    frequency:    0.0430003976
  - # 2
    frequency:    0.3015208247
  - # 3
    frequency:    0.5337715301
  - # 4
    frequency:    3.7976439263
  - # 5
    frequency:    3.8260726713
  - # 6
    frequency:    5.2578314122
  - # 7
    frequency:    5.3034913890
  - # 8
    frequency:    5.6591889581
  - # 9
    frequency:    5.7857275800
  - # 10
    frequency:    5.7944498376
  - # 11
    frequency:    8.5199807914
  - # 12
    frequency:   10.1634592312
  - # 13
    frequency:   15.2646096210
  - # 14
    frequency:   17.1575835524
  - # 15
    frequency:   17.1717702673

- q-position: [    0.0303030,    0.0000000,    0.0000000 ]
  distance:    0.0101307
  band:
  - # 1
    frequency:    0.0616472954
  - # 2
    frequency:    0.3616931842
  - # 3
    frequency:    0.6403408772
  - # 4
    frequency:    3.7999177315
  - # 5
    frequency:    3.8405728310
  - # 6
    frequency:    5.2414417178
  - # 7
    frequency:    5.3028616550
  - # 8
    frequency:    5.6809598570
  - # 9
    frequency:    5.7850065229
  - # 10
    frequency:    5.7975398611
  - # 11
    frequency:    8.5166356726
  - # 12
    frequency:   10.1518581470
  - # 13
    frequency:   15.2615148320
  - # 14
    frequency:   17.1529857828
  - # 15
    frequency:   17.1732717635

- q-position: [    0.0353535,    0.0000000,    0.0000000 ]
  distance:    0.0118191
  band:
  - # 1
    frequency:    0.0834775318
  - # 2
    frequency:    0.4217937803
  - # 3
    frequency:    0.7468032228
  - # 4
    frequency:    3.8025959315
  - # 5
    frequency:    3.8574862790
  - # 6
    frequency:    5.2242211519
  - # 7
    frequency:    5.3021152654
  - # 8
    frequency:    5.7044820255
  - # 9
    frequency:    5.7841785702
  - # 10
    frequency:    5.8012123266
  - # 11
    frequency:    8.5127020357
  - # 12
    frequency:   10.1382082702
  - # 13
    frequency:   15.2578784831
  - # 14
    frequency:   17.1475998019
  - # 15
    frequency:   17.1749828375

- q-position: [    0.0404040,    0.0000000,    0.0000000 ]
  distance:    0.0135076
  band:
  - # 1
    frequency:    0.1083959409
  - # 2
    frequency:    0.4818107675
  - # 3
    frequency:    0.8531356623
  - # 4
    frequency:    3.8056741723
  - # 5
    frequency:    3.8767099916
  - # 6
    frequency:    5.2065686194
  - # 7
    frequency:    5.3012512742
  - # 8
    frequency:    5.7292924498
  - # 9
    frequency:    5.7832554682
  - # 10
    frequency:    5.8055127008
  - # 11
    frequency:    8.5081898165
  - # 12
    frequency:   10.1225390774
  - # 13
    frequency:   15.2537110059
  - # 14
    frequency:   17.1414491801
  - # 15
    frequency:   17.1768729620

- q-position: [    0.0454545,    0.0000000,    0.0000000 ]
  distance:    0.0151960
  band:
  - # 1
    frequency:    0.1362984616
  - # 2
    frequency:    0.5417323606
  - # 3
    frequency:    0.9593129766
  - # 4
    frequency:    3.8091475483
  - # 5
    frequency:    3.8981309866
  - # 6
    frequency:    5.1887861205
  - # 7
    frequency:    5.3002686959
  - # 8
    frequency:    5.7549342077
  - # 9
    frequency:    5.7822504958
  - # 10
    frequency:    5.8105744541
  - # 11
    frequency:    8.5031105423
  - # 12
    frequency:   10.1048840145
  - # 13
    frequency:   15.2490243340
  - # 14
    frequency:   17.1345608812
  - # 15
    frequency:   17.1789077919

- q-position: [    0.0505051,    0.0000000,    0.0000000 ]
  distance:    0.0168845
  band:
  - # 1
    frequency:    0.1670740172
  - # 2
    frequency:    0.6015468473
  - # 3
    frequency:    1.0653073188
  - # 4
    frequency:    3.8130106501
  - # 5
    frequency:    3.9216282628
  - # 6
    frequency:    5.1711040037
  - # 7
    frequency:    5.2991665551
  - # 8
    frequency:    5.7806791826
  - # 9
    frequency:    5.7811783452
  - # 10
    frequency:    5.8168711387
  - # 11
    frequency:    8.4974773511
  - # 12
    frequency:   10.0852802796
  - # 13
    frequency:   15.2438318586
  - # 14
    frequency:   17.1269651624
  - # 15
    frequency:   17.1810495101

- q-position: [    0.0555556,    0.0000000,    0.0000000 ]
  distance:    0.0185729
  band:
  - # 1
    frequency:    0.2006063432
  - # 2
    frequency:    0.6612426036
  - # 3
    frequency:    1.1710879075
  - # 4
    frequency:    3.8172576167
  - # 5
    frequency:    3.9470746957
  - # 6
    frequency:    5.1537006628
  - # 7
    frequency:    5.2979439438
  - # 8
    frequency:    5.7800549885
  - # 9
    frequency:    5.8041041510
  - # 10
    frequency:    5.8266206672
  - # 11
    frequency:    8.4913050072
  - # 12
    frequency:   10.0637685936
  - # 13
    frequency:   15.2381483783
  - # 14
    frequency:   17.1186954618
  - # 15
    frequency:   17.1832572006

- q-position: [    0.0606061,    0.0000000,    0.0000000 ]
  distance:    0.0202614
  band:
  - # 1
    frequency:    0.2367757085
  - # 2
    frequency:    0.7208081105
  - # 3
    frequency:    1.2766207261
  - # 4
    frequency:    3.8218821909
  - # 5
    frequency:    3.9743388320
  - # 6
    frequency:    5.1367169397
  - # 7
    frequency:    5.2966000877
  - # 8
    frequency:    5.7788975275
  - # 9
    frequency:    5.8190706385
  - # 10
    frequency:    5.8457911411
  - # 11
    frequency:    8.4846099133
  - # 12
    frequency:   10.0403929607
  - # 13
    frequency:   15.2319900430
  - # 14
    frequency:   17.1097882719
  - # 15
    frequency:   17.1854872433

- q-position: [    0.0656566,    0.0000000,    0.0000000 ]
  distance:    0.0219498
  band:
  - # 1
    frequency:    0.2754604874
  - # 2
    frequency:    0.7802319721
  - # 3
    frequency:    1.3818682282
  - # 4
    frequency:    3.8268777787
  - # 5
    frequency:    4.0032865420
  - # 6
    frequency:    5.1202663691
  - # 7
    frequency:    5.2951344212
  - # 8
    frequency:    5.7777240296
  - # 9
    frequency:    5.8279065860
  - # 10
    frequency:    5.8719090538
  - # 11
    frequency:    8.4774101160
  - # 12
    frequency:   10.0152004264
  - # 13
    frequency:   15.2253742924
  - # 14
    frequency:   17.1002830011
  - # 15
    frequency:   17.1876937240

- q-position: [    0.0707071,    0.0000000,    0.0000000 ]
  distance:    0.0236383
  band:
  - # 1
    frequency:    0.3165385554
  - # 2
    frequency:    0.8395029364
  - # 3
    frequency:    1.4867890499
  - # 4
    frequency:    3.8322375109
  - # 5
    frequency:    4.0337825018
  - # 6
    frequency:    5.1044423986
  - # 7
    frequency:    5.2935466698
  - # 8
    frequency:    5.7765533494
  - # 9
    frequency:    5.8354687056
  - # 10
    frequency:    5.8999898616
  - # 11
    frequency:    8.4697253041
  - # 12
    frequency:    9.9882408340
  - # 13
    frequency:   15.2183197891
  - # 14
    frequency:   17.0902218218
  - # 15
    frequency:   17.1898288537

- q-position: [    0.0757576,    0.0000000,    0.0000000 ]
  distance:    0.0253267
  band:
  - # 1
    frequency:    0.3598884945
  - # 2
    frequency:    0.8986099170
  - # 3
    frequency:    1.5913377271
  - # 4
    frequency:    3.8379543067
  - # 5
    frequency:    4.0656914903
  - # 6
    frequency:    5.0893234798
  - # 7
    frequency:    5.2918369418
  - # 8
    frequency:    5.7754049378
  - # 9
    frequency:    5.8429097007
  - # 10
    frequency:    5.9287658558
  - # 11
    frequency:    8.4615767969
  - # 12
    frequency:    9.9595665863
  - # 13
    frequency:   15.2108463469
  - # 14
    frequency:   17.0796495061
  - # 15
    frequency:   17.1918433922

- q-position: [    0.0808081,    0.0000000,    0.0000000 ]
  distance:    0.0270152
  band:
  - # 1
    frequency:    0.4053906024
  - # 2
    frequency:    0.9575420177
  - # 3
    frequency:    1.6954644181
  - # 4
    frequency:    3.8440209390
  - # 5
    frequency:    4.0988794969
  - # 6
    frequency:    5.0749766788
  - # 7
    frequency:    5.2900058244
  - # 8
    frequency:    5.7742986401
  - # 9
    frequency:    5.8504948032
  - # 10
    frequency:    5.9578662402
  - # 11
    frequency:    8.4529875216
  - # 12
    frequency:    9.9292324140
  - # 13
    frequency:   15.2029748550
  - # 14
    frequency:   17.0686132495
  - # 15
    frequency:   17.1936870695

- q-position: [    0.0858586,    0.0000000,    0.0000000 ]
  distance:    0.0287036
  band:
  - # 1
    frequency:    0.4529277118
  - # 2
    frequency:    1.0162885574
  - # 3
    frequency:    1.7991146303
  - # 4
    frequency:    3.8504300999
  - # 5
    frequency:    4.1332146450
  - # 6
    frequency:    5.0614602637
  - # 7
    frequency:    5.2880544864
  - # 8
    frequency:    5.7732544857
  - # 9
    frequency:    5.8582973377
  - # 10
    frequency:    5.9871192501
  - # 11
    frequency:    8.4439819778
  - # 12
    frequency:    9.8972951557
  - # 13
    frequency:   15.1947271979
  - # 14
    frequency:   17.0571624821
  - # 15
    frequency:   17.1953090009

- q-position: [    0.0909091,    0.0000000,    0.0000000 ]
  distance:    0.0303921
  band:
  - # 1
    frequency:    0.5023858309
  - # 2
    frequency:    1.0748390982
  - # 3
    frequency:    1.9022289499
  - # 4
    frequency:    3.8571744672
  - # 5
    frequency:    4.1685679445
  - # 6
    frequency:    5.0488255822
  - # 7
    frequency:    5.2859847828
  - # 8
    frequency:    5.7722924709
  - # 9
    frequency:    5.8663333135
  - # 10
    frequency:    6.0164160023
  - # 11
    frequency:    8.4345861881
  - # 12
    frequency:    9.8638135497
  - # 13
    frequency:   15.1861261725
  - # 14
    frequency:   17.0453486688
  - # 15
    frequency:   17.1966580910

- q-position: [    0.0959596,    0.0000000,    0.0000000 ]
  distance:    0.0320805
  band:
  - # 1
    frequency:    0.5536546204
  - # 2
    frequency:    1.1331834735
  - # 3
    frequency:    2.0047427730
  - # 4
    frequency:    3.8642467698
  - # 5
    frequency:    4.2048138890
  - # 6
    frequency:    5.0371184485
  - # 7
    frequency:    5.2837993598
  - # 8
    frequency:    5.7714323390
  - # 9
    frequency:    5.8745971654
  - # 10
    frequency:    6.0456737396
  - # 11
    frequency:    8.4248276319
  - # 12
    frequency:    9.8288480428
  - # 13
    frequency:   15.1771954018
  - # 14
    frequency:   17.0332250984
  - # 15
    frequency:   17.1976834221

- q-position: [    0.1010101,    0.0000000,    0.0000000 ]
  distance:    0.0337689
  band:
  - # 1
    frequency:    0.6066277262
  - # 2
    frequency:    1.1913118179
  - # 3
    frequency:    2.1065860373
  - # 4
    frequency:    3.8716398529
  - # 5
    frequency:    4.2418309187
  - # 6
    frequency:    5.0263801894
  - # 7
    frequency:    5.2815017572
  - # 8
    frequency:    5.7706933603
  - # 9
    frequency:    5.8830739747
  - # 10
    frequency:    6.0748229896
  - # 11
    frequency:    8.4147351628
  - # 12
    frequency:    9.7924606141
  - # 13
    frequency:   15.1679592477
  - # 14
    frequency:   17.0208466619
  - # 15
    frequency:   17.1983346247

- q-position: [    0.1060606,    0.0000000,    0.0000000 ]
  distance:    0.0354574
  band:
  - # 1
    frequency:    0.6612029860
  - # 2
    frequency:    1.2492145985
  - # 3
    frequency:    2.2076829518
  - # 4
    frequency:    3.8793467413
  - # 5
    frequency:    4.2795017709
  - # 6
    frequency:    5.0166484555
  - # 7
    frequency:    5.2790965047
  - # 8
    frequency:    5.7700941158
  - # 9
    frequency:    5.8917445442
  - # 10
    frequency:    6.1038021588
  - # 11
    frequency:    8.4043389070
  - # 12
    frequency:    9.7547146181
  - # 13
    frequency:   15.1584427210
  - # 14
    frequency:   17.0082696217
  - # 15
    frequency:   17.1985622251

- q-position: [    0.1111111,    0.0000000,    0.0000000 ]
  distance:    0.0371458
  band:
  - # 1
    frequency:    0.7172825310
  - # 2
    frequency:    1.3068826459
  - # 3
    frequency:    2.3079517250
  - # 4
    frequency:    3.8873607004
  - # 5
    frequency:    4.3177137417
  - # 6
    frequency:    5.0079578703
  - # 7
    frequency:    5.2765892087
  - # 8
    frequency:    5.7696522889
  - # 9
    frequency:    5.9005878901
  - # 10
    frequency:    6.1325549240
  - # 11
    frequency:    8.3936701415
  - # 12
    frequency:    9.7156746453
  - # 13
    frequency:   15.1486713914
  - # 14
    frequency:   16.9955513714
  - # 15
    frequency:   17.1983179711

- q-position: [    0.1161616,    0.0000000,    0.0000000 ]
  distance:    0.0388343
  band:
  - # 1
    frequency:    0.7747727982
  - # 2
    frequency:    1.3643071868
  - # 3
    frequency:    2.4073042897
  - # 4
    frequency:    3.8956752951
  - # 5
    frequency:    4.3563588810
  - # 6
    frequency:    5.0003405678
  - # 7
    frequency:    5.2739866263
  - # 8
    frequency:    5.7693844676
  - # 9
    frequency:    5.9095826725
  - # 10
    frequency:    6.1610288464
  - # 11
    frequency:    8.3827611513
  - # 12
    frequency:    9.6754064015
  - # 13
    frequency:   15.1386712966
  - # 14
    frequency:   16.9827501875
  - # 15
    frequency:   17.1975551302

- q-position: [    0.1212121,    0.0000000,    0.0000000 ]
  distance:    0.0405227
  band:
  - # 1
    frequency:    0.8335844733
  - # 2
    frequency:    1.4214798752
  - # 3
    frequency:    2.5056460249
  - # 4
    frequency:    3.9042844441
  - # 5
    frequency:    4.3953341439
  - # 6
    frequency:    4.9938266528
  - # 7
    frequency:    5.2712967230
  - # 8
    frequency:    5.7693059632
  - # 9
    frequency:    5.9187081450
  - # 10
    frequency:    6.1891745861
  - # 11
    frequency:    8.3716450640
  - # 12
    frequency:    9.6339766059
  - # 13
    frequency:   15.1284688518
  - # 14
    frequency:   16.9699249743
  - # 15
    frequency:   17.1962287625

- q-position: [    0.1262626,    0.0000000,    0.0000000 ]
  distance:    0.0422112
  band:
  - # 1
    frequency:    0.8936323769
  - # 2
    frequency:    1.4783928247
  - # 3
    frequency:    2.6028754782
  - # 4
    frequency:    3.9131824707
  - # 5
    frequency:    4.4345415218
  - # 6
    frequency:    4.9884446035
  - # 7
    frequency:    5.2685287104
  - # 8
    frequency:    5.7694306463
  - # 9
    frequency:    5.9279448661
  - # 10
    frequency:    6.2169454428
  - # 11
    frequency:    8.3603556597
  - # 12
    frequency:    9.5914529076
  - # 13
    frequency:   15.1180907595
  - # 14
    frequency:   16.9571350028
  - # 15
    frequency:   17.1942959657

- q-position: [    0.1313131,    0.0000000,    0.0000000 ]
  distance:    0.0438996
  band:
  - # 1
    frequency:    0.9548353079
  - # 2
    frequency:    1.5350386384
  - # 3
    frequency:    2.6988840921
  - # 4
    frequency:    3.9223641480
  - # 5
    frequency:    4.4738881731
  - # 6
    frequency:    4.9842216270
  - # 7
    frequency:    5.2656930627
  - # 8
    frequency:    5.7697708056
  - # 9
    frequency:    5.9372752843
  - # 10
    frequency:    6.2442970884
  - # 11
    frequency:    8.3489271562
  - # 12
    frequency:    9.5479038195
  - # 13
    frequency:   15.1075639202
  - # 14
    frequency:   16.9444396445
  - # 15
    frequency:   17.1917160926

- q-position: [    0.1363636,    0.0000000,    0.0000000 ]
  distance:    0.0455881
  band:
  - # 1
    frequency:    1.0171158551
  - # 2
    frequency:    1.5914104388
  - # 3
    frequency:    2.7935559438
  - # 4
    frequency:    3.9318247374
  - # 5
    frequency:    4.5132865740
  - # 6
    frequency:    4.9811839666
  - # 7
    frequency:    5.2628015089
  - # 8
    frequency:    5.7703370291
  - # 9
    frequency:    5.9466842448
  - # 10
    frequency:    6.2711874217
  - # 11
    frequency:    8.3373939669
  - # 12
    frequency:    9.5033986713
  - # 13
    frequency:   15.0969153436
  - # 14
    frequency:   16.9318981021
  - # 15
    frequency:   17.1884509413

- q-position: [    0.1414141,    0.0000000,    0.0000000 ]
  distance:    0.0472765
  band:
  - # 1
    frequency:    1.0804001867
  - # 2
    frequency:    1.6475018948
  - # 3
    frequency:    2.8867675133
  - # 4
    frequency:    3.9415600198
  - # 5
    frequency:    4.5526547069
  - # 6
    frequency:    4.9793571550
  - # 7
    frequency:    5.2598670003
  - # 8
    frequency:    5.7711381125
  - # 9
    frequency:    5.9561594400
  - # 10
    frequency:    6.2975765048
  - # 11
    frequency:    8.3257904285
  - # 12
    frequency:    9.4580075792
  - # 13
    frequency:   15.0861720612
  - # 14
    frequency:   16.9195691372
  - # 15
    frequency:   17.1844649188

- q-position: [    0.1464646,    0.0000000,    0.0000000 ]
  distance:    0.0489650
  band:
  - # 1
    frequency:    1.1446178250
  - # 2
    frequency:    1.7033072462
  - # 3
    frequency:    2.9783875023
  - # 4
    frequency:    3.9515663186
  - # 5
    frequency:    4.5919162950
  - # 6
    frequency:    4.9787661971
  - # 7
    frequency:    5.2569036527
  - # 8
    frequency:    5.7721809930
  - # 9
    frequency:    5.9656918129
  - # 10
    frequency:    6.3234265593
  - # 11
    frequency:    8.3141504986
  - # 12
    frequency:    9.4118014351
  - # 13
    frequency:   15.0753610405
  - # 14
    frequency:   16.9075107987
  - # 15
    frequency:   17.1797251789

- q-position: [    0.1515152,    0.0000000,    0.0000000 ]
  distance:    0.0506534
  band:
  - # 1
    frequency:    1.2097014118
  - # 2
    frequency:    1.7588213254
  - # 3
    frequency:    3.0682767372
  - # 4
    frequency:    3.9618405124
  - # 5
    frequency:    4.6310010855
  - # 6
    frequency:    4.9794356673
  - # 7
    frequency:    5.2539266640
  - # 8
    frequency:    5.7734707104
  - # 9
    frequency:    5.9752759100
  - # 10
    frequency:    6.3487020067
  - # 11
    frequency:    8.3025074177
  - # 12
    frequency:    9.3648519154
  - # 13
    frequency:   15.0645090987
  - # 14
    frequency:   16.8957801509
  - # 15
    frequency:   17.1742017356

- q-position: [    0.1565657,    0.0000000,    0.0000000 ]
  distance:    0.0523419
  band:
  - # 1
    frequency:    1.2755864703
  - # 2
    frequency:    1.8140395748
  - # 3
    frequency:    3.1562882051
  - # 4
    frequency:    3.9723800359
  - # 5
    frequency:    4.6698451554
  - # 6
    frequency:    4.9813897112
  - # 7
    frequency:    5.2509522094
  - # 8
    frequency:    5.7750103931
  - # 9
    frequency:    5.9849101790
  - # 10
    frequency:    6.3733695475
  - # 11
    frequency:    8.2908933340
  - # 12
    frequency:    9.3172315122
  - # 13
    frequency:   15.0536428189
  - # 14
    frequency:   16.8844330043
  - # 15
    frequency:   17.1678675533

- q-position: [    0.1616162,    0.0000000,    0.0000000 ]
  distance:    0.0540303
  band:
  - # 1
    frequency:    1.3422111663
  - # 2
    frequency:    1.8689580588
  - # 3
    frequency:    3.2422672863
  - # 4
    frequency:    3.9831828694
  - # 5
    frequency:    4.7083911734
  - # 6
    frequency:    4.9846519655
  - # 7
    frequency:    5.2479973158
  - # 8
    frequency:    5.7768012701
  - # 9
    frequency:    5.9945972014
  - # 10
    frequency:    6.3973982699
  - # 11
    frequency:    8.2793388846
  - # 12
    frequency:    9.2690135906
  - # 13
    frequency:   15.0427884656
  - # 14
    frequency:   16.8735236507
  - # 15
    frequency:   17.1606986161

- q-position: [    0.1666667,    0.0000000,    0.0000000 ]
  distance:    0.0557188
  band:
  - # 1
    frequency:    1.4095160719
  - # 2
    frequency:    1.9235734712
  - # 3
    frequency:    3.3260522706
  - # 4
    frequency:    3.9942475134
  - # 5
    frequency:    4.7465884621
  - # 6
    frequency:    4.9892454784
  - # 7
    frequency:    5.2450797184
  - # 8
    frequency:    5.7788427047
  - # 9
    frequency:    6.0043438475
  - # 10
    frequency:    6.4207597882
  - # 11
    frequency:    8.2678727286
  - # 12
    frequency:    9.2202724783
  - # 13
    frequency:   15.0319719015
  - # 14
    frequency:   16.8631046039
  - # 15
    frequency:   17.1526739764

- q-position: [    0.1717172,    0.0000000,    0.0000000 ]
  distance:    0.0574072
  band:
  - # 1
    frequency:    1.4774439338
  - # 2
    frequency:    1.9778831356
  - # 3
    frequency:    3.4074752659
  - # 4
    frequency:    4.0055729491
  - # 5
    frequency:    4.7843925324
  - # 6
    frequency:    4.9951928592
  - # 7
    frequency:    5.2422177037
  - # 8
    frequency:    5.7811322492
  - # 9
    frequency:    6.0141613403
  - # 10
    frequency:    6.4434284067
  - # 11
    frequency:    8.2565210228
  - # 12
    frequency:    9.1710835954
  - # 13
    frequency:   15.0212185030
  - # 14
    frequency:   16.8532263477
  - # 15
    frequency:   17.1437757868

- q-position: [    0.1767677,    0.0000000,    0.0000000 ]
  distance:    0.0590957
  band:
  - # 1
    frequency:    1.5459394463
  - # 2
    frequency:    2.0318849979
  - # 3
    frequency:    3.4863636265
  - # 4
    frequency:    4.0171585820
  - # 5
    frequency:    4.8217634031
  - # 6
    frequency:    5.0025172258
  - # 7
    frequency:    5.2394299427
  - # 8
    frequency:    5.7836657167
  - # 9
    frequency:    6.0240652153
  - # 10
    frequency:    6.4653813084
  - # 11
    frequency:    8.2453068291
  - # 12
    frequency:    9.1215236383
  - # 13
    frequency:   15.0105530769
  - # 14
    frequency:   16.8439370931
  - # 15
    frequency:   17.1339893149

- q-position: [    0.1818182,    0.0000000,    0.0000000 ]
  distance:    0.0607841
  band:
  - # 1
    frequency:    1.6149490319
  - # 2
    frequency:    2.0855776113
  - # 3
    frequency:    3.5625420448
  - # 4
    frequency:    4.0290041695
  - # 5
    frequency:    4.8586612428
  - # 6
    frequency:    5.0112452761
  - # 7
    frequency:    5.2367353179
  - # 8
    frequency:    5.7864372690
  - # 9
    frequency:    6.0340751599
  - # 10
    frequency:    6.4865987656
  - # 11
    frequency:    8.2342494392
  - # 12
    frequency:    9.0716708328
  - # 13
    frequency:   14.9999997749
  - # 14
    frequency:   16.8352825461
  - # 15
    frequency:   17.1233029451

- q-position: [    0.1868687,    0.0000000,    0.0000000 ]
  distance:    0.0624726
  band:
  - # 1
    frequency:    1.6844206279
  - # 2
    frequency:    2.1389601119
  - # 3
    frequency:    3.6358354450
  - # 4
    frequency:    4.0411097309
  - # 5
    frequency:    4.8950360794
  - # 6
    frequency:    5.0214156065
  - # 7
    frequency:    5.2341527486
  - # 8
    frequency:    5.7894395156
  - # 9
    frequency:    6.0442147226
  - # 10
    frequency:    6.5070643709
  - # 11
    frequency:    8.2233635942
  - # 12
    frequency:    9.0216052833
  - # 13
    frequency:   14.9895820084
  - # 14
    frequency:   16.8273056880
  - # 15
    frequency:   17.1117081672

- q-position: [    0.1919192,    0.0000000,    0.0000000 ]
  distance:    0.0641610
  band:
  - # 1
    frequency:    1.7543034817
  - # 2
    frequency:    2.1920321838
  - # 3
    frequency:    3.7060727892
  - # 4
    frequency:    4.0534754401
  - # 5
    frequency:    4.9308038925
  - # 6
    frequency:    5.0330998520
  - # 7
    frequency:    5.2317010187
  - # 8
    frequency:    5.7926636233
  - # 9
    frequency:    6.0545108802
  - # 10
    frequency:    6.5267652845
  - # 11
    frequency:    8.2126585702
  - # 12
    frequency:    8.9714094516
  - # 13
    frequency:   14.9793223610
  - # 14
    frequency:   16.8200465687
  - # 15
    frequency:   17.0991995545

- q-position: [    0.1969697,    0.0000000,    0.0000000 ]
  distance:    0.0658494
  band:
  - # 1
    frequency:    1.8245479520
  - # 2
    frequency:    2.2447940143
  - # 3
    frequency:    3.7730918362
  - # 4
    frequency:    4.0661015016
  - # 5
    frequency:    4.9657899504
  - # 6
    frequency:    5.0464557434
  - # 7
    frequency:    5.2293986105
  - # 8
    frequency:    5.7960994322
  - # 9
    frequency:    6.0649934596
  - # 10
    frequency:    6.5456924942
  - # 11
    frequency:    8.2021370880
  - # 12
    frequency:    8.9211688135
  - # 13
    frequency:   14.9692425011
  - # 14
    frequency:   16.8135421165
  - # 15
    frequency:   17.0857747340

- q-position: [    0.2020202,    0.0000000,    0.0000000 ]
  distance:    0.0675379
  band:
  - # 1
    frequency:    1.8951053194
  - # 2
    frequency:    2.2972462369
  - # 3
    frequency:    3.8367447760
  - # 4
    frequency:    4.0789880095
  - # 5
    frequency:    4.9995930416
  - # 6
    frequency:    5.0618585000
  - # 7
    frequency:    5.2272635478
  - # 8
    frequency:    5.7997355775
  - # 9
    frequency:    6.0756944165
  - # 10
    frequency:    6.5638410807
  - # 11
    frequency:    8.1917939838
  - # 12
    frequency:    8.8709727612
  - # 13
    frequency:   14.9593630922
  - # 14
    frequency:   16.8078259634
  - # 15
    frequency:   17.0714343481

- q-position: [    0.2070707,    0.0000000,    0.0000000 ]
  distance:    0.0692263
  band:
  - # 1
    frequency:    1.9659276029
  - # 2
    frequency:    2.3493898623
  - # 3
    frequency:    3.8969044993
  - # 4
    frequency:    4.0921347923
  - # 5
    frequency:    5.0313039997
  - # 6
    frequency:    5.0801773832
  - # 7
    frequency:    5.2253132507
  - # 8
    frequency:    5.8035596128
  - # 9
    frequency:    6.0866469798
  - # 10
    frequency:    6.5812104806
  - # 11
    frequency:    8.1816145576
  - # 12
    frequency:    8.8209158479
  - # 13
    frequency:   14.9497037027
  - # 14
    frequency:   16.8029282881
  - # 15
    frequency:   17.0561820113

- q-position: [    0.2121212,    0.0000000,    0.0000000 ]
  distance:    0.0709148
  band:
  - # 1
    frequency:    2.0369673858