nqpoint: 300    
npath: 3      
segment_nqpoint:
- 100
- 100
- 100
labels:
- [ 'G', 'M' ]
- [ 'M', 'K' ]
- [ 'K', 'G' ]
reciprocal_lattice:
- [   0.28952319,   0.16715629,   0.00000000 ] # a*
- [   0.00000000,   0.33431258,   0.00000000 ] # b*
- [   0.00000000,   0.00000000,   0.04167381 ] # c*
natom: 5      
lattice:
- [     3.453954790094751,     0.000000000000000,     0.000000000000000 ] # a
- [    -1.726977395047376,     2.991212591740306,     0.000000000000000 ] # b
- [     0.000000000000000,     0.000000000000000,    23.995886992090245 ] # c
points:
- symbol: C # 1
  coordinates: [  0.000000000000000,  0.000000000000000,  0.500000032632722 ]
  mass: 12.010700
- symbol: Cl # 2
  coordinates: [  0.333332985432215,  0.666666983183674,  0.624935723235958 ]
  mass: 35.453000
- symbol: Cl # 3
  coordinates: [  0.666666984744047,  0.333332985985144,  0.375064276764042 ]
  mass: 35.453000
- symbol: Zr # 4
  coordinates: [  0.333332985432215,  0.666666983183674,  0.449980176798571 ]
  mass: 91.224000
- symbol: Zr # 5
  coordinates: [  0.666666984744047,  0.333332985985144,  0.550019822714365 ]
  mass: 91.224000

phonon:
- q-position: [    0.0000000,    0.0000000,    0.0000000 ]
  distance:    0.0000000
  band:
  - # 1
    frequency:   -0.0000016370
  - # 2
    frequency:   -0.0000003630
  - # 3
    frequency:    0.0000017209
  - # 4
    frequency:    3.7734676828
  - # 5
    frequency:    3.7734676828
  - # 6
    frequency:    5.2653509323
  - # 7
    frequency:    5.2653509323
  - # 8
    frequency:    5.4823744117
  - # 9
    frequency:    5.5727678273
  - # 10
    frequency:    5.5727678273
  - # 11
    frequency:    8.4443232782
  - # 12
    frequency:   10.1130767248
  - # 13
    frequency:   15.1734276573
  - # 14
    frequency:   16.8900111284
  - # 15
    frequency:   16.8900111284

- q-position: [    0.0050505,    0.0000000,    0.0000000 ]
  distance:    0.0016884
  band:
  - # 1
    frequency:   -0.0381637098
  - # 2
    frequency:    0.0720295776
  - # 3
    frequency:    0.0945057768
  - # 4
    frequency:    3.7740573193
  - # 5
    frequency:    3.7752433915
  - # 6
    frequency:    5.2628559147
  - # 7
    frequency:    5.2654291142
  - # 8
    frequency:    5.4859569615
  - # 9
    frequency:    5.5733675870
  - # 10
    frequency:    5.5734595363
  - # 11
    frequency:    8.4441691286
  - # 12
    frequency:   10.1121777764
  - # 13
    frequency:   15.1733507926
  - # 14
    frequency:   16.8904645575
  - # 15
    frequency:   16.8910892949

- q-position: [    0.0101010,    0.0000000,    0.0000000 ]
  distance:    0.0033769
  band:
  - # 1
    frequency:   -0.0757280916
  - # 2
    frequency:    0.1440139492
  - # 3
    frequency:    0.1890429042
  - # 4
    frequency:    3.7758221214
  - # 5
    frequency:    3.7805501969
  - # 6
    frequency:    5.2558470785
  - # 7
    frequency:    5.2656628507
  - # 8
    frequency:    5.4962142685
  - # 9
    frequency:    5.5751619768
  - # 10
    frequency:    5.5755395283
  - # 11
    frequency:    8.4437065796
  - # 12
    frequency:   10.1094825215
  - # 13
    frequency:   15.1731196006
  - # 14
    frequency:   16.8918204517
  - # 15
    frequency:   16.8943139984

- q-position: [    0.0151515,    0.0000000,    0.0000000 ]
  distance:    0.0050653
  band:
  - # 1
    frequency:   -0.1120949059
  - # 2
    frequency:    0.2159079320
  - # 3
    frequency:    0.2836421990
  - # 4
    frequency:    3.7787498212
  - # 5
    frequency:    3.7893279334
  - # 6
    frequency:    5.2454501990
  - # 7
    frequency:    5.2660497184
  - # 8
    frequency:    5.5119712702
  - # 9
    frequency:    5.5781363877
  - # 10
    frequency:    5.5790293904
  - # 11
    frequency:    8.4429353364
  - # 12
    frequency:   10.1049957094
  - # 13
    frequency:   15.1727323037
  - # 14
    frequency:   16.8940656782
  - # 15
    frequency:   16.8996559504

- q-position: [    0.0202020,    0.0000000,    0.0000000 ]
  distance:    0.0067538
  band:
  - # 1
    frequency:   -0.1466670792
  - # 2
    frequency:    0.2876663914
  - # 3
    frequency:    0.3783334128
  - # 4
    frequency:    3.7828201497
  - # 5
    frequency:    3.8014789107
  - # 6
    frequency:    5.2328924559
  - # 7
    frequency:    5.2665856908
  - # 8
    frequency:    5.5318836414
  - # 9
    frequency:    5.5822666697
  - # 10
    frequency:    5.5840003801
  - # 11
    frequency:    8.4418549254
  - # 12
    frequency:   10.0987251871
  - # 13
    frequency:   15.1721859922
  - # 14
    frequency:   16.8971785055
  - # 15
    frequency:   16.9070666665

- q-position: [    0.0252525,    0.0000000,    0.0000000 ]
  distance:    0.0084422
  band:
  - # 1
    frequency:   -0.1788467016
  - # 2
    frequency:    0.3592442737
  - # 3
    frequency:    0.4731447054
  - # 4
    frequency:    3.7880050992
  - # 5
    frequency:    3.8168715526
  - # 6
    frequency:    5.2191793308
  - # 7
    frequency:    5.2672651587
  - # 8
    frequency:    5.5546253535
  - # 9
    frequency:    5.5875194249
  - # 10
    frequency:    5.5907093841
  - # 11
    frequency:    8.4404647214
  - # 12
    frequency:   10.0906817976
  - # 13
    frequency:   15.1714767011
  - # 14
    frequency:   16.9011288345
  - # 15
    frequency:   16.9164789579

- q-position: [    0.0303030,    0.0000000,    0.0000000 ]
  distance:    0.0101307
  band:
  - # 1
    frequency:   -0.2080297089
  - # 2
    frequency:    0.4305966449
  - # 3
    frequency:    0.5681021245
  - # 4
    frequency:    3.7942692807
  - # 5
    frequency:    3.8353450524
  - # 6
    frequency:    5.2050338386
  - # 7
    frequency:    5.2680809601
  - # 8
    frequency:    5.5782088934
  - # 9
    frequency:    5.5938524090
  - # 10
    frequency:    5.6003400408
  - # 11
    frequency:    8.4387639835
  - # 12
    frequency:   10.0808792441
  - # 13
    frequency:   15.1705995114
  - # 14
    frequency:   16.9058785196
  - # 15
    frequency:   16.9278076091

- q-position: [    0.0353535,    0.0000000,    0.0000000 ]
  distance:    0.0118191
  band:
  - # 1
    frequency:   -0.2335956313
  - # 2
    frequency:    0.5016787415
  - # 3
    frequency:    0.6632290957
  - # 4
    frequency:    3.8015703691
  - # 5
    frequency:    3.8567146836
  - # 6
    frequency:    5.1909483160
  - # 7
    frequency:    5.2690244216
  - # 8
    frequency:    5.5972130382
  - # 9
    frequency:    5.6012150341
  - # 10
    frequency:    5.6177239057
  - # 11
    frequency:    8.4367519014
  - # 12
    frequency:   10.0693339243
  - # 13
    frequency:   15.1695486722
  - # 14
    frequency:   16.9113817739
  - # 15
    frequency:   16.9409502340

- q-position: [    0.0404040,    0.0000000,    0.0000000 ]
  distance:    0.0135076
  band:
  - # 1
    frequency:   -0.2548899546
  - # 2
    frequency:    0.5724460333
  - # 3
    frequency:    0.7585459239
  - # 4
    frequency:    3.8098596251
  - # 5
    frequency:    3.8807773981
  - # 6
    frequency:    5.1772519606
  - # 7
    frequency:    5.2700854123
  - # 8
    frequency:    5.6095489644
  - # 9
    frequency:    5.6099254657
  - # 10
    frequency:    5.6441311744
  - # 11
    frequency:    8.4344276485
  - # 12
    frequency:   10.0560647399
  - # 13
    frequency:   15.1683177361
  - # 14
    frequency:   16.9175856533
  - # 15
    frequency:   16.9557882991

- q-position: [    0.0454545,    0.0000000,    0.0000000 ]
  distance:    0.0151960
  band:
  - # 1
    frequency:   -0.2711948625
  - # 2
    frequency:    0.6428542994
  - # 3
    frequency:    0.8540693104
  - # 4
    frequency:    3.8190824828
  - # 5
    frequency:    3.9073173724
  - # 6
    frequency:    5.1641638474
  - # 7
    frequency:    5.2712524111
  - # 8
    frequency:    5.6187887917
  - # 9
    frequency:    5.6214714640
  - # 10
    frequency:    5.6740899643
  - # 11
    frequency:    8.4317904435
  - # 12
    frequency:   10.0410928891
  - # 13
    frequency:   15.1668997046
  - # 14
    frequency:   16.9244306156
  - # 15
    frequency:   16.9721882980

- q-position: [    0.0505051,    0.0000000,    0.0000000 ]
  distance:    0.0168845
  band:
  - # 1
    frequency:   -0.2816802694
  - # 2
    frequency:    0.7128597191
  - # 3
    frequency:    0.9498118863
  - # 4
    frequency:    3.8291791898
  - # 5
    frequency:    3.9361112271
  - # 6
    frequency:    5.1518290351
  - # 7
    frequency:    5.2725125886
  - # 8
    frequency:    5.6288627835
  - # 9
    frequency:    5.6334641123
  - # 10
    frequency:    5.7057011600
  - # 11
    frequency:    8.4288396162
  - # 12
    frequency:   10.0244416491
  - # 13
    frequency:   15.1652871757
  - # 14
    frequency:   16.9318511447
  - # 15
    frequency:   16.9900030633

- q-position: [    0.0555556,    0.0000000,    0.0000000 ]
  distance:    0.0185729
  band:
  - # 1
    frequency:   -0.2853181308
  - # 2
    frequency:    0.7824189773
  - # 3
    frequency:    1.0457817674
  - # 4
    frequency:    3.8400854889
  - # 5
    frequency:    3.9669327178
  - # 6
    frequency:    5.1403420642
  - # 7
    frequency:    5.2738519031
  - # 8
    frequency:    5.6396936890
  - # 9
    frequency:    5.6462117625
  - # 10
    frequency:    5.7384086791
  - # 11
    frequency:    8.4255746792
  - # 12
    frequency:   10.0061361551
  - # 13
    frequency:   15.1634724907
  - # 14
    frequency:   16.9397764363
  - # 15
    frequency:   17.0090731960

- q-position: [    0.0606061,    0.0000000,    0.0000000 ]
  distance:    0.0202614
  band:
  - # 1
    frequency:   -0.2807201973
  - # 2
    frequency:    0.8514893850
  - # 3
    frequency:    1.1419821318
  - # 4
    frequency:    3.8517333274
  - # 5
    frequency:    3.9995567752
  - # 6
    frequency:    5.1297621541
  - # 7
    frequency:    5.2752552112
  - # 8
    frequency:    5.6511995920
  - # 9
    frequency:    5.6597638810
  - # 10
    frequency:    5.7719397756
  - # 11
    frequency:    8.4219954015
  - # 12
    frequency:    9.9862031836
  - # 13
    frequency:   15.1614478757
  - # 14
    frequency:   16.9481311328
  - # 15
    frequency:   17.0292285937

- q-position: [    0.0656566,    0.0000000,    0.0000000 ]
  distance:    0.0219498
  band:
  - # 1
    frequency:   -0.2657915629
  - # 2
    frequency:    0.9200290124
  - # 3
    frequency:    1.2384108237
  - # 4
    frequency:    3.8640515817
  - # 5
    frequency:    4.0337628416
  - # 6
    frequency:    5.1201231589
  - # 7
    frequency:    5.2767063928
  - # 8
    frequency:    5.6632947992
  - # 9
    frequency:    5.6740979908
  - # 10
    frequency:    5.8061095712
  - # 11
    frequency:    8.4181018845
  - # 12
    frequency:    9.9646709462
  - # 13
    frequency:   15.1592055742
  - # 14
    frequency:   16.9568361033
  - # 15
    frequency:   17.0502900565

- q-position: [    0.0707071,    0.0000000,    0.0000000 ]
  distance:    0.0236383
  band:
  - # 1
    frequency:   -0.2368400183
  - # 2
    frequency:    0.9879968361
  - # 3
    frequency:    1.3350599850
  - # 4
    frequency:    3.8769667891
  - # 5
    frequency:    4.0693375072
  - # 6
    frequency:    5.1114402428
  - # 7
    frequency:    5.2781884884
  - # 8
    frequency:    5.6758907517
  - # 9
    frequency:    5.6891649658
  - # 10
    frequency:    5.8407705815
  - # 11
    frequency:    8.4138946371
  - # 12
    frequency:    9.9415689007
  - # 13
    frequency:   15.1567379699
  - # 14
    frequency:   16.9658092566
  - # 15
    frequency:   17.0720709506

- q-position: [    0.0757576,    0.0000000,    0.0000000 ]
  distance:    0.0253267
  band:
  - # 1
    frequency:   -0.1854038679
  - # 2
    frequency:    1.0553528963
  - # 3
    frequency:    1.4319157185
  - # 4
    frequency:    3.8904038727
  - # 5
    frequency:    4.1060764924
  - # 6
    frequency:    5.1037144954
  - # 7
    frequency:    5.2796838501
  - # 8
    frequency:    5.6888969456
  - # 9
    frequency:    5.7049037189
  - # 10
    frequency:    5.8757949652
  - # 11
    frequency:    8.4093746501
  - # 12
    frequency:    9.9169275843
  - # 13
    frequency:   15.1540376984
  - # 14
    frequency:   16.9749663803
  - # 15
    frequency:   17.0943789076

- q-position: [    0.0808081,    0.0000000,    0.0000000 ]
  distance:    0.0270152
  band:
  - # 1
    frequency:   -0.0691891592
  - # 2
    frequency:    1.1220584642
  - # 3
    frequency:    1.5289577830
  - # 4
    frequency:    3.9042868544
  - # 5
    frequency:    4.1437860443
  - # 6
    frequency:    5.0969362379
  - # 7
    frequency:    5.2811743046
  - # 8
    frequency:    5.7022218533
  - # 9
    frequency:    5.7212471832
  - # 10
    frequency:    5.9110668265
  - # 11
    frequency:    8.4045434674
  - # 12
    frequency:    9.8907784736
  - # 13
    frequency:   15.1510977465
  - # 14
    frequency:   16.9842219970
  - # 15
    frequency:   17.1170175397

- q-position: [    0.0858586,    0.0000000,    0.0000000 ]
  distance:    0.0287036
  band:
  - # 1
    frequency:    0.1824709219
  - # 2
    frequency:    1.1880762161
  - # 3
    frequency:    1.6261593218
  - # 4
    frequency:    3.9185395460
  - # 5
    frequency:    4.1822838308
  - # 6
    frequency:    5.0910874902
  - # 7
    frequency:    5.2826413265
  - # 8
    frequency:    5.7157738307
  - # 9
    frequency:    5.7381252703
  - # 10
    frequency:    5.9464784057
  - # 11
    frequency:    8.3994032526
  - # 12
    frequency:    9.8631538753
  - # 13
    frequency:   15.1479115410
  - # 14
    frequency:   16.9934902282
  - # 15
    frequency:   17.1397881514

- q-position: [    0.0909091,    0.0000000,    0.0000000 ]
  distance:    0.0303921
  band:
  - # 1
    frequency:    0.2835879743
  - # 2
    frequency:    1.2533704129
  - # 3
    frequency:    1.7234866267
  - # 4
    frequency:    3.9330862150
  - # 5
    frequency:    4.2213994186
  - # 6
    frequency:    5.0861438915
  - # 7
    frequency:    5.2840662236
  - # 8
    frequency:    5.7294620017
  - # 9
    frequency:    5.7554666046
  - # 10
    frequency:    5.9819280484
  - # 11
    frequency:    8.3939568498
  - # 12
    frequency:    9.8340868511
  - # 13
    frequency:   15.1444730262
  - # 14
    frequency:   17.0026856574
  - # 15
    frequency:   17.1624914296

- q-position: [    0.0959596,    0.0000000,    0.0000000 ]
  distance:    0.0320805
  band:
  - # 1
    frequency:    0.3702192592
  - # 2
    frequency:    1.3179070827
  - # 3
    frequency:    1.8208989352
  - # 4
    frequency:    3.9478522174
  - # 5
    frequency:    4.2609744166
  - # 6
    frequency:    5.0820762627
  - # 7
    frequency:    5.2854303307
  - # 8
    frequency:    5.7431971086
  - # 9
    frequency:    5.7731996973
  - # 10
    frequency:    6.0173190908
  - # 11
    frequency:    8.3882078380
  - # 12
    frequency:    9.8036111774
  - # 13
    frequency:   15.1407767327
  - # 14
    frequency:   17.0117241850
  - # 15
    frequency:   17.1849290960

- q-position: [    0.1010101,    0.0000000,    0.0000000 ]
  distance:    0.0337689
  band:
  - # 1
    frequency:    0.4512302673
  - # 2
    frequency:    1.3816542039
  - # 3
    frequency:    1.9183482616
  - # 4
    frequency:    3.9627645971
  - # 5
    frequency:    4.3008623582
  - # 6
    frequency:    5.0788519321
  - # 7
    frequency:    5.2867152139
  - # 8
    frequency:    5.7568923185
  - # 9
    frequency:    5.7912538302
  - # 10
    frequency:    6.0525592565
  - # 11
    frequency:    8.3821605759
  - # 12
    frequency:    9.7717613424
  - # 13
    frequency:   15.1368178365
  - # 14
    frequency:   17.0205238658
  - # 15
    frequency:   17.2069055057

- q-position: [    0.1060606,    0.0000000,    0.0000000 ]
  distance:    0.0354574
  band:
  - # 1
    frequency:    0.5295085090
  - # 2
    frequency:    1.4445818867
  - # 3
    frequency:    2.0157792590
  - # 4
    frequency:    3.9777526473
  - # 5
    frequency:    4.3409283865
  - # 6
    frequency:    5.0764359037
  - # 7
    frequency:    5.2879028824
  - # 8
    frequency:    5.7704639790
  - # 9
    frequency:    5.8095597732
  - # 10
    frequency:    6.0875603511
  - # 11
    frequency:    8.3758202383
  - # 12
    frequency:    9.7385725804
  - # 13
    frequency:   15.1325922126
  - # 14
    frequency:   17.0290057232
  - # 15
    frequency:   17.2282291811

- q-position: [    0.1111111,    0.0000000,    0.0000000 ]
  distance:    0.0371458
  band:
  - # 1
    frequency:    0.6063168410
  - # 2
    frequency:    1.5066625508
  - # 3
    frequency:    2.1131291102
  - # 4
    frequency:    3.9927484338
  - # 5
    frequency:    4.3810487970
  - # 6
    frequency:    5.0747919219
  - # 7
    frequency:    5.2889760075
  - # 8
    frequency:    5.7838323130
  - # 9
    frequency:    5.8280503928
  - # 10
    frequency:    6.1222381354
  - # 11
    frequency:    8.3691928404
  - # 12
    frequency:    9.7040809435
  - # 13
    frequency:   15.1280964807
  - # 14
    frequency:   17.0370945305
  - # 15
    frequency:   17.2487142682

- q-position: [    0.1161616,    0.0000000,    0.0000000 ]
  distance:    0.0388343
  band:
  - # 1
    frequency:    0.6822831377
  - # 2
    frequency:    1.5678710984
  - # 3
    frequency:    2.2103274422
  - # 4
    frequency:    4.0076872781
  - # 5
    frequency:    4.4211104784
  - # 6
    frequency:    5.0738834680
  - # 7
    frequency:    5.2899181490
  - # 8
    frequency:    5.7969220480
  - # 9
    frequency:    5.8466611849
  - # 10
    frequency:    6.1565123017
  - # 11
    frequency:    8.3622852503
  - # 12
    frequency:    9.6683234091
  - # 13
    frequency:   15.1233280478
  - # 14
    frequency:   17.0447195558
  - # 15
    frequency:   17.2681819065

- q-position: [    0.1212121,    0.0000000,    0.0000000 ]
  distance:    0.0405227
  band:
  - # 1
    frequency:    0.7577375022
  - # 2
    frequency:    1.6281850784
  - # 3
    frequency:    2.3072962600
  - # 4
    frequency:    4.0225082020
  - # 5
    frequency:    4.4610102868
  - # 6
    frequency:    5.0736747154
  - # 7
    frequency:    5.2907139851
  - # 8
    frequency:    5.8096629735
  - # 9
    frequency:    5.8653307465
  - # 10
    frequency:    6.1903065078
  - # 11
    frequency:    8.3551051884
  - # 12
    frequency:    9.6313380224
  - # 13
    frequency:   15.1182851455
  - # 14
    frequency:   17.0518152617
  - # 15
    frequency:   17.2864615053

- q-position: [    0.1262626,    0.0000000,    0.0000000 ]
  distance:    0.0422112
  band:
  - # 1
    frequency:    0.8328544000
  - # 2
    frequency:    1.6875848430
  - # 3
    frequency:    2.4039498937
  - # 4
    frequency:    4.0371543323
  - # 5
    frequency:    4.5006543773
  - # 6
    frequency:    5.0741314631
  - # 7
    frequency:    5.2913495459
  - # 8
    frequency:    5.8219904225
  - # 9
    frequency:    5.8840011989
  - # 10
    frequency:    6.2235484381
  - # 11
    frequency:    8.3476612098
  - # 12
    frequency:    9.5931640720
  - # 13
    frequency:   15.1129668646
  - # 14
    frequency:   17.0583219560
  - # 15
    frequency:   17.3033919180

- q-position: [    0.1313131,    0.0000000,    0.0000000 ]
  distance:    0.0438996
  band:
  - # 1
    frequency:    0.9077212411
  - # 2
    frequency:    1.7460536925
  - # 3
    frequency:    2.5001949503
  - # 4
    frequency:    4.0515732665
  - # 5
    frequency:    4.5399575112
  - # 6
    frequency:    5.0752220627
  - # 7
    frequency:    5.2918124479
  - # 8
    frequency:    5.8338456738
  - # 9
    frequency:    5.9026185651
  - # 10
    frequency:    6.2561698720
  - # 11
    frequency:    8.3399626710
  - # 12
    frequency:    9.5538422961
  - # 13
    frequency:   15.1073731878
  - # 14
    frequency:   17.0641863877
  - # 15
    frequency:   17.3188225124

- q-position: [    0.1363636,    0.0000000,    0.0000000 ]
  distance:    0.0455881
  band:
  - # 1
    frequency:    0.9823747301
  - # 2
    frequency:    1.8035780092
  - # 3
    frequency:    2.5959302640
  - # 4
    frequency:    4.0657174012
  - # 5
    frequency:    4.5788423472
  - # 6
    frequency:    5.0769183564
  - # 7
    frequency:    5.2920921262
  - # 8
    frequency:    5.8451762726
  - # 9
    frequency:    5.9211331082
  - # 10
    frequency:    6.2881067470
  - # 11
    frequency:    8.3320196765
  - # 12
    frequency:    9.5134151168
  - # 13
    frequency:   15.1015050203
  - # 14
    frequency:   17.0693622828
  - # 15
    frequency:   17.3326141300

- q-position: [    0.1414141,    0.0000000,    0.0000000 ]
  distance:    0.0472765
  band:
  - # 1
    frequency:    1.0568214984
  - # 2
    frequency:    1.8601473778
  - # 3
    frequency:    2.6910468350
  - # 4
    frequency:    4.0795442224
  - # 5
    frequency:    4.6172387211
  - # 6
    frequency:    5.0791966413
  - # 7
    frequency:    5.2921800622
  - # 8
    frequency:    5.8559362699
  - # 9
    frequency:    5.9394996308
  - # 10
    frequency:    6.3192992098
  - # 11
    frequency:    8.3238430027
  - # 12
    frequency:    9.4719268997
  - # 13
    frequency:   15.0953642196
  - # 14
    frequency:   17.0738108189
  - # 15
    frequency:   17.3446399337

- q-position: [    0.1464646,    0.0000000,    0.0000000 ]
  distance:    0.0489650
  band:
  - # 1
    frequency:    1.1310504310
  - # 2
    frequency:    1.9157546921
  - # 3
    frequency:    2.7854277497
  - # 4
    frequency:    4.0930165594
  - # 5
    frequency:    4.6550829080
  - # 6
    frequency:    5.0820386822
  - # 7
    frequency:    5.2920700027
  - # 8
    frequency:    5.8660863801
  - # 9
    frequency:    5.9576777360
  - # 10
    frequency:    6.3496916514
  - # 11
    frequency:    8.3154439970
  - # 12
    frequency:    9.4294242362
  - # 13
    frequency:   15.0889536246
  - # 14
    frequency:   17.0775010308
  - # 15
    frequency:   17.3547861399

- q-position: [    0.1515152,    0.0000000,    0.0000000 ]
  distance:    0.0506534
  band:
  - # 1
    frequency:    1.2050403196
  - # 2
    frequency:    1.9703962462
  - # 3
    frequency:    2.8789480732
  - # 4
    frequency:    4.1061028019
  - # 5
    frequency:    4.6923168518
  - # 6
    frequency:    5.0854327986
  - # 7
    frequency:    5.2917581664
  - # 8
    frequency:    5.8755940580
  - # 9
    frequency:    5.9756320507
  - # 10
    frequency:    6.3792327280
  - # 11
    frequency:    8.3068344459
  - # 12
    frequency:    9.3859562464
  - # 13
    frequency:   15.0822770845
  - # 14
    frequency:   17.0804101482
  - # 15
    frequency:   17.3629526360

- q-position: [    0.1565657,    0.0000000,    0.0000000 ]
  distance:    0.0523419
  band:
  - # 1
    frequency:    1.2787647506
  - # 2
    frequency:    2.0240718109
  - # 3
    frequency:    2.9714747089
  - # 4
    frequency:    4.1187770810
  - # 5
    frequency:    4.7288873319
  - # 6
    frequency:    5.0893750651
  - # 7
    frequency:    5.2912434334
  - # 8
    frequency:    5.8844334992
  - # 9
    frequency:    5.9933324081
  - # 10
    frequency:    6.4078753680
  - # 11
    frequency:    8.2980264091
  - # 12
    frequency:    9.3415749002
  - # 13
    frequency:   15.0753394881
  - # 14
    frequency:   17.0825238604
  - # 15
    frequency:   17.3690534799

- q-position: [    0.1616162,    0.0000000,    0.0000000 ]
  distance:    0.0540303
  band:
  - # 1
    frequency:    1.3521952868
  - # 2
    frequency:    2.0767846925
  - # 3
    frequency:    3.0628662224
  - # 4
    frequency:    4.1310194135
  - # 5
    frequency:    4.7647450183
  - # 6
    frequency:    5.0938706796
  - # 7
    frequency:    5.2905275123
  - # 8
    frequency:    5.8925855665
  - # 9
    frequency:    6.0107539876
  - # 10
    frequency:    6.4355767726
  - # 11
    frequency:    8.2890320107
  - # 12
    frequency:    9.2963353546
  - # 13
    frequency:   15.0681467933
  - # 14
    frequency:   17.0838365065
  - # 15
    frequency:   17.3730172832

- q-position: [    0.1666667,    0.0000000,    0.0000000 ]
  distance:    0.0557188
  band:
  - # 1
    frequency:    1.4253035609
  - # 2
    frequency:    2.1285417744
  - # 3
    frequency:    3.1529726323
  - # 4
    frequency:    4.1428158085
  - # 5
    frequency:    4.7998433330
  - # 6
    frequency:    5.0989355765
  - # 7
    frequency:    5.2896150805
  - # 8
    frequency:    5.9000376478
  - # 9
    frequency:    6.0278774077
  - # 10
    frequency:    6.4622984136
  - # 11
    frequency:    8.2798631801
  - # 12
    frequency:    9.2502963103
  - # 13
    frequency:   15.0607060578
  - # 14
    frequency:   17.0843511907
  - # 15
    frequency:   17.3747874778

- q-position: [    0.1717172,    0.0000000,    0.0000000 ]
  distance:    0.0574072
  band:
  - # 1
    frequency:    1.4980626518
  - # 2
    frequency:    2.1793535407
  - # 3
    frequency:    3.2416351792
  - # 4
    frequency:    4.1541583363
  - # 5
    frequency:    4.8341369920
  - # 6
    frequency:    5.1045984035
  - # 7
    frequency:    5.2885138918
  - # 8
    frequency:    5.9067834511
  - # 9
    frequency:    6.0446887680
  - # 10
    frequency:    6.4880060380
  - # 11
    frequency:    8.2705313330
  - # 12
    frequency:    9.2035203861
  - # 13
    frequency:   15.0530254693
  - # 14
    frequency:   17.0840798198
  - # 15
    frequency:   17.3743224663

- q-position: [    0.1767677,    0.0000000,    0.0000000 ]
  distance:    0.0590957
  band:
  - # 1
    frequency:    1.5704479791
  - # 2
    frequency:    2.2292340803
  - # 3
    frequency:    3.3286860973
  - # 4
    frequency:    4.1650451566
  - # 5
    frequency:    4.8675800376
  - # 6
    frequency:    5.1109030291
  - # 7
    frequency:    5.2872348461
  - # 8
    frequency:    5.9128227426
  - # 9
    frequency:    6.0611796355
  - # 10
    frequency:    6.5126696866
  - # 11
    frequency:    8.2610469761
  - # 12
    frequency:    9.1560745196
  - # 13
    frequency:   15.0451143778
  - # 14
    frequency:   17.0830430636
  - # 15
    frequency:   17.3715956575

- q-position: [    0.1818182,    0.0000000,    0.0000000 ]
  distance:    0.0607841
  band:
  - # 1
    frequency:    1.6424378643
  - # 2
    frequency:    2.2782010703
  - # 3
    frequency:    3.4139484302
  - # 4
    frequency:    4.1754805044
  - # 5
    frequency:    4.9001230844
  - # 6
    frequency:    5.1179118152
  - # 7
    frequency:    5.2857920167
  - # 8
    frequency:    5.9181610370
  - # 9
    frequency:    6.0773469679
  - # 10
    frequency:    6.5362637356
  - # 11
    frequency:    8.2514192214
  - # 12
    frequency:    9.1080304013
  - # 13
    frequency:   15.0369833266
  - # 14
    frequency:   17.0812702377
  - # 15
    frequency:   17.3665953890

- q-position: [    0.1868687,    0.0000000,    0.0000000 ]
  distance:    0.0624726
  band:
  - # 1
    frequency:    1.7140138581
  - # 2
    frequency:    2.3262757382
  - # 3
    frequency:    3.4972359601
  - # 4
    frequency:    4.1854746316
  - # 5
    frequency:    4.9317094221
  - # 6
    frequency:    5.1257099492
  - # 7
    frequency:    5.2842026303
  - # 8
    frequency:    5.9228092453
  - # 9
    frequency:    6.0931929707
  - # 10
    frequency:    6.5587669687
  - # 11
    frequency:    8.2416551844
  - # 12
    frequency:    9.0594649596
  - # 13
    frequency:   15.0286440848
  - # 14
    frequency:   17.0787991081
  - # 15
    frequency:   17.3593247377

- q-position: [    0.1919192,    0.0000000,    0.0000000 ]
  distance:    0.0641610
  band:
  - # 1
    frequency:    1.7851609002
  - # 2
    frequency:    2.3734828016
  - # 3
    frequency:    3.5783533484
  - # 4
    frequency:    4.1950437005
  - # 5
    frequency:    4.9622696133
  - # 6
    frequency:    5.1344110958
  - # 7
    frequency:    5.2824869958
  - # 8
    frequency:    5.9267832901
  - # 9
    frequency:    6.1087248799
  - # 10
    frequency:    6.5801626883
  - # 11
    frequency:    8.2317592385
  - # 12
    frequency:    9.0104609172
  - # 13
    frequency:   15.0201096775
  - # 14
    frequency:   17.0756756207
  - # 15
    frequency:   17.3498012219

- q-position: [    0.1969697,    0.0000000,    0.0000000 ]
  distance:    0.0658494
  band:
  - # 1
    frequency:    1.8558673574
  - # 2
    frequency:    2.4198503821
  - # 3
    frequency:    3.6570966326
  - # 4
    frequency:    4.2042096257
  - # 5
    frequency:    4.9917145386
  - # 6
    frequency:    5.1441642773
  - # 7
    frequency:    5.2806683805
  - # 8
    frequency:    5.9301036969
  - # 9
    frequency:    6.1239546693
  - # 10
    frequency:    6.6004388716
  - # 11
    frequency:    8.2217320833
  - # 12
    frequency:    8.9611074573
  - # 13
    frequency:   15.0113944155
  - # 14
    frequency:   17.0719535535
  - # 15
    frequency:   17.3380563971

- q-position: [    0.2020202,    0.0000000,    0.0000000 ]
  distance:    0.0675379
  band:
  - # 1
    frequency:    1.9261249719
  - # 2
    frequency:    2.4654098947
  - # 3
    frequency:    3.7332542647
  - # 4
    frequency:    4.2129998624
  - # 5
    frequency:    5.0199280354
  - # 6
    frequency:    5.1551606467
  - # 7
    frequency:    5.2787728310
  - # 8
    frequency:    5.9327951677
  - # 9
    frequency:    6.1388986769
  - # 10
    frequency:    6.6195883753
  - # 11
    frequency:    8.2115695759
  - # 12
    frequency:    8.9115010464
  - # 13
    frequency:   15.0025139218
  - # 14
    frequency:   17.0676940970
  - # 15
    frequency:   17.3241353498

- q-position: [    0.2070707,    0.0000000,    0.0000000 ]
  distance:    0.0692263
  band:
  - # 1
    frequency:    1.9959287412
  - # 2
    frequency:    2.5101959082
  - # 3
    frequency:    3.8066089313
  - # 4
    frequency:    4.2214471351
  - # 5
    frequency:    5.0467633308
  - # 6
    frequency:    5.1676357142
  - # 7
    frequency:    5.2768289394
  - # 8
    frequency:    5.9348861472
  - # 9
    frequency:    6.1535771521
  - # 10
    frequency:    6.6376091920
  - # 11
    frequency:    8.2012612494
  - # 12
    frequency:    8.8617464885
  - # 13
    frequency:   14.9934851531
  - # 14
    frequency:   17.0629653623
  - # 15
    frequency:   17.3080960930

- q-position: [    0.2121212,    0.0000000,    0.0000000 ]
  distance:    0.0709148
  band:
  - # 1
    frequency:    2.0652767469