nqpoint: 300    
npath: 3      
segment_nqpoint:
- 100
- 100
- 100
labels:
- [ 'G', 'M' ]
- [ 'M', 'K' ]
- [ 'K', 'G' ]
reciprocal_lattice:
- [   0.32412848,   0.18713567,   0.00000000 ] # a*
- [   0.00000000,   0.37427133,   0.00000000 ] # b*
- [   0.00000000,   0.00000000,   0.03318310 ] # c*
natom: 8      
lattice:
- [     3.085196314964865,     0.000000000000000,     0.000000000000000 ] # a
- [    -1.542598157482433,     2.671858384421711,     0.000000000000000 ] # b
- [     0.000000000000000,     0.000000000000000,    30.135824129849183 ] # c
points:
- symbol: C # 1
  coordinates: [  0.666666984744047,  0.333332985985145,  0.338573505506975 ]
  mass: 12.010700
- symbol: Cl # 2
  coordinates: [  0.333332985432215,  0.666666983183674,  0.701352119616148 ]
  mass: 35.453000
- symbol: N # 3
  coordinates: [  0.000000000000000,  0.000000000000000,  0.462048518874637 ]
  mass: 14.006700
- symbol: N # 4
  coordinates: [  0.666666984744047,  0.333332985985145,  0.379990395869651 ]
  mass: 14.006700
- symbol: O # 5
  coordinates: [  0.333332985432215,  0.666666983183674,  0.533750889650653 ]
  mass: 15.999400
- symbol: O # 6
  coordinates: [  0.666666984744047,  0.333332985985145,  0.298647880383852 ]
  mass: 15.999400
- symbol: Ti # 7
  coordinates: [  0.333332985432215,  0.666666983183674,  0.424467288250493 ]
  mass: 47.867000
- symbol: Ti # 8
  coordinates: [  0.666666984744047,  0.333332985985145,  0.503906920794442 ]
  mass: 47.867000

phonon:
- q-position: [    0.0000000,    0.0000000,    0.0000000 ]
  distance:    0.0000000
  band:
  - # 1
    frequency:   -3.3900761985
  - # 2
    frequency:   -3.3900761985
  - # 3
    frequency:   -0.7445152787
  - # 4
    frequency:   -0.0000004483
  - # 5
    frequency:   -0.0000001642
  - # 6
    frequency:    0.0000001667
  - # 7
    frequency:    1.3640388784
  - # 8
    frequency:    1.3640388784
  - # 9
    frequency:    1.4695436492
  - # 10
    frequency:    1.4695436492
  - # 11
    frequency:    6.4967476964
  - # 12
    frequency:    6.4967476964
  - # 13
    frequency:    6.8631242709
  - # 14
    frequency:    8.5007206853
  - # 15
    frequency:    8.5007206853
  - # 16
    frequency:   10.7218843802
  - # 17
    frequency:   15.3327934530
  - # 18
    frequency:   15.4988974350
  - # 19
    frequency:   15.4988974350
  - # 20
    frequency:   16.5588970818
  - # 21
    frequency:   16.8865851373
  - # 22
    frequency:   16.8865851373
  - # 23
    frequency:   38.0192547647
  - # 24
    frequency:   69.1031673010

- q-position: [    0.0050505,    0.0000000,    0.0000000 ]
  distance:    0.0018903
  band:
  - # 1
    frequency:   -3.3868513239
  - # 2
    frequency:   -3.3846257559
  - # 3
    frequency:   -0.7460583763
  - # 4
    frequency:   -0.0834006652
  - # 5
    frequency:   -0.0046012473
  - # 6
    frequency:    0.1201807283
  - # 7
    frequency:    1.3626075336
  - # 8
    frequency:    1.3627796697
  - # 9
    frequency:    1.4671531572
  - # 10
    frequency:    1.4692354306
  - # 11
    frequency:    6.4967789976
  - # 12
    frequency:    6.4974510250
  - # 13
    frequency:    6.8645777620
  - # 14
    frequency:    8.5009755899
  - # 15
    frequency:    8.5015980296
  - # 16
    frequency:   10.7216782708
  - # 17
    frequency:   15.3325119711
  - # 18
    frequency:   15.4975364860
  - # 19
    frequency:   15.4978281303
  - # 20
    frequency:   16.5588550295
  - # 21
    frequency:   16.8865919229
  - # 22
    frequency:   16.8867748303
  - # 23
    frequency:   38.0192773360
  - # 24
    frequency:   69.1019851848

- q-position: [    0.0101010,    0.0000000,    0.0000000 ]
  distance:    0.0037805
  band:
  - # 1
    frequency:   -3.3771927540
  - # 2
    frequency:   -3.3682629321
  - # 3
    frequency:   -0.7503557238
  - # 4
    frequency:   -0.1668071315
  - # 5
    frequency:   -0.0186143718
  - # 6
    frequency:    0.2364291342
  - # 7
    frequency:    1.3573028959
  - # 8
    frequency:    1.3578732211
  - # 9
    frequency:    1.4604235383
  - # 10
    frequency:    1.4704967689
  - # 11
    frequency:    6.4968451360
  - # 12
    frequency:    6.4995651043
  - # 13
    frequency:    6.8689649202
  - # 14
    frequency:    8.5017427357
  - # 15
    frequency:    8.5042180871
  - # 16
    frequency:   10.7210633605
  - # 17
    frequency:   15.3315721026
  - # 18
    frequency:   15.4934566750
  - # 19
    frequency:   15.4947134921
  - # 20
    frequency:   16.5587311182
  - # 21
    frequency:   16.8866126327
  - # 22
    frequency:   16.8873441514
  - # 23
    frequency:   38.0193450721
  - # 24
    frequency:   69.0984409485

- q-position: [    0.0151515,    0.0000000,    0.0000000 ]
  distance:    0.0056708
  band:
  - # 1
    frequency:   -3.3611490631
  - # 2
    frequency:   -3.3409524445
  - # 3
    frequency:   -0.7569599292
  - # 4
    frequency:   -0.2502001831
  - # 5
    frequency:   -0.0426322441
  - # 6
    frequency:    0.3451392749
  - # 7
    frequency:    1.3444085229
  - # 8
    frequency:    1.3483994855
  - # 9
    frequency:    1.4507886623
  - # 10
    frequency:    1.4782166594
  - # 11
    frequency:    6.4968670532
  - # 12
    frequency:    6.5031021331
  - # 13
    frequency:    6.8763614834
  - # 14
    frequency:    8.5030294201
  - # 15
    frequency:    8.5085450028
  - # 16
    frequency:   10.7200498741
  - # 17
    frequency:   15.3296777760
  - # 18
    frequency:   15.4866670883
  - # 19
    frequency:   15.4898431281
  - # 20
    frequency:   16.5585321778
  - # 21
    frequency:   16.8866483141
  - # 22
    frequency:   16.8882938043
  - # 23
    frequency:   38.0194580395
  - # 24
    frequency:   69.0925409232

- q-position: [    0.0202020,    0.0000000,    0.0000000 ]
  distance:    0.0075610
  band:
  - # 1
    frequency:   -3.3388026079
  - # 2
    frequency:   -3.3026327894
  - # 3
    frequency:   -0.7664218751
  - # 4
    frequency:   -0.3335150083
  - # 5
    frequency:   -0.0774468612
  - # 6
    frequency:    0.4425446053
  - # 7
    frequency:    1.3243677602
  - # 8
    frequency:    1.3317096127
  - # 9
    frequency:    1.4406971118
  - # 10
    frequency:    1.4957362531
  - # 11
    frequency:    6.4967264358
  - # 12
    frequency:    6.5080821685
  - # 13
    frequency:    6.8868799668
  - # 14
    frequency:    8.5048478078
  - # 15
    frequency:    8.5145192650
  - # 16
    frequency:   10.7186547541
  - # 17
    frequency:   15.3263093157
  - # 18
    frequency:   15.4771827965
  - # 19
    frequency:   15.4837258765
  - # 20
    frequency:   16.5582698882
  - # 21
    frequency:   16.8867006720
  - # 22
    frequency:   16.8896248850
  - # 23
    frequency:   38.0196163477
  - # 24
    frequency:   69.0842956432

- q-position: [    0.0252525,    0.0000000,    0.0000000 ]
  distance:    0.0094513
  band:
  - # 1
    frequency:   -3.3102717193
  - # 2
    frequency:   -3.2532120243
  - # 3
    frequency:   -0.7813715125
  - # 4
    frequency:   -0.4166287515
  - # 5
    frequency:   -0.1234056494
  - # 6
    frequency:    0.5238886052
  - # 7
    frequency:    1.3035630457
  - # 8
    frequency:    1.3051061351
  - # 9
    frequency:    1.4327587208
  - # 10
    frequency:    1.5233405975
  - # 11
    frequency:    6.4962835534
  - # 12
    frequency:    6.5145327063
  - # 13
    frequency:    6.9006514328
  - # 14
    frequency:    8.5072149334
  - # 15
    frequency:    8.5220581004
  - # 16
    frequency:   10.7169015031
  - # 17
    frequency:   15.3207124333
  - # 18
    frequency:   15.4650247446
  - # 19
    frequency:   15.4771007489
  - # 20
    frequency:   16.5579611872
  - # 21
    frequency:   16.8867720118
  - # 22
    frequency:   16.8913387689
  - # 23
    frequency:   38.0198201483
  - # 24
    frequency:   69.0737198185

- q-position: [    0.0303030,    0.0000000,    0.0000000 ]
  distance:    0.0113416
  band:
  - # 1
    frequency:   -3.2757139641
  - # 2
    frequency:   -3.1925615351
  - # 3
    frequency:   -0.8076183395
  - # 4
    frequency:   -0.4993585500
  - # 5
    frequency:   -0.1786368413
  - # 6
    frequency:    0.5838854567
  - # 7
    frequency:    1.2670535563
  - # 8
    frequency:    1.2929063355
  - # 9
    frequency:    1.4283168026
  - # 10
    frequency:    1.5603527142
  - # 11
    frequency:    6.4953977623
  - # 12
    frequency:    6.5224880747
  - # 13
    frequency:    6.9178044471
  - # 14
    frequency:    8.5101526998
  - # 15
    frequency:    8.5310560745
  - # 16
    frequency:   10.7148199456
  - # 17
    frequency:   15.3119511504
  - # 18
    frequency:   15.4502195986
  - # 19
    frequency:   15.4708839769
  - # 20
    frequency:   16.5576287695
  - # 21
    frequency:   16.8868651625
  - # 22
    frequency:   16.8934369555
  - # 23
    frequency:   38.0200696325
  - # 24
    frequency:   69.0608322978

- q-position: [    0.0353535,    0.0000000,    0.0000000 ]
  distance:    0.0132318
  band:
  - # 1
    frequency:   -3.2353306891
  - # 2
    frequency:   -3.1205075296
  - # 3
    frequency:   -0.8547179710
  - # 4
    frequency:   -0.5814708641
  - # 5
    frequency:   -0.2358506009
  - # 6
    frequency:    0.6206358099
  - # 7
    frequency:    1.2172395969
  - # 8
    frequency:    1.3035659118
  - # 9
    frequency:    1.4273305982
  - # 10
    frequency:    1.6064678628
  - # 11
    frequency:    6.4939469822
  - # 12
    frequency:    6.5319886281
  - # 13
    frequency:    6.9384449220
  - # 14
    frequency:    8.5136878695
  - # 15
    frequency:    8.5413859447
  - # 16
    frequency:   10.7124458900
  - # 17
    frequency:   15.2990782074
  - # 18
    frequency:   15.4327995496
  - # 19
    frequency:   15.4659986618
  - # 20
    frequency:   16.5573016118
  - # 21
    frequency:   16.8869833879
  - # 22
    frequency:   16.8959208770
  - # 23
    frequency:   38.0203650288
  - # 24
    frequency:   69.0456560201

- q-position: [    0.0404040,    0.0000000,    0.0000000 ]
  distance:    0.0151221
  band:
  - # 1
    frequency:   -3.1893731481
  - # 2
    frequency:   -3.0368201481
  - # 3
    frequency:   -0.9328646544
  - # 4
    frequency:   -0.6627017270
  - # 5
    frequency:   -0.2812931850
  - # 6
    frequency:    0.6406100384
  - # 7
    frequency:    1.1555722963
  - # 8
    frequency:    1.3399741207
  - # 9
    frequency:    1.4293060878
  - # 10
    frequency:    1.6619437681
  - # 11
    frequency:    6.4918428555
  - # 12
    frequency:    6.5430797202
  - # 13
    frequency:    6.9626401474
  - # 14
    frequency:    8.5178520430
  - # 15
    frequency:    8.5528998198
  - # 16
    frequency:   10.7098206716
  - # 17
    frequency:   15.2813885059
  - # 18
    frequency:   15.4128020762
  - # 19
    frequency:   15.4631215379
  - # 20
    frequency:   16.5570154472
  - # 21
    frequency:   16.8871302878
  - # 22
    frequency:   16.8987916786
  - # 23
    frequency:   38.0207065994
  - # 24
    frequency:   69.0282179565

- q-position: [    0.0454545,    0.0000000,    0.0000000 ]
  distance:    0.0170123
  band:
  - # 1
    frequency:   -3.1381506127
  - # 2
    frequency:   -2.9412008378
  - # 3
    frequency:   -1.0445014777
  - # 4
    frequency:   -0.7427873382
  - # 5
    frequency:   -0.3021018366
  - # 6
    frequency:    0.6555336352
  - # 7
    frequency:    1.0815394639
  - # 8
    frequency:    1.3973893061
  - # 9
    frequency:    1.4338349311
  - # 10
    frequency:    1.7274643786
  - # 11
    frequency:    6.4890396424
  - # 12
    frequency:    6.5558104399
  - # 13
    frequency:    6.9904089676
  - # 14
    frequency:    8.5226816186
  - # 15
    frequency:    8.5654306888
  - # 16
    frequency:   10.7069905495
  - # 17
    frequency:   15.2585913619
  - # 18
    frequency:   15.3902696699
  - # 19
    frequency:   15.4625111323
  - # 20
    frequency:   16.5568131069
  - # 21
    frequency:   16.8873096956
  - # 22
    frequency:   16.9020499789
  - # 23
    frequency:   38.0210946373
  - # 24
    frequency:   69.0085490411

- q-position: [    0.0505051,    0.0000000,    0.0000000 ]
  distance:    0.0189026
  band:
  - # 1
    frequency:   -3.0820409745
  - # 2
    frequency:   -2.8332714117
  - # 3
    frequency:   -1.1811966072
  - # 4
    frequency:   -0.8215054852
  - # 5
    frequency:   -0.2939608422
  - # 6
    frequency:    0.6738497412
  - # 7
    frequency:    0.9939699370
  - # 8
    frequency:    1.4406680791
  - # 9
    frequency:    1.4672694011
  - # 10
    frequency:    1.8038406863
  - # 11
    frequency:    6.4855366852
  - # 12
    frequency:    6.5702320916
  - # 13
    frequency:    7.0217182815
  - # 14
    frequency:    8.5282177256
  - # 15
    frequency:    8.5787943854
  - # 16
    frequency:   10.7040059347
  - # 17
    frequency:   15.2307766087
  - # 18
    frequency:   15.3652495260
  - # 19
    frequency:   15.4640423411
  - # 20
    frequency:   16.5567446486
  - # 21
    frequency:   16.8875255773
  - # 22
    frequency:   16.9056956260
  - # 23
    frequency:   38.0215294615
  - # 24
    frequency:   68.9866840922

- q-position: [    0.0555556,    0.0000000,    0.0000000 ]
  distance:    0.0207929
  band:
  - # 1
    frequency:   -3.0215044245
  - # 2
    frequency:   -2.7125782893
  - # 3
    frequency:   -1.3312876759
  - # 4
    frequency:   -0.8987302688
  - # 5
    frequency:   -0.2566388298
  - # 6
    frequency:    0.6984596894
  - # 7
    frequency:    0.8907716563
  - # 8
    frequency:    1.4496626059
  - # 9
    frequency:    1.5424868403
  - # 10
    frequency:    1.8915412705
  - # 11
    frequency:    6.4813757449
  - # 12
    frequency:    6.5863964113
  - # 13
    frequency:    7.0564845717
  - # 14
    frequency:    8.5345061236
  - # 15
    frequency:    8.5927920589
  - # 16
    frequency:   10.7009204218
  - # 17
    frequency:   15.1982474655
  - # 18
    frequency:   15.3377932081
  - # 19
    frequency:   15.4673745527
  - # 20
    frequency:   16.5568671932
  - # 21
    frequency:   16.8877819343
  - # 22
    frequency:   16.9097274588
  - # 23
    frequency:   38.0220114129
  - # 24
    frequency:   68.9626617239

- q-position: [    0.0606061,    0.0000000,    0.0000000 ]
  distance:    0.0226831
  band:
  - # 1
    frequency:   -2.9571007671
  - # 2
    frequency:   -2.5786659302
  - # 3
    frequency:   -1.4859989577
  - # 4
    frequency:   -0.9745040493
  - # 5
    frequency:   -0.1819878994
  - # 6
    frequency:    0.7293168036
  - # 7
    frequency:    0.7682618209
  - # 8
    frequency:    1.4607324473
  - # 9
    frequency:    1.6188357584
  - # 10
    frequency:    1.9902572977
  - # 11
    frequency:    6.4766352194
  - # 12
    frequency:    6.6043535141
  - # 13
    frequency:    7.0945784598
  - # 14
    frequency:    8.5415970593
  - # 15
    frequency:    8.6072132180
  - # 16
    frequency:   10.6977896062
  - # 17
    frequency:   15.1613666352
  - # 18
    frequency:   15.3079562927
  - # 19
    frequency:   15.4721068931
  - # 20
    frequency:   16.5572444026
  - # 21
    frequency:   16.8880827146
  - # 22
    frequency:   16.9141430912
  - # 23
    frequency:   38.0225408490
  - # 24
    frequency:   68.9365242471

- q-position: [    0.0656566,    0.0000000,    0.0000000 ]
  distance:    0.0245734
  band:
  - # 1
    frequency:   -2.8895106286
  - # 2
    frequency:   -2.4314732031
  - # 3
    frequency:   -1.6394259034
  - # 4
    frequency:   -1.0491275262
  - # 5
    frequency:    0.0936812624
  - # 6
    frequency:    0.6191196521
  - # 7
    frequency:    0.7655658551
  - # 8
    frequency:    1.4738205687
  - # 9
    frequency:    1.6945878595
  - # 10
    frequency:    2.0988428183
  - # 11
    frequency:    6.4714231695
  - # 12
    frequency:    6.6241495875
  - # 13
    frequency:    7.1358303581
  - # 14
    frequency:    8.5495450692
  - # 15
    frequency:    8.6218394158
  - # 16
    frequency:   10.6946696738
  - # 17
    frequency:   15.1204754423
  - # 18
    frequency:   15.2757980045
  - # 19
    frequency:   15.4778608049
  - # 20
    frequency:   16.5579455491
  - # 21
    frequency:   16.8884317343
  - # 22
    frequency:   16.9189387262
  - # 23
    frequency:   38.0231181392
  - # 24
    frequency:   68.9083175620

- q-position: [    0.0707071,    0.0000000,    0.0000000 ]
  distance:    0.0264636
  band:
  - # 1
    frequency:   -2.8195599274
  - # 2
    frequency:   -2.2737148169
  - # 3
    frequency:   -1.7846176547
  - # 4
    frequency:   -1.1232529350
  - # 5
    frequency:    0.2402080685
  - # 6
    frequency:    0.4235035534
  - # 7
    frequency:    0.8063779597
  - # 8
    frequency:    1.4888863076
  - # 9
    frequency:    1.7695330461
  - # 10
    frequency:    2.2156639981
  - # 11
    frequency:    6.4658705511
  - # 12
    frequency:    6.6458243580
  - # 13
    frequency:    7.1800358093
  - # 14
    frequency:    8.5584087210
  - # 15
    frequency:    8.6364486340
  - # 16
    frequency:   10.6916157636
  - # 17
    frequency:   15.0758694110
  - # 18
    frequency:   15.2413808527
  - # 19
    frequency:   15.4843065602
  - # 20
    frequency:   16.5590441454
  - # 21
    frequency:   16.8888326100
  - # 22
    frequency:   16.9241090118
  - # 23
    frequency:   38.0237436583
  - # 24
    frequency:   68.8780910414

- q-position: [    0.0757576,    0.0000000,    0.0000000 ]
  distance:    0.0283539
  band:
  - # 1
    frequency:   -2.7482449566
  - # 2
    frequency:   -2.1342149234
  - # 3
    frequency:   -1.8888203444
  - # 4
    frequency:   -1.1979246536
  - # 5
    frequency:   -0.1142391966
  - # 6
    frequency:    0.3350785200
  - # 7
    frequency:    0.8511653845
  - # 8
    frequency:    1.5059011820
  - # 9
    frequency:    1.8441455898
  - # 10
    frequency:    2.3390295114
  - # 11
    frequency:    6.4601254162
  - # 12
    frequency:    6.6694083827
  - # 13
    frequency:    7.2269597282
  - # 14
    frequency:    8.5682502781
  - # 15
    frequency:    8.6508204175
  - # 16
    frequency:   10.6886801230
  - # 17
    frequency:   15.0278002516
  - # 18
    frequency:   15.2047702803
  - # 19
    frequency:   15.4911637213
  - # 20
    frequency:   16.5606161335
  - # 21
    frequency:   16.8892887031
  - # 22
    frequency:   16.9296469423
  - # 23
    frequency:   38.0244177816
  - # 24
    frequency:   68.8458974046

- q-position: [    0.0808081,    0.0000000,    0.0000000 ]
  distance:    0.0302441
  band:
  - # 1
    frequency:   -2.6767515891
  - # 2
    frequency:   -2.1590363585
  - # 3
    frequency:   -1.8010860792
  - # 4
    frequency:   -1.2744536002
  - # 5
    frequency:   -0.4282627436
  - # 6
    frequency:    0.4143563772
  - # 7
    frequency:    0.8996230904
  - # 8
    frequency:    1.5248490513
  - # 9
    frequency:    1.9191005027
  - # 10
    frequency:    2.4674438141
  - # 11
    frequency:    6.4543483461
  - # 12
    frequency:    6.6949202433
  - # 13
    frequency:    7.2763392428
  - # 14
    frequency:    8.5791352784
  - # 15
    frequency:    8.6647417999
  - # 16
    frequency:   10.6859100981
  - # 17
    frequency:   14.9764858965
  - # 18
    frequency:   15.1660343396
  - # 19
    frequency:   15.4981938530
  - # 20
    frequency:   16.5627376634
  - # 21
    frequency:   16.8898030758
  - # 22
    frequency:   16.9355438065
  - # 23
    frequency:   38.0251408779
  - # 24
    frequency:   68.8117925832

- q-position: [    0.0858586,    0.0000000,    0.0000000 ]
  distance:    0.0321344
  band:
  - # 1
    frequency:   -2.6064560756
  - # 2
    frequency:   -2.2839467202
  - # 3
    frequency:   -1.5780721422
  - # 4
    frequency:   -1.3540215091
  - # 5
    frequency:   -0.5659144102
  - # 6
    frequency:    0.4853762191
  - # 7
    frequency:    0.9517831603
  - # 8
    frequency:    1.5457284978
  - # 9
    frequency:    1.9950835220
  - # 10
    frequency:    2.5996733237
  - # 11
    frequency:    6.4487090735
  - # 12
    frequency:    6.7223637424
  - # 13
    frequency:    7.3278851213
  - # 14
    frequency:    8.5911320121
  - # 15
    frequency:    8.6780140460
  - # 16
    frequency:   10.6833460288
  - # 17
    frequency:   14.9221209522
  - # 18
    frequency:   15.1252434058
  - # 19
    frequency:   15.5051930401
  - # 20
    frequency:   16.5654825270
  - # 21
    frequency:   16.8903784572
  - # 22
    frequency:   16.9417891809
  - # 23
    frequency:   38.0259133041
  - # 24
    frequency:   68.7758355794

- q-position: [    0.0909091,    0.0000000,    0.0000000 ]
  distance:    0.0340247
  band:
  - # 1
    frequency:   -2.5388880818
  - # 2
    frequency:   -2.4200875314
  - # 3
    frequency:   -1.4371264378
  - # 4
    frequency:   -1.2944834205
  - # 5
    frequency:   -0.6427265770
  - # 6
    frequency:    0.5515478505
  - # 7
    frequency:    1.0082144459
  - # 8
    frequency:    1.5685564551
  - # 9
    frequency:    2.0727584525
  - # 10
    frequency:    2.7347165905
  - # 11
    frequency:    6.4433841134
  - # 12
    frequency:    6.7517252293
  - # 13
    frequency:    7.3812818906
  - # 14
    frequency:    8.6043108845
  - # 15
    frequency:    8.6904602269
  - # 16
    frequency:   10.6810191491
  - # 17
    frequency:   14.8648853079
  - # 18
    frequency:   15.0824699419
  - # 19
    frequency:   15.5119863530
  - # 20
    frequency:   16.5689193540
  - # 21
    frequency:   16.8910172200
  - # 22
    frequency:   16.9483709632
  - # 23
    frequency:   38.0267353980
  - # 24
    frequency:   68.7380883158

- q-position: [    0.0959596,    0.0000000,    0.0000000 ]
  distance:    0.0359149
  band:
  - # 1
    frequency:   -2.5560777312
  - # 2
    frequency:   -2.4756349128
  - # 3
    frequency:   -1.5232676123
  - # 4
    frequency:   -0.9273581064
  - # 5
    frequency:   -0.6740582865
  - # 6
    frequency:    0.6158021326
  - # 7
    frequency:    1.0706823267
  - # 8
    frequency:    1.5933727385
  - # 9
    frequency:    2.1527942267
  - # 10
    frequency:    2.8717483190
  - # 11
    frequency:    6.4385551971
  - # 12
    frequency:    6.7829712018
  - # 13
    frequency:    7.4361867599
  - # 14
    frequency:    8.6187436497
  - # 15
    frequency:    8.7019336319
  - # 16
    frequency:   10.6789496218
  - # 17
    frequency:   14.8049506794
  - # 18
    frequency:   15.0377883271
  - # 19
    frequency:   15.5184243337
  - # 20
    frequency:   16.5731087080
  - # 21
    frequency:   16.8917213640
  - # 22
    frequency:   16.9552754395
  - # 23
    frequency:   38.0276074723
  - # 24
    frequency:   68.6986154781

- q-position: [    0.1010101,    0.0000000,    0.0000000 ]
  distance:    0.0378052
  band:
  - # 1
    frequency:   -2.6895700011
  - # 2
    frequency:   -2.4181814659
  - # 3
    frequency:   -1.6111311456
  - # 4
    frequency:   -0.6635869455
  - # 5
    frequency:   -0.2921152338
  - # 6
    frequency:    0.6862485251
  - # 7
    frequency:    1.1445074380
  - # 8
    frequency:    1.6202454170
  - # 9
    frequency:    2.2359001241
  - # 10
    frequency:    3.0100676283
  - # 11
    frequency:    6.4344083349
  - # 12
    frequency:    6.8160463420
  - # 13
    frequency:    7.4922274204
  - # 14
    frequency:    8.6345024987
  - # 15
    frequency:    8.7123270082
  - # 16
    frequency:   10.6771448573
  - # 17
    frequency:   14.7424854550
  - # 18
    frequency:   14.9912747570
  - # 19
    frequency:   15.5243809675
  - # 20
    frequency:   16.5781002528
  - # 21
    frequency:   16.8924925074
  - # 22
    frequency:   16.9624873778
  - # 23
    frequency:   38.0285298081
  - # 24
    frequency:   68.6574843514

- q-position: [    0.1060606,    0.0000000,    0.0000000 ]
  distance:    0.0396954
  band:
  - # 1
    frequency:   -2.8197720682
  - # 2
    frequency:   -2.3677259897
  - # 3
    frequency:   -1.6990286537
  - # 4
    frequency:   -0.6092674457
  - # 5
    frequency:    0.6622689910
  - # 6
    frequency:    0.8534858499
  - # 7
    frequency:    1.2473625840
  - # 8
    frequency:    1.6492770439
  - # 9
    frequency:    2.3228369846
  - # 10
    frequency:    3.1490582412
  - # 11
    frequency:    6.4311333889
  - # 12
    frequency:    6.8508721447
  - # 13
    frequency:    7.5489987493
  - # 14
    frequency:    8.6516589898
  - # 15
    frequency:    8.7215826041
  - # 16
    frequency:   10.6755982836
  - # 17
    frequency:   14.6776582773
  - # 18
    frequency:   14.9430072281
  - # 19
    frequency:   15.5297525242
  - # 20
    frequency:   16.5839301687
  - # 21
    frequency:   16.8933318830
  - # 22
    frequency:   16.9699901405
  - # 23
    frequency:   38.0295026480
  - # 24
    frequency:   68.6147646502

- q-position: [    0.1111111,    0.0000000,    0.0000000 ]
  distance:    0.0415857
  band:
  - # 1
    frequency:   -2.9463219600
  - # 2
    frequency:   -2.3250846344
  - # 3
    frequency:   -1.7851617014
  - # 4
    frequency:   -0.5004337028
  - # 5
    frequency:    0.7551923313
  - # 6
    frequency:    1.0800374300
  - # 7
    frequency:    1.4143807869
  - # 8
    frequency:    1.6806116377
  - # 9
    frequency:    2.4143702752
  - # 10
    frequency:    3.2881594940
  - # 11
    frequency:    6.4289240972
  - # 12
    frequency:    6.8873462870
  - # 13
    frequency:    7.6060584319
  - # 14
    frequency:    8.6702828079
  - # 15
    frequency:    8.7297029503
  - # 16
    frequency:   10.6742887269
  - # 17
    frequency:   14.6106407210
  - # 18
    frequency:   14.8930656106
  - # 19
    frequency:   15.5344567417
  - # 20
    frequency:   16.5906189965
  - # 21
    frequency:   16.8942403391
  - # 22
    frequency:   16.9777658093
  - # 23
    frequency:   38.0305261903
  - # 24
    frequency:   68.5705283418

- q-position: [    0.1161616,    0.0000000,    0.0000000 ]
  distance:    0.0434760
  band:
  - # 1
    frequency:   -3.0690119635
  - # 2
    frequency:   -2.2908803098
  - # 3
    frequency:   -1.8674849701
  - # 4
    frequency:   -0.2904117957
  - # 5
    frequency:    0.8141008329
  - # 6
    frequency:    1.2000018915
  - # 7
    frequency:    1.6204203581
  - # 8
    frequency:    1.7144419423
  - # 9
    frequency:    2.5111259760
  - # 10
    frequency:    3.4268447676
  - # 11
    frequency:    6.4279785442
  - # 12
    frequency:    6.9253428555
  - # 13
    frequency:    7.6629215927
  - # 14
    frequency:    8.6904403475
  - # 15
    frequency:    8.7367622113
  - # 16
    frequency:   10.6731805451
  - # 17
    frequency:   14.5416093305
  - # 18
    frequency:   14.8415318168
  - # 19
    frequency:   15.5384319472
  - # 20
    frequency:   16.5981700615
  - # 21
    frequency:   16.8952183436
  - # 22
    frequency:   16.9857953173
  - # 23
    frequency:   38.0316005819
  - # 24
    frequency:   68.5248494651

- q-position: [    0.1212121,    0.0000000,    0.0000000 ]
  distance:    0.0453662
  band:
  - # 1
    frequency:   -3.1876987762
  - # 2
    frequency:   -2.2663289155
  - # 3
    frequency:   -1.9429862487
  - # 4
    frequency:    0.3446146038
  - # 5
    frequency:    0.8679331663
  - # 6
    frequency:    1.2836845335
  - # 7
    frequency:    1.7510157983
  - # 8
    frequency:    1.8131177292
  - # 9
    frequency:    2.6133366316
  - # 10
    frequency:    3.5646040222
  - # 11
    frequency:    6.4285001179
  - # 12
    frequency:    6.9647135100
  - # 13
    frequency:    7.7190547553
  - # 14
    frequency:    8.7121931188
  - # 15
    frequency:    8.7429177098
  - # 16
    frequency:   10.6722246142
  - # 17
    frequency:   14.4707472045
  - # 18
    frequency:   14.7884900661
  - # 19
    frequency:   15.5416358417
  - # 20
    frequency:   16.6065685825
  - # 21
    frequency:   16.8962659901
  - # 22
    frequency:   16.9940585844
  - # 23
    frequency:   38.0327259129
  - # 24
    frequency:   68.4778039450

- q-position: [    0.1262626,    0.0000000,    0.0000000 ]
  distance:    0.0472565
  band:
  - # 1
    frequency:   -3.3022686804
  - # 2
    frequency:   -2.2550884359
  - # 3
    frequency:   -2.0059799993
  - # 4
    frequency:    0.5912157606
  - # 5
    frequency:    0.9197629905
  - # 6
    frequency:    1.3571673549
  - # 7
    frequency:    1.7906393188
  - # 8
    frequency:    1.9811128806
  - # 9
    frequency:    2.7205567432
  - # 10
    frequency:    3.7009279311
  - # 11
    frequency:    6.4306990256
  - # 12
    frequency:    7.0052896060
  - # 13
    frequency:    7.7738699460
  - # 14
    frequency:    8.7355959906
  - # 15
    frequency:    8.7484207509
  - # 16
    frequency:   10.6713602124
  - # 17
    frequency:   14.3982452567
  - # 18
    frequency:   14.7340272491
  - # 19
    frequency:   15.5440437944
  - # 20
    frequency:   16.6157815151
  - # 21
    frequency:   16.8973830070
  - # 22
    frequency:   17.0025346529
  - # 23
    frequency:   38.0339022099
  - # 24
    frequency:   68.4294694013

- q-position: [    0.1313131,    0.0000000,    0.0000000 ]
  distance:    0.0491467
  band:
  - # 1
    frequency:   -3.4126224592
  - # 2
    frequency:   -2.2649474635
  - # 3
    frequency:   -2.0465960877
  - # 4
    frequency:    0.7737071496
  - # 5
    frequency:    0.9704820150
  - # 6
    frequency:    1.4273709160
  - # 7
    frequency:    1.8336730501
  - # 8
    frequency:    2.1264803104
  - # 9
    frequency:    2.8315364230
  - # 10
    frequency:    3.8352920691
  - # 11
    frequency:    6.4347944392
  - # 12
    frequency:    7.0468852350
  - # 13
    frequency:    7.8267206685
  - # 14
    frequency:    8.7536249981
  - # 15
    frequency:    8.7606952961
  - # 16
    frequency:   10.6705177790
  - # 17
    frequency:   14.3243032438
  - # 18
    frequency:   14.6782333869
  - # 19
    frequency:   15.5456466064
  - # 20
    frequency:   16.6257581086
  - # 21
    frequency:   16.8985687668
  - # 22
    frequency:   17.0112018253
  - # 23
    frequency:   38.0351294306
  - # 24
    frequency:   68.3799249553

- q-position: [    0.1363636,    0.0000000,    0.0000000 ]
  distance:    0.0510370
  band:
  - # 1
    frequency:   -3.5186684100
  - # 2
    frequency:   -2.3005932368
  - # 3
    frequency:   -2.0581578683
  - # 4
    frequency:    0.9259166939
  - # 5
    frequency:    1.0204918586
  - # 6
    frequency:    1.4965574797
  - # 7