nqpoint: 300    
npath: 3      
segment_nqpoint:
- 100
- 100
- 100
labels:
- [ 'G', 'M' ]
- [ 'M', 'K' ]
- [ 'K', 'G' ]
reciprocal_lattice:
- [   0.32412848,   0.18713567,   0.00000000 ] # a*
- [   0.00000000,   0.37427133,   0.00000000 ] # b*
- [   0.00000000,   0.00000000,   0.03318310 ] # c*
natom: 8      
lattice:
- [     3.085196314964865,     0.000000000000000,     0.000000000000000 ] # a
- [    -1.542598157482433,     2.671858384421711,     0.000000000000000 ] # b
- [     0.000000000000000,     0.000000000000000,    30.135824129849183 ] # c
points:
- symbol: C # 1
  coordinates: [  0.666666984744047,  0.333332985985145,  0.338573505506975 ]
  mass: 12.010700
- symbol: Cl # 2
  coordinates: [  0.333332985432215,  0.666666983183674,  0.701352119616148 ]
  mass: 35.453000
- symbol: N # 3
  coordinates: [  0.000000000000000,  0.000000000000000,  0.462048518874637 ]
  mass: 14.006700
- symbol: N # 4
  coordinates: [  0.666666984744047,  0.333332985985145,  0.379990395869651 ]
  mass: 14.006700
- symbol: O # 5
  coordinates: [  0.333332985432215,  0.666666983183674,  0.533750889650653 ]
  mass: 15.999400
- symbol: O # 6
  coordinates: [  0.666666984744047,  0.333332985985145,  0.298647880383852 ]
  mass: 15.999400
- symbol: Ti # 7
  coordinates: [  0.333332985432215,  0.666666983183674,  0.424467288250493 ]
  mass: 47.867000
- symbol: Ti # 8
  coordinates: [  0.666666984744047,  0.333332985985145,  0.503906920794442 ]
  mass: 47.867000

phonon:
- q-position: [    0.0000000,    0.0000000,    0.0000000 ]
  distance:    0.0000000
  band:
  - # 1
    frequency:   -6.1110316937
  - # 2
    frequency:   -6.1110316937
  - # 3
    frequency:   -1.1324463476
  - # 4
    frequency:   -1.1324463476
  - # 5
    frequency:   -0.2663626549
  - # 6
    frequency:   -0.0000004075
  - # 7
    frequency:    0.0000006192
  - # 8
    frequency:    0.0000006486
  - # 9
    frequency:    0.1164144684
  - # 10
    frequency:    0.1164144684
  - # 11
    frequency:    5.4064600246
  - # 12
    frequency:    5.4064600246
  - # 13
    frequency:    6.6057156442
  - # 14
    frequency:    8.4677753830
  - # 15
    frequency:    8.4677753830
  - # 16
    frequency:   10.0214853110
  - # 17
    frequency:   13.6111622146
  - # 18
    frequency:   13.6111622146
  - # 19
    frequency:   14.9133982842
  - # 20
    frequency:   16.2912617260
  - # 21
    frequency:   16.7567589800
  - # 22
    frequency:   16.7567589800
  - # 23
    frequency:   37.9774826648
  - # 24
    frequency:   69.2377258733

- q-position: [    0.0050505,    0.0000000,    0.0000000 ]
  distance:    0.0018903
  band:
  - # 1
    frequency:   -6.1025631085
  - # 2
    frequency:   -6.1022961664
  - # 3
    frequency:   -1.1327449226
  - # 4
    frequency:   -1.1307959629
  - # 5
    frequency:   -0.4503180659
  - # 6
    frequency:   -0.2376146869
  - # 7
    frequency:   -0.1558451639
  - # 8
    frequency:   -0.0729521902
  - # 9
    frequency:    0.1265508937
  - # 10
    frequency:    0.4629346904
  - # 11
    frequency:    5.4094211990
  - # 12
    frequency:    5.4097893700
  - # 13
    frequency:    6.6062995436
  - # 14
    frequency:    8.4686403577
  - # 15
    frequency:    8.4689937554
  - # 16
    frequency:   10.0229951264
  - # 17
    frequency:   13.6139705456
  - # 18
    frequency:   13.6140791739
  - # 19
    frequency:   14.9152531132
  - # 20
    frequency:   16.2914395382
  - # 21
    frequency:   16.7568745784
  - # 22
    frequency:   16.7571304744
  - # 23
    frequency:   37.9776113688
  - # 24
    frequency:   69.2362288201

- q-position: [    0.0101010,    0.0000000,    0.0000000 ]
  distance:    0.0037805
  band:
  - # 1
    frequency:   -6.0771551630
  - # 2
    frequency:   -6.0760939044
  - # 3
    frequency:   -1.1345173926
  - # 4
    frequency:   -1.1258935152
  - # 5
    frequency:   -0.6061457191
  - # 6
    frequency:   -0.3635192118
  - # 7
    frequency:   -0.2312452460
  - # 8
    frequency:   -0.2230868721
  - # 9
    frequency:    0.2281969270
  - # 10
    frequency:    0.6713359257
  - # 11
    frequency:    5.4182880412
  - # 12
    frequency:    5.4197358309
  - # 13
    frequency:    6.6080777759
  - # 14
    frequency:    8.4712314979
  - # 15
    frequency:    8.4726332833
  - # 16
    frequency:   10.0275121607
  - # 17
    frequency:   13.6223624723
  - # 18
    frequency:   13.6227986680
  - # 19
    frequency:   14.9208019181
  - # 20
    frequency:   16.2919765611
  - # 21
    frequency:   16.7572207005
  - # 22
    frequency:   16.7582421952
  - # 23
    frequency:   37.9779967460
  - # 24
    frequency:   69.2317419439

- q-position: [    0.0151515,    0.0000000,    0.0000000 ]
  distance:    0.0056708
  band:
  - # 1
    frequency:   -6.0348009611
  - # 2
    frequency:   -6.0324374926
  - # 3
    frequency:   -1.1402999928
  - # 4
    frequency:   -1.1178752420
  - # 5
    frequency:   -0.7040810124
  - # 6
    frequency:   -0.5567698781
  - # 7
    frequency:   -0.3538406590
  - # 8
    frequency:   -0.2201713446
  - # 9
    frequency:    0.3378437348
  - # 10
    frequency:    0.8392834892
  - # 11
    frequency:    5.4330112230
  - # 12
    frequency:    5.4361746930
  - # 13
    frequency:    6.6111304048
  - # 14
    frequency:    8.4755375881
  - # 15
    frequency:    8.4786474329
  - # 16
    frequency:   10.0349993890
  - # 17
    frequency:   13.6362393507
  - # 18
    frequency:   13.6372269614
  - # 19
    frequency:   14.9299976535
  - # 20
    frequency:   16.2928835682
  - # 21
    frequency:   16.7577953317
  - # 22
    frequency:   16.7600859317
  - # 23
    frequency:   37.9786365977
  - # 24
    frequency:   69.2242780730

- q-position: [    0.0202020,    0.0000000,    0.0000000 ]
  distance:    0.0075610
  band:
  - # 1
    frequency:   -5.9754878960
  - # 2
    frequency:   -5.9713466186
  - # 3
    frequency:   -1.1533251409
  - # 4
    frequency:   -1.1069378734
  - # 5
    frequency:   -0.7599155218
  - # 6
    frequency:   -0.7465293688
  - # 7
    frequency:   -0.4800358958
  - # 8
    frequency:   -0.2027541205
  - # 9
    frequency:    0.4492615424
  - # 10
    frequency:    0.9867927905
  - # 11
    frequency:    5.4535108682
  - # 12
    frequency:    5.4588980548
  - # 13
    frequency:    6.6155924423
  - # 14
    frequency:    8.4815403839
  - # 15
    frequency:    8.4869594215
  - # 16
    frequency:   10.0453957963
  - # 17
    frequency:   13.6554386024
  - # 18
    frequency:   13.6572092006
  - # 19
    frequency:   14.9427619120
  - # 20
    frequency:   16.2941785716
  - # 21
    frequency:   16.7585951285
  - # 22
    frequency:   16.7626482508
  - # 23
    frequency:   37.9795272774
  - # 24
    frequency:   69.2138585136

- q-position: [    0.0252525,    0.0000000,    0.0000000 ]
  distance:    0.0094513
  band:
  - # 1
    frequency:   -5.8991958885
  - # 2
    frequency:   -5.8928459922
  - # 3
    frequency:   -1.1747925781
  - # 4
    frequency:   -1.0933015010
  - # 5
    frequency:   -0.9349352168
  - # 6
    frequency:   -0.7782836950
  - # 7
    frequency:   -0.6040309507
  - # 8
    frequency:   -0.1774466141
  - # 9
    frequency:    0.5617416092
  - # 10
    frequency:    1.1216064818
  - # 11
    frequency:    5.4796799034
  - # 12
    frequency:    5.4876144878
  - # 13
    frequency:    6.6216563128
  - # 14
    frequency:    8.4892152689
  - # 15
    frequency:    8.4974633456
  - # 16
    frequency:   10.0586173932
  - # 17
    frequency:   13.6797363966
  - # 18
    frequency:   13.6825314426
  - # 19
    frequency:   14.9589849169
  - # 20
    frequency:   16.2958869246
  - # 21
    frequency:   16.7596154410
  - # 22
    frequency:   16.7659108589
  - # 23
    frequency:   37.9806637187
  - # 24
    frequency:   69.2005129388

- q-position: [    0.0303030,    0.0000000,    0.0000000 ]
  distance:    0.0113416
  band:
  - # 1
    frequency:   -5.8058947185
  - # 2
    frequency:   -5.7969621134
  - # 3
    frequency:   -1.2018804186
  - # 4
    frequency:   -1.1211599416
  - # 5
    frequency:   -1.0771716398
  - # 6
    frequency:   -0.7655523806
  - # 7
    frequency:   -0.7264716337
  - # 8
    frequency:   -0.1399178721
  - # 9
    frequency:    0.6750252256
  - # 10
    frequency:    1.2477522470
  - # 11
    frequency:    5.5113884468
  - # 12
    frequency:    5.5219480875
  - # 13
    frequency:    6.6295754509
  - # 14
    frequency:    8.4985321457
  - # 15
    frequency:    8.5100257002
  - # 16
    frequency:   10.0745585917
  - # 17
    frequency:   13.7088512856
  - # 18
    frequency:   13.7129234316
  - # 19
    frequency:   14.9785254975
  - # 20
    frequency:   16.2980414985
  - # 21
    frequency:   16.7608503438
  - # 22
    frequency:   16.7698510789
  - # 23
    frequency:   37.9820394733
  - # 24
    frequency:   69.1842792347

- q-position: [    0.0353535,    0.0000000,    0.0000000 ]
  distance:    0.0132318
  band:
  - # 1
    frequency:   -5.6955402110
  - # 2
    frequency:   -5.6837185204
  - # 3
    frequency:   -1.3055545478
  - # 4
    frequency:   -1.2297243439
  - # 5
    frequency:   -1.0587088135
  - # 6
    frequency:   -0.8475409205
  - # 7
    frequency:   -0.7262203966
  - # 8
    frequency:   -0.0728885535
  - # 9
    frequency:    0.7889096826
  - # 10
    frequency:    1.3677000823
  - # 11
    frequency:    5.5484889569
  - # 12
    frequency:    5.5614366339
  - # 13
    frequency:    6.6396690288
  - # 14
    frequency:    8.5094565337
  - # 15
    frequency:    8.5244872368
  - # 16
    frequency:   10.0930938940
  - # 17
    frequency:   13.7424486827
  - # 18
    frequency:   13.7480620645
  - # 19
    frequency:   15.0012110360
  - # 20
    frequency:   16.3006829611
  - # 21
    frequency:   16.7622926767
  - # 22
    frequency:   16.7744424175
  - # 23
    frequency:   37.9836467596
  - # 24
    frequency:   69.1652033033

- q-position: [    0.0404040,    0.0000000,    0.0000000 ]
  distance:    0.0151221
  band:
  - # 1
    frequency:   -5.5680689063
  - # 2
    frequency:   -5.5531289619
  - # 3
    frequency:   -1.4879580476
  - # 4
    frequency:   -1.2542366562
  - # 5
    frequency:   -1.0380127346
  - # 6
    frequency:   -0.9672500932
  - # 7
    frequency:   -0.6621321722
  - # 8
    frequency:    0.1067248987
  - # 9
    frequency:    0.9031877607
  - # 10
    frequency:    1.4831394845
  - # 11
    frequency:    5.5908218060
  - # 12
    frequency:    5.6055288151
  - # 13
    frequency:    6.6523275324
  - # 14
    frequency:    8.5219508461
  - # 15
    frequency:    8.5406650975
  - # 16
    frequency:   10.1140798411
  - # 17
    frequency:   13.7801460509
  - # 18
    frequency:   13.7875754717
  - # 19
    frequency:   15.0268373799
  - # 20
    frequency:   16.3038601826
  - # 21
    frequency:   16.7639340957
  - # 22
    frequency:   16.7796551942
  - # 23
    frequency:   37.9854765217
  - # 24
    frequency:   69.1433388258

- q-position: [    0.0454545,    0.0000000,    0.0000000 ]
  distance:    0.0170123
  band:
  - # 1
    frequency:   -5.4233906430
  - # 2
    frequency:   -5.4051876773
  - # 3
    frequency:   -1.6681795634
  - # 4
    frequency:   -1.2727879057
  - # 5
    frequency:   -1.0855705526
  - # 6
    frequency:   -1.0150780622
  - # 7
    frequency:   -0.5700814662
  - # 8
    frequency:    0.1750272657
  - # 9
    frequency:    1.0176470677
  - # 10
    frequency:    1.5953199092
  - # 11
    frequency:    5.6382209036
  - # 12
    frequency:    5.6535810164
  - # 13
    frequency:    6.6680183474
  - # 14
    frequency:    8.5359758154
  - # 15
    frequency:    8.5583551668
  - # 16
    frequency:   10.1373571552
  - # 17
    frequency:   13.8215186539
  - # 18
    frequency:   13.8310476281
  - # 19
    frequency:   15.0551687280
  - # 20
    frequency:   16.3076307855
  - # 21
    frequency:   16.7657651346
  - # 22
    frequency:   16.7854572023
  - # 23
    frequency:   37.9875184979
  - # 24
    frequency:   69.1187469845

- q-position: [    0.0505051,    0.0000000,    0.0000000 ]
  distance:    0.0189026
  band:
  - # 1
    frequency:   -5.2613781839
  - # 2
    frequency:   -5.2398555867
  - # 3
    frequency:   -1.8460068142
  - # 4
    frequency:   -1.2837757466
  - # 5
    frequency:   -1.2023628250
  - # 6
    frequency:   -0.9899023189
  - # 7
    frequency:   -0.4366870851
  - # 8
    frequency:    0.2292431445
  - # 9
    frequency:    1.1320814882
  - # 10
    frequency:    1.7052194100
  - # 11
    frequency:    5.6905189637
  - # 12
    frequency:    5.7048551679
  - # 13
    frequency:    6.6872895390
  - # 14
    frequency:    8.5514920364
  - # 15
    frequency:    8.5773345781
  - # 16
    frequency:   10.1627530081
  - # 17
    frequency:   13.8661057096
  - # 18
    frequency:   13.8780234000
  - # 19
    frequency:   15.0859375164
  - # 20
    frequency:   16.3120618390
  - # 21
    frequency:   16.7677752774
  - # 22
    frequency:   16.7918143732
  - # 23
    frequency:   37.9897612991
  - # 24
    frequency:   69.0914961492

- q-position: [    0.0555556,    0.0000000,    0.0000000 ]
  distance:    0.0207929
  band:
  - # 1
    frequency:   -5.0818525385
  - # 2
    frequency:   -5.0570406342
  - # 3
    frequency:   -2.0212196458
  - # 4
    frequency:   -1.3175462039
  - # 5
    frequency:   -1.2861257639
  - # 6
    frequency:   -0.9623345040
  - # 7
    frequency:   -0.1944862001
  - # 8
    frequency:    0.2782354829
  - # 9
    frequency:    1.2463026275
  - # 10
    frequency:    1.8136351018
  - # 11
    frequency:    5.7475519780
  - # 12
    frequency:    5.7585206526
  - # 13
    frequency:    6.7107685438
  - # 14
    frequency:    8.5684616005
  - # 15
    frequency:    8.5973643253
  - # 16
    frequency:   10.1900833406
  - # 17
    frequency:   13.9134167800
  - # 18
    frequency:   13.9280139293
  - # 19
    frequency:   15.1188443690
  - # 20
    frequency:   16.3172306653
  - # 21
    frequency:   16.7699530441
  - # 22
    frequency:   16.7986914205
  - # 23
    frequency:   37.9921924953
  - # 24
    frequency:   69.0616615262

- q-position: [    0.0606061,    0.0000000,    0.0000000 ]
  distance:    0.0226831
  band:
  - # 1
    frequency:   -4.8845618739
  - # 2
    frequency:   -4.8565696853
  - # 3
    frequency:   -2.1935952753
  - # 4
    frequency:   -1.4309983582
  - # 5
    frequency:   -1.2789674166
  - # 6
    frequency:   -0.9321822567
  - # 7
    frequency:    0.3200242589
  - # 8
    frequency:    0.3677301063
  - # 9
    frequency:    1.3601487626
  - # 10
    frequency:    1.9212340685
  - # 11
    frequency:    5.8091624393
  - # 12
    frequency:    5.8136651342
  - # 13
    frequency:    6.7391506946
  - # 14
    frequency:    8.5868497937
  - # 15
    frequency:    8.6181919367
  - # 16
    frequency:   10.2191551590
  - # 17
    frequency:   13.9629382267
  - # 18
    frequency:   13.9805022540
  - # 19
    frequency:   15.1535582282
  - # 20
    frequency:   16.3232256846
  - # 21
    frequency:   16.7722860882
  - # 22
    frequency:   16.8060524401
  - # 23
    frequency:   37.9947987112
  - # 24
    frequency:   69.0293247751

- q-position: [    0.0656566,    0.0000000,    0.0000000 ]
  distance:    0.0245734
  band:
  - # 1
    frequency:   -4.6691506704
  - # 2
    frequency:   -4.6381481041
  - # 3
    frequency:   -2.3629114775
  - # 4
    frequency:   -1.5425964793
  - # 5
    frequency:   -1.2614275076
  - # 6
    frequency:   -0.8991660402
  - # 7
    frequency:    0.3667397776
  - # 8
    frequency:    0.5663973270
  - # 9
    frequency:    1.4734921023
  - # 10
    frequency:    2.0285825200
  - # 11
    frequency:    5.8693206454
  - # 12
    frequency:    5.8752008306
  - # 13
    frequency:    6.7731711145
  - # 14
    frequency:    8.6066268341
  - # 15
    frequency:    8.6395541805
  - # 16
    frequency:   10.2497687375
  - # 17
    frequency:   14.0141395597
  - # 18
    frequency:   14.0349490660
  - # 19
    frequency:   15.1897168534
  - # 20
    frequency:   16.3301471556
  - # 21
    frequency:   16.7747613088
  - # 22
    frequency:   16.8138614502
  - # 23
    frequency:   37.9975657288
  - # 24
    frequency:   68.9945735948

- q-position: [    0.0707071,    0.0000000,    0.0000000 ]
  distance:    0.0264636
  band:
  - # 1
    frequency:   -4.4351136787
  - # 2
    frequency:   -4.4013011541
  - # 3
    frequency:   -2.5289485868
  - # 4
    frequency:   -1.6522167654
  - # 5
    frequency:   -1.2324652609
  - # 6
    frequency:   -0.8629001480
  - # 7
    frequency:    0.4102013467
  - # 8
    frequency:    0.7238336669
  - # 9
    frequency:    1.5862461872
  - # 10
    frequency:    2.1361621259
  - # 11
    frequency:    5.9245107738
  - # 12
    frequency:    5.9455248902
  - # 13
    frequency:    6.8135541346
  - # 14
    frequency:    8.6277696226
  - # 15
    frequency:    8.6611797872
  - # 16
    frequency:   10.2817196577
  - # 17
    frequency:   14.0664795066
  - # 18
    frequency:   14.0907985106
  - # 19
    frequency:   15.2269279701
  - # 20
    frequency:   16.3381075888
  - # 21
    frequency:   16.7773649767
  - # 22
    frequency:   16.8220828577
  - # 23
    frequency:   38.0004785970
  - # 24
    frequency:   68.9575012810

- q-position: [    0.0757576,    0.0000000,    0.0000000 ]
  distance:    0.0283539
  band:
  - # 1
    frequency:   -4.1817255936
  - # 2
    frequency:   -4.1452883056
  - # 3
    frequency:   -2.6914908426
  - # 4
    frequency:   -1.7597359361
  - # 5
    frequency:   -1.1906818856
  - # 6
    frequency:   -0.8228488643
  - # 7
    frequency:    0.4530243428
  - # 8
    frequency:    0.8619606048
  - # 9
    frequency:    1.6983754963
  - # 10
    frequency:    2.2443783188
  - # 11
    frequency:    5.9783201563
  - # 12
    frequency:    6.0199961696
  - # 13
    frequency:    6.8609391610
  - # 14
    frequency:    8.6502634744
  - # 15
    frequency:    8.6827921865
  - # 16
    frequency:   10.3148006286
  - # 17
    frequency:   14.1194116354
  - # 18
    frequency:   14.1474839403
  - # 19
    frequency:   15.2647714631
  - # 20
    frequency:   16.3472315015
  - # 21
    frequency:   16.7800828754
  - # 22
    frequency:   16.8306818415
  - # 23
    frequency:   38.0035217474
  - # 24
    frequency:   68.9182062593

- q-position: [    0.0808081,    0.0000000,    0.0000000 ]
  distance:    0.0302441
  band:
  - # 1
    frequency:   -3.9079307104
  - # 2
    frequency:   -3.8689768901
  - # 3
    frequency:   -2.8503273243
  - # 4
    frequency:   -1.8650323646
  - # 5
    frequency:   -1.1340189538
  - # 6
    frequency:   -0.7782423329
  - # 7
    frequency:    0.4955997883
  - # 8
    frequency:    0.9888579517
  - # 9
    frequency:    1.8099094741
  - # 10
    frequency:    2.3535633064
  - # 11
    frequency:    6.0299779125
  - # 12
    frequency:    6.0984734688
  - # 13
    frequency:    6.9157916758
  - # 14
    frequency:    8.6741037915
  - # 15
    frequency:    8.7041122703
  - # 16
    frequency:   10.3488030385
  - # 17
    frequency:   14.1723893693
  - # 18
    frequency:   14.2044335459
  - # 19
    frequency:   15.3028031219
  - # 20
    frequency:   16.3576540748
  - # 21
    frequency:   16.7829004574
  - # 22
    frequency:   16.8396246489
  - # 23
    frequency:   38.0066791155
  - # 24
    frequency:   68.8767915956

- q-position: [    0.0858586,    0.0000000,    0.0000000 ]
  distance:    0.0321344
  band:
  - # 1
    frequency:   -3.6121640806
  - # 2
    frequency:   -3.5706553799
  - # 3
    frequency:   -3.0052524246
  - # 4
    frequency:   -1.9679868983
  - # 5
    frequency:   -1.0591727388
  - # 6
    frequency:   -0.7279096578
  - # 7
    frequency:    0.5381517609
  - # 8
    frequency:    1.1085211769
  - # 9
    frequency:    1.9209635956
  - # 10
    frequency:    2.4639754706
  - # 11
    frequency:    6.0789354412
  - # 12
    frequency:    6.1808028787
  - # 13
    frequency:    6.9783194453
  - # 14
    frequency:    8.6992976166
  - # 15
    frequency:    8.7248612084
  - # 16
    frequency:   10.3835182068
  - # 17
    frequency:   14.2248702526
  - # 18
    frequency:   14.2610757977
  - # 19
    frequency:   15.3405605359
  - # 20
    frequency:   16.3695181778
  - # 21
    frequency:   16.7858030142
  - # 22
    frequency:   16.8488788030
  - # 23
    frequency:   38.0099342653
  - # 24
    frequency:   68.8333644888

- q-position: [    0.0909091,    0.0000000,    0.0000000 ]
  distance:    0.0340247
  band:
  - # 1
    frequency:   -3.2920497254
  - # 2
    frequency:   -3.2477703883
  - # 3
    frequency:   -3.1560572045
  - # 4
    frequency:   -2.0684834660
  - # 5
    frequency:   -0.9602565652
  - # 6
    frequency:   -0.6699176461
  - # 7
    frequency:    0.5808397395
  - # 8
    frequency:    1.2234125384
  - # 9
    frequency:    2.0317708844
  - # 10
    frequency:    2.5757962980
  - # 11
    frequency:    6.1249141389
  - # 12
    frequency:    6.2668044406
  - # 13
    frequency:    7.0484190594
  - # 14
    frequency:    8.7258649838
  - # 15
    frequency:    8.7447633559
  - # 16
    frequency:   10.4187383224
  - # 17
    frequency:   14.2763193539
  - # 18
    frequency:   14.3168446424
  - # 19
    frequency:   15.3775717437
  - # 20
    frequency:   16.3829692024
  - # 21
    frequency:   16.7887758593
  - # 22
    frequency:   16.8584132233
  - # 23
    frequency:   38.0132705188
  - # 24
    frequency:   68.7880357470

- q-position: [    0.0959596,    0.0000000,    0.0000000 ]
  distance:    0.0359149
  band:
  - # 1
    frequency:   -3.3025890286
  - # 2
    frequency:   -2.9438654705
  - # 3
    frequency:   -2.8965041491
  - # 4
    frequency:   -2.1664095147
  - # 5
    frequency:   -0.8250826247
  - # 6
    frequency:   -0.6006739659
  - # 7
    frequency:    0.6237976660
  - # 8
    frequency:    1.3354336849
  - # 9
    frequency:    2.1427283782
  - # 10
    frequency:    2.6891257387
  - # 11
    frequency:    6.1679067396
  - # 12
    frequency:    6.3562558642
  - # 13
    frequency:    7.1256699278
  - # 14
    frequency:    8.7538399458
  - # 15
    frequency:    8.7635493032
  - # 16
    frequency:   10.4542570735
  - # 17
    frequency:   14.3262117384
  - # 18
    frequency:   14.3711844160
  - # 19
    frequency:   15.4133671047
  - # 20
    frequency:   16.3981472551
  - # 21
    frequency:   16.7918045217
  - # 22
    frequency:   16.8681982678
  - # 23
    frequency:   38.0166710856
  - # 24
    frequency:   68.7409192526

- q-position: [    0.1010101,    0.0000000,    0.0000000 ]
  distance:    0.0378052
  band:
  - # 1
    frequency:   -3.4446153222
  - # 2
    frequency:   -2.5615403030
  - # 3
    frequency:   -2.5116106608
  - # 4
    frequency:   -2.2616559082
  - # 5
    frequency:   -0.6207468985
  - # 6
    frequency:   -0.5121784147
  - # 7
    frequency:    0.6671868084
  - # 8
    frequency:    1.4465540881
  - # 9
    frequency:    2.2544636175
  - # 10
    frequency:    2.8039768396
  - # 11
    frequency:    6.2081341927
  - # 12
    frequency:    6.4488743525
  - # 13
    frequency:    7.2093746953
  - # 14
    frequency:    8.7809591378
  - # 15
    frequency:    8.7832711060
  - # 16
    frequency:   10.4898699998
  - # 17
    frequency:   14.3740340060
  - # 18
    frequency:   14.4235544424
  - # 19
    frequency:   15.4474944886
  - # 20
    frequency:   16.4151765714
  - # 21
    frequency:   16.7948749454
  - # 22
    frequency:   16.8782057044
  - # 23
    frequency:   38.0201191958
  - # 24
    frequency:   68.6921314188

- q-position: [    0.1060606,    0.0000000,    0.0000000 ]
  distance:    0.0396954
  band:
  - # 1
    frequency:   -3.5819789243
  - # 2
    frequency:   -2.3541238858
  - # 3
    frequency:   -2.1347145221
  - # 4
    frequency:   -2.0870767870
  - # 5
    frequency:   -0.3797492657
  - # 6
    frequency:   -0.0855046374
  - # 7
    frequency:    0.7114578923
  - # 8
    frequency:    1.5596583944
  - # 9
    frequency:    2.3679235029
  - # 10
    frequency:    2.9202706080
  - # 11
    frequency:    6.2459763380
  - # 12
    frequency:    6.5442982942
  - # 13
    frequency:    7.2986286178
  - # 14
    frequency:    8.7967460032
  - # 15
    frequency:    8.8142214262
  - # 16
    frequency:   10.5253746197
  - # 17
    frequency:   14.4192849782
  - # 18
    frequency:   14.4734333031
  - # 19
    frequency:   15.4795372528
  - # 20
    frequency:   16.4341525740
  - # 21
    frequency:   16.7979736889
  - # 22
    frequency:   16.8884086267
  - # 23
    frequency:   38.0235982313
  - # 24
    frequency:   68.6417906409

- q-position: [    0.1111111,    0.0000000,    0.0000000 ]
  distance:    0.0415857
  band:
  - # 1
    frequency:   -3.7145094622
  - # 2
    frequency:   -2.4437037455
  - # 3
    frequency:   -1.6460139516
  - # 4
    frequency:   -1.6231456916
  - # 5
    frequency:    0.1540518265
  - # 6
    frequency:    0.7077553865
  - # 7
    frequency:    0.7695876185
  - # 8
    frequency:    1.6805648495
  - # 9
    frequency:    2.4844732664
  - # 10
    frequency:    3.0378323459
  - # 11
    frequency:    6.2818992968
  - # 12
    frequency:    6.6420712841
  - # 13
    frequency:    7.3923955408
  - # 14
    frequency:    8.8106800729
  - # 15
    frequency:    8.8467670112
  - # 16
    frequency:   10.5605704108
  - # 17
    frequency:   14.4614757273
  - # 18
    frequency:   14.5203227734
  - # 19
    frequency:   15.5091336296
  - # 20
    frequency:   16.4551277400
  - # 21
    frequency:   16.8010881184
  - # 22
    frequency:   16.8987813313
  - # 23
    frequency:   38.0270918567
  - # 24
    frequency:   68.5900167473

- q-position: [    0.1161616,    0.0000000,    0.0000000 ]
  distance:    0.0434760
  band:
  - # 1
    frequency:   -3.8420456170
  - # 2
    frequency:   -2.5303072149
  - # 3
    frequency:   -1.1464654639
  - # 4
    frequency:   -1.0892051918
  - # 5
    frequency:    0.6175724663
  - # 6
    frequency:    0.7958624059
  - # 7
    frequency:    1.1441979774
  - # 8
    frequency:    1.8239673834
  - # 9
    frequency:    2.6059461181
  - # 10
    frequency:    3.1563912064
  - # 11
    frequency:    6.3163960387
  - # 12
    frequency:    6.7416314146
  - # 13
    frequency:    7.4895741708
  - # 14
    frequency:    8.8225531010
  - # 15
    frequency:    8.8809945073
  - # 16
    frequency:   10.5952587417
  - # 17
    frequency:   14.5001292688
  - # 18
    frequency:   14.5637514282
  - # 19
    frequency:   15.5359952949
  - # 20
    frequency:   16.4780981846
  - # 21
    frequency:   16.8042065844
  - # 22
    frequency:   16.9092991776
  - # 23
    frequency:   38.0305841479
  - # 24
    frequency:   68.5369304519

- q-position: [    0.1212121,    0.0000000,    0.0000000 ]
  distance:    0.0453662
  band:
  - # 1
    frequency:   -3.9644346770
  - # 2
    frequency:   -2.6138432622
  - # 3
    frequency:   -0.6750727014
  - # 4
    frequency:   -0.6342499430
  - # 5
    frequency:    0.8416341973
  - # 6
    frequency:    1.1462825501
  - # 7
    frequency:    1.4948302568
  - # 8
    frequency:    2.0238095533
  - # 9
    frequency:    2.7344746461
  - # 10
    frequency:    3.2755855027
  - # 11
    frequency:    6.3499464282
  - # 12
    frequency:    6.8423088055
  - # 13
    frequency:    7.5890479369
  - # 14
    frequency:    8.8321837953
  - # 15
    frequency:    8.9169967055
  - # 16
    frequency:   10.6292428715
  - # 17
    frequency:   14.5347803765
  - # 18
    frequency:   14.6032779335
  - # 19
    frequency:   15.5599223325
  - # 20
    frequency:   16.5029932932
  - # 21
    frequency:   16.8073185721
  - # 22
    frequency:   16.9199384517
  - # 23
    frequency:   38.0340597168
  - # 24
    frequency:   68.4826528131

- q-position: [    0.1262626,    0.0000000,    0.0000000 ]
  distance:    0.0472565
  band:
  - # 1
    frequency:   -4.0815326870
  - # 2
    frequency:   -2.6942270622
  - # 3
    frequency:   -0.3569050582
  - # 4
    frequency:    0.3535146553
  - # 5
    frequency:    0.8872671785
  - # 6
    frequency:    1.6016086942
  - # 7
    frequency:    1.7228942347
  - # 8
    frequency:    2.2975832217
  - # 9
    frequency:    2.8718027037
  - # 10
    frequency:    3.3949773436
  - # 11
    frequency:    6.3829954358
  - # 12
    frequency:    6.9433337389
  - # 13
    frequency:    7.6897187328
  - # 14
    frequency:    8.8394243983
  - # 15
    frequency:    8.9548659482
  - # 16
    frequency:   10.6623281416
  - # 17
    frequency:   14.5649761076
  - # 18
    frequency:   14.6384940389
  - # 19
    frequency:   15.5808118782
  - # 20
    frequency:   16.5296705576
  - # 21
    frequency:   16.8104148146
  - # 22
    frequency:   16.9306762584
  - # 23
    frequency:   38.0375038317
  - # 24
    frequency:   68.4273047021

- q-position: [    0.1313131,    0.0000000,    0.0000000 ]
  distance:    0.0491467
  band:
  - # 1
    frequency:   -4.1932046331
  - # 2
    frequency:   -2.7713791951
  - # 3
    frequency:    0.1697533926
  - # 4
    frequency:    0.7693208447
  - # 5
    frequency:    0.9337698790
  - # 6
    frequency:    1.8696761474
  - # 7
    frequency:    1.9309854167
  - # 8
    frequency:    2.5922648366
  - # 9
    frequency:    3.0179563606
  - # 10
    frequency:    3.5140812562
  - # 11
    frequency:    6.4159448554
  - # 12
    frequency:    7.0438565109
  - # 13
    frequency:    7.7905275041
  - # 14
    frequency:    8.8441691216
  - # 15
    frequency:    8.9946850436
  - # 16
    frequency:   10.6943224808
  - # 17
    frequency:   14.5902777063
  - # 18
    frequency:   14.6690272968
  - # 19
    frequency:   15.5986585311
  - # 20
    frequency:   16.5579168922
  - # 21
    frequency:   16.8134873590
  - # 22
    frequency:   16.9414904629
  - # 23
    frequency:   38.0409025312
  - # 24
    frequency:   68.3710062841

- q-position: [    0.1363636,    0.0000000,    0.0000000 ]
  distance:    0.0510370
  band:
  - # 1
    frequency:   -4.2993246127
  - # 2
    frequency:   -2.8452257222
  - # 3
    frequency:    0.3915878623
  - # 4
    frequency:    0.9727770009
  - # 5
    frequency:    1.0158962607
  - # 6
    frequency:    1.9842164076
  - # 7