nqpoint: 300    
npath: 3      
segment_nqpoint:
- 100
- 100
- 100
labels:
- [ 'G', 'M' ]
- [ 'M', 'K' ]
- [ 'K', 'G' ]
reciprocal_lattice:
- [   0.28594051,   0.16508783,   0.00000000 ] # a*
- [   0.00000000,   0.33017566,   0.00000000 ] # b*
- [   0.00000000,   0.00000000,   0.03603730 ] # c*
natom: 8      
lattice:
- [     3.497230977531959,     0.000000000000000,     0.000000000000000 ] # a
- [    -1.748615488765980,     3.028690869440826,     0.000000000000000 ] # b
- [     0.000000000000000,     0.000000000000000,    27.749028523036475 ] # c
points:
- symbol: C # 1
  coordinates: [  0.000000000000000,  0.000000000000000,  0.529338354039796 ]
  mass: 12.010700
- symbol: C # 2
  coordinates: [  0.666666984744047,  0.333332985985145,  0.367234525620011 ]
  mass: 12.010700
- symbol: Cl # 3
  coordinates: [  0.333332985432215,  0.666666983183674,  0.675664321274222 ]
  mass: 35.453000
- symbol: N # 4
  coordinates: [  0.666666984744047,  0.333332985985145,  0.324335678725778 ]
  mass: 14.006700
- symbol: O # 5
  coordinates: [  0.333332985432215,  0.666666983183674,  0.612100616743236 ]
  mass: 15.999400
- symbol: S # 6
  coordinates: [  0.666666984744047,  0.333332985985145,  0.427473744209180 ]
  mass: 32.065000
- symbol: Sc # 7
  coordinates: [  0.333332985432215,  0.666666983183674,  0.486617950713321 ]
  mass: 44.955912
- symbol: Sc # 8
  coordinates: [  0.666666984744047,  0.333332985985145,  0.575233871439852 ]
  mass: 44.955912

phonon:
- q-position: [    0.0000000,    0.0000000,    0.0000000 ]
  distance:    0.0000000
  band:
  - # 1
    frequency:   -1.4120425633
  - # 2
    frequency:   -1.4120425633
  - # 3
    frequency:   -0.0000117965
  - # 4
    frequency:   -0.0000002106
  - # 5
    frequency:    0.0000088047
  - # 6
    frequency:    0.4783206303
  - # 7
    frequency:    0.4783206303
  - # 8
    frequency:    3.5880126344
  - # 9
    frequency:    3.5880126345
  - # 10
    frequency:    4.4091214897
  - # 11
    frequency:    6.3519039355
  - # 12
    frequency:    6.3519039355
  - # 13
    frequency:    7.2274385832
  - # 14
    frequency:    8.0925337782
  - # 15
    frequency:    8.0925337782
  - # 16
    frequency:   10.3680046900
  - # 17
    frequency:   10.3680046900
  - # 18
    frequency:   10.7321184956
  - # 19
    frequency:   11.0428979678
  - # 20
    frequency:   11.0428979678
  - # 21
    frequency:   13.6842937923
  - # 22
    frequency:   17.9330572600
  - # 23
    frequency:   21.1820664846
  - # 24
    frequency:   65.1248337695

- q-position: [    0.0050505,    0.0000000,    0.0000000 ]
  distance:    0.0016676
  band:
  - # 1
    frequency:   -1.4110885710
  - # 2
    frequency:   -1.4083142974
  - # 3
    frequency:   -0.0020111111
  - # 4
    frequency:    0.0022333331
  - # 5
    frequency:    0.1151872483
  - # 6
    frequency:    0.4842140588
  - # 7
    frequency:    0.4888006802
  - # 8
    frequency:    3.5881610102
  - # 9
    frequency:    3.5895635570
  - # 10
    frequency:    4.4091150790
  - # 11
    frequency:    6.3517771807
  - # 12
    frequency:    6.3520937711
  - # 13
    frequency:    7.2281336904
  - # 14
    frequency:    8.0925978702
  - # 15
    frequency:    8.0945869436
  - # 16
    frequency:   10.3680300895
  - # 17
    frequency:   10.3684975559
  - # 18
    frequency:   10.7315689195
  - # 19
    frequency:   11.0428100776
  - # 20
    frequency:   11.0469984801
  - # 21
    frequency:   13.6846836902
  - # 22
    frequency:   17.9319505361
  - # 23
    frequency:   21.1820053943
  - # 24
    frequency:   65.1247548851

- q-position: [    0.0101010,    0.0000000,    0.0000000 ]
  distance:    0.0033351
  band:
  - # 1
    frequency:   -1.4082269149
  - # 2
    frequency:   -1.3971712425
  - # 3
    frequency:    0.0089127068
  - # 4
    frequency:    0.0162718326
  - # 5
    frequency:    0.2220452516
  - # 6
    frequency:    0.5011816306
  - # 7
    frequency:    0.5227490880
  - # 8
    frequency:    3.5886066909
  - # 9
    frequency:    3.5941928782
  - # 10
    frequency:    4.4091014070
  - # 11
    frequency:    6.3514033866
  - # 12
    frequency:    6.3526627786
  - # 13
    frequency:    7.2302132379
  - # 14
    frequency:    8.0927886039
  - # 15
    frequency:    8.1006936564
  - # 16
    frequency:   10.3681055210
  - # 17
    frequency:   10.3699369401
  - # 18
    frequency:   10.7299870821
  - # 19
    frequency:   11.0425463126
  - # 20
    frequency:   11.0592782152
  - # 21
    frequency:   13.6858536594
  - # 22
    frequency:   17.9286321537
  - # 23
    frequency:   21.1818222280
  - # 24
    frequency:   65.1245183428

- q-position: [    0.0151515,    0.0000000,    0.0000000 ]
  distance:    0.0050027
  band:
  - # 1
    frequency:   -1.4034584487
  - # 2
    frequency:   -1.3787285466
  - # 3
    frequency:    0.0200830586
  - # 4
    frequency:    0.0384935969
  - # 5
    frequency:    0.3113740009
  - # 6
    frequency:    0.5274685330
  - # 7
    frequency:    0.5860234384
  - # 8
    frequency:    3.5893513273
  - # 9
    frequency:    3.6018308499
  - # 10
    frequency:    4.4090972256
  - # 11
    frequency:    6.3508018375
  - # 12
    frequency:    6.3536094510
  - # 13
    frequency:    7.2336601491
  - # 14
    frequency:    8.0931013419
  - # 15
    frequency:    8.1106980857
  - # 16
    frequency:   10.3682286828
  - # 17
    frequency:   10.3722085085
  - # 18
    frequency:   10.7275514538
  - # 19
    frequency:   11.0421064118
  - # 20
    frequency:   11.0796889723
  - # 21
    frequency:   13.6878045202
  - # 22
    frequency:   17.9231074811
  - # 23
    frequency:   21.1815172989
  - # 24
    frequency:   65.1241244747

- q-position: [    0.0202020,    0.0000000,    0.0000000 ]
  distance:    0.0066702
  band:
  - # 1
    frequency:   -1.3967842342
  - # 2
    frequency:   -1.3531456048
  - # 3
    frequency:    0.0357771851
  - # 4
    frequency:    0.0662818421
  - # 5
    frequency:    0.3797846754
  - # 6
    frequency:    0.5610264806
  - # 7
    frequency:    0.6797166080
  - # 8
    frequency:    3.5903976373
  - # 9
    frequency:    3.6123631487
  - # 10
    frequency:    4.4091306913
  - # 11
    frequency:    6.3500042565
  - # 12
    frequency:    6.3549312475
  - # 13
    frequency:    7.2384467586
  - # 14
    frequency:    8.0935283189
  - # 15
    frequency:    8.1243487810
  - # 16
    frequency:   10.3683957322
  - # 17
    frequency:   10.3751322739
  - # 18
    frequency:   10.7245003995
  - # 19
    frequency:   11.0414900140
  - # 20
    frequency:   11.1081933970
  - # 21
    frequency:   13.6905376211
  - # 22
    frequency:   17.9153854664
  - # 23
    frequency:   21.1810911281
  - # 24
    frequency:   65.1235738334

- q-position: [    0.0252525,    0.0000000,    0.0000000 ]
  distance:    0.0083378
  band:
  - # 1
    frequency:   -1.3882050109
  - # 2
    frequency:   -1.3205813489
  - # 3
    frequency:    0.0560173090
  - # 4
    frequency:    0.0979755491
  - # 5
    frequency:    0.4339832981
  - # 6
    frequency:    0.6000373943
  - # 7
    frequency:    0.7953049899
  - # 8
    frequency:    3.5917493569
  - # 9
    frequency:    3.6256336117
  - # 10
    frequency:    4.4092417104
  - # 11
    frequency:    6.3490541931
  - # 12
    frequency:    6.3566245503
  - # 13
    frequency:    7.2445359222
  - # 14
    frequency:    8.0940585899
  - # 15
    frequency:    8.1413106149
  - # 16
    frequency:   10.3686012784
  - # 17
    frequency:   10.3784769122
  - # 18
    frequency:   10.7210805674
  - # 19
    frequency:   11.0406967663
  - # 20
    frequency:   11.1447943322
  - # 21
    frequency:   13.6940548211
  - # 22
    frequency:   17.9054786384
  - # 23
    frequency:   21.1805444431
  - # 24
    frequency:   65.1228671913

- q-position: [    0.0303030,    0.0000000,    0.0000000 ]
  distance:    0.0100053
  band:
  - # 1
    frequency:   -1.3777204718
  - # 2
    frequency:   -1.2811401937
  - # 3
    frequency:    0.0808223319
  - # 4
    frequency:    0.1322670436
  - # 5
    frequency:    0.4819571185
  - # 6
    frequency:    0.6430815113
  - # 7
    frequency:    0.9232582405
  - # 8
    frequency:    3.5934111719
  - # 9
    frequency:    3.6414477935
  - # 10
    frequency:    4.4094824013
  - # 11
    frequency:    6.3480061954
  - # 12
    frequency:    6.3586846041
  - # 13
    frequency:    7.2518824235
  - # 14
    frequency:    8.0946779584
  - # 15
    frequency:    8.1611805692
  - # 16
    frequency:   10.3688383714
  - # 17
    frequency:   10.3819768949
  - # 18
    frequency:   10.7175146726
  - # 19
    frequency:   11.0397264735
  - # 20
    frequency:   11.1895395090
  - # 21
    frequency:   13.6983584839
  - # 22
    frequency:   17.8934031102
  - # 23
    frequency:   21.1798781751
  - # 24
    frequency:   65.1220055383

- q-position: [    0.0353535,    0.0000000,    0.0000000 ]
  distance:    0.0116729
  band:
  - # 1
    frequency:   -1.3653283619
  - # 2
    frequency:   -1.2348165433
  - # 3
    frequency:    0.1102297455
  - # 4
    frequency:    0.1682177283
  - # 5
    frequency:    0.5280434927
  - # 6
    frequency:    0.6891061994
  - # 7
    frequency:    1.0578948418
  - # 8
    frequency:    3.5953886316
  - # 9
    frequency:    3.6595771347
  - # 10
    frequency:    4.4099176404
  - # 11
    frequency:    6.3469247976
  - # 12
    frequency:    6.3611054410
  - # 13
    frequency:    7.2604345590
  - # 14
    frequency:    8.0953688903
  - # 15
    frequency:    8.1835064185
  - # 16
    frequency:   10.3690984911
  - # 17
    frequency:   10.3853500458
  - # 18
    frequency:   10.7139904528
  - # 19
    frequency:   11.0385792838
  - # 20
    frequency:   11.2425029332
  - # 21
    frequency:   13.7034515054
  - # 22
    frequency:   17.8791785841
  - # 23
    frequency:   21.1790934569
  - # 24
    frequency:   65.1209900800

- q-position: [    0.0404040,    0.0000000,    0.0000000 ]
  distance:    0.0133404
  band:
  - # 1
    frequency:   -1.3510234139
  - # 2
    frequency:   -1.1814450999
  - # 3
    frequency:    0.1443290430
  - # 4
    frequency:    0.2051744932
  - # 5
    frequency:    0.5740423309
  - # 6
    frequency:    0.7373382824
  - # 7
    frequency:    1.1962366655
  - # 8
    frequency:    3.5976880460
  - # 9
    frequency:    3.6797635494
  - # 10
    frequency:    4.4106256404
  - # 11
    frequency:    6.3458833614
  - # 12
    frequency:    6.3638797894
  - # 13
    frequency:    7.2701357869
  - # 14
    frequency:    8.0961104146
  - # 15
    frequency:    8.2078071182
  - # 16
    frequency:   10.3693715373
  - # 17
    frequency:   10.3883133089
  - # 18
    frequency:   10.7106631354
  - # 19
    frequency:   11.0372559077
  - # 20
    frequency:   11.3037537618
  - # 21
    frequency:   13.7093374050
  - # 22
    frequency:   17.8628283600
  - # 23
    frequency:   21.1781916190
  - # 24
    frequency:   65.1198222352

- q-position: [    0.0454545,    0.0000000,    0.0000000 ]
  distance:    0.0150080
  band:
  - # 1
    frequency:   -1.3347961328
  - # 2
    frequency:   -1.1206614078
  - # 3
    frequency:    0.1833085569
  - # 4
    frequency:    0.2426861808
  - # 5
    frequency:    0.6206075656
  - # 6
    frequency:    0.7872021138
  - # 7
    frequency:    1.3365996119
  - # 8
    frequency:    3.6003163670
  - # 9
    frequency:    3.7017243012
  - # 10
    frequency:    4.4116984699
  - # 11
    frequency:    6.3449628159
  - # 12
    frequency:    6.3669989700
  - # 13
    frequency:    7.2809263414
  - # 14
    frequency:    8.0968780153
  - # 15
    frequency:    8.2335935361
  - # 16
    frequency:   10.3696458213
  - # 17
    frequency:   10.3905952568
  - # 18
    frequency:   10.7076631315
  - # 19
    frequency:   11.0357578637
  - # 20
    frequency:   11.3733234774
  - # 21
    frequency:   13.7160205193
  - # 22
    frequency:   17.8443793497
  - # 23
    frequency:   21.1771741860
  - # 24
    frequency:   65.1185036329

- q-position: [    0.0505051,    0.0000000,    0.0000000 ]
  distance:    0.0166755
  band:
  - # 1
    frequency:   -1.3166314328
  - # 2
    frequency:   -1.0518749465
  - # 3
    frequency:    0.2275237005
  - # 4
    frequency:    0.2804399069
  - # 5
    frequency:    0.6679241561
  - # 6
    frequency:    0.8382584748
  - # 7
    frequency:    1.4779042481
  - # 8
    frequency:    3.6032810562
  - # 9
    frequency:    3.7251571377
  - # 10
    frequency:    4.4132423757
  - # 11
    frequency:    6.3442503384
  - # 12
    frequency:    6.3704527789
  - # 13
    frequency:    7.2927447336
  - # 14
    frequency:    8.0976435198
  - # 15
    frequency:    8.2603881198
  - # 16
    frequency:   10.3699080645
  - # 17
    frequency:   10.3919449080
  - # 18
    frequency:   10.7051035641
  - # 19
    frequency:   11.0340877452
  - # 20
    frequency:   11.4511782379
  - # 21
    frequency:   13.7235063534
  - # 22
    frequency:   17.8238620968
  - # 23
    frequency:   21.1760428718
  - # 24
    frequency:   65.1170361085

- q-position: [    0.0555556,    0.0000000,    0.0000000 ]
  distance:    0.0183431
  band:
  - # 1
    frequency:   -1.2965071166
  - # 2
    frequency:   -0.9742609171
  - # 3
    frequency:    0.2775998788
  - # 4
    frequency:    0.3182166072
  - # 5
    frequency:    0.7159943704
  - # 6
    frequency:    0.8901626483
  - # 7
    frequency:    1.6193784726
  - # 8
    frequency:    3.6065899404
  - # 9
    frequency:    3.7497457932
  - # 10
    frequency:    4.4153777030
  - # 11
    frequency:    6.3438380154
  - # 12
    frequency:    6.3742293606
  - # 13
    frequency:    7.3055290887
  - # 14
    frequency:    8.0983749882
  - # 15
    frequency:    8.2877422013
  - # 16
    frequency:   10.3701434045
  - # 17
    frequency:   10.3921373663
  - # 18
    frequency:   10.7030851204
  - # 19
    frequency:   11.0322495010
  - # 20
    frequency:   11.5371993313
  - # 21
    frequency:   13.7318021655
  - # 22
    frequency:   17.8013108070
  - # 23
    frequency:   21.1747995744
  - # 24
    frequency:   65.1154217003

- q-position: [    0.0606061,    0.0000000,    0.0000000 ]
  distance:    0.0200106
  band:
  - # 1
    frequency:   -1.2743921702
  - # 2
    frequency:   -0.8867943738
  - # 3
    frequency:    0.3345828085
  - # 4
    frequency:    0.3558609606
  - # 5
    frequency:    0.7647593744
  - # 6
    frequency:    0.9426365371
  - # 7
    frequency:    1.7604247041
  - # 8
    frequency:    3.6102510576
  - # 9
    frequency:    3.7751661320
  - # 10
    frequency:    4.4182381227
  - # 11
    frequency:    6.3438215125
  - # 12
    frequency:    6.3783150700
  - # 13
    frequency:    7.3192182898
  - # 14
    frequency:    8.0990366098
  - # 15
    frequency:    8.3152499095
  - # 16
    frequency:   10.3703354147
  - # 17
    frequency:   10.3909772833
  - # 18
    frequency:   10.7016976309
  - # 19
    frequency:   11.0302487204
  - # 20
    frequency:   11.6311719877
  - # 21
    frequency:   13.7409178876
  - # 22
    frequency:   17.7767633902
  - # 23
    frequency:   21.1734463705
  - # 24
    frequency:   65.1136626452

- q-position: [    0.0656566,    0.0000000,    0.0000000 ]
  distance:    0.0216782
  band:
  - # 1
    frequency:   -1.2502448192
  - # 2
    frequency:   -0.7883879914
  - # 3
    frequency:    0.3932611971
  - # 4
    frequency:    0.4001161473
  - # 5
    frequency:    0.8141544833
  - # 6
    frequency:    0.9954502669
  - # 7
    frequency:    1.9005540984
  - # 8
    frequency:    3.6142724962
  - # 9
    frequency:    3.8010933763
  - # 10
    frequency:    4.4219687969
  - # 11
    frequency:    6.3442987702
  - # 12
    frequency:    6.3826943278
  - # 13
    frequency:    7.3337529186
  - # 14
    frequency:    8.0995886128
  - # 15
    frequency:    8.3425580475
  - # 16
    frequency:   10.3704661397
  - # 17
    frequency:   10.3883010727
  - # 18
    frequency:   10.7010188921
  - # 19
    frequency:   11.0280929141
  - # 20
    frequency:   11.7327813596
  - # 21
    frequency:   13.7508675332
  - # 22
    frequency:   17.7502615192
  - # 23
    frequency:   21.1719855092
  - # 24
    frequency:   65.1117613736

- q-position: [    0.0707071,    0.0000000,    0.0000000 ]
  distance:    0.0233458
  band:
  - # 1
    frequency:   -1.2240102623
  - # 2
    frequency:   -0.6782078726
  - # 3
    frequency:    0.4303355076
  - # 4
    frequency:    0.4764703790
  - # 5
    frequency:    0.8641401900
  - # 6
    frequency:    1.0484100022
  - # 7
    frequency:    2.0393487876
  - # 8
    frequency:    3.6186622292
  - # 9
    frequency:    3.8272110175
  - # 10
    frequency:    4.4267230496
  - # 11
    frequency:    6.3453687303
  - # 12
    frequency:    6.3873494689
  - # 13
    frequency:    7.3490759975
  - # 14
    frequency:    8.0999871939
  - # 15
    frequency:    8.3693717422
  - # 16
    frequency:   10.3705161544
  - # 17
    frequency:   10.3839783404
  - # 18
    frequency:   10.7011118678
  - # 19
    frequency:   11.0257917792
  - # 20
    frequency:   11.8416138630
  - # 21
    frequency:   13.7616713083
  - # 22
    frequency:   17.7218507084
  - # 23
    frequency:   21.1704194053
  - # 24
    frequency:   65.1097205049

- q-position: [    0.0757576,    0.0000000,    0.0000000 ]
  distance:    0.0250133
  band:
  - # 1
    frequency:   -1.1956179471
  - # 2
    frequency:   -0.5558706243
  - # 3
    frequency:    0.4670228336
  - # 4
    frequency:    0.5658376150
  - # 5
    frequency:    0.9147312116
  - # 6
    frequency:    1.1013497918
  - # 7
    frequency:    2.1764364107
  - # 8
    frequency:    3.6234279472
  - # 9
    frequency:    3.8532220895
  - # 10
    frequency:    4.4326571363
  - # 11
    frequency:    6.3471300877
  - # 12
    frequency:    6.3922605849
  - # 13
    frequency:    7.3651335467
  - # 14
    frequency:    8.1001844756
  - # 15
    frequency:    8.3954560990
  - # 16
    frequency:   10.3704646503
  - # 17
    frequency:   10.3779124597
  - # 18
    frequency:   10.7020216361
  - # 19
    frequency:   11.0233574370
  - # 20
    frequency:   11.9571618823
  - # 21
    frequency:   13.7733587543
  - # 22
    frequency:   17.6915804205
  - # 23
    frequency:   21.1687506319
  - # 24
    frequency:   65.1075428414

- q-position: [    0.0808081,    0.0000000,    0.0000000 ]
  distance:    0.0266809
  band:
  - # 1
    frequency:   -1.1649781909
  - # 2
    frequency:   -0.4192517347
  - # 3
    frequency:    0.5032765767
  - # 4
    frequency:    0.6682021473
  - # 5
    frequency:    0.9660452020
  - # 6
    frequency:    1.1541260317
  - # 7
    frequency:    2.3114702698
  - # 8
    frequency:    3.6285768927
  - # 9
    frequency:    3.8788634340
  - # 10
    frequency:    4.4399228698
  - # 11
    frequency:    6.3496800537
  - # 12
    frequency:    6.3974053632
  - # 13
    frequency:    7.3818749744
  - # 14
    frequency:    8.1001284992
  - # 15
    frequency:    8.4206344381
  - # 16
    frequency:   10.3700399278
  - # 17
    frequency:   10.3702895562
  - # 18
    frequency:   10.7037733208
  - # 19
    frequency:   11.0208046315
  - # 20
    frequency:   12.0788298005
  - # 21
    frequency:   13.7859734243
  - # 22
    frequency:   17.6595042057
  - # 23
    frequency:   21.1669819131
  - # 24
    frequency:   65.1052313632

- q-position: [    0.0858586,    0.0000000,    0.0000000 ]
  distance:    0.0283484
  band:
  - # 1
    frequency:   -1.1319778541
  - # 2
    frequency:   -0.2498652424
  - # 3
    frequency:    0.5390602702
  - # 4
    frequency:    0.7793481687
  - # 5
    frequency:    1.0184150330
  - # 6
    frequency:    1.2066136344
  - # 7
    frequency:    2.4441119054
  - # 8
    frequency:    3.6341157002
  - # 9
    frequency:    3.9039233363
  - # 10
    frequency:    4.4486582563
  - # 11
    frequency:    6.3531131145
  - # 12
    frequency:    6.4027589226
  - # 13
    frequency:    7.3992533213
  - # 14
    frequency:    8.0997632614
  - # 15
    frequency:    8.4447838982
  - # 16
    frequency:   10.3603282133
  - # 17
    frequency:   10.3699676998
  - # 18
    frequency:   10.7063717830
  - # 19
    frequency:   11.0181508737
  - # 20
    frequency:   12.2059392406
  - # 21
    frequency:   13.7995798903
  - # 22
    frequency:   17.6256798860
  - # 23
    frequency:   21.1651161155
  - # 24
    frequency:   65.1027892214

- q-position: [    0.0909091,    0.0000000,    0.0000000 ]
  distance:    0.0300160
  band:
  - # 1
    frequency:   -1.0964746247
  - # 2
    frequency:    0.1883388093
  - # 3
    frequency:    0.5743445826
  - # 4
    frequency:    0.8923772881
  - # 5
    frequency:    1.0726910886
  - # 6
    frequency:    1.2587033149
  - # 7
    frequency:    2.5740141248
  - # 8
    frequency:    3.6400502428
  - # 9
    frequency:    3.9282624512
  - # 10
    frequency:    4.4589769269
  - # 11
    frequency:    6.3575197680
  - # 12
    frequency:    6.4082936457
  - # 13
    frequency:    7.4172253796
  - # 14
    frequency:    8.0990288039
  - # 15
    frequency:    8.4678292671
  - # 16
    frequency:   10.3487721518
  - # 17
    frequency:   10.3694750168
  - # 18
    frequency:   10.7098032244
  - # 19
    frequency:   11.0154165201
  - # 20
    frequency:   12.3377311577
  - # 21
    frequency:   13.8142743633
  - # 22
    frequency:   17.5901697930
  - # 23
    frequency:   21.1631562398
  - # 24
    frequency:   65.1002197319

- q-position: [    0.0959596,    0.0000000,    0.0000000 ]
  distance:    0.0316835
  band:
  - # 1
    frequency:   -1.0582892455
  - # 2
    frequency:    0.3534176986
  - # 3
    frequency:    0.6091052361
  - # 4
    frequency:    1.0003767842
  - # 5
    frequency:    1.1311045018
  - # 6
    frequency:    1.3102996092
  - # 7
    frequency:    2.7008028776
  - # 8
    frequency:    3.6463854913
  - # 9
    frequency:    3.9518373663
  - # 10
    frequency:    4.4709579304
  - # 11
    frequency:    6.3629852280
  - # 12
    frequency:    6.4139790089
  - # 13
    frequency:    7.4357517052
  - # 14
    frequency:    8.0978613652
  - # 15
    frequency:    8.4897358538
  - # 16
    frequency:   10.3353893276
  - # 17
    frequency:   10.3687868133
  - # 18
    frequency:   10.7140383009
  - # 19
    frequency:   11.0126247711
  - # 20
    frequency:   12.4733618218
  - # 21
    frequency:   13.8302010520
  - # 22
    frequency:   17.5530410770
  - # 23
    frequency:   21.1611054116
  - # 24
    frequency:   65.0975263687

- q-position: [    0.1010101,    0.0000000,    0.0000000 ]
  distance:    0.0333511
  band:
  - # 1
    frequency:   -1.0171946251
  - # 2
    frequency:    0.4600761123
  - # 3
    frequency:    0.6433215595
  - # 4
    frequency:    1.0957328985
  - # 5
    frequency:    1.1989635667
  - # 6
    frequency:    1.3613193730
  - # 7
    frequency:    2.8240564177
  - # 8
    frequency:    3.6531253872
  - # 9
    frequency:    3.9747256837
  - # 10
    frequency:    4.4846381204
  - # 11
    frequency:    6.3695880918
  - # 12
    frequency:    6.4197814084
  - # 13
    frequency:    7.4547965400
  - # 14
    frequency:    8.0961936053
  - # 15
    frequency:    8.5105020883
  - # 16
    frequency:   10.3202150971
  - # 17
    frequency:   10.3678780850
  - # 18
    frequency:   10.7190360386
  - # 19
    frequency:   11.0098015772
  - # 20
    frequency:   12.6118885223
  - # 21
    frequency:   13.8475778271
  - # 22
    frequency:   17.5143661054
  - # 23
    frequency:   21.1589668726
  - # 24
    frequency:   65.0947127568

- q-position: [    0.1060606,    0.0000000,    0.0000000 ]
  distance:    0.0350186
  band:
  - # 1
    frequency:   -0.9729001104
  - # 2
    frequency:    0.5474017631
  - # 3
    frequency:    0.6769754868
  - # 4
    frequency:    1.1722153526
  - # 5
    frequency:    1.2817558108
  - # 6
    frequency:    1.4116905920
  - # 7
    frequency:    2.9432802503
  - # 8
    frequency:    3.6602727324
  - # 9
    frequency:    3.9971513607
  - # 10
    frequency:    4.5000095682
  - # 11
    frequency:    6.3773989793
  - # 12
    frequency:    6.4256639821
  - # 13
    frequency:    7.4743276579
  - # 14
    frequency:    8.0939549126
  - # 15
    frequency:    8.5301523718
  - # 16
    frequency:   10.3032978902
  - # 17
    frequency:   10.3667238976
  - # 18
    frequency:   10.7247478284
  - # 19
    frequency:   11.0069754430
  - # 20
    frequency:   12.7522385460
  - # 21
    frequency:   13.8667372459
  - # 22
    frequency:   17.4742229748
  - # 23
    frequency:   21.1567439700
  - # 24
    frequency:   65.0917826647

- q-position: [    0.1111111,    0.0000000,    0.0000000 ]
  distance:    0.0366862
  band:
  - # 1
    frequency:   -0.9250279789
  - # 2
    frequency:    0.6255140340
  - # 3
    frequency:    0.7100508733
  - # 4
    frequency:    1.2343204661
  - # 5
    frequency:    1.3749620543
  - # 6
    frequency:    1.4613513916
  - # 7
    frequency:    3.0578768692
  - # 8
    frequency:    3.6678290987
  - # 9
    frequency:    4.0195091170
  - # 10
    frequency:    4.5170239310
  - # 11
    frequency:    6.3864791655
  - # 12
    frequency:    6.4315864243
  - # 13
    frequency:    7.4943161454
  - # 14
    frequency:    8.0910718042
  - # 15
    frequency:    8.5487305240
  - # 16
    frequency:   10.2846952357
  - # 17
    frequency:   10.3652998265
  - # 18
    frequency:   10.7311209635
  - # 19
    frequency:   11.0041771214
  - # 20
    frequency:   12.8931510501
  - # 21
    frequency:   13.8881930969
  - # 22
    frequency:   17.4326961712
  - # 23
    frequency:   21.1544401471
  - # 24
    frequency:   65.0887399972

- q-position: [    0.1161616,    0.0000000,    0.0000000 ]
  distance:    0.0383537
  band:
  - # 1
    frequency:   -0.8730768720
  - # 2
    frequency:    0.6986001675
  - # 3
    frequency:    0.7425330430
  - # 4
    frequency:    1.2898396038
  - # 5
    frequency:    1.4710334833
  - # 6
    frequency:    1.5102491711
  - # 7
    frequency:    3.1671111596
  - # 8
    frequency:    3.6757947585
  - # 9
    frequency:    4.0423860172
  - # 10
    frequency:    4.5356045740
  - # 11
    frequency:    6.3968792394
  - # 12
    frequency:    6.4375047916
  - # 13
    frequency:    7.5147361271
  - # 14
    frequency:    8.0874684310
  - # 15
    frequency:    8.5662940243
  - # 16
    frequency:   10.2644707155
  - # 17
    frequency:   10.3635824518
  - # 18
    frequency:   10.7381014348
  - # 19
    frequency:   11.0014391959
  - # 20
    frequency:   13.0330756249
  - # 21
    frequency:   13.9127485860
  - # 22
    frequency:   17.3898774186
  - # 23
    frequency:   21.1520589322
  - # 24
    frequency:   65.0855887874

- q-position: [    0.1212121,    0.0000000,    0.0000000 ]
  distance:    0.0400213
  band:
  - # 1
    frequency:   -0.8163620862
  - # 2
    frequency:    0.7687199525
  - # 3
    frequency:    0.7744085079
  - # 4
    frequency:    1.3424984284
  - # 5
    frequency:    1.5583398127
  - # 6
    frequency:    1.5665552519
  - # 7
    frequency:    3.2700773429
  - # 8
    frequency:    3.6841686380
  - # 9
    frequency:    4.0665746465
  - # 10
    frequency:    4.5556659720
  - # 11
    frequency:    6.4086378374
  - # 12
    frequency:    6.4433712958
  - # 13
    frequency:    7.5355644408
  - # 14
    frequency:    8.0830671968
  - # 15
    frequency:    8.5829091219
  - # 16
    frequency:   10.2426918455
  - # 17
    frequency:   10.3615498991
  - # 18
    frequency:   10.7456359259
  - # 19
    frequency:   10.9987955513
  - # 20
    frequency:   13.1700065240
  - # 21
    frequency:   13.9416671878
  - # 22
    frequency:   17.3458667750
  - # 23
    frequency:   21.1496039288
  - # 24
    frequency:   65.0823331888

- q-position: [    0.1262626,    0.0000000,    0.0000000 ]
  distance:    0.0416888
  band:
  - # 1
    frequency:   -0.7539119245
  - # 2
    frequency:    0.8056648255
  - # 3
    frequency:    0.8369845602
  - # 4
    frequency:    1.3937136015
  - # 5
    frequency:    1.6055869323
  - # 6
    frequency:    1.6604140340
  - # 7
    frequency:    3.3656841575
  - # 8
    frequency:    3.6929482938
  - # 9
    frequency:    4.0930623317
  - # 10
    frequency:    4.5771390811
  - # 11
    frequency:    6.4217805090
  - # 12
    frequency:    6.4491340802
  - # 13
    frequency:    7.5567802702
  - # 14
    frequency:    8.0777895039
  - # 15
    frequency:    8.5986468013
  - # 16
    frequency:   10.2194287562
  - # 17
    frequency:   10.3591824118
  - # 18
    frequency:   10.7536730883
  - # 19
    frequency:   10.9962807430
  - # 20
    frequency:   13.3012446092
  - # 21
    frequency:   13.9769141699
  - # 22
    frequency:   17.3007740483
  - # 23
    frequency:   21.1470788037
  - # 24
    frequency:   65.0789774671

- q-position: [    0.1313131,    0.0000000,    0.0000000 ]
  distance:    0.0433564
  band:
  - # 1
    frequency:   -0.6842728141
  - # 2
    frequency:    0.8362905721
  - # 3
    frequency:    0.9040259994
  - # 4
    frequency:    1.4440724225
  - # 5
    frequency:    1.6519611515
  - # 6
    frequency:    1.7522937357
  - # 7
    frequency:    3.4526927364
  - # 8
    frequency:    3.7021299133
  - # 9
    frequency:    4.1229631765
  - # 10
    frequency:    4.6000013136
  - # 11
    frequency:    6.4363187758
  - # 12
    frequency:    6.4547369734
  - # 13
    frequency:    7.5783647378
  - # 14
    frequency:    8.0715566331
  - # 15
    frequency:    8.6135795350
  - # 16
    frequency:   10.1947534953
  - # 17
    frequency:   10.3564629338
  - # 18
    frequency:   10.7621642433
  - # 19
    frequency:   10.9939292785
  - # 20
    frequency:   13.4231696076
  - # 21
    frequency:   14.0213862501
  - # 22
    frequency:   17.2547206340
  - # 23
    frequency:   21.1444872764
  - # 24
    frequency:   65.0755259923

- q-position: [    0.1363636,    0.0000000,    0.0000000 ]
  distance:    0.0450240
  band:
  - # 1
    frequency:   -0.6051005371
  - # 2
    frequency:    0.8662754283
  - # 3
    frequency:    0.9702128237
  - # 4
    frequency:    1.4938529070
  - # 5
    frequency:    1.6974393796
  - # 6
    frequency:    1.8421510392
  - # 7