nqpoint: 300    
npath: 3      
segment_nqpoint:
- 100
- 100
- 100
labels:
- [ 'G', 'M' ]
- [ 'M', 'K' ]
- [ 'K', 'G' ]
reciprocal_lattice:
- [   0.28594051,   0.16508783,   0.00000000 ] # a*
- [   0.00000000,   0.33017566,   0.00000000 ] # b*
- [   0.00000000,   0.00000000,   0.03603730 ] # c*
natom: 8      
lattice:
- [     3.497230977531959,     0.000000000000000,     0.000000000000000 ] # a
- [    -1.748615488765980,     3.028690869440826,     0.000000000000000 ] # b
- [     0.000000000000000,     0.000000000000000,    27.749028523036475 ] # c
points:
- symbol: C # 1
  coordinates: [  0.000000000000000,  0.000000000000000,  0.529338354039796 ]
  mass: 12.010700
- symbol: C # 2
  coordinates: [  0.666666984744047,  0.333332985985145,  0.367234525620011 ]
  mass: 12.010700
- symbol: Cl # 3
  coordinates: [  0.333332985432215,  0.666666983183674,  0.675664321274222 ]
  mass: 35.453000
- symbol: N # 4
  coordinates: [  0.666666984744047,  0.333332985985145,  0.324335678725778 ]
  mass: 14.006700
- symbol: O # 5
  coordinates: [  0.333332985432215,  0.666666983183674,  0.612100616743236 ]
  mass: 15.999400
- symbol: S # 6
  coordinates: [  0.666666984744047,  0.333332985985145,  0.427473744209180 ]
  mass: 32.065000
- symbol: Sc # 7
  coordinates: [  0.333332985432215,  0.666666983183674,  0.486617950713321 ]
  mass: 44.955912
- symbol: Sc # 8
  coordinates: [  0.666666984744047,  0.333332985985145,  0.575233871439852 ]
  mass: 44.955912

phonon:
- q-position: [    0.0000000,    0.0000000,    0.0000000 ]
  distance:    0.0000000
  band:
  - # 1
    frequency:   -1.4289215518
  - # 2
    frequency:   -1.4289215518
  - # 3
    frequency:   -0.2732132638
  - # 4
    frequency:   -0.2732132638
  - # 5
    frequency:   -0.0000008467
  - # 6
    frequency:    0.0000006841
  - # 7
    frequency:    0.0000016739
  - # 8
    frequency:    3.4276944469
  - # 9
    frequency:    3.4276944469
  - # 10
    frequency:    4.5037593541
  - # 11
    frequency:    6.2818778770
  - # 12
    frequency:    6.2818778770
  - # 13
    frequency:    7.2648898540
  - # 14
    frequency:    7.9060932561
  - # 15
    frequency:    7.9060932561
  - # 16
    frequency:   10.0844589146
  - # 17
    frequency:   10.0844589146
  - # 18
    frequency:   10.7288642826
  - # 19
    frequency:   10.7288642826
  - # 20
    frequency:   10.7678178170
  - # 21
    frequency:   13.8046071879
  - # 22
    frequency:   18.0597130993
  - # 23
    frequency:   21.1893607856
  - # 24
    frequency:   65.1232649984

- q-position: [    0.0050505,    0.0000000,    0.0000000 ]
  distance:    0.0016676
  band:
  - # 1
    frequency:   -1.4282160084
  - # 2
    frequency:   -1.4258021331
  - # 3
    frequency:   -0.2759619466
  - # 4
    frequency:   -0.2697793023
  - # 5
    frequency:   -0.0688647483
  - # 6
    frequency:    0.0744626883
  - # 7
    frequency:    0.1224162803
  - # 8
    frequency:    3.4282277690
  - # 9
    frequency:    3.4296031229
  - # 10
    frequency:    4.5037053638
  - # 11
    frequency:    6.2819667687
  - # 12
    frequency:    6.2822082838
  - # 13
    frequency:    7.2654689350
  - # 14
    frequency:    7.9065453376
  - # 15
    frequency:    7.9096104464
  - # 16
    frequency:   10.0848677812
  - # 17
    frequency:   10.0872179537
  - # 18
    frequency:   10.7289501407
  - # 19
    frequency:   10.7291832258
  - # 20
    frequency:   10.7695450025
  - # 21
    frequency:   13.8046440784
  - # 22
    frequency:   18.0583327134
  - # 23
    frequency:   21.1892882805
  - # 24
    frequency:   65.1231886395

- q-position: [    0.0101010,    0.0000000,    0.0000000 ]
  distance:    0.0033351
  band:
  - # 1
    frequency:   -1.4260960724
  - # 2
    frequency:   -1.4164223637
  - # 3
    frequency:   -0.2816929301
  - # 4
    frequency:   -0.2568301429
  - # 5
    frequency:   -0.0879769424
  - # 6
    frequency:    0.1444056826
  - # 7
    frequency:    0.2181993391
  - # 8
    frequency:    3.4298252358
  - # 9
    frequency:    3.4352915994
  - # 10
    frequency:    4.5035475201
  - # 11
    frequency:    6.2822289330
  - # 12
    frequency:    6.2831974191
  - # 13
    frequency:    7.2672037044
  - # 14
    frequency:    7.9078953987
  - # 15
    frequency:    7.9200516115
  - # 16
    frequency:   10.0860900430
  - # 17
    frequency:   10.0954169418
  - # 18
    frequency:   10.7290183464
  - # 19
    frequency:   10.7301386920
  - # 20
    frequency:   10.7750335392
  - # 21
    frequency:   13.8047577282
  - # 22
    frequency:   18.0541949059
  - # 23
    frequency:   21.1890709341
  - # 24
    frequency:   65.1229596591

- q-position: [    0.0151515,    0.0000000,    0.0000000 ]
  distance:    0.0050027
  band:
  - # 1
    frequency:   -1.4225518447
  - # 2
    frequency:   -1.4007168432
  - # 3
    frequency:   -0.2864953835
  - # 4
    frequency:   -0.2298467692
  - # 5
    frequency:   -0.1038731871
  - # 6
    frequency:    0.2092647820
  - # 7
    frequency:    0.3141352527
  - # 8
    frequency:    3.4324793803
  - # 9
    frequency:    3.4446493750
  - # 10
    frequency:    4.5032981731
  - # 11
    frequency:    6.2826518623
  - # 12
    frequency:    6.2848390414
  - # 13
    frequency:    7.2700866142
  - # 14
    frequency:    7.9101249732
  - # 15
    frequency:    7.9370905791
  - # 16
    frequency:   10.0881127427
  - # 17
    frequency:   10.1088115277
  - # 18
    frequency:   10.7286800737
  - # 19
    frequency:   10.7317265671
  - # 20
    frequency:   10.7850309663
  - # 21
    frequency:   13.8049570616
  - # 22
    frequency:   18.0473097178
  - # 23
    frequency:   21.1887092534
  - # 24
    frequency:   65.1225783463

- q-position: [    0.0202020,    0.0000000,    0.0000000 ]
  distance:    0.0066702
  band:
  - # 1
    frequency:   -1.4175668863
  - # 2
    frequency:   -1.3785736997
  - # 3
    frequency:   -0.2881688212
  - # 4
    frequency:   -0.1897014303
  - # 5
    frequency:   -0.1025710484
  - # 6
    frequency:    0.2703605459
  - # 7
    frequency:    0.4099212902
  - # 8
    frequency:    3.4361778625
  - # 9
    frequency:    3.4574991814
  - # 10
    frequency:    4.5029778109
  - # 11
    frequency:    6.2832178948
  - # 12
    frequency:    6.2871227918
  - # 13
    frequency:    7.2741047341
  - # 14
    frequency:    7.9132035580
  - # 15
    frequency:    7.9602006093
  - # 16
    frequency:   10.0909144722
  - # 17
    frequency:   10.1269636253
  - # 18
    frequency:   10.7276581180
  - # 19
    frequency:   10.7339399166
  - # 20
    frequency:   10.8004295564
  - # 21
    frequency:   13.8052569203
  - # 22
    frequency:   18.0376938505
  - # 23
    frequency:   21.1882040802
  - # 24
    frequency:   65.1220451825

- q-position: [    0.0252525,    0.0000000,    0.0000000 ]
  distance:    0.0083378
  band:
  - # 1
    frequency:   -1.4111183053
  - # 2
    frequency:   -1.3498302957
  - # 3
    frequency:   -0.2857892500
  - # 4
    frequency:   -0.1736581566
  - # 5
    frequency:    0.0913580166
  - # 6
    frequency:    0.3290110793
  - # 7
    frequency:    0.5059294986
  - # 8
    frequency:    3.4409036236
  - # 9
    frequency:    3.4736064216
  - # 10
    frequency:    4.5026149333
  - # 11
    frequency:    6.2839082516
  - # 12
    frequency:    6.2900342589
  - # 13
    frequency:    7.2792394417
  - # 14
    frequency:    7.9170890156
  - # 15
    frequency:    7.9886798090
  - # 16
    frequency:   10.0944656522
  - # 17
    frequency:   10.1492045888
  - # 18
    frequency:   10.7258910990
  - # 19
    frequency:   10.7367688732
  - # 20
    frequency:   10.8221786362
  - # 21
    frequency:   13.8056780231
  - # 22
    frequency:   18.0253706157
  - # 23
    frequency:   21.1875565880
  - # 24
    frequency:   65.1213608406

- q-position: [    0.0303030,    0.0000000,    0.0000000 ]
  distance:    0.0100053
  band:
  - # 1
    frequency:   -1.4031768719
  - # 2
    frequency:   -1.3142673851
  - # 3
    frequency:   -0.2789117497
  - # 4
    frequency:   -0.1821893207
  - # 5
    frequency:    0.2102085130
  - # 6
    frequency:    0.3861607897
  - # 7
    frequency:    0.6025181247
  - # 8
    frequency:    3.4466350978
  - # 9
    frequency:    3.4926907516
  - # 10
    frequency:    4.5022459061
  - # 11
    frequency:    6.2847074523
  - # 12
    frequency:    6.2935550679
  - # 13
    frequency:    7.2854663017
  - # 14
    frequency:    7.9217281181
  - # 15
    frequency:    8.0216864373
  - # 16
    frequency:   10.0987289183
  - # 17
    frequency:   10.1746056635
  - # 18
    frequency:   10.7234517195
  - # 19
    frequency:   10.7402004891
  - # 20
    frequency:   10.8513680489
  - # 21
    frequency:   13.8062469293
  - # 22
    frequency:   18.0103698681
  - # 23
    frequency:   21.1867682765
  - # 24
    frequency:   65.1205261836

- q-position: [    0.0353535,    0.0000000,    0.0000000 ]
  distance:    0.0116729
  band:
  - # 1
    frequency:   -1.3937071530
  - # 2
    frequency:   -1.2716023980
  - # 3
    frequency:   -0.2671495117
  - # 4
    frequency:   -0.1917453986
  - # 5
    frequency:    0.2988746986
  - # 6
    frequency:    0.4424465337
  - # 7
    frequency:    0.6999324620
  - # 8
    frequency:    3.4533464748
  - # 9
    frequency:    3.5144385711
  - # 10
    frequency:    4.5019148157
  - # 11
    frequency:    6.2856073329
  - # 12
    frequency:    6.2976629918
  - # 13
    frequency:    7.2927552520
  - # 14
    frequency:    7.9270572157
  - # 15
    frequency:    8.0582828992
  - # 16
    frequency:   10.1036596096
  - # 17
    frequency:   10.2019815627
  - # 18
    frequency:   10.7204617285
  - # 19
    frequency:   10.7442185616
  - # 20
    frequency:   10.8892755584
  - # 21
    frequency:   13.8069960255
  - # 22
    frequency:   17.9927279211
  - # 23
    frequency:   21.1858409645
  - # 24
    frequency:   65.1195422637

- q-position: [    0.0404040,    0.0000000,    0.0000000 ]
  distance:    0.0133404
  band:
  - # 1
    frequency:   -1.3826676555
  - # 2
    frequency:   -1.2214840249
  - # 3
    frequency:   -0.2499283324
  - # 4
    frequency:   -0.1963915190
  - # 5
    frequency:    0.3772478648
  - # 6
    frequency:    0.4982990396
  - # 7
    frequency:    0.7983351330
  - # 8
    frequency:    3.4610080094
  - # 9
    frequency:    3.5385152749
  - # 10
    frequency:    4.5016733353
  - # 11
    frequency:    6.2866101013
  - # 12
    frequency:    6.3023320834
  - # 13
    frequency:    7.3010711130
  - # 14
    frequency:    7.9330030098
  - # 15
    frequency:    8.0974859108
  - # 16
    frequency:   10.1092063525
  - # 17
    frequency:   10.2299555484
  - # 18
    frequency:   10.7170578833
  - # 19
    frequency:   10.7488034443
  - # 20
    frequency:   10.9372978975
  - # 21
    frequency:   13.8079635660
  - # 22
    frequency:   17.9724874485
  - # 23
    frequency:   21.1847767822
  - # 24
    frequency:   65.1184103204

- q-position: [    0.0454545,    0.0000000,    0.0000000 ]
  distance:    0.0150080
  band:
  - # 1
    frequency:   -1.3700109571
  - # 2
    frequency:   -1.1634943110
  - # 3
    frequency:   -0.2262128171
  - # 4
    frequency:   -0.1922805713
  - # 5
    frequency:    0.4502044322
  - # 6
    frequency:    0.5540150347
  - # 7
    frequency:    0.8978371090
  - # 8
    frequency:    3.4695863688
  - # 9
    frequency:    3.5645763643
  - # 10
    frequency:    4.5015806033
  - # 11
    frequency:    6.2877301667
  - # 12
    frequency:    6.3075328241
  - # 13
    frequency:    7.3103743554
  - # 14
    frequency:    7.9394834056
  - # 15
    frequency:    8.1383189090
  - # 16
    frequency:   10.1153117284
  - # 17
    frequency:   10.2570976277
  - # 18
    frequency:   10.7133866858
  - # 19
    frequency:   10.7539318589
  - # 20
    frequency:   10.9967795782
  - # 21
    frequency:   13.8091938115
  - # 22
    frequency:   17.9496973756
  - # 23
    frequency:   21.1835781612
  - # 24
    frequency:   65.1171317785

- q-position: [    0.0505051,    0.0000000,    0.0000000 ]
  distance:    0.0166755
  band:
  - # 1
    frequency:   -1.3556838019
  - # 2
    frequency:   -1.0971750403
  - # 3
    frequency:   -0.1939196137
  - # 4
    frequency:   -0.1734662707
  - # 5
    frequency:    0.5197589321
  - # 6
    frequency:    0.6098029111
  - # 7
    frequency:    0.9985145558
  - # 8
    frequency:    3.4790450123
  - # 9
    frequency:    3.5922768525
  - # 10
    frequency:    4.5017030969
  - # 11
    frequency:    6.2889947430
  - # 12
    frequency:    6.3132322872
  - # 13
    frequency:    7.3206220235
  - # 14
    frequency:    7.9464084207
  - # 15
    frequency:    8.1798617502
  - # 16
    frequency:   10.1219130147
  - # 17
    frequency:   10.2821074517
  - # 18
    frequency:   10.7096074968
  - # 19
    frequency:   10.7595767249
  - # 20
    frequency:   11.0687925362
  - # 21
    frequency:   13.8107373265
  - # 22
    frequency:   17.9244127629
  - # 23
    frequency:   21.1822478238
  - # 24
    frequency:   65.1157082456

- q-position: [    0.0555556,    0.0000000,    0.0000000 ]
  distance:    0.0183431
  band:
  - # 1
    frequency:   -1.3396271232
  - # 2
    frequency:   -1.0221218747
  - # 3
    frequency:   -0.1479213094
  - # 4
    frequency:   -0.1240019568
  - # 5
    frequency:    0.5869350403
  - # 6
    frequency:    0.6658112241
  - # 7
    frequency:    1.1004152692
  - # 8
    frequency:    3.4893445952
  - # 9
    frequency:    3.6212787446
  - # 10
    frequency:    4.5021144632
  - # 11
    frequency:    6.2904434239
  - # 12
    frequency:    6.3193943116
  - # 13
    frequency:    7.3317687129
  - # 14
    frequency:    7.9536811240
  - # 15
    frequency:    8.2212926124
  - # 16
    frequency:   10.1289429806
  - # 17
    frequency:   10.3039743242
  - # 18
    frequency:   10.7058955000
  - # 19
    frequency:   10.7657070272
  - # 20
    frequency:   11.1539469661
  - # 21
    frequency:   13.8126515234
  - # 22
    frequency:   17.8966946866
  - # 23
    frequency:   21.1807887712
  - # 24
    frequency:   65.1141415103

- q-position: [    0.0606061,    0.0000000,    0.0000000 ]
  distance:    0.0200106
  band:
  - # 1
    frequency:   -1.3217759471
  - # 2
    frequency:   -0.9382515368
  - # 3
    frequency:   -0.0641903636
  - # 4
    frequency:    0.1046832605
  - # 5
    frequency:    0.6523200619
  - # 6
    frequency:    0.7221467192
  - # 7
    frequency:    1.2035592730
  - # 8
    frequency:    3.5004433883
  - # 9
    frequency:    3.6512566752
  - # 10
    frequency:    4.5028952514
  - # 11
    frequency:    6.2921270102
  - # 12
    frequency:    6.3259796815
  - # 13
    frequency:    7.3437675222
  - # 14
    frequency:    7.9611985811
  - # 15
    frequency:    8.2619179944
  - # 16
    frequency:   10.1363307226
  - # 17
    frequency:   10.3220495235
  - # 18
    frequency:   10.7024413818
  - # 19
    frequency:   10.7722877415
  - # 20
    frequency:   11.2523044582
  - # 21
    frequency:   13.8150015816
  - # 22
    frequency:   17.8666101222
  - # 23
    frequency:   21.1792042694
  - # 24
    frequency:   65.1124335386

- q-position: [    0.0656566,    0.0000000,    0.0000000 ]
  distance:    0.0216782
  band:
  - # 1
    frequency:   -1.3020591186
  - # 2
    frequency:   -0.8464507340
  - # 3
    frequency:    0.1247273201
  - # 4
    frequency:    0.2341690149
  - # 5
    frequency:    0.7162793923
  - # 6
    frequency:    0.7788859707
  - # 7
    frequency:    1.3079367636
  - # 8
    frequency:    3.5122977057
  - # 9
    frequency:    3.6819020134
  - # 10
    frequency:    4.5041324664
  - # 11
    frequency:    6.2941058798
  - # 12
    frequency:    6.3329463072
  - # 13
    frequency:    7.3565709263
  - # 14
    frequency:    7.9688527844
  - # 15
    frequency:    8.3011886588
  - # 16
    frequency:   10.1440025159
  - # 17
    frequency:   10.3360176702
  - # 18
    frequency:   10.6994463041
  - # 19
    frequency:   10.7792798412
  - # 20
    frequency:   11.3634093976
  - # 21
    frequency:   13.8178619281
  - # 22
    frequency:   17.8342318373
  - # 23
    frequency:   21.1774978356
  - # 24
    frequency:   65.1105864713

- q-position: [    0.0707071,    0.0000000,    0.0000000 ]
  distance:    0.0233458
  band:
  - # 1
    frequency:   -1.2803987694
  - # 2
    frequency:   -0.7497537423
  - # 3
    frequency:    0.1924443333
  - # 4
    frequency:    0.3537448034
  - # 5
    frequency:    0.7790543910
  - # 6
    frequency:    0.8360830451
  - # 7
    frequency:    1.4135054365
  - # 8
    frequency:    3.5248623348
  - # 9
    frequency:    3.7129258898
  - # 10
    frequency:    4.5059188451
  - # 11
    frequency:    6.2964481449
  - # 12
    frequency:    6.3402494032
  - # 13
    frequency:    7.3701315433
  - # 14
    frequency:    7.9765315479
  - # 15
    frequency:    8.3387017112
  - # 16
    frequency:   10.1518826629
  - # 17
    frequency:   10.3458078829
  - # 18
    frequency:   10.6971116353
  - # 19
    frequency:   10.7866404045
  - # 20
    frequency:   11.4863973969
  - # 21
    frequency:   13.8213185616
  - # 22
    frequency:   17.7996383007
  - # 23
    frequency:   21.1756732227
  - # 24
    frequency:   65.1086026206

- q-position: [    0.0757576,    0.0000000,    0.0000000 ]
  distance:    0.0250133
  band:
  - # 1
    frequency:   -1.2567094315
  - # 2
    frequency:   -0.6540182622
  - # 3
    frequency:    0.2453580281
  - # 4
    frequency:    0.4819822020
  - # 5
    frequency:    0.8408130917
  - # 6
    frequency:    0.8937746208
  - # 7
    frequency:    1.5201884462
  - # 8
    frequency:    3.5380909596
  - # 9
    frequency:    3.7440616659
  - # 10
    frequency:    4.5083517439
  - # 11
    frequency:    6.2992277727
  - # 12
    frequency:    6.3478416558
  - # 13
    frequency:    7.3844027869
  - # 14
    frequency:    7.9841193517
  - # 15
    frequency:    8.3741910828
  - # 16
    frequency:   10.1598943152
  - # 17
    frequency:   10.3514988388
  - # 18
    frequency:   10.6956242096
  - # 19
    frequency:   10.7943228407
  - # 20
    frequency:   11.6201228248
  - # 21
    frequency:   13.8254726496
  - # 22
    frequency:   17.7629136194
  - # 23
    frequency:   21.1737344025
  - # 24
    frequency:   65.1064844665

- q-position: [    0.0808081,    0.0000000,    0.0000000 ]
  distance:    0.0266809
  band:
  - # 1
    frequency:   -1.2308966661
  - # 2
    frequency:   -0.5649360985
  - # 3
    frequency:    0.2914536529
  - # 4
    frequency:    0.6182136373
  - # 5
    frequency:    0.9016806304
  - # 6
    frequency:    0.9519834317
  - # 7
    frequency:    1.6278736160
  - # 8
    frequency:    3.5519365728
  - # 9
    frequency:    3.7750673687
  - # 10
    frequency:    4.5115315217
  - # 11
    frequency:    6.3025227790
  - # 12
    frequency:    6.3556733758
  - # 13
    frequency:    7.3993394051
  - # 14
    frequency:    7.9914981244
  - # 15
    frequency:    8.4075099493
  - # 16
    frequency:   10.1679602510
  - # 17
    frequency:   10.3532497846
  - # 18
    frequency:   10.6951397066
  - # 19
    frequency:   10.8022772515
  - # 20
    frequency:   11.7632664044
  - # 21
    frequency:   13.8304460769
  - # 22
    frequency:   17.7241475127
  - # 23
    frequency:   21.1716855491
  - # 24
    frequency:   65.1042346532

- q-position: [    0.0858586,    0.0000000,    0.0000000 ]
  distance:    0.0283484
  band:
  - # 1
    frequency:   -1.2028550402
  - # 2
    frequency:   -0.4823169859
  - # 3
    frequency:    0.3334123830
  - # 4
    frequency:    0.7556672344
  - # 5
    frequency:    0.9617645617
  - # 6
    frequency:    1.0107205804
  - # 7
    frequency:    1.7364139643
  - # 8
    frequency:    3.5663518702
  - # 9
    frequency:    3.8057285653
  - # 10
    frequency:    4.5155593217
  - # 11
    frequency:    6.3064135496
  - # 12
    frequency:    6.3636926300
  - # 13
    frequency:    7.4148979151
  - # 14
    frequency:    7.9985479574
  - # 15
    frequency:    8.4386089206
  - # 16
    frequency:   10.1760035893
  - # 17
    frequency:   10.3512620725
  - # 18
    frequency:   10.6957682840
  - # 19
    frequency:   10.8104509339
  - # 20
    frequency:   11.9144092288
  - # 21
    frequency:   13.8363900293
  - # 22
    frequency:   17.6834353399
  - # 23
    frequency:   21.1695310205
  - # 24
    frequency:   65.1018559849

- q-position: [    0.0909091,    0.0000000,    0.0000000 ]
  distance:    0.0300160
  band:
  - # 1
    frequency:   -1.1724652248
  - # 2
    frequency:   -0.3989293887
  - # 3
    frequency:    0.3724982918
  - # 4
    frequency:    0.8886675143
  - # 5
    frequency:    1.0212009797
  - # 6
    frequency:    1.0699870712
  - # 7
    frequency:    1.8456291654
  - # 8
    frequency:    3.5812896239
  - # 9
    frequency:    3.8358620520
  - # 10
    frequency:    4.5205342075
  - # 11
    frequency:    6.3109813026
  - # 12
    frequency:    6.3718453436
  - # 13
    frequency:    7.4310369442
  - # 14
    frequency:    8.0051477485
  - # 15
    frequency:    8.4675133427
  - # 16
    frequency:   10.1839484309
  - # 17
    frequency:   10.3457610446
  - # 18
    frequency:   10.6975666413
  - # 19
    frequency:   10.8187890277
  - # 20
    frequency:   12.0720741415
  - # 21
    frequency:   13.8434984005
  - # 22
    frequency:   17.6408781986
  - # 23
    frequency:   21.1672753407
  - # 24
    frequency:   65.0993514217

- q-position: [    0.0959596,    0.0000000,    0.0000000 ]
  distance:    0.0316835
  band:
  - # 1
    frequency:   -1.1395898970
  - # 2
    frequency:   -0.3010287271
  - # 3
    frequency:    0.4094150841
  - # 4
    frequency:    1.0146361920
  - # 5
    frequency:    1.0803987811
  - # 6
    frequency:    1.1297748040
  - # 7
    frequency:    1.9553072721
  - # 8
    frequency:    3.5967030285
  - # 9
    frequency:    3.8653205942
  - # 10
    frequency:    4.5265497036
  - # 11
    frequency:    6.3163066828
  - # 12
    frequency:    6.3800753673
  - # 13
    frequency:    7.4477174919
  - # 14
    frequency:    8.0111757784
  - # 15
    frequency:    8.4943021319
  - # 16
    frequency:   10.1917204185
  - # 17
    frequency:   10.3369864596
  - # 18
    frequency:   10.7005387053
  - # 19
    frequency:   10.8272353005
  - # 20
    frequency:   12.2347388270
  - # 21
    frequency:   13.8520290315
  - # 22
    frequency:   17.5965831166
  - # 23
    frequency:   21.1649231800
  - # 24
    frequency:   65.0967240752

- q-position: [    0.1010101,    0.0000000,    0.0000000 ]
  distance:    0.0333511
  band:
  - # 1
    frequency:   -1.1040679897
  - # 2
    frequency:   -0.1470859136
  - # 3
    frequency:    0.4445963797
  - # 4
    frequency:    1.1266829010
  - # 5
    frequency:    1.1461466718
  - # 6
    frequency:    1.1900671976
  - # 7
    frequency:    2.0652059472
  - # 8
    frequency:    3.6125460195
  - # 9
    frequency:    3.8939987630
  - # 10
    frequency:    4.5336899340
  - # 11
    frequency:    6.3224684651
  - # 12
    frequency:    6.3883245010
  - # 13
    frequency:    7.4649031227
  - # 14
    frequency:    8.0165102293
  - # 15
    frequency:    8.5190895488
  - # 16
    frequency:   10.1992472172
  - # 17
    frequency:   10.3251844424
  - # 18
    frequency:   10.7046440338
  - # 19
    frequency:   10.8357330553
  - # 20
    frequency:   12.4008221452
  - # 21
    frequency:   13.8623379438
  - # 22
    frequency:   17.5506633654
  - # 23
    frequency:   21.1624793359
  - # 24
    frequency:   65.0939772039

- q-position: [    0.1060606,    0.0000000,    0.0000000 ]
  distance:    0.0350186
  band:
  - # 1
    frequency:   -1.0657065974
  - # 2
    frequency:    0.2262459698
  - # 3
    frequency:    0.4783283877
  - # 4
    frequency:    1.1921006898
  - # 5
    frequency:    1.2508395708
  - # 6
    frequency:    1.2518054245
  - # 7
    frequency:    2.1750525339
  - # 8
    frequency:    3.6287735599
  - # 9
    frequency:    3.9218396924
  - # 10
    frequency:    4.5420257396
  - # 11
    frequency:    6.3295423436
  - # 12
    frequency:    6.3965324661
  - # 13
    frequency:    7.4825601010
  - # 14
    frequency:    8.0210296573
  - # 15
    frequency:    8.5420104723
  - # 16
    frequency:   10.2064589221
  - # 17
    frequency:   10.3105991502
  - # 18
    frequency:   10.7098106425
  - # 19
    frequency:   10.8442261350
  - # 20
    frequency:   12.5686395007
  - # 21
    frequency:   13.8749355157
  - # 22
    frequency:   17.5032389343
  - # 23
    frequency:   21.1599487131
  - # 24
    frequency:   65.0911142084

- q-position: [    0.1111111,    0.0000000,    0.0000000 ]
  distance:    0.0366862
  band:
  - # 1
    frequency:   -1.0242694567
  - # 2
    frequency:    0.3605426478
  - # 3
    frequency:    0.5108095213
  - # 4
    frequency:    1.2492687235
  - # 5
    frequency:    1.3120593769
  - # 6
    frequency:    1.3597972171
  - # 7
    frequency:    2.2845424957
  - # 8
    frequency:    3.6453418937
  - # 9
    frequency:    3.9488423524
  - # 10
    frequency:    4.5516113514
  - # 11
    frequency:    6.3375997848
  - # 12
    frequency:    6.4046368177
  - # 13
    frequency:    7.5006574774
  - # 14
    frequency:    8.0246134389
  - # 15
    frequency:    8.5632091320
  - # 16
    frequency:   10.2132884068
  - # 17
    frequency:   10.2934651527
  - # 18
    frequency:   10.7159484299
  - # 19
    frequency:   10.8526599921
  - # 20
    frequency:   12.7363149422
  - # 21
    frequency:   13.8905799529
  - # 22
    frequency:   17.4544372119
  - # 23
    frequency:   21.1573363033
  - # 24
    frequency:   65.0881386261

- q-position: [    0.1161616,    0.0000000,    0.0000000 ]
  distance:    0.0383537
  band:
  - # 1
    frequency:   -0.9794602210
  - # 2
    frequency:    0.4649748555
  - # 3
    frequency:    0.5421823344
  - # 4
    frequency:    1.3052851096
  - # 5
    frequency:    1.3736863675
  - # 6
    frequency:    1.4637633749
  - # 7
    frequency:    2.3933359900
  - # 8
    frequency:    3.6622087661
  - # 9
    frequency:    3.9750687200
  - # 10
    frequency:    4.5624823524
  - # 11
    frequency:    6.3467069306
  - # 12
    frequency:    6.4125727859
  - # 13
    frequency:    7.5191671331
  - # 14
    frequency:    8.0271422135
  - # 15
    frequency:    8.5828309132
  - # 16
    frequency:   10.2196716316
  - # 17
    frequency:   10.2740019007
  - # 18
    frequency:   10.7229604409
  - # 19
    frequency:   10.8609827845
  - # 20
    frequency:   12.9016272204
  - # 21
    frequency:   13.9104327412
  - # 22
    frequency:   17.4043939396
  - # 23
    frequency:   21.1546471649
  - # 24
    frequency:   65.0850541265

- q-position: [    0.1212121,    0.0000000,    0.0000000 ]
  distance:    0.0400213
  band:
  - # 1
    frequency:   -0.9308974767
  - # 2
    frequency:    0.5575046976
  - # 3
    frequency:    0.5725519109
  - # 4
    frequency:    1.3605317632
  - # 5
    frequency:    1.4356727430
  - # 6
    frequency:    1.5639472338
  - # 7
    frequency:    2.5010525781
  - # 8
    frequency:    3.6793336092
  - # 9
    frequency:    4.0006500905
  - # 10
    frequency:    4.5746557180
  - # 11
    frequency:    6.3569235483
  - # 12
    frequency:    6.4202730380
  - # 13
    frequency:    7.5380637883
  - # 14
    frequency:    8.0284983499
  - # 15
    frequency:    8.6010166981
  - # 16
    frequency:   10.2255479345
  - # 17
    frequency:   10.2524108654
  - # 18
    frequency:   10.7307508124
  - # 19
    frequency:   10.8691464500
  - # 20
    frequency:   13.0617597364
  - # 21
    frequency:   13.9363073643
  - # 22
    frequency:   17.3532545217
  - # 23
    frequency:   21.1518864029
  - # 24
    frequency:   65.0818645053

- q-position: [    0.1262626,    0.0000000,    0.0000000 ]
  distance:    0.0416888
  band:
  - # 1
    frequency:   -0.8780759686
  - # 2
    frequency:    0.6019970583
  - # 3
    frequency:    0.6438468066
  - # 4
    frequency:    1.4150932379
  - # 5
    frequency:    1.4979633318
  - # 6
    frequency:    1.6607760970
  - # 7
    frequency:    2.6072643358
  - # 8
    frequency:    3.6966776927
  - # 9
    frequency:    4.0257916796
  - # 10
    frequency:    4.5881326405
  - # 11
    frequency:    6.3683020306
  - # 12
    frequency:    6.4276673477
  - # 13
    frequency:    7.5573249767
  - # 14
    frequency:    8.0285664688
  - # 15
    frequency:    8.6178991892
  - # 16
    frequency:   10.2288750924
  - # 17
    frequency:   10.2308603272
  - # 18
    frequency:   10.7392294933
  - # 19
    frequency:   10.8771077155
  - # 20
    frequency:   13.2129533756
  - # 21
    frequency:   13.9710130580
  - # 22
    frequency:   17.3011758083
  - # 23
    frequency:   21.1490591485
  - # 24
    frequency:   65.0785736795

- q-position: [    0.1313131,    0.0000000,    0.0000000 ]
  distance:    0.0433564
  band:
  - # 1
    frequency:   -0.8203033776
  - # 2
    frequency:    0.6305774231
  - # 3
    frequency:    0.7265776914
  - # 4
    frequency:    1.4690008106
  - # 5
    frequency:    1.5604958243
  - # 6
    frequency:    1.7546328408
  - # 7
    frequency:    2.7114879841
  - # 8
    frequency:    3.7142042419
  - # 9
    frequency:    4.0507745611
  - # 10
    frequency:    4.6029046237
  - # 11
    frequency:    6.3808864613
  - # 12
    frequency:    6.4346821604
  - # 13
    frequency:    7.5769309917
  - # 14
    frequency:    8.0272340592
  - # 15
    frequency:    8.6336007120
  - # 16
    frequency:   10.2035604763
  - # 17
    frequency:   10.2355558215
  - # 18
    frequency:   10.7483144541
  - # 19
    frequency:   10.8848289892
  - # 20
    frequency:   13.3502425924
  - # 21
    frequency:   14.0186136970
  - # 22
    frequency:   17.2483285030
  - # 23
    frequency:   21.1461705389
  - # 24
    frequency:   65.0751856807

- q-position: [    0.1363636,    0.0000000,    0.0000000 ]
  distance:    0.0450240
  band:
  - # 1
    frequency:   -0.7565904867
  - # 2
    frequency:    0.6583381740
  - # 3
    frequency:    0.8070544837
  - # 4
    frequency:    1.5222698032
  - # 5
    frequency:    1.6232010756
  - # 6
    frequency:    1.8458362827
  - # 7