nqpoint: 300    
npath: 3      
segment_nqpoint:
- 100
- 100
- 100
labels:
- [ 'G', 'M' ]
- [ 'M', 'K' ]
- [ 'K', 'G' ]
reciprocal_lattice:
- [   0.30117478,   0.17388334,   0.00000000 ] # a*
- [   0.00000000,   0.34776668,   0.00000000 ] # b*
- [   0.00000000,   0.00000000,   0.03592589 ] # c*
natom: 8      
lattice:
- [     3.320331114184674,     0.000000000000000,     0.000000000000000 ] # a
- [    -1.660165557092337,     2.875491093852521,     0.000000000000000 ] # b
- [     0.000000000000000,     0.000000000000000,    27.835082496847537 ] # c
points:
- symbol: C # 1
  coordinates: [  0.333332985432215,  0.666666983183674,  0.633414899468422 ]
  mass: 12.010700
- symbol: N # 2
  coordinates: [  0.000000000000000,  0.000000000000000,  0.493509183343251 ]
  mass: 14.006700
- symbol: N # 3
  coordinates: [  0.333332985432215,  0.666666983183674,  0.588563920991408 ]
  mass: 14.006700
- symbol: O # 4
  coordinates: [  0.333332985432215,  0.666666983183674,  0.676667026188290 ]
  mass: 15.999400
- symbol: O # 5
  coordinates: [  0.666666984744047,  0.333332985985145,  0.323332973811710 ]
  mass: 15.999400
- symbol: P # 6
  coordinates: [  0.666666984744047,  0.333332985985145,  0.377004290884192 ]
  mass: 30.973762
- symbol: Zr # 7
  coordinates: [  0.333332985432215,  0.666666983183674,  0.447688460816225 ]
  mass: 91.224000
- symbol: Zr # 8
  coordinates: [  0.666666984744047,  0.333332985985145,  0.536131171870280 ]
  mass: 91.224000

phonon:
- q-position: [    0.0000000,    0.0000000,    0.0000000 ]
  distance:    0.0000000
  band:
  - # 1
    frequency:   -1.7047840499
  - # 2
    frequency:   -1.7047840499
  - # 3
    frequency:   -1.3036188048
  - # 4
    frequency:   -1.3036188048
  - # 5
    frequency:   -0.0000149465
  - # 6
    frequency:   -0.0000003681
  - # 7
    frequency:    0.0000121016
  - # 8
    frequency:    3.9157874002
  - # 9
    frequency:    3.9157874003
  - # 10
    frequency:    4.6493408897
  - # 11
    frequency:    4.6493408898
  - # 12
    frequency:    4.8721861379
  - # 13
    frequency:    6.5294694161
  - # 14
    frequency:    6.5294694161
  - # 15
    frequency:    8.3038014335
  - # 16
    frequency:    9.5080393782
  - # 17
    frequency:   12.2554886936
  - # 18
    frequency:   15.8000993516
  - # 19
    frequency:   15.8000993516
  - # 20
    frequency:   16.8894863071
  - # 21
    frequency:   16.8894863071
  - # 22
    frequency:   34.0152573014
  - # 23
    frequency:   38.1628048538
  - # 24
    frequency:   68.9412910957

- q-position: [    0.0050505,    0.0000000,    0.0000000 ]
  distance:    0.0017564
  band:
  - # 1
    frequency:   -1.7041520014
  - # 2
    frequency:   -1.7029225630
  - # 3
    frequency:   -1.3032476724
  - # 4
    frequency:   -1.3023278354
  - # 5
    frequency:    0.0018295305
  - # 6
    frequency:    0.0484104010
  - # 7
    frequency:    0.1010865159
  - # 8
    frequency:    3.9159139734
  - # 9
    frequency:    3.9165459667
  - # 10
    frequency:    4.6467186299
  - # 11
    frequency:    4.6494773111
  - # 12
    frequency:    4.8747028495
  - # 13
    frequency:    6.5295210582
  - # 14
    frequency:    6.5301649221
  - # 15
    frequency:    8.3035866075
  - # 16
    frequency:    9.5073885151
  - # 17
    frequency:   12.2555406669
  - # 18
    frequency:   15.8001185726
  - # 19
    frequency:   15.8001419167
  - # 20
    frequency:   16.8895133801
  - # 21
    frequency:   16.8897113879
  - # 22
    frequency:   34.0151261196
  - # 23
    frequency:   38.1628125822
  - # 24
    frequency:   68.9400944962

- q-position: [    0.0101010,    0.0000000,    0.0000000 ]
  distance:    0.0035128
  band:
  - # 1
    frequency:   -1.7022655953
  - # 2
    frequency:   -1.6973493910
  - # 3
    frequency:   -1.3021322383
  - # 4
    frequency:   -1.2984433091
  - # 5
    frequency:    0.0073131865
  - # 6
    frequency:    0.0969416400
  - # 7
    frequency:    0.2022660778
  - # 8
    frequency:    3.9162932235
  - # 9
    frequency:    3.9188126438
  - # 10
    frequency:    4.6391998347
  - # 11
    frequency:    4.6498863439
  - # 12
    frequency:    4.8819117726
  - # 13
    frequency:    6.5296762015
  - # 14
    frequency:    6.5322497546
  - # 15
    frequency:    8.3029411122
  - # 16
    frequency:    9.5054367654
  - # 17
    frequency:   12.2556976480
  - # 18
    frequency:   15.8001764738
  - # 19
    frequency:   15.8002683696
  - # 20
    frequency:   16.8895945883
  - # 21
    frequency:   16.8903861639
  - # 22
    frequency:   34.0147327281
  - # 23
    frequency:   38.1628357757
  - # 24
    frequency:   68.9365071997

- q-position: [    0.0151515,    0.0000000,    0.0000000 ]
  distance:    0.0052692
  band:
  - # 1
    frequency:   -1.6991542366
  - # 2
    frequency:   -1.6880978728
  - # 3
    frequency:   -1.3002661130
  - # 4
    frequency:   -1.2919302386
  - # 5
    frequency:    0.0164330353
  - # 6
    frequency:    0.1457127929
  - # 7
    frequency:    0.3036269300
  - # 8
    frequency:    3.9169237472
  - # 9
    frequency:    3.9225605012
  - # 10
    frequency:    4.6276412781
  - # 11
    frequency:    4.6505672955
  - # 12
    frequency:    4.8929764861
  - # 13
    frequency:    6.5299354947
  - # 14
    frequency:    6.5357188321
  - # 15
    frequency:    8.3018619224
  - # 16
    frequency:    9.5021866499
  - # 17
    frequency:   12.2559628066
  - # 18
    frequency:   15.8002737679
  - # 19
    frequency:   15.8004749900
  - # 20
    frequency:   16.8897298994
  - # 21
    frequency:   16.8915092374
  - # 22
    frequency:   34.0140775884
  - # 23
    frequency:   38.1628744588
  - # 24
    frequency:   68.9305367053

- q-position: [    0.0202020,    0.0000000,    0.0000000 ]
  distance:    0.0070256
  band:
  - # 1
    frequency:   -1.6948675414
  - # 2
    frequency:   -1.6752218028
  - # 3
    frequency:   -1.2976377276
  - # 4
    frequency:   -1.2827298133
  - # 5
    frequency:    0.0291603438
  - # 6
    frequency:    0.1948394044
  - # 7
    frequency:    0.4052477316
  - # 8
    frequency:    3.9178032198
  - # 9
    frequency:    3.9277451007
  - # 10
    frequency:    4.6130442649
  - # 11
    frequency:    4.6515190134
  - # 12
    frequency:    4.9069297196
  - # 13
    frequency:    6.5303000110
  - # 14
    frequency:    6.5405636017
  - # 15
    frequency:    8.3003440864
  - # 16
    frequency:    9.4976423760
  - # 17
    frequency:   12.2563413787
  - # 18
    frequency:   15.8004116371
  - # 19
    frequency:   15.8007555997
  - # 20
    frequency:   16.8899192591
  - # 21
    frequency:   16.8930782836
  - # 22
    frequency:   34.0131614688
  - # 23
    frequency:   38.1629286725
  - # 24
    frequency:   68.9221954875

- q-position: [    0.0252525,    0.0000000,    0.0000000 ]
  distance:    0.0087820
  band:
  - # 1
    frequency:   -1.6894761927
  - # 2
    frequency:   -1.6587927491
  - # 3
    frequency:   -1.2942289936
  - # 4
    frequency:   -1.2707584645
  - # 5
    frequency:    0.0454561165
  - # 6
    frequency:    0.2444317229
  - # 7
    frequency:    0.5071928553
  - # 8
    frequency:    3.9189284168
  - # 9
    frequency:    3.9343051285
  - # 10
    frequency:    4.5963017403
  - # 11
    frequency:    4.6527398882
  - # 12
    frequency:    4.9229264153
  - # 13
    frequency:    6.5307712367
  - # 14
    frequency:    6.5467719246
  - # 15
    frequency:    8.2983808594
  - # 16
    frequency:    9.4918098479
  - # 17
    frequency:   12.2568405961
  - # 18
    frequency:   15.8005917247
  - # 19
    frequency:   15.8011015966
  - # 20
    frequency:   16.8901625907
  - # 21
    frequency:   16.8950900578
  - # 22
    frequency:   34.0119854431
  - # 23
    frequency:   38.1629984733
  - # 24
    frequency:   68.9115009616

- q-position: [    0.0303030,    0.0000000,    0.0000000 ]
  distance:    0.0105384
  band:
  - # 1
    frequency:   -1.6830730130
  - # 2
    frequency:   -1.6388962911
  - # 3
    frequency:   -1.2900135213
  - # 4
    frequency:   -1.2559061934
  - # 5
    frequency:    0.0652722385
  - # 6
    frequency:    0.2945929440
  - # 7
    frequency:    0.6095079522
  - # 8
    frequency:    3.9202952435
  - # 9
    frequency:    3.9421632080
  - # 10
    frequency:    4.5781186233
  - # 11
    frequency:    4.6542278588
  - # 12
    frequency:    4.9403236395
  - # 13
    frequency:    6.5313510551
  - # 14
    frequency:    6.5543279337
  - # 15
    frequency:    8.2959638849
  - # 16
    frequency:    9.4846966791
  - # 17
    frequency:   12.2574695911
  - # 18
    frequency:   15.8008161238
  - # 19
    frequency:   15.8015020015
  - # 20
    frequency:   16.8904597941
  - # 21
    frequency:   16.8975404046
  - # 22
    frequency:   34.0105508892
  - # 23
    frequency:   38.1630839331
  - # 24
    frequency:   68.8984754336

- q-position: [    0.0353535,    0.0000000,    0.0000000 ]
  distance:    0.0122948
  band:
  - # 1
    frequency:   -1.6757741013
  - # 2
    frequency:   -1.6156272636
  - # 3
    frequency:   -1.2849545226
  - # 4
    frequency:   -1.2380337958
  - # 5
    frequency:    0.0885528236
  - # 6
    frequency:    0.3454174848
  - # 7
    frequency:    0.7122160619
  - # 8
    frequency:    3.9218987724
  - # 9
    frequency:    3.9512268277
  - # 10
    frequency:    4.5590282513
  - # 11
    frequency:    4.6559804175
  - # 12
    frequency:    4.9586644676
  - # 13
    frequency:    6.5320417256
  - # 14
    frequency:    6.5632118801
  - # 15
    frequency:    8.2930834220
  - # 16
    frequency:    9.4763122085
  - # 17
    frequency:   12.2582392748
  - # 18
    frequency:   15.8010873621
  - # 19
    frequency:   15.8019435178
  - # 20
    frequency:   16.8908107455
  - # 21
    frequency:   16.9004242711
  - # 22
    frequency:   34.0088594861
  - # 23
    frequency:   38.1631851381
  - # 24
    frequency:   68.8831460379

- q-position: [    0.0404040,    0.0000000,    0.0000000 ]
  distance:    0.0140512
  band:
  - # 1
    frequency:   -1.6677198034
  - # 2
    frequency:   -1.5890842229
  - # 3
    frequency:   -1.2790026095
  - # 4
    frequency:   -1.2169684942
  - # 5
    frequency:    0.1152356783
  - # 6
    frequency:    0.3969893226
  - # 7
    frequency:    0.8153146133
  - # 8
    frequency:    3.9237332881
  - # 9
    frequency:    3.9613892966
  - # 10
    frequency:    4.5394357634
  - # 11
    frequency:    4.6579946190
  - # 12
    frequency:    4.9776350313
  - # 13
    frequency:    6.5328458585
  - # 14
    frequency:    6.5733999877
  - # 15
    frequency:    8.2897286115
  - # 16
    frequency:    9.4666675197
  - # 17
    frequency:   12.2591621939
  - # 18
    frequency:   15.8014083844
  - # 19
    frequency:   15.8024106048
  - # 20
    frequency:   16.8912152958
  - # 21
    frequency:   16.9037357208
  - # 22
    frequency:   34.0069132123
  - # 23
    frequency:   38.1633021887
  - # 24
    frequency:   68.8655446597

- q-position: [    0.0454545,    0.0000000,    0.0000000 ]
  distance:    0.0158076
  band:
  - # 1
    frequency:   -1.6590751823
  - # 2
    frequency:   -1.5593635020
  - # 3
    frequency:   -1.2720937998
  - # 4
    frequency:   -1.1924973038
  - # 5
    frequency:    0.1452537732
  - # 6
    frequency:    0.4493804412
  - # 7
    frequency:    0.9187736508
  - # 8
    frequency:    3.9257923394
  - # 9
    frequency:    3.9725306331
  - # 10
    frequency:    4.5196587133
  - # 11
    frequency:    4.6602670893
  - # 12
    frequency:    4.9970244707
  - # 13
    frequency:    6.5337663853
  - # 14
    frequency:    6.5848643330
  - # 15
    frequency:    8.2858877761
  - # 16
    frequency:    9.4557754609
  - # 17
    frequency:   12.2602523665
  - # 18
    frequency:   15.8017825312
  - # 19
    frequency:   15.8028855623
  - # 20
    frequency:   16.8916732693
  - # 21
    frequency:   16.9074679513
  - # 22
    frequency:   34.0047143413
  - # 23
    frequency:   38.1634351977
  - # 24
    frequency:   68.8457078450

- q-position: [    0.0505051,    0.0000000,    0.0000000 ]
  distance:    0.0175640
  band:
  - # 1
    frequency:   -1.6500295550
  - # 2
    frequency:   -1.5265533596
  - # 3
    frequency:   -1.2641481586
  - # 4
    frequency:   -1.1643571603
  - # 5
    frequency:    0.1785365929
  - # 6
    frequency:    0.5026494402
  - # 7
    frequency:    1.0225355181
  - # 8
    frequency:    3.9280687972
  - # 9
    frequency:    3.9845182746
  - # 10
    frequency:    4.4999579093
  - # 11
    frequency:    4.6627940381
  - # 12
    frequency:    5.0166948385
  - # 13
    frequency:    6.5348065248
  - # 14
    frequency:    6.5975727688
  - # 15
    frequency:    8.2815487472
  - # 16
    frequency:    9.4436506681
  - # 17
    frequency:   12.2615251000
  - # 18
    frequency:   15.8022135152
  - # 19
    frequency:   15.8033486277
  - # 20
    frequency:   16.8921844628
  - # 21
    frequency:   16.9116133132
  - # 22
    frequency:   34.0022654391
  - # 23
    frequency:   38.1635842896
  - # 24
    frequency:   68.8236766968

- q-position: [    0.0555556,    0.0000000,    0.0000000 ]
  distance:    0.0193204
  band:
  - # 1
    frequency:   -1.6407945741
  - # 2
    frequency:   -1.4907287894
  - # 3
    frequency:   -1.2550696020
  - # 4
    frequency:   -1.1322203489
  - # 5
    frequency:    0.2150112111
  - # 6
    frequency:    0.5568403654
  - # 7
    frequency:    1.1265160550
  - # 8
    frequency:    3.9305549188
  - # 9
    frequency:    3.9972074915
  - # 10
    frequency:    4.4805594285
  - # 11
    frequency:    4.6655712735
  - # 12
    frequency:    5.0365600750
  - # 13
    frequency:    6.5359697449
  - # 14
    frequency:    6.6114889043
  - # 15
    frequency:    8.2766992133
  - # 16
    frequency:    9.4303095867
  - # 17
    frequency:   12.2629967949
  - # 18
    frequency:   15.8027053944
  - # 19
    frequency:   15.8037780847
  - # 20
    frequency:   16.8927486435
  - # 21
    frequency:   16.9161633317
  - # 22
    frequency:   33.9995693593
  - # 23
    frequency:   38.1637495994
  - # 24
    frequency:   68.7994967589

- q-position: [    0.0606061,    0.0000000,    0.0000000 ]
  distance:    0.0210768
  band:
  - # 1
    frequency:   -1.6316003318
  - # 2
    frequency:   -1.4519474994
  - # 3
    frequency:   -1.2447474069
  - # 4
    frequency:   -1.0956729296
  - # 5
    frequency:    0.2546029094
  - # 6
    frequency:    0.6119818229
  - # 7
    frequency:    1.2306071527
  - # 8
    frequency:    3.9332424171
  - # 9
    frequency:    4.0104413856
  - # 10
    frequency:    4.4616703624
  - # 11
    frequency:    4.6685942181
  - # 12
    frequency:    5.0565715712
  - # 13
    frequency:    6.5372597205
  - # 14
    frequency:    6.6265721528
  - # 15
    frequency:    8.2713270804
  - # 16
    frequency:    9.4157704946
  - # 17
    frequency:   12.2646847363
  - # 18
    frequency:   15.8032625428
  - # 19
    frequency:   15.8041503828
  - # 20
    frequency:   16.8933655479
  - # 21
    frequency:   16.9211087294
  - # 22
    frequency:   33.9966292390
  - # 23
    frequency:   38.1639312713
  - # 24
    frequency:   68.7732178861

- q-position: [    0.0656566,    0.0000000,    0.0000000 ]
  distance:    0.0228332
  band:
  - # 1
    frequency:   -1.6226890984
  - # 2
    frequency:   -1.4102473478
  - # 3
    frequency:   -1.2330598511
  - # 4
    frequency:   -1.0541823644
  - # 5
    frequency:    0.2972351303
  - # 6
    frequency:    0.6680864326
  - # 7
    frequency:    1.3346803194
  - # 8
    frequency:    3.9361225343
  - # 9
    frequency:    4.0240503726
  - # 10
    frequency:    4.4434905445
  - # 11
    frequency:    4.6718579293
  - # 12
    frequency:    5.0767081431
  - # 13
    frequency:    6.5386802875
  - # 14
    frequency:    6.6427778510
  - # 15
    frequency:    8.2654208402
  - # 16
    frequency:    9.4000535225
  - # 17
    frequency:   12.2666068773
  - # 18
    frequency:   15.8038896190
  - # 19
    frequency:   15.8044402668
  - # 20
    frequency:   16.8940348797
  - # 21
    frequency:   16.9264394510
  - # 22
    frequency:   33.9934484932
  - # 23
    frequency:   38.1641294568
  - # 24
    frequency:   68.7448941031

- q-position: [    0.0707071,    0.0000000,    0.0000000 ]
  distance:    0.0245896
  band:
  - # 1
    frequency:   -1.6143066554
  - # 2
    frequency:   -1.3656451013
  - # 3
    frequency:   -1.2198800764
  - # 4
    frequency:   -1.0070477451
  - # 5
    frequency:    0.3428285342
  - # 6
    frequency:    0.7251506703
  - # 7
    frequency:    1.4385907882
  - # 8
    frequency:    3.9391861195
  - # 9
    frequency:    4.0378511140
  - # 10
    frequency:    4.4262218287
  - # 11
    frequency:    4.6753571210
  - # 12
    frequency:    5.0969688671
  - # 13
    frequency:    6.5402353936
  - # 14
    frequency:    6.6600574504
  - # 15
    frequency:    8.2589699372
  - # 16
    frequency:    9.3831806721
  - # 17
    frequency:   12.2687816174
  - # 18
    frequency:   15.8045915320
  - # 19
    frequency:   15.8046209163
  - # 20
    frequency:   16.8947563080
  - # 21
    frequency:   16.9321446899
  - # 22
    frequency:   33.9900308103
  - # 23
    frequency:   38.1643443139
  - # 24
    frequency:   68.7145834508

- q-position: [    0.0757576,    0.0000000,    0.0000000 ]
  distance:    0.0263460
  band:
  - # 1
    frequency:   -1.6066917294
  - # 2
    frequency:   -1.3181357374
  - # 3
    frequency:   -1.2050837294
  - # 4
    frequency:   -0.9533203348
  - # 5
    frequency:    0.3912989404
  - # 6
    frequency:    0.7831551357
  - # 7
    frequency:    1.5421816711
  - # 8
    frequency:    3.9424237095
  - # 9
    frequency:    4.0516450225
  - # 10
    frequency:    4.4100758143
  - # 11
    frequency:    4.6790861887
  - # 12
    frequency:    5.1173677593
  - # 13
    frequency:    6.5419290458
  - # 14
    frequency:    6.6783587766
  - # 15
    frequency:    8.2519651298
  - # 16
    frequency:    9.3651758306
  - # 17
    frequency:   12.2712275798
  - # 18
    frequency:   15.8046640938
  - # 19
    frequency:   15.8053734051
  - # 20
    frequency:   16.8955294658
  - # 21
    frequency:   16.9382129160
  - # 22
    frequency:   33.9863801452
  - # 23
    frequency:   38.1645760046
  - # 24
    frequency:   68.6823478216

- q-position: [    0.0808081,    0.0000000,    0.0000000 ]
  distance:    0.0281024
  band:
  - # 1
    frequency:   -1.6000646739
  - # 2
    frequency:   -1.2676906107
  - # 3
    frequency:   -1.1885573102
  - # 4
    frequency:   -0.8916695178
  - # 5
    frequency:    0.4425540003
  - # 6
    frequency:    0.8420652614
  - # 7
    frequency:    1.6452877230
  - # 8
    frequency:    3.9458256120
  - # 9
    frequency:    4.0652168145
  - # 10
    frequency:    4.3952801967
  - # 11
    frequency:    4.6830392371
  - # 12
    frequency:    5.1379296525
  - # 13
    frequency:    6.5437652550
  - # 14
    frequency:    6.6976263465
  - # 15
    frequency:    8.2443988396
  - # 16
    frequency:    9.3460647794
  - # 17
    frequency:   12.2739633898
  - # 18
    frequency:   15.8045403012
  - # 19
    frequency:   15.8062405380
  - # 20
    frequency:   16.8963539479
  - # 21
    frequency:   16.9446319042
  - # 22
    frequency:   33.9825007138
  - # 23
    frequency:   38.1648246939
  - # 24
    frequency:   68.6482527830

- q-position: [    0.0858586,    0.0000000,    0.0000000 ]
  distance:    0.0298588
  band:
  - # 1
    frequency:   -1.5946170288
  - # 2
    frequency:   -1.2142516593
  - # 3
    frequency:   -1.1702056708
  - # 4
    frequency:   -0.8201380317
  - # 5
    frequency:    0.4964886378
  - # 6
    frequency:    0.9018324621
  - # 7
    frequency:    1.7477384034
  - # 8
    frequency:    3.9493819916
  - # 9
    frequency:    4.0783342540
  - # 10
    frequency:    4.3820830257
  - # 11
    frequency:    4.6872101097
  - # 12
    frequency:    5.1586868737
  - # 13
    frequency:    6.5457479784
  - # 14
    frequency:    6.7178017314
  - # 15
    frequency:    8.2362654837
  - # 16
    frequency:    9.3258751972
  - # 17
    frequency:   12.2770074583
  - # 18
    frequency:   15.8042189427
  - # 19
    frequency:   15.8071983677
  - # 20
    frequency:   16.8972293091
  - # 21
    frequency:   16.9513887655
  - # 22
    frequency:   33.9783969862
  - # 23
    frequency:   38.1650905475
  - # 24
    frequency:   68.6123673915

- q-position: [    0.0909091,    0.0000000,    0.0000000 ]
  distance:    0.0316152
  band:
  - # 1
    frequency:   -1.5905036606
  - # 2
    frequency:   -1.1577175322
  - # 3
    frequency:   -1.1499570349
  - # 4
    frequency:   -0.7356420144
  - # 5
    frequency:    0.5529796428
  - # 6
    frequency:    0.9623956907
  - # 7
    frequency:    1.8493600649
  - # 8
    frequency:    3.9530829562
  - # 9
    frequency:    4.0907513374
  - # 10
    frequency:    4.3707528855
  - # 11
    frequency:    4.6915924212
  - # 12
    frequency:    5.1796764791
  - # 13
    frequency:    6.5478810603
  - # 14
    frequency:    6.7388239538
  - # 15
    frequency:    8.2275617862
  - # 16
    frequency:    9.3046366545
  - # 17
    frequency:   12.2803777732
  - # 18
    frequency:   15.8036684948
  - # 19
    frequency:   15.8082524269
  - # 20
    frequency:   16.8981550624
  - # 21
    frequency:   16.9584699782
  - # 22
    frequency:   33.9740736798
  - # 23
    frequency:   38.1653737301
  - # 24
    frequency:   68.5747639960

- q-position: [    0.0959596,    0.0000000,    0.0000000 ]
  distance:    0.0333716
  band:
  - # 1
    frequency:   -1.5878387144
  - # 2
    frequency:   -1.1277643648
  - # 3
    frequency:   -1.0979162822
  - # 4
    frequency:   -0.6327697943
  - # 5
    frequency:    0.6118803689
  - # 6
    frequency:    1.0236833440
  - # 7
    frequency:    1.9499772279
  - # 8
    frequency:    3.9569186446
  - # 9
    frequency:    4.1022186027
  - # 10
    frequency:    4.3615714889
  - # 11
    frequency:    4.6961795908
  - # 12
    frequency:    5.2009379089
  - # 13
    frequency:    6.5501681716
  - # 14
    frequency:    6.7606298997
  - # 15
    frequency:    8.2182870664
  - # 16
    frequency:    9.2823805999
  - # 17
    frequency:   12.2840917014
  - # 18
    frequency:   15.8028566807
  - # 19
    frequency:   15.8094083031
  - # 20
    frequency:   16.8991306770
  - # 21
    frequency:   16.9658614207
  - # 22
    frequency:   33.9695357516
  - # 23
    frequency:   38.1656744034
  - # 24
    frequency:   68.5355180319

- q-position: [    0.1010101,    0.0000000,    0.0000000 ]
  distance:    0.0351279
  band:
  - # 1
    frequency:   -1.5866957326
  - # 2
    frequency:   -1.1036027473
  - # 3
    frequency:   -1.0345581438
  - # 4
    frequency:   -0.5000433557
  - # 5
    frequency:    0.6730172343
  - # 6
    frequency:    1.0856154318
  - # 7
    frequency:    2.0494130042
  - # 8
    frequency:    3.9608793155
  - # 9
    frequency:    4.1125051366
  - # 10
    frequency:    4.3548142157
  - # 11
    frequency:    4.7009648779
  - # 12
    frequency:    5.2225109829
  - # 13
    frequency:    6.5526127481
  - # 14
    frequency:    6.7831547345
  - # 15
    frequency:    8.2084435002
  - # 16
    frequency:    9.2591403356
  - # 17
    frequency:   12.2881658028
  - # 18
    frequency:   15.8017506500
  - # 19
    frequency:   15.8106715947
  - # 20
    frequency:   16.9001555768
  - # 21
    frequency:   16.9735484059
  - # 22
    frequency:   33.9647883912
  - # 23
    frequency:   38.1659927243
  - # 24
    frequency:   68.4947078063

- q-position: [    0.1060606,    0.0000000,    0.0000000 ]
  distance:    0.0368843
  band:
  - # 1
    frequency:   -1.5871113635
  - # 2
    frequency:   -1.0774633595
  - # 3
    frequency:   -0.9671600709
  - # 4
    frequency:   -0.2998676679
  - # 5
    frequency:    0.7361905421
  - # 6
    frequency:    1.1481058990
  - # 7
    frequency:    2.1474887910
  - # 8
    frequency:    3.9649554354
  - # 9
    frequency:    4.1214350929
  - # 10
    frequency:    4.3507158479
  - # 11
    frequency:    4.7059414173
  - # 12
    frequency:    5.2444341981
  - # 13
    frequency:    6.5552179299
  - # 14
    frequency:    6.8063323062
  - # 15
    frequency:    8.1980363560
  - # 16
    frequency:    9.2349509827
  - # 17
    frequency:   12.2926156598
  - # 18
    frequency:   15.8003171607
  - # 19
    frequency:   15.8120478688
  - # 20
    frequency:   16.9012291389
  - # 21
    frequency:   16.9815157164
  - # 22
    frequency:   33.9598370124
  - # 23
    frequency:   38.1663288424
  - # 24
    frequency:   68.4524142754

- q-position: [    0.1111111,    0.0000000,    0.0000000 ]
  distance:    0.0386407
  band:
  - # 1
    frequency:   -1.5890914519
  - # 2
    frequency:   -1.0493451460
  - # 3
    frequency:   -0.8949279800
  - # 4
    frequency:    0.2828836175
  - # 5
    frequency:    0.8011828732
  - # 6
    frequency:    1.2110649798
  - # 7
    frequency:    2.2440233943
  - # 8
    frequency:    3.9691377665
  - # 9
    frequency:    4.1289345772
  - # 10
    frequency:    4.3494256732
  - # 11
    frequency:    4.7111022556
  - # 12
    frequency:    5.2667433110
  - # 13
    frequency:    6.5579865009
  - # 14
    frequency:    6.8300955249
  - # 15
    frequency:    8.1870742030
  - # 16
    frequency:    9.2098494339
  - # 17
    frequency:   12.2974557219
  - # 18
    frequency:   15.7985227637
  - # 19
    frequency:   15.8135426169
  - # 20
    frequency:   16.9023506916
  - # 21
    frequency:   16.9897476413
  - # 22
    frequency:   33.9546872452
  - # 23
    frequency:   38.1666828987
  - # 24
    frequency:   68.4087208138

- q-position: [    0.1161616,    0.0000000,    0.0000000 ]
  distance:    0.0403971
  band:
  - # 1
    frequency:   -1.5926181307
  - # 2
    frequency:   -1.0192454298
  - # 3
    frequency:   -0.8165645980
  - # 4
    frequency:    0.5095604282
  - # 5
    frequency:    0.8677790265
  - # 6
    frequency:    1.2744014610
  - # 7
    frequency:    2.3388317547
  - # 8
    frequency:    3.9734174547
  - # 9
    frequency:    4.1350736970
  - # 10
    frequency:    4.3509671562
  - # 11
    frequency:    4.7164403866
  - # 12
    frequency:    5.2894701969
  - # 13
    frequency:    6.5609208297
  - # 14
    frequency:    6.8543767068
  - # 15
    frequency:    8.1755690947
  - # 16
    frequency:    9.1838742942
  - # 17
    frequency:   12.3026991682
  - # 18
    frequency:   15.7963339891
  - # 19
    frequency:   15.8151612121
  - # 20
    frequency:   16.9035195133
  - # 21
    frequency:   16.9982280145
  - # 22
    frequency:   33.9493449276
  - # 23
    frequency:   38.1670550228
  - # 24
    frequency:   68.3637129779

- q-position: [    0.1212121,    0.0000000,    0.0000000 ]
  distance:    0.0421535
  band:
  - # 1
    frequency:   -1.5976567545
  - # 2
    frequency:   -0.9871503657
  - # 3
    frequency:   -0.7299172506
  - # 4
    frequency:    0.6697525011
  - # 5
    frequency:    0.9358028982
  - # 6
    frequency:    1.3380247447
  - # 7
    frequency:    2.4317234579
  - # 8
    frequency:    3.9777861154
  - # 9
    frequency:    4.1400823978
  - # 10
    frequency:    4.3552235199
  - # 11
    frequency:    4.7219487856
  - # 12
    frequency:    5.3126419789
  - # 13
    frequency:    6.5640228130
  - # 14
    frequency:    6.8791078748
  - # 15
    frequency:    8.1635367287
  - # 16
    frequency:    9.1570658093
  - # 17
    frequency:   12.3083577867
  - # 18
    frequency:   15.7937175315
  - # 19
    frequency:   15.8169088652
  - # 20
    frequency:   16.9047348312
  - # 21
    frequency:   17.0069402541
  - # 22
    frequency:   33.9438160963
  - # 23
    frequency:   38.1674453314
  - # 24
    frequency:   68.3174782621

- q-position: [    0.1262626,    0.0000000,    0.0000000 ]
  distance:    0.0439099
  band:
  - # 1
    frequency:   -1.6041619261
  - # 2
    frequency:   -0.9530256038
  - # 3
    frequency:   -0.6312091554
  - # 4
    frequency:    0.8037351538
  - # 5
    frequency:    1.0051804495
  - # 6
    frequency:    1.4018466239
  - # 7
    frequency:    2.5225012349
  - # 8
    frequency:    3.9822359195
  - # 9
    frequency:    4.1443280757
  - # 10
    frequency:    4.3619611653
  - # 11
    frequency:    4.7276204419
  - # 12
    frequency:    5.3362804209
  - # 13
    frequency:    6.5672938225
  - # 14
    frequency:    6.9042210079
  - # 15
    frequency:    8.1509965861
  - # 16
    frequency:    9.1294657815
  - # 17
    frequency:   12.3144418724
  - # 18
    frequency:   15.7906404359
  - # 19
    frequency:   15.8187905834
  - # 20
    frequency:   16.9059958201
  - # 21
    frequency:   17.0158674041
  - # 22
    frequency:   33.9381069783
  - # 23
    frequency:   38.1678539256
  - # 24
    frequency:   68.2701058511

- q-position: [    0.1313131,    0.0000000,    0.0000000 ]
  distance:    0.0456663
  band:
  - # 1
    frequency:   -1.6120822823
  - # 2
    frequency:   -0.9168069459
  - # 3
    frequency:   -0.5129124044
  - # 4
    frequency:    0.9222268571
  - # 5
    frequency:    1.0760445127
  - # 6
    frequency:    1.4657827171
  - # 7
    frequency:    2.6109596919
  - # 8
    frequency:    3.9867596764
  - # 9
    frequency:    4.1482640128
  - # 10
    frequency:    4.3708817440
  - # 11
    frequency:    4.7334483892
  - # 12
    frequency:    5.3604015672
  - # 13
    frequency:    6.5707346545
  - # 14
    frequency:    6.9296482350
  - # 15
    frequency:    8.1379720557
  - # 16
    frequency:    9.1011174738
  - # 17
    frequency:   12.3209601419
  - # 18
    frequency:   15.7870702808
  - # 19
    frequency:   15.8208111277
  - # 20
    frequency:   16.9073016011
  - # 21
    frequency:   17.0249921768
  - # 22
    frequency:   33.9322239817
  - # 23
    frequency:   38.1682808896
  - # 24
    frequency:   68.2216863665

- q-position: [    0.1363636,    0.0000000,    0.0000000 ]
  distance:    0.0474227
  band:
  - # 1
    frequency:   -1.6213640133
  - # 2
    frequency:   -0.8783902037
  - # 3
    frequency:   -0.3549731782
  - # 4
    frequency:    1.0293743562
  - # 5
    frequency:    1.1488901253
  - # 6
    frequency:    1.5297535375
  - # 7