nqpoint: 300    
npath: 3      
segment_nqpoint:
- 100
- 100
- 100
labels:
- [ 'G', 'M' ]
- [ 'M', 'K' ]
- [ 'K', 'G' ]
reciprocal_lattice:
- [   0.29757983,   0.17180780,   0.00000000 ] # a*
- [   0.00000000,   0.34361559,   0.00000000 ] # b*
- [   0.00000000,   0.00000000,   0.03561723 ] # c*
natom: 9      
lattice:
- [     3.360442776355224,     0.000000000000000,     0.000000000000000 ] # a
- [    -1.680221388177612,     2.910228812280870,     0.000000000000000 ] # b
- [     0.000000000000000,     0.000000000000000,    28.076300932927609 ] # c
points:
- symbol: C # 1
  coordinates: [  0.000000000000000,  0.000000000000000,  0.500000029463922 ]
  mass: 12.010700
- symbol: C # 2
  coordinates: [  0.333332985432214,  0.666666983183674,  0.636546006189462 ]
  mass: 12.010700
- symbol: C # 3
  coordinates: [  0.666666984744047,  0.333332985985145,  0.363453993370786 ]
  mass: 12.010700
- symbol: N # 4
  coordinates: [  0.333332985432214,  0.666666983183674,  0.592172584653252 ]
  mass: 14.006700
- symbol: N # 5
  coordinates: [  0.666666984744047,  0.333332985985145,  0.407827415346756 ]
  mass: 14.006700
- symbol: O # 6
  coordinates: [  0.333332985432214,  0.666666983183674,  0.679444951758410 ]
  mass: 15.999400
- symbol: O # 7
  coordinates: [  0.666666984744047,  0.333332985985145,  0.320555048241590 ]
  mass: 15.999400
- symbol: Sc # 8
  coordinates: [  0.333332985432214,  0.666666983183674,  0.455368470030409 ]
  mass: 44.955912
- symbol: Sc # 9
  coordinates: [  0.666666984744047,  0.333332985985145,  0.544631529529831 ]
  mass: 44.955912

phonon:
- q-position: [    0.0000000,    0.0000000,    0.0000000 ]
  distance:    0.0000000
  band:
  - # 1
    frequency:   -1.0717846535
  - # 2
    frequency:   -1.0717846535
  - # 3
    frequency:   -0.9372366113
  - # 4
    frequency:   -0.9372366113
  - # 5
    frequency:   -0.0000021897
  - # 6
    frequency:    0.0000016241
  - # 7
    frequency:    0.0000019516
  - # 8
    frequency:    4.6407792739
  - # 9
    frequency:    4.6407792739
  - # 10
    frequency:    5.5449839105
  - # 11
    frequency:    5.9725153230
  - # 12
    frequency:    5.9725153230
  - # 13
    frequency:    6.8696364399
  - # 14
    frequency:    6.8696364399
  - # 15
    frequency:    9.0836935359
  - # 16
    frequency:   11.2318480376
  - # 17
    frequency:   11.2318480376
  - # 18
    frequency:   12.2399356951
  - # 19
    frequency:   17.7082607361
  - # 20
    frequency:   17.7082607361
  - # 21
    frequency:   17.7122913603
  - # 22
    frequency:   17.7122913603
  - # 23
    frequency:   19.2800174530
  - # 24
    frequency:   38.8744157153
  - # 25
    frequency:   38.8868312764
  - # 26
    frequency:   69.3142841847
  - # 27
    frequency:   69.6055101948

- q-position: [    0.0050505,    0.0000000,    0.0000000 ]
  distance:    0.0017354
  band:
  - # 1
    frequency:   -1.0704770767
  - # 2
    frequency:   -1.0679643626
  - # 3
    frequency:   -0.9368293074
  - # 4
    frequency:   -0.9356997475
  - # 5
    frequency:   -0.0130629631
  - # 6
    frequency:    0.0796500727
  - # 7
    frequency:    0.1233731617
  - # 8
    frequency:    4.6412037601
  - # 9
    frequency:    4.6423383463
  - # 10
    frequency:    5.5441995118
  - # 11
    frequency:    5.9730826998
  - # 12
    frequency:    5.9798401622
  - # 13
    frequency:    6.8697100624
  - # 14
    frequency:    6.8698972552
  - # 15
    frequency:    9.0833640807
  - # 16
    frequency:   11.2325377238
  - # 17
    frequency:   11.2390317299
  - # 18
    frequency:   12.2391506642
  - # 19
    frequency:   17.7083182636
  - # 20
    frequency:   17.7087218934
  - # 21
    frequency:   17.7123447955
  - # 22
    frequency:   17.7124136899
  - # 23
    frequency:   19.2785037490
  - # 24
    frequency:   38.8743570142
  - # 25
    frequency:   38.8867635532
  - # 26
    frequency:   69.3128824850
  - # 27
    frequency:   69.6038994167

- q-position: [    0.0101010,    0.0000000,    0.0000000 ]
  distance:    0.0034709
  band:
  - # 1
    frequency:   -1.0666029360
  - # 2
    frequency:   -1.0567053223
  - # 3
    frequency:   -0.9356068312
  - # 4
    frequency:   -0.9310795039
  - # 5
    frequency:   -0.0248277499
  - # 6
    frequency:    0.1596380662
  - # 7
    frequency:    0.2478863617
  - # 8
    frequency:    4.6424759904
  - # 9
    frequency:    4.6470044555
  - # 10
    frequency:    5.5419535690
  - # 11
    frequency:    5.9747804762
  - # 12
    frequency:    6.0015118030
  - # 13
    frequency:    6.8699300544
  - # 14
    frequency:    6.8706827054
  - # 15
    frequency:    9.0823779382
  - # 16
    frequency:   11.2346021026
  - # 17
    frequency:   11.2605233109
  - # 18
    frequency:   12.2368539332
  - # 19
    frequency:   17.7084906802
  - # 20
    frequency:   17.7101039366
  - # 21
    frequency:   17.7125049716
  - # 22
    frequency:   17.7127784636
  - # 23
    frequency:   19.2739689571
  - # 24
    frequency:   38.8741810895
  - # 25
    frequency:   38.8865605825
  - # 26
    frequency:   69.3086815552
  - # 27
    frequency:   69.5990719807

- q-position: [    0.0151515,    0.0000000,    0.0000000 ]
  distance:    0.0052063
  band:
  - # 1
    frequency:   -1.0603039825
  - # 2
    frequency:   -1.0385800763
  - # 3
    frequency:   -0.9335674808
  - # 4
    frequency:   -0.9233466122
  - # 5
    frequency:   -0.0337633338
  - # 6
    frequency:    0.2402743106
  - # 7
    frequency:    0.3745128312
  - # 8
    frequency:    4.6445922866
  - # 9
    frequency:    4.6547445279
  - # 10
    frequency:    5.5385123792
  - # 11
    frequency:    5.9775956558
  - # 12
    frequency:    6.0366894267
  - # 13
    frequency:    6.8702937998
  - # 14
    frequency:    6.8720022488
  - # 15
    frequency:    9.0807418067
  - # 16
    frequency:   11.2380271684
  - # 17
    frequency:   11.2961275199
  - # 18
    frequency:   12.2332342845
  - # 19
    frequency:   17.7087774892
  - # 20
    frequency:   17.7123939818
  - # 21
    frequency:   17.7127715002
  - # 22
    frequency:   17.7133876122
  - # 23
    frequency:   19.2664320733
  - # 24
    frequency:   38.8738884763
  - # 25
    frequency:   38.8862229600
  - # 26
    frequency:   69.3016938821
  - # 27
    frequency:   69.5910425565

- q-position: [    0.0202020,    0.0000000,    0.0000000 ]
  distance:    0.0069417
  band:
  - # 1
    frequency:   -1.0518030072
  - # 2
    frequency:   -1.0144283884
  - # 3
    frequency:   -0.9307083924
  - # 4
    frequency:   -0.9124511442
  - # 5
    frequency:   -0.0376276310
  - # 6
    frequency:    0.3218158604
  - # 7
    frequency:    0.5039104302
  - # 8
    frequency:    4.6475465399
  - # 9
    frequency:    4.6655042686
  - # 10
    frequency:    5.5341849518
  - # 11
    frequency:    5.9815067924
  - # 12
    frequency:    6.0841460936
  - # 13
    frequency:    6.8707969729
  - # 14
    frequency:    6.8738732793
  - # 15
    frequency:    9.0784669393
  - # 16
    frequency:   11.2427896936
  - # 17
    frequency:   11.3454572008
  - # 18
    frequency:   12.2286580660
  - # 19
    frequency:   17.7091778671
  - # 20
    frequency:   17.7131437365
  - # 21
    frequency:   17.7141571192
  - # 22
    frequency:   17.7156577155
  - # 23
    frequency:   19.2559248752
  - # 24
    frequency:   38.8734800634
  - # 25
    frequency:   38.8857516755
  - # 26
    frequency:   69.2919402045
  - # 27
    frequency:   69.5798355111

- q-position: [    0.0252525,    0.0000000,    0.0000000 ]
  distance:    0.0086772
  band:
  - # 1
    frequency:   -1.0413837863
  - # 2
    frequency:   -0.9851848896
  - # 3
    frequency:   -0.9270254986
  - # 4
    frequency:   -0.8983203333
  - # 5
    frequency:   -0.0315520287
  - # 6
    frequency:    0.4044452297
  - # 7
    frequency:    0.6363277333
  - # 8
    frequency:    4.6513302442
  - # 9
    frequency:    4.6792093648
  - # 10
    frequency:    5.5292314288
  - # 11
    frequency:    5.9864843065
  - # 12
    frequency:    6.1424144555
  - # 13
    frequency:    6.8714335897
  - # 14
    frequency:    6.8763241531
  - # 15
    frequency:    9.0755692624
  - # 16
    frequency:   11.2488574011
  - # 17
    frequency:   11.4078164683
  - # 18
    frequency:   12.2237718587
  - # 19
    frequency:   17.7096906690
  - # 20
    frequency:   17.7136207821
  - # 21
    frequency:   17.7151715046
  - # 22
    frequency:   17.7197847930
  - # 23
    frequency:   19.2424921050
  - # 24
    frequency:   38.8729570892
  - # 25
    frequency:   38.8851481095
  - # 26
    frequency:   69.2794494050
  - # 27
    frequency:   69.5654847863

- q-position: [    0.0303030,    0.0000000,    0.0000000 ]
  distance:    0.0104126
  band:
  - # 1
    frequency:   -1.0293643913
  - # 2
    frequency:   -0.9516736821
  - # 3
    frequency:   -0.9225134678
  - # 4
    frequency:   -0.8808541681
  - # 5
    frequency:    0.0261916486
  - # 6
    frequency:    0.4882566512
  - # 7
    frequency:    0.7716060708
  - # 8
    frequency:    4.6559325433
  - # 9
    frequency:    4.6957670925
  - # 10
    frequency:    5.5238305251
  - # 11
    frequency:    5.9924909150
  - # 12
    frequency:    6.2098850612
  - # 13
    frequency:    6.8721960790
  - # 14
    frequency:    6.8793998910
  - # 15
    frequency:    9.0720695130
  - # 16
    frequency:   11.2561892050
  - # 17
    frequency:   11.4819717408
  - # 18
    frequency:   12.2197133198
  - # 19
    frequency:   17.7103144373
  - # 20
    frequency:   17.7142014898
  - # 21
    frequency:   17.7163427385
  - # 22
    frequency:   17.7248297491
  - # 23
    frequency:   19.2261917381
  - # 24
    frequency:   38.8723211349
  - # 25
    frequency:   38.8844140268
  - # 26
    frequency:   69.2642583596
  - # 27
    frequency:   69.5480337274

- q-position: [    0.0353535,    0.0000000,    0.0000000 ]
  distance:    0.0121480
  band:
  - # 1
    frequency:   -1.0160669976
  - # 2
    frequency:   -0.9171656238
  - # 3
    frequency:   -0.9144388619
  - # 4
    frequency:   -0.8599154022
  - # 5
    frequency:    0.0655934693
  - # 6
    frequency:    0.5732526507
  - # 7
    frequency:    0.9092834006
  - # 8
    frequency:    4.6613402927
  - # 9
    frequency:    4.7150682479
  - # 10
    frequency:    5.5180888698
  - # 11
    frequency:    5.9994821633
  - # 12
    frequency:    6.2848650552
  - # 13
    frequency:    6.8730753726
  - # 14
    frequency:    6.8831729753
  - # 15
    frequency:    9.0679933757
  - # 16
    frequency:   11.2647355194
  - # 17
    frequency:   11.5656960691
  - # 18
    frequency:   12.2185464564
  - # 19
    frequency:   17.7110474122
  - # 20
    frequency:   17.7148844693
  - # 21
    frequency:   17.7176418589
  - # 22
    frequency:   17.7307801357
  - # 23
    frequency:   19.2070953503
  - # 24
    frequency:   38.8715741174
  - # 25
    frequency:   38.8835515698
  - # 26
    frequency:   69.2464117464
  - # 27
    frequency:   69.5275348654

- q-position: [    0.0404040,    0.0000000,    0.0000000 ]
  distance:    0.0138835
  band:
  - # 1
    frequency:   -1.0017889423
  - # 2
    frequency:   -0.9109738420
  - # 3
    frequency:   -0.8736753733
  - # 4
    frequency:   -0.8353002654
  - # 5
    frequency:    0.1030892026
  - # 6
    frequency:    0.6593519789
  - # 7
    frequency:    1.0487516543
  - # 8
    frequency:    4.6675381375
  - # 9
    frequency:    4.7369893059
  - # 10
    frequency:    5.5120648767
  - # 11
    frequency:    6.0074070460
  - # 12
    frequency:    6.3656122869
  - # 13
    frequency:    6.8740610131
  - # 14
    frequency:    6.8877646294
  - # 15
    frequency:    9.0633716022
  - # 16
    frequency:   11.2744386343
  - # 17
    frequency:   11.6548648455
  - # 18
    frequency:   12.2241453139
  - # 19
    frequency:   17.7118875445
  - # 20
    frequency:   17.7156680941
  - # 21
    frequency:   17.7190258889
  - # 22
    frequency:   17.7376292776
  - # 23
    frequency:   19.1852886002
  - # 24
    frequency:   38.8707182792
  - # 25
    frequency:   38.8825632494
  - # 26
    frequency:   69.2259618134
  - # 27
    frequency:   69.5040496530

- q-position: [    0.0454545,    0.0000000,    0.0000000 ]
  distance:    0.0156189
  band:
  - # 1
    frequency:   -0.9867800080
  - # 2
    frequency:   -0.9039284199
  - # 3
    frequency:   -0.8293426920
  - # 4
    frequency:   -0.8066018926
  - # 5
    frequency:    0.1432587121
  - # 6
    frequency:    0.7464072000
  - # 7
    frequency:    1.1893988658
  - # 8
    frequency:    4.6745086059
  - # 9
    frequency:    4.7613947020
  - # 10
    frequency:    5.5057910046
  - # 11
    frequency:    6.0162086991
  - # 12
    frequency:    6.4503418352
  - # 13
    frequency:    6.8751412785
  - # 14
    frequency:    6.8933894823
  - # 15
    frequency:    9.0582401028
  - # 16
    frequency:   11.2852331567
  - # 17
    frequency:   11.7419180721
  - # 18
    frequency:   12.2437131505
  - # 19
    frequency:   17.7128325103
  - # 20
    frequency:   17.7165505098
  - # 21
    frequency:   17.7204426266
  - # 22
    frequency:   17.7453710539
  - # 23
    frequency:   19.1608718482
  - # 24
    frequency:   38.8697561778
  - # 25
    frequency:   38.8814519347
  - # 26
    frequency:   69.2029681096
  - # 27
    frequency:   69.4776481569

- q-position: [    0.0505051,    0.0000000,    0.0000000 ]
  distance:    0.0173543
  band:
  - # 1
    frequency:   -0.9712292794
  - # 2
    frequency:   -0.8960179166
  - # 3
    frequency:   -0.7825578849
  - # 4
    frequency:   -0.7718156893
  - # 5
    frequency:    0.1868885460
  - # 6
    frequency:    0.8342277752
  - # 7
    frequency:    1.3306952899
  - # 8
    frequency:    4.6822322201
  - # 9
    frequency:    4.7881391330
  - # 10
    frequency:    5.4992893934
  - # 11
    frequency:    6.0258251487
  - # 12
    frequency:    6.5371713163
  - # 13
    frequency:    6.8763033218
  - # 14
    frequency:    6.9004573478
  - # 15
    frequency:    9.0526400031
  - # 16
    frequency:   11.2970465164
  - # 17
    frequency:   11.8149123822
  - # 18
    frequency:   12.2887160852
  - # 19
    frequency:   17.7138797280
  - # 20
    frequency:   17.7175296428
  - # 21
    frequency:   17.7218302317
  - # 22
    frequency:   17.7539997655
  - # 23
    frequency:   19.1339609379
  - # 24
    frequency:   38.8686906727
  - # 25
    frequency:   38.8802208409
  - # 26
    frequency:   69.1774971779
  - # 27
    frequency:   69.4484087083

- q-position: [    0.0555556,    0.0000000,    0.0000000 ]
  distance:    0.0190898
  band:
  - # 1
    frequency:   -0.9552621244
  - # 2
    frequency:   -0.8872289564
  - # 3
    frequency:   -0.7406820721
  - # 4
    frequency:   -0.7222018884
  - # 5
    frequency:    0.2341669209
  - # 6
    frequency:    0.9226035743
  - # 7
    frequency:    1.4722231279
  - # 8
    frequency:    4.6906876238
  - # 9
    frequency:    4.8170697834
  - # 10
    frequency:    5.4925812704
  - # 11
    frequency:    6.0361900980
  - # 12
    frequency:    6.6239048300
  - # 13
    frequency:    6.8775333245
  - # 14
    frequency:    6.9098286118
  - # 15
    frequency:    9.0466176655
  - # 16
    frequency:   11.3097995321
  - # 17
    frequency:   11.8621918356
  - # 18
    frequency:   12.3702039773
  - # 19
    frequency:   17.7150263771
  - # 20
    frequency:   17.7186032108
  - # 21
    frequency:   17.7231162229
  - # 22
    frequency:   17.7635104494
  - # 23
    frequency:   19.1046881671
  - # 24
    frequency:   38.8675249117
  - # 25
    frequency:   38.8788735161
  - # 26
    frequency:   69.1496222144
  - # 27
    frequency:   69.4164175126

- q-position: [    0.0606061,    0.0000000,    0.0000000 ]
  distance:    0.0208252
  band:
  - # 1
    frequency:   -0.9389452844
  - # 2
    frequency:   -0.8775459883
  - # 3
    frequency:   -0.6984889603
  - # 4
    frequency:   -0.6609355182
  - # 5
    frequency:    0.2850693134
  - # 6
    frequency:    1.0113246711
  - # 7
    frequency:    1.6136704057
  - # 8
    frequency:    4.6998517260
  - # 9
    frequency:    4.8480283976
  - # 10
    frequency:    5.4856920000
  - # 11
    frequency:    6.0472337351
  - # 12
    frequency:    6.7073649521
  - # 13
    frequency:    6.8788166606
  - # 14
    frequency:    6.9235104593
  - # 15
    frequency:    9.0402246780
  - # 16
    frequency:   11.3234070364
  - # 17
    frequency:   11.8819452208
  - # 18
    frequency:   12.4892518924
  - # 19
    frequency:   17.7162694181
  - # 20
    frequency:   17.7197687345
  - # 21
    frequency:   17.7242161771
  - # 22
    frequency:   17.7738993323
  - # 23
    frequency:   19.0732034819
  - # 24
    frequency:   38.8662623154
  - # 25
    frequency:   38.8774138262
  - # 26
    frequency:   69.1194226961
  - # 27
    frequency:   69.3817682223

- q-position: [    0.0656566,    0.0000000,    0.0000000 ]
  distance:    0.0225606
  band:
  - # 1
    frequency:   -0.9222967407
  - # 2
    frequency:   -0.8669509936
  - # 3
    frequency:   -0.6513377427
  - # 4
    frequency:   -0.5894776168
  - # 5
    frequency:    0.3394441456
  - # 6
    frequency:    1.1001952871
  - # 7
    frequency:    1.7548097287
  - # 8
    frequency:    4.7096998619
  - # 9
    frequency:    4.8808531328
  - # 10
    frequency:    5.4786535235
  - # 11
    frequency:    6.0588835481
  - # 12
    frequency:    6.7816486948
  - # 13
    frequency:    6.8801380702
  - # 14
    frequency:    6.9464164597
  - # 15
    frequency:    9.0335178147
  - # 16
    frequency:   11.3377785539
  - # 17
    frequency:   11.8811584645
  - # 18
    frequency:   12.6380137647
  - # 19
    frequency:   17.7176056146
  - # 20
    frequency:   17.7210235489
  - # 21
    frequency:   17.7250321574
  - # 22
    frequency:   17.7851643784
  - # 23
    frequency:   19.0396759216
  - # 24
    frequency:   38.8649065605
  - # 25
    frequency:   38.8758459389
  - # 26
    frequency:   69.0869839776
  - # 27
    frequency:   69.3445614748

- q-position: [    0.0707071,    0.0000000,    0.0000000 ]
  distance:    0.0242961
  band:
  - # 1
    frequency:   -0.9052971094
  - # 2
    frequency:   -0.8554231287
  - # 3
    frequency:   -0.5976873855
  - # 4
    frequency:   -0.5039283122
  - # 5
    frequency:    0.3970286458
  - # 6
    frequency:    1.1890417272
  - # 7
    frequency:    1.8954747147
  - # 8
    frequency:    4.7202059680
  - # 9
    frequency:    4.9153801377
  - # 10
    frequency:    5.4715054219
  - # 11
    frequency:    6.0710651305
  - # 12
    frequency:    6.8370015513
  - # 13
    frequency:    6.8814818397
  - # 14
    frequency:    6.9874957540
  - # 15
    frequency:    9.0265589729
  - # 16
    frequency:   11.3528190295
  - # 17
    frequency:   11.8671619401
  - # 18
    frequency:   12.8081877739
  - # 19
    frequency:   17.7190315562
  - # 20
    frequency:   17.7223648178
  - # 21
    frequency:   17.7254508667
  - # 22
    frequency:   17.7973059316
  - # 23
    frequency:   19.0042953403
  - # 24
    frequency:   38.8634615622
  - # 25
    frequency:   38.8741743057
  - # 26
    frequency:   69.0523968624
  - # 27
    frequency:   69.3049043982

- q-position: [    0.0757576,    0.0000000,    0.0000000 ]
  distance:    0.0260315
  band:
  - # 1
    frequency:   -0.8879002382
  - # 2
    frequency:   -0.8429382870
  - # 3
    frequency:   -0.5355291640
  - # 4
    frequency:   -0.3951853218
  - # 5
    frequency:    0.4574487673
  - # 6
    frequency:    1.2777154158
  - # 7
    frequency:    2.0355396672
  - # 8
    frequency:    4.7313427711
  - # 9
    frequency:    4.9514448088
  - # 10
    frequency:    5.4642953899
  - # 11
    frequency:    6.0837029664
  - # 12
    frequency:    6.8698575081
  - # 13
    frequency:    6.8828319853
  - # 14
    frequency:    7.0496857595
  - # 15
    frequency:    9.0194150914
  - # 16
    frequency:   11.3684295993
  - # 17
    frequency:   11.8446219636
  - # 18
    frequency:   12.9940427157
  - # 19
    frequency:   17.7205436819
  - # 20
    frequency:   17.7237895474
  - # 21
    frequency:   17.7253415330
  - # 22
    frequency:   17.8103274631
  - # 23
    frequency:   18.9672744129
  - # 24
    frequency:   38.8619314551
  - # 25
    frequency:   38.8724036430
  - # 26
    frequency:   69.0157571489
  - # 27
    frequency:   69.2629100883

- q-position: [    0.0808081,    0.0000000,    0.0000000 ]
  distance:    0.0277669
  band:
  - # 1
    frequency:   -0.8700417824
  - # 2
    frequency:   -0.8294685612
  - # 3
    frequency:   -0.4612382204
  - # 4
    frequency:   -0.2325633202
  - # 5
    frequency:    0.5202273773
  - # 6
    frequency:    1.3660925895
  - # 7
    frequency:    2.1749038516
  - # 8
    frequency:    4.7430819896
  - # 9
    frequency:    4.9888826624
  - # 10
    frequency:    5.4570796205
  - # 11
    frequency:    6.0967211846
  - # 12
    frequency:    6.8841724388
  - # 13
    frequency:    6.8890909905
  - # 14
    frequency:    7.1236450542
  - # 15
    frequency:    9.0121580553
  - # 16
    frequency:   11.3845083985
  - # 17
    frequency:   11.8161756300
  - # 18
    frequency:   13.1918043126
  - # 19
    frequency:   17.7221383043
  - # 20
    frequency:   17.7245535660
  - # 21
    frequency:   17.7252946023
  - # 22
    frequency:   17.8242364415
  - # 23
    frequency:   18.9288509013
  - # 24
    frequency:   38.8603205736
  - # 25
    frequency:   38.8705389124
  - # 26
    frequency:   68.9771651565
  - # 27
    frequency:   69.2186970603

- q-position: [    0.0858586,    0.0000000,    0.0000000 ]
  distance:    0.0295023
  band:
  - # 1
    frequency:   -0.8516453975
  - # 2
    frequency:   -0.8149815778
  - # 3
    frequency:   -0.3669661841
  - # 4
    frequency:    0.2288502816
  - # 5
    frequency:    0.5848138506
  - # 6
    frequency:    1.4540720800
  - # 7
    frequency:    2.3134799147
  - # 8
    frequency:    4.7553945430
  - # 9
    frequency:    5.0275297236
  - # 10
    frequency:    5.4499234630
  - # 11
    frequency:    6.1100442733
  - # 12
    frequency:    6.8854872301
  - # 13
    frequency:    6.9024575651
  - # 14
    frequency:    7.2012924826
  - # 15
    frequency:    9.0048645927
  - # 16
    frequency:   11.4009513988
  - # 17
    frequency:   11.7833311268
  - # 18
    frequency:   13.3987773014
  - # 19
    frequency:   17.7229140860
  - # 20
    frequency:   17.7238116341
  - # 21
    frequency:   17.7268767223
  - # 22
    frequency:   17.8390453493
  - # 23
    frequency:   18.8892901037
  - # 24
    frequency:   38.8586334311
  - # 25
    frequency:   38.8685852988
  - # 26
    frequency:   68.9367252329
  - # 27
    frequency:   69.1723886777

- q-position: [    0.0909091,    0.0000000,    0.0000000 ]
  distance:    0.0312378
  band:
  - # 1
    frequency:   -0.8326266931
  - # 2
    frequency:   -0.7994396691
  - # 3
    frequency:   -0.2278298082
  - # 4
    frequency:    0.4040182723
  - # 5
    frequency:    0.6506348997
  - # 6
    frequency:    1.5415722611
  - # 7
    frequency:    2.4511854597
  - # 8
    frequency:    4.7682507705
  - # 9
    frequency:    5.0672222326
  - # 10
    frequency:    5.4429027231
  - # 11
    frequency:    6.1235977497
  - # 12
    frequency:    6.8867606657
  - # 13
    frequency:    6.9133248300
  - # 14
    frequency:    7.2790537199
  - # 15
    frequency:    8.9976161677
  - # 16
    frequency:   11.4176532675
  - # 17
    frequency:   11.7470000814
  - # 18
    frequency:   13.6128348667
  - # 19
    frequency:   17.7202255242
  - # 20
    frequency:   17.7255598037
  - # 21
    frequency:   17.7285325406
  - # 22
    frequency:   17.8547728723
  - # 23
    frequency:   18.8488873156
  - # 24
    frequency:   38.8568746991
  - # 25
    frequency:   38.8665481882
  - # 26
    frequency:   68.8945452477
  - # 27
    frequency:   69.1241125632

- q-position: [    0.0959596,    0.0000000,    0.0000000 ]
  distance:    0.0329732
  band:
  - # 1
    frequency:   -0.8128953018
  - # 2
    frequency:   -0.7827988322
  - # 3
    frequency:    0.1907307043
  - # 4
    frequency:    0.5277196010
  - # 5
    frequency:    0.7171527381
  - # 6
    frequency:    1.6285278416
  - # 7
    frequency:    2.5879367917
  - # 8
    frequency:    4.7816206519
  - # 9
    frequency:    5.1077952319
  - # 10
    frequency:    5.4361061728
  - # 11
    frequency:    6.1373087826
  - # 12
    frequency:    6.8879774989
  - # 13
    frequency:    6.9230602797
  - # 14
    frequency:    7.3554506799
  - # 15
    frequency:    8.9904988787
  - # 16
    frequency:   11.4345082392
  - # 17
    frequency:   11.7077722393
  - # 18
    frequency:   13.8321636155
  - # 19
    frequency:   17.7162636491
  - # 20
    frequency:   17.7273788910
  - # 21
    frequency:   17.7302586032
  - # 22
    frequency:   17.8714452964
  - # 23
    frequency:   18.8079699942
  - # 24
    frequency:   38.8550491847
  - # 25
    frequency:   38.8644331449
  - # 26
    frequency:   68.8507360741
  - # 27
    frequency:   69.0739999948

- q-position: [    0.1010101,    0.0000000,    0.0000000 ]
  distance:    0.0347086
  band:
  - # 1
    frequency:   -0.7923554276
  - # 2
    frequency:   -0.7650074096
  - # 3
    frequency:    0.3621275680
  - # 4
    frequency:    0.6309666303
  - # 5
    frequency:    0.7839119386
  - # 6
    frequency:    1.7148868809
  - # 7
    frequency:    2.7236440220
  - # 8
    frequency:    4.7954740324
  - # 9
    frequency:    5.1490789848
  - # 10
    frequency:    5.4296404360
  - # 11
    frequency:    6.1511067642
  - # 12
    frequency:    6.8891230885
  - # 13
    frequency:    6.9322745584
  - # 14
    frequency:    7.4298369233
  - # 15
    frequency:    8.9836033681
  - # 16
    frequency:   11.4514109922
  - # 17
    frequency:   11.6660566420
  - # 18
    frequency:   14.0551388607
  - # 19
    frequency:   17.7107765847
  - # 20
    frequency:   17.7292649408
  - # 21
    frequency:   17.7320513904
  - # 22
    frequency:   17.8890981450
  - # 23
    frequency:   18.7668991250
  - # 24
    frequency:   38.8531618088
  - # 25
    frequency:   38.8622458867
  - # 26
    frequency:   68.8054110629
  - # 27
    frequency:   69.0221852904

- q-position: [    0.1060606,    0.0000000,    0.0000000 ]
  distance:    0.0364441
  band:
  - # 1
    frequency:   -0.7709051624
  - # 2
    frequency:   -0.7460043954
  - # 3
    frequency:    0.4830331992
  - # 4
    frequency:    0.7225510136
  - # 5
    frequency:    0.8505637442
  - # 6
    frequency:    1.8006081898
  - # 7
    frequency:    2.8582068957
  - # 8
    frequency:    4.8097808441
  - # 9
    frequency:    5.1908904805
  - # 10
    frequency:    5.4236401223
  - # 11
    frequency:    6.1649238333
  - # 12
    frequency:    6.8901835444
  - # 13
    frequency:    6.9412712161
  - # 14
    frequency:    7.5019289194
  - # 15
    frequency:    8.9770247552
  - # 16
    frequency:   11.4682575189
  - # 17
    frequency:   11.6221566003
  - # 18
    frequency:   14.2802622844
  - # 19
    frequency:   17.7034856669
  - # 20
    frequency:   17.7312139858
  - # 21
    frequency:   17.7339073396
  - # 22
    frequency:   17.9077780950
  - # 23
    frequency:   18.7260690425
  - # 24
    frequency:   38.8512175830
  - # 25
    frequency:   38.8599922605
  - # 26
    frequency:   68.7586855123
  - # 27
    frequency:   68.9688051859

- q-position: [    0.1111111,    0.0000000,    0.0000000 ]
  distance:    0.0381795
  band:
  - # 1
    frequency:   -0.7484347287
  - # 2
    frequency:   -0.7257172308
  - # 3
    frequency:    0.5863561075
  - # 4
    frequency:    0.8064208768
  - # 5
    frequency:    0.9168686019
  - # 6
    frequency:    1.8856591592
  - # 7
    frequency:    2.9915108447
  - # 8
    frequency:    4.8245113256
  - # 9
    frequency:    5.2330118645
  - # 10
    frequency:    5.4182915204
  - # 11
    frequency:    6.1786953513
  - # 12
    frequency:    6.8911458559
  - # 13
    frequency:    6.9502166372
  - # 14
    frequency:    7.5716199431
  - # 15
    frequency:    8.9708626034
  - # 16
    frequency:   11.4849459825
  - # 17
    frequency:   11.5763111965
  - # 18
    frequency:   14.5061289617
  - # 19
    frequency:   17.6940892877
  - # 20
    frequency:   17.7332220648
  - # 21
    frequency:   17.7358228690
  - # 22
    frequency:   17.9275451957
  - # 23
    frequency:   18.6859047093
  - # 24
    frequency:   38.8492215870
  - # 25
    frequency:   38.8576782169
  - # 26
    frequency:   68.7106761362
  - # 27
    frequency:   68.9139982090

- q-position: [    0.1161616,    0.0000000,    0.0000000 ]
  distance:    0.0399149
  band:
  - # 1
    frequency:   -0.7248236648
  - # 2
    frequency:   -0.7040588910
  - # 3
    frequency:    0.6807116706
  - # 4
    frequency:    0.8847359913
  - # 5
    frequency:    0.9826852971
  - # 6
    frequency:    1.9700139898
  - # 7
    frequency:    3.1234228475
  - # 8
    frequency:    4.8396362346
  - # 9
    frequency:    5.2751269733
  - # 10
    frequency:    5.4138988569
  - # 11
    frequency:    6.1923603334
  - # 12
    frequency:    6.8919980010
  - # 13
    frequency:    6.9592113254
  - # 14
    frequency:    7.6388954868
  - # 15
    frequency:    8.9652209337
  - # 16
    frequency:   11.5013775501
  - # 17
    frequency:   11.5287192234
  - # 18
    frequency:   14.7314077734
  - # 19
    frequency:   17.6822711319
  - # 20
    frequency:   17.7352852396
  - # 21
    frequency:   17.7377944046
  - # 22
    frequency:   17.9484753912
  - # 23
    frequency:   18.6468552936
  - # 24
    frequency:   38.8471789455
  - # 25
    frequency:   38.8553097842
  - # 26
    frequency:   68.6615005355
  - # 27
    frequency:   68.8579040545

- q-position: [    0.1212121,    0.0000000,    0.0000000 ]
  distance:    0.0416504
  band:
  - # 1
    frequency:   -0.6999368025
  - # 2
    frequency:   -0.6809239604
  - # 3
    frequency:    0.7697906390
  - # 4
    frequency:    0.9588218500
  - # 5
    frequency:    1.0479560170
  - # 6
    frequency:    2.0536522719
  - # 7
    frequency:    3.2537867169
  - # 8
    frequency:    4.8551270512
  - # 9
    frequency:    5.3165865518
  - # 10
    frequency:    5.4111227755