nqpoint: 300    
npath: 3      
segment_nqpoint:
- 100
- 100
- 100
labels:
- [ 'G', 'M' ]
- [ 'M', 'K' ]
- [ 'K', 'G' ]
reciprocal_lattice:
- [   0.29784956,   0.17196352,   0.00000000 ] # a*
- [   0.00000000,   0.34392705,   0.00000000 ] # b*
- [   0.00000000,   0.00000000,   0.03514400 ] # c*
natom: 9      
lattice:
- [     3.357399630423406,     0.000000000000000,     0.000000000000000 ] # a
- [    -1.678699815211703,     2.907593370593277,     0.000000000000000 ] # b
- [     0.000000000000000,     0.000000000000000,    28.454355858407688 ] # c
points:
- symbol: C # 1
  coordinates: [  0.000000000000000,  0.000000000000000,  0.493960824008669 ]
  mass: 12.010700
- symbol: C # 2
  coordinates: [  0.333332985432215,  0.666666983183674,  0.629209710157626 ]
  mass: 12.010700
- symbol: C # 3
  coordinates: [  0.666666984744047,  0.333332985985145,  0.358031171470821 ]
  mass: 12.010700
- symbol: Hf # 4
  coordinates: [  0.333332985432215,  0.666666983183674,  0.453376109012250 ]
  mass: 178.490000
- symbol: Hf # 5
  coordinates: [  0.666666984744047,  0.333332985985145,  0.537341369714973 ]
  mass: 178.490000
- symbol: N # 6
  coordinates: [  0.333332985432215,  0.666666983183674,  0.584925412161272 ]
  mass: 14.006700
- symbol: N # 7
  coordinates: [  0.666666984744047,  0.333332985985145,  0.316296037231877 ]
  mass: 14.006700
- symbol: O # 8
  coordinates: [  0.666666984744047,  0.333332985985145,  0.405064133317232 ]
  mass: 15.999400
- symbol: S # 9
  coordinates: [  0.333332985432215,  0.666666983183674,  0.683703962768123 ]
  mass: 32.065000

phonon:
- q-position: [    0.0000000,    0.0000000,    0.0000000 ]
  distance:    0.0000000
  band:
  - # 1
    frequency:   -0.0000150972
  - # 2
    frequency:    0.0000000745
  - # 3
    frequency:    0.0000121446
  - # 4
    frequency:    1.2343531621
  - # 5
    frequency:    1.2343531622
  - # 6
    frequency:    1.5548292956
  - # 7
    frequency:    1.5548292957
  - # 8
    frequency:    3.8020195232
  - # 9
    frequency:    3.8020195232
  - # 10
    frequency:    4.8791803006
  - # 11
    frequency:    5.4870032344
  - # 12
    frequency:    5.4870032344
  - # 13
    frequency:    6.7029374427
  - # 14
    frequency:    7.1172676293
  - # 15
    frequency:    7.1172676293
  - # 16
    frequency:    7.9587461939
  - # 17
    frequency:   13.9597180274
  - # 18
    frequency:   13.9597180275
  - # 19
    frequency:   14.0068136724
  - # 20
    frequency:   14.0068136725
  - # 21
    frequency:   16.7732426332
  - # 22
    frequency:   18.5130932511
  - # 23
    frequency:   18.5130932511
  - # 24
    frequency:   27.0389239924
  - # 25
    frequency:   31.6902468987
  - # 26
    frequency:   56.6480150405
  - # 27
    frequency:   67.9915626861

- q-position: [    0.0050505,    0.0000000,    0.0000000 ]
  distance:    0.0017370
  band:
  - # 1
    frequency:    0.0018940396
  - # 2
    frequency:    0.0492973863
  - # 3
    frequency:    0.0911775072
  - # 4
    frequency:    1.2343905842
  - # 5
    frequency:    1.2359810205
  - # 6
    frequency:    1.5550442059
  - # 7
    frequency:    1.5571722450
  - # 8
    frequency:    3.8017680238
  - # 9
    frequency:    3.8021664561
  - # 10
    frequency:    4.8789987196
  - # 11
    frequency:    5.4873148711
  - # 12
    frequency:    5.4875882364
  - # 13
    frequency:    6.7021029622
  - # 14
    frequency:    7.1171002372
  - # 15
    frequency:    7.1178349780
  - # 16
    frequency:    7.9584312291
  - # 17
    frequency:   13.9597850380
  - # 18
    frequency:   13.9599205507
  - # 19
    frequency:   14.0068577970
  - # 20
    frequency:   14.0069917583
  - # 21
    frequency:   16.7731159543
  - # 22
    frequency:   18.5128222828
  - # 23
    frequency:   18.5132014113
  - # 24
    frequency:   27.0387992769
  - # 25
    frequency:   31.6898083627
  - # 26
    frequency:   56.6472220762
  - # 27
    frequency:   67.9912947138

- q-position: [    0.0101010,    0.0000000,    0.0000000 ]
  distance:    0.0034740
  band:
  - # 1
    frequency:    0.0075483698
  - # 2
    frequency:    0.0985927248
  - # 3
    frequency:    0.1822908413
  - # 4
    frequency:    1.2345041091
  - # 5
    frequency:    1.2408462398
  - # 6
    frequency:    1.5556902041
  - # 7
    frequency:    1.5641717381
  - # 8
    frequency:    3.8010147839
  - # 9
    frequency:    3.8026088977
  - # 10
    frequency:    4.8784545096
  - # 11
    frequency:    5.4882485714
  - # 12
    frequency:    5.4893409657
  - # 13
    frequency:    6.6996167707
  - # 14
    frequency:    7.1165986844
  - # 15
    frequency:    7.1195210663
  - # 16
    frequency:    7.9574860961
  - # 17
    frequency:   13.9599858130
  - # 18
    frequency:   13.9605275530
  - # 19
    frequency:   14.0069902063
  - # 20
    frequency:   14.0075259260
  - # 21
    frequency:   16.7727359056
  - # 22
    frequency:   18.5120107070
  - # 23
    frequency:   18.5135244171
  - # 24
    frequency:   27.0384254035
  - # 25
    frequency:   31.6884937389
  - # 26
    frequency:   56.6448444519
  - # 27
    frequency:   67.9904913706

- q-position: [    0.0151515,    0.0000000,    0.0000000 ]
  distance:    0.0052110
  band:
  - # 1
    frequency:    0.0168667397
  - # 2
    frequency:    0.1478837406
  - # 3
    frequency:    0.2732749501
  - # 4
    frequency:    1.2346975089
  - # 5
    frequency:    1.2488955714
  - # 6
    frequency:    1.5567710845
  - # 7
    frequency:    1.5757414038
  - # 8
    frequency:    3.7997635772
  - # 9
    frequency:    3.8033517169
  - # 10
    frequency:    4.8775493016
  - # 11
    frequency:    5.4898007122
  - # 12
    frequency:    5.4922545846
  - # 13
    frequency:    6.6955289318
  - # 14
    frequency:    7.1157648405
  - # 15
    frequency:    7.1222796919
  - # 16
    frequency:    7.9559100909
  - # 17
    frequency:   13.9603195845
  - # 18
    frequency:   13.9615373347
  - # 19
    frequency:   14.0072110057
  - # 20
    frequency:   14.0084159055
  - # 21
    frequency:   16.7721024496
  - # 22
    frequency:   18.5106625066
  - # 23
    frequency:   18.5140578594
  - # 24
    frequency:   27.0378031897
  - # 25
    frequency:   31.6863059767
  - # 26
    frequency:   56.6408859710
  - # 27
    frequency:   67.9891543757

- q-position: [    0.0202020,    0.0000000,    0.0000000 ]
  distance:    0.0069480
  band:
  - # 1
    frequency:    0.0297004113
  - # 2
    frequency:    0.1971676968
  - # 3
    frequency:    0.3640629491
  - # 4
    frequency:    1.2349770591
  - # 5
    frequency:    1.2600459558
  - # 6
    frequency:    1.5582931455
  - # 7
    frequency:    1.5917427353
  - # 8
    frequency:    3.7980206857
  - # 9
    frequency:    3.8044028312
  - # 10
    frequency:    4.8762859149
  - # 11
    frequency:    5.4919652770
  - # 12
    frequency:    5.4963176741
  - # 13
    frequency:    6.6899176404
  - # 14
    frequency:    7.1146018201
  - # 15
    frequency:    7.1260390402
  - # 16
    frequency:    7.9537020828
  - # 17
    frequency:   13.9607850791
  - # 18
    frequency:   13.9629470721
  - # 19
    frequency:   14.0075203669
  - # 20
    frequency:   14.0096612462
  - # 21
    frequency:   16.7712155232
  - # 22
    frequency:   18.5087843023
  - # 23
    frequency:   18.5147944387
  - # 24
    frequency:   27.0369339965
  - # 25
    frequency:   31.6832499822
  - # 26
    frequency:   56.6353529623
  - # 27
    frequency:   67.9872865882

- q-position: [    0.0252525,    0.0000000,    0.0000000 ]
  distance:    0.0086850
  band:
  - # 1
    frequency:    0.0458584142
  - # 2
    frequency:    0.2464411578
  - # 3
    frequency:    0.4545849878
  - # 4
    frequency:    1.2353515222
  - # 5
    frequency:    1.2741918974
  - # 6
    frequency:    1.5602651531
  - # 7
    frequency:    1.6119925912
  - # 8
    frequency:    3.7957948892
  - # 9
    frequency:    3.8057729188
  - # 10
    frequency:    4.8746685018
  - # 11
    frequency:    5.4947338882
  - # 12
    frequency:    5.5015142059
  - # 13
    frequency:    6.6828825353
  - # 14
    frequency:    7.1131139801
  - # 15
    frequency:    7.1307082911
  - # 16
    frequency:    7.9508605762
  - # 17
    frequency:   13.9613805265
  - # 18
    frequency:   13.9647528314
  - # 19
    frequency:   14.0079185206
  - # 20
    frequency:   14.0112613159
  - # 21
    frequency:   16.7700750364
  - # 22
    frequency:   18.5063853275
  - # 23
    frequency:   18.5157240379
  - # 24
    frequency:   27.0358197241
  - # 25
    frequency:   31.6793326034
  - # 26
    frequency:   56.6282542653
  - # 27
    frequency:   67.9848919981

- q-position: [    0.0303030,    0.0000000,    0.0000000 ]
  distance:    0.0104220
  band:
  - # 1
    frequency:    0.0651211786
  - # 2
    frequency:    0.2956997419
  - # 3
    frequency:    0.5447668148
  - # 4
    frequency:    1.2358321281
  - # 5
    frequency:    1.2912139622
  - # 6
    frequency:    1.5626982906
  - # 7
    frequency:    1.6362724654
  - # 8
    frequency:    3.7930974496
  - # 9
    frequency:    3.8074750315
  - # 10
    frequency:    4.8727027318
  - # 11
    frequency:    5.4980958524
  - # 12
    frequency:    5.5078235130
  - # 13
    frequency:    6.6745372485
  - # 14
    frequency:    7.1113069157
  - # 15
    frequency:    7.1361849592
  - # 16
    frequency:    7.9473837963
  - # 17
    frequency:   13.9621036738
  - # 18
    frequency:   13.9669495876
  - # 19
    frequency:   14.0084057481
  - # 20
    frequency:   14.0132152983
  - # 21
    frequency:   16.7686808717
  - # 22
    frequency:   18.5034773924
  - # 23
    frequency:   18.5168338219
  - # 24
    frequency:   27.0344628081
  - # 25
    frequency:   31.6745626099
  - # 26
    frequency:   56.6196012099
  - # 27
    frequency:   67.9819757128

- q-position: [    0.0353535,    0.0000000,    0.0000000 ]
  distance:    0.0121590
  band:
  - # 1
    frequency:    0.0872540763
  - # 2
    frequency:    0.3449378593
  - # 3
    frequency:    0.6345278528
  - # 4
    frequency:    1.2364325542
  - # 5
    frequency:    1.3109874442
  - # 6
    frequency:    1.5656060971
  - # 7
    frequency:    1.6643385391
  - # 8
    frequency:    3.7899420893
  - # 9
    frequency:    3.8095241220
  - # 10
    frequency:    4.8703960055
  - # 11
    frequency:    5.5020382173
  - # 12
    frequency:    5.5152202711
  - # 13
    frequency:    6.6650023113
  - # 14
    frequency:    7.1091874552
  - # 15
    frequency:    7.1423618508
  - # 16
    frequency:    7.9432697961
  - # 17
    frequency:   13.9629518015
  - # 18
    frequency:   13.9695312495
  - # 19
    frequency:   14.0089823689
  - # 20
    frequency:   14.0155221901
  - # 21
    frequency:   16.7670328844
  - # 22
    frequency:   18.5000748387
  - # 23
    frequency:   18.5181083630
  - # 24
    frequency:   27.0328662131
  - # 25
    frequency:   31.6689506671
  - # 26
    frequency:   56.6094075897
  - # 27
    frequency:   67.9785439413

- q-position: [    0.0404040,    0.0000000,    0.0000000 ]
  distance:    0.0138960
  band:
  - # 1
    frequency:    0.1120194117
  - # 2
    frequency:    0.3941484291
  - # 3
    frequency:    0.7237784937
  - # 4
    frequency:    1.2371689106
  - # 5
    frequency:    1.3333907556
  - # 6
    frequency:    1.5690043979
  - # 7
    frequency:    1.6959315556
  - # 8
    frequency:    3.7863449644
  - # 9
    frequency:    3.8119365045
  - # 10
    frequency:    4.8677576806
  - # 11
    frequency:    5.5065458404
  - # 12
    frequency:    5.5236744953
  - # 13
    frequency:    6.6543991708
  - # 14
    frequency:    7.1067636517
  - # 15
    frequency:    7.1491328868
  - # 16
    frequency:    7.9385165827
  - # 17
    frequency:   13.9639217451
  - # 18
    frequency:   13.9724906903
  - # 19
    frequency:   14.0096487271
  - # 20
    frequency:   14.0181807962
  - # 21
    frequency:   16.7651309049
  - # 22
    frequency:   18.4961944840
  - # 23
    frequency:   18.5195297881
  - # 24
    frequency:   27.0310334254
  - # 25
    frequency:   31.6625093044
  - # 26
    frequency:   56.5976896299
  - # 27
    frequency:   67.9746039736

- q-position: [    0.0454545,    0.0000000,    0.0000000 ]
  distance:    0.0156330
  band:
  - # 1
    frequency:    0.1391860110
  - # 2
    frequency:    0.4433225652
  - # 3
    frequency:    0.8124161427
  - # 4
    frequency:    1.2380597377
  - # 5
    frequency:    1.3583137200
  - # 6
    frequency:    1.5729112274
  - # 7
    frequency:    1.7307857364
  - # 8
    frequency:    3.7823246302
  - # 9
    frequency:    3.8147292691
  - # 10
    frequency:    4.8647992989
  - # 11
    frequency:    5.5116014688
  - # 12
    frequency:    5.5331515639
  - # 13
    frequency:    6.6428456583
  - # 14
    frequency:    7.1040447735
  - # 15
    frequency:    7.1563974559
  - # 16
    frequency:    7.9331222601
  - # 17
    frequency:   13.9650099200
  - # 18
    frequency:   13.9758197839
  - # 19
    frequency:   14.0104051737
  - # 20
    frequency:   14.0211897220
  - # 21
    frequency:   16.7629747442
  - # 22
    frequency:   18.4918555575
  - # 23
    frequency:   18.5210779473
  - # 24
    frequency:   27.0289684453
  - # 25
    frequency:   31.6552528781
  - # 26
    frequency:   56.5844659494
  - # 27
    frequency:   67.9701641577

- q-position: [    0.0505051,    0.0000000,    0.0000000 ]
  distance:    0.0173701
  band:
  - # 1
    frequency:    0.1685361299
  - # 2
    frequency:    0.4924492199
  - # 3
    frequency:    0.9003192327
  - # 4
    frequency:    1.2391260275
  - # 5
    frequency:    1.3856665898
  - # 6
    frequency:    1.5773467508
  - # 7
    frequency:    1.7686362261
  - # 8
    frequency:    3.7779019989
  - # 9
    frequency:    3.8179196699
  - # 10
    frequency:    4.8615348008
  - # 11
    frequency:    5.5171858290
  - # 12
    frequency:    5.5436122721
  - # 13
    frequency:    6.6304529102
  - # 14
    frequency:    7.1010412906
  - # 15
    frequency:    7.1640632998
  - # 16
    frequency:    7.9270851864
  - # 17
    frequency:   13.9662123504
  - # 18
    frequency:   13.9795094476
  - # 19
    frequency:   14.0112520480
  - # 20
    frequency:   14.0245473629
  - # 21
    frequency:   16.7605642029
  - # 22
    frequency:   18.4870796252
  - # 23
    frequency:   18.5227305980
  - # 24
    frequency:   27.0266757770
  - # 25
    frequency:   31.6471975291
  - # 26
    frequency:   56.5697575172
  - # 27
    frequency:   67.9652338724

- q-position: [    0.0555556,    0.0000000,    0.0000000 ]
  distance:    0.0191071
  band:
  - # 1
    frequency:    0.1998698206
  - # 2
    frequency:    0.5415147651
  - # 3
    frequency:    0.9873378933
  - # 4
    frequency:    1.2403912846
  - # 5
    frequency:    1.4153913305
  - # 6
    frequency:    1.5823331866
  - # 7
    frequency:    1.8092248434
  - # 8
    frequency:    3.7731002892
  - # 9
    frequency:    3.8215245114
  - # 10
    frequency:    4.8579807193
  - # 11
    frequency:    5.5232777260
  - # 12
    frequency:    5.5550129180
  - # 13
    frequency:    6.6173235450
  - # 14
    frequency:    7.0977648583
  - # 15
    frequency:    7.1720481354
  - # 16
    frequency:    7.9204041417
  - # 17
    frequency:   13.9675247028
  - # 18
    frequency:   13.9835496914
  - # 19
    frequency:   14.0121896556
  - # 20
    frequency:   14.0282518893
  - # 21
    frequency:   16.7578990857
  - # 22
    frequency:   18.4818905075
  - # 23
    frequency:   18.5244636044
  - # 24
    frequency:   27.0241604178
  - # 25
    frequency:   31.6383611352
  - # 26
    frequency:   56.5535876041
  - # 27
    frequency:   67.9598234973

- q-position: [    0.0606061,    0.0000000,    0.0000000 ]
  distance:    0.0208441
  band:
  - # 1
    frequency:    0.2330071464
  - # 2
    frequency:    0.5905024827
  - # 3
    frequency:    1.0732790427
  - # 4
    frequency:    1.2418816546
  - # 5
    frequency:    1.4474776708
  - # 6
    frequency:    1.5878947356
  - # 7
    frequency:    1.8523041548
  - # 8
    frequency:    3.7679449644
  - # 9
    frequency:    3.8255595535
  - # 10
    frequency:    4.8541563469
  - # 11
    frequency:    5.5298541514
  - # 12
    frequency:    5.5673054225
  - # 13
    frequency:    6.6035508135
  - # 14
    frequency:    7.0942282960
  - # 15
    frequency:    7.1802802994
  - # 16
    frequency:    7.9130785028
  - # 17
    frequency:   13.9689423227
  - # 18
    frequency:   13.9879296747
  - # 19
    frequency:   14.0132182449
  - # 20
    frequency:   14.0323012262
  - # 21
    frequency:   16.7549792218
  - # 22
    frequency:   18.4763141870
  - # 23
    frequency:   18.5262511460
  - # 24
    frequency:   27.0214278470
  - # 25
    frequency:   31.6287632580
  - # 26
    frequency:   56.5359817280
  - # 27
    frequency:   67.9539443799

- q-position: [    0.0656566,    0.0000000,    0.0000000 ]
  distance:    0.0225811
  band:
  - # 1
    frequency:    0.2677887238
  - # 2
    frequency:    0.6393919239
  - # 3
    frequency:    1.1578822103
  - # 4
    frequency:    1.2436261558
  - # 5
    frequency:    1.4819878526
  - # 6
    frequency:    1.5940575224
  - # 7
    frequency:    1.8976400560
  - # 8
    frequency:    3.7624636604
  - # 9
    frequency:    3.8300389578
  - # 10
    frequency:    4.8500838732
  - # 11
    frequency:    5.5368903996
  - # 12
    frequency:    5.5804374777
  - # 13
    frequency:    6.5892184473
  - # 14
    frequency:    7.0904455623
  - # 15
    frequency:    7.1886987006
  - # 16
    frequency:    7.9051084229
  - # 17
    frequency:   13.9704602758
  - # 18
    frequency:   13.9926377704
  - # 19
    frequency:   14.0143379811
  - # 20
    frequency:   14.0366930260
  - # 21
    frequency:   16.7518044920
  - # 22
    frequency:   18.4703787082
  - # 23
    frequency:   18.5280659337
  - # 24
    frequency:   27.0184840120
  - # 25
    frequency:   31.6184250860
  - # 26
    frequency:   56.5169675946
  - # 27
    frequency:   67.9476087993

- q-position: [    0.0707071,    0.0000000,    0.0000000 ]
  distance:    0.0243181
  band:
  - # 1
    frequency:    0.3040750643
  - # 2
    frequency:    0.6881580693
  - # 3
    frequency:    1.2407805508
  - # 4
    frequency:    1.2456570814
  - # 5
    frequency:    1.5190957986
  - # 6
    frequency:    1.6008495548
  - # 7
    frequency:    1.9450131309
  - # 8
    frequency:    3.7566861000
  - # 9
    frequency:    3.8349747927
  - # 10
    frequency:    4.8457884911
  - # 11
    frequency:    5.5443601905
  - # 12
    frequency:    5.5943527190
  - # 13
    frequency:    6.5744009670
  - # 14
    frequency:    7.0864317241
  - # 15
    frequency:    7.1972523223
  - # 16
    frequency:    7.8964950120
  - # 17
    frequency:   13.9720733929
  - # 18
    frequency:   13.9976616381
  - # 19
    frequency:   14.0155489194
  - # 20
    frequency:   14.0414246337
  - # 21
    frequency:   16.7483748643
  - # 22
    frequency:   18.4641140697
  - # 23
    frequency:   18.5298794291
  - # 24
    frequency:   27.0153353149
  - # 25
    frequency:   31.6073693713
  - # 26
    frequency:   56.4965750333
  - # 27
    frequency:   67.9408299271

- q-position: [    0.0757576,    0.0000000,    0.0000000 ]
  distance:    0.0260551
  band:
  - # 1
    frequency:    0.3417451245
  - # 2
    frequency:    0.7367701856
  - # 3
    frequency:    1.2480106704
  - # 4
    frequency:    1.3214413560
  - # 5
    frequency:    1.5591465133
  - # 6
    frequency:    1.6083007083
  - # 7
    frequency:    1.9942190821
  - # 8
    frequency:    3.7506439938
  - # 9
    frequency:    3.8403766160
  - # 10
    frequency:    4.8412984743
  - # 11
    frequency:    5.5522357992
  - # 12
    frequency:    5.6089909137
  - # 13
    frequency:    6.5591642755
  - # 14
    frequency:    7.0822029211
  - # 15
    frequency:    7.2058994581
  - # 16
    frequency:    7.8872405139
  - # 17
    frequency:   13.9737763171
  - # 18
    frequency:   14.0029883046
  - # 19
    frequency:   14.0168509767
  - # 20
    frequency:   14.0464930431
  - # 21
    frequency:   16.7446904369
  - # 22
    frequency:   18.4575521079
  - # 23
    frequency:   18.5316620644
  - # 24
    frequency:   27.0119885974
  - # 25
    frequency:   31.5956203638
  - # 26
    frequency:   56.4748359275
  - # 27
    frequency:   67.9336217860

- q-position: [    0.0808081,    0.0000000,    0.0000000 ]
  distance:    0.0277921
  band:
  - # 1
    frequency:    0.3806943915
  - # 2
    frequency:    0.7851902020
  - # 3
    frequency:    1.2507282221
  - # 4
    frequency:    1.3990914883
  - # 5
    frequency:    1.6027303706
  - # 6
    frequency:    1.6164427438
  - # 7
    frequency:    2.0450685026
  - # 8
    frequency:    3.7443709253
  - # 9
    frequency:    3.8462511472
  - # 10
    frequency:    4.8366452266
  - # 11
    frequency:    5.5604881916
  - # 12
    frequency:    5.6242881565
  - # 13
    frequency:    6.5435664115
  - # 14
    frequency:    7.0777763233
  - # 15
    frequency:    7.2146068147
  - # 16
    frequency:    7.8773484788
  - # 17
    frequency:   13.9755635551
  - # 18
    frequency:   14.0086042551
  - # 19
    frequency:   14.0182439027
  - # 20
    frequency:   14.0518948430
  - # 21
    frequency:   16.7407514905
  - # 22
    frequency:   18.4507263737
  - # 23
    frequency:   18.5333834587
  - # 24
    frequency:   27.0084511245
  - # 25
    frequency:   31.5832037392
  - # 26
    frequency:   56.4517841410
  - # 27
    frequency:   67.9259992055

- q-position: [    0.0858586,    0.0000000,    0.0000000 ]
  distance:    0.0295291
  band:
  - # 1
    frequency:    0.4208327477
  - # 2
    frequency:    0.8333703058
  - # 3
    frequency:    1.2538579514
  - # 4
    frequency:    1.4726836619
  - # 5
    frequency:    1.6253093651
  - # 6
    frequency:    1.6507164097
  - # 7
    frequency:    2.0973862210
  - # 8
    frequency:    3.7379022194
  - # 9
    frequency:    3.8526020399
  - # 10
    frequency:    4.8318633068
  - # 11
    frequency:    5.5690871644
  - # 12
    frequency:    5.6401770637
  - # 13
    frequency:    6.5276583853
  - # 14
    frequency:    7.0731700831
  - # 15
    frequency:    7.2233485661
  - # 16
    frequency:    7.8668239272
  - # 17
    frequency:   13.9774295288
  - # 18
    frequency:   14.0144955308
  - # 19
    frequency:   14.0197272519
  - # 20
    frequency:   14.0576261552
  - # 21
    frequency:   16.7365585488
  - # 22
    frequency:   18.4436720030
  - # 23
    frequency:   18.5350126291
  - # 24
    frequency:   27.0047305674
  - # 25
    frequency:   31.5701465240
  - # 26
    frequency:   56.4274554396
  - # 27
    frequency:   67.9179777757

- q-position: [    0.0909091,    0.0000000,    0.0000000 ]
  distance:    0.0312661
  band:
  - # 1
    frequency:    0.4620822903
  - # 2
    frequency:    0.8812492159
  - # 3
    frequency:    1.2574581218
  - # 4
    frequency:    1.5410740875
  - # 5
    frequency:    1.6349363243
  - # 6
    frequency:    1.7040741527
  - # 7
    frequency:    2.1510104034
  - # 8
    frequency:    3.7312747929
  - # 9
    frequency:    3.8594297617
  - # 10
    frequency:    4.8269904302
  - # 11
    frequency:    5.5780014908
  - # 12
    frequency:    5.6565869538
  - # 13
    frequency:    6.5114850519
  - # 14
    frequency:    7.0684032800
  - # 15
    frequency:    7.2321054158
  - # 16
    frequency:    7.8556735034
  - # 17
    frequency:   13.9793686295
  - # 18
    frequency:   14.0206478343
  - # 19
    frequency:   14.0213003564
  - # 20
    frequency:   14.0636825631
  - # 21
    frequency:   16.7321124479
  - # 22
    frequency:   18.4364255789
  - # 23
    frequency:   18.5365181931
  - # 24
    frequency:   27.0008349849
  - # 25
    frequency:   31.5564770165
  - # 26
    frequency:   56.4018874081
  - # 27
    frequency:   67.9095737984

- q-position: [    0.0959596,    0.0000000,    0.0000000 ]
  distance:    0.0330031
  band:
  - # 1
    frequency:    0.5043752224
  - # 2
    frequency:    0.9287461252
  - # 3
    frequency:    1.2616024646
  - # 4
    frequency:    1.6035862406
  - # 5
    frequency:    1.6453615806
  - # 6
    frequency:    1.7633092057
  - # 7
    frequency:    2.2057915503
  - # 8
    frequency:    3.7245269862
  - # 9
    frequency:    3.8667315813
  - # 10
    frequency:    4.8220674494
  - # 11
    frequency:    5.5871990694
  - # 12
    frequency:    5.6734440053
  - # 13
    frequency:    6.4950860004
  - # 14
    frequency:    7.0634958590
  - # 15
    frequency:    7.2408636957
  - # 16
    frequency:    7.8439056175
  - # 17
    frequency:   13.9813752705
  - # 18
    frequency:   14.0229623010
  - # 19
    frequency:   14.0270466395
  - # 20
    frequency:   14.0700590334
  - # 21
    frequency:   16.7274144123
  - # 22
    frequency:   18.4290249900
  - # 23
    frequency:   18.5378685615
  - # 24
    frequency:   26.9967728048
  - # 25
    frequency:   31.5422247037
  - # 26
    frequency:   56.3751193639
  - # 27
    frequency:   67.9008042369

- q-position: [    0.1010101,    0.0000000,    0.0000000 ]
  distance:    0.0347401
  band:
  - # 1
    frequency:    0.5476518941
  - # 2
    frequency:    0.9757503463
  - # 3
    frequency:    1.2663898512
  - # 4
    frequency:    1.6566255168
  - # 5
    frequency:    1.6606032676
  - # 6
    frequency:    1.8278701405
  - # 7
    frequency:    2.2615914914
  - # 8
    frequency:    3.7176983748
  - # 9
    frequency:    3.8745016622
  - # 10
    frequency:    4.8171383122
  - # 11
    frequency:    5.5966470775
  - # 12
    frequency:    5.6906713778
  - # 13
    frequency:    6.4784964556
  - # 14
    frequency:    7.0584685614
  - # 15
    frequency:    7.2496145188
  - # 16
    frequency:    7.8315305745
  - # 17
    frequency:   13.9834439402
  - # 18
    frequency:   14.0247119017
  - # 19
    frequency:   14.0336773025
  - # 20
    frequency:   14.0767498354
  - # 21
    frequency:   16.7224661386
  - # 22
    frequency:   18.4215092808
  - # 23
    frequency:   18.5390321178
  - # 24
    frequency:   26.9925528025
  - # 25
    frequency:   31.5274201756
  - # 26
    frequency:   56.3471922665
  - # 27
    frequency:   67.8916866636

- q-position: [    0.1060606,    0.0000000,    0.0000000 ]
  distance:    0.0364771
  band:
  - # 1
    frequency:    0.5918590358
  - # 2
    frequency:    1.0221026493
  - # 3
    frequency:    1.2719622359
  - # 4
    frequency:    1.6687712110
  - # 5
    frequency:    1.7134070071
  - # 6
    frequency:    1.8963086925
  - # 7
    frequency:    2.3182824524
  - # 8
    frequency:    3.7108295608
  - # 9
    frequency:    3.8827312550
  - # 10
    frequency:    4.8122499987
  - # 11
    frequency:    5.6063121273
  - # 12
    frequency:    5.7081892834
  - # 13
    frequency:    6.4617481986
  - # 14
    frequency:    7.0533428491
  - # 15
    frequency:    7.2583529899
  - # 16
    frequency:    7.8185606916
  - # 17
    frequency:   13.9855692508
  - # 18
    frequency:   14.0265476887
  - # 19
    frequency:   14.0405251703
  - # 20
    frequency:   14.0837484602
  - # 21
    frequency:   16.7172698837
  - # 22
    frequency:   18.4139184984
  - # 23
    frequency:   18.5399773858
  - # 24
    frequency:   26.9881840801
  - # 25
    frequency:   31.5120950353
  - # 26
    frequency:   56.3181486234
  - # 27
    frequency:   67.8822392062

- q-position: [    0.1111111,    0.0000000,    0.0000000 ]
  distance:    0.0382141
  band:
  - # 1
    frequency:    0.6369482101
  - # 2
    frequency:    1.0675598330
  - # 3
    frequency:    1.2785393429
  - # 4
    frequency:    1.6818447528
  - # 5
    frequency:    1.7634394638
  - # 6
    frequency:    1.9670174465
  - # 7
    frequency:    2.3757462452
  - # 8
    frequency:    3.7039619432
  - # 9
    frequency:    3.8914089763
  - # 10
    frequency:    4.8074524311
  - # 11
    frequency:    5.6161604253
  - # 12
    frequency:    5.7259149915
  - # 13
    frequency:    6.4448705244
  - # 14
    frequency:    7.0481408214
  - # 15
    frequency:    7.2670774734
  - # 16
    frequency:    7.8050104040
  - # 17
    frequency:   13.9877459844
  - # 18
    frequency:   14.0284678952
  - # 19
    frequency:   14.0475756808
  - # 20
    frequency:   14.0910475450
  - # 21
    frequency:   16.7118285561
  - # 22
    frequency:   18.4062935337
  - # 23
    frequency:   18.5406731818
  - # 24
    frequency:   26.9836760430
  - # 25
    frequency:   31.4962818069
  - # 26
    frequency:   56.2880323925
  - # 27
    frequency:   67.8724804928

- q-position: [    0.1161616,    0.0000000,    0.0000000 ]
  distance:    0.0399511
  band:
  - # 1
    frequency:    0.6828744871
  - # 2
    frequency:    1.1117245965
  - # 3
    frequency:    1.2864880618
  - # 4
    frequency:    1.6958955803
  - # 5
    frequency:    1.8118194742
  - # 6
    frequency:    2.0387122849
  - # 7
    frequency:    2.4338736164
  - # 8
    frequency:    3.6971374685
  - # 9
    frequency:    3.9005211572
  - # 10
    frequency:    4.8027983549
  - # 11
    frequency:    5.6261579352
  - # 12
    frequency:    5.7437627452
  - # 13
    frequency:    6.4278912574
  - # 14
    frequency:    7.0428851243
  - # 15
    frequency:    7.2757889134
  - # 16
    frequency:    7.7908963645
  - # 17
    frequency:   13.9899691340
  - # 18
    frequency:   14.0304704518
  - # 19
    frequency:   14.0548144520
  - # 20
    frequency:   14.0986388090
  - # 21
    frequency:   16.7061458087
  - # 22
    frequency:   18.3986759579
  - # 23
    frequency:   18.5410887532
  - # 24
    frequency:   26.9790383763
  - # 25
    frequency:   31.4800138408
  - # 26
    frequency:   56.2568888826
  - # 27
    frequency:   67.8624295952

- q-position: [    0.1212121,    0.0000000,    0.0000000 ]
  distance:    0.0416881
  band:
  - # 1
    frequency:    0.7295953435
  - # 2
    frequency:    1.1539064800
  - # 3
    frequency:    1.2964608314
  - # 4
    frequency:    1.7109767899
  - # 5
    frequency:    1.8592789102
  - # 6
    frequency:    2.1104952704
  - # 7
    frequency:    2.4925637730
  - # 8
    frequency:    3.6903983605
  - # 9
    frequency:    3.9100522410
  - # 10