nqpoint: 300    
npath: 3      
segment_nqpoint:
- 100
- 100
- 100
labels:
- [ 'G', 'M' ]
- [ 'M', 'K' ]
- [ 'K', 'G' ]
reciprocal_lattice:
- [   0.29557503,   0.17065032,   0.00000000 ] # a*
- [   0.00000000,   0.34130064,   0.00000000 ] # b*
- [   0.00000000,   0.00000000,   0.03560067 ] # c*
natom: 9      
lattice:
- [     3.383235779128710,     0.000000000000000,     0.000000000000000 ] # a
- [    -1.691617889564355,     2.929968131718832,     0.000000000000000 ] # b
- [     0.000000000000000,     0.000000000000000,    28.089357848795121 ] # c
points:
- symbol: C # 1
  coordinates: [  0.333332985432215,  0.666666983183674,  0.636720730579436 ]
  mass: 12.010700
- symbol: C # 2
  coordinates: [  0.666666984744047,  0.333332985985145,  0.362700447948132 ]
  mass: 12.010700
- symbol: N # 3
  coordinates: [  0.000000000000000,  0.000000000000000,  0.499669378175824 ]
  mass: 14.006700
- symbol: N # 4
  coordinates: [  0.333332985432215,  0.666666983183674,  0.592270295800948 ]
  mass: 14.006700
- symbol: N # 5
  coordinates: [  0.666666984744047,  0.333332985985145,  0.320406043044735 ]
  mass: 14.006700
- symbol: O # 6
  coordinates: [  0.333332985432215,  0.666666983183674,  0.679593956955266 ]
  mass: 15.999400
- symbol: O # 7
  coordinates: [  0.666666984744047,  0.333332985985145,  0.410270606385019 ]
  mass: 15.999400
- symbol: Zr # 8
  coordinates: [  0.333332985432215,  0.666666983183674,  0.459220512692368 ]
  mass: 91.224000
- symbol: Zr # 9
  coordinates: [  0.666666984744047,  0.333332985985145,  0.541274515283717 ]
  mass: 91.224000

phonon:
- q-position: [    0.0000000,    0.0000000,    0.0000000 ]
  distance:    0.0000000
  band:
  - # 1
    frequency:   -1.1599380139
  - # 2
    frequency:   -1.1599380139
  - # 3
    frequency:   -1.0479401756
  - # 4
    frequency:   -1.0479401756
  - # 5
    frequency:   -0.0000043312
  - # 6
    frequency:   -0.0000001630
  - # 7
    frequency:    0.0000057710
  - # 8
    frequency:    3.7718623999
  - # 9
    frequency:    3.7718623999
  - # 10
    frequency:    5.3402056723
  - # 11
    frequency:    6.3658947034
  - # 12
    frequency:    6.3658947034
  - # 13
    frequency:    7.0199188619
  - # 14
    frequency:    7.0199188619
  - # 15
    frequency:    8.2565317382
  - # 16
    frequency:    9.4887557134
  - # 17
    frequency:   13.9697577580
  - # 18
    frequency:   13.9697577580
  - # 19
    frequency:   14.0927154392
  - # 20
    frequency:   16.2572885023
  - # 21
    frequency:   16.2572885023
  - # 22
    frequency:   17.0766014986
  - # 23
    frequency:   17.0766014986
  - # 24
    frequency:   32.0329035135
  - # 25
    frequency:   38.3027184207
  - # 26
    frequency:   67.9773041896
  - # 27
    frequency:   68.9513742811

- q-position: [    0.0050505,    0.0000000,    0.0000000 ]
  distance:    0.0017237
  band:
  - # 1
    frequency:   -1.1598838285
  - # 2
    frequency:   -1.1585309615
  - # 3
    frequency:   -1.0473767348
  - # 4
    frequency:   -1.0457814529
  - # 5
    frequency:    0.0015176067
  - # 6
    frequency:    0.0639600682
  - # 7
    frequency:    0.0913544711
  - # 8
    frequency:    3.7707590101
  - # 9
    frequency:    3.7720696728
  - # 10
    frequency:    5.3401663404
  - # 11
    frequency:    6.3657881039
  - # 12
    frequency:    6.3664447356
  - # 13
    frequency:    7.0198844416
  - # 14
    frequency:    7.0205077629
  - # 15
    frequency:    8.2561649115
  - # 16
    frequency:    9.4880224321
  - # 17
    frequency:   13.9697657970
  - # 18
    frequency:   13.9698047888
  - # 19
    frequency:   14.0925744191
  - # 20
    frequency:   16.2574937000
  - # 21
    frequency:   16.2576795447
  - # 22
    frequency:   17.0766002056
  - # 23
    frequency:   17.0769224070
  - # 24
    frequency:   32.0324054021
  - # 25
    frequency:   38.3026915459
  - # 26
    frequency:   67.9770311316
  - # 27
    frequency:   68.9501615621

- q-position: [    0.0101010,    0.0000000,    0.0000000 ]
  distance:    0.0034475
  band:
  - # 1
    frequency:   -1.1597097456
  - # 2
    frequency:   -1.1543342765
  - # 3
    frequency:   -1.0457031309
  - # 4
    frequency:   -1.0392682895
  - # 5
    frequency:    0.0060682277
  - # 6
    frequency:    0.1279038800
  - # 7
    frequency:    0.1827779534
  - # 8
    frequency:    3.7674495533
  - # 9
    frequency:    3.7726956895
  - # 10
    frequency:    5.3400504845
  - # 11
    frequency:    6.3654703802
  - # 12
    frequency:    6.3680936327
  - # 13
    frequency:    7.0197801323
  - # 14
    frequency:    7.0222699365
  - # 15
    frequency:    8.2550659380
  - # 16
    frequency:    9.4858236057
  - # 17
    frequency:   13.9697899938
  - # 18
    frequency:   13.9699430865
  - # 19
    frequency:   14.0921535623
  - # 20
    frequency:   16.2581085385
  - # 21
    frequency:   16.2588501339
  - # 22
    frequency:   17.0765966063
  - # 23
    frequency:   17.0778847266
  - # 24
    frequency:   32.0309123171
  - # 25
    frequency:   38.3026109933
  - # 26
    frequency:   67.9762125807
  - # 27
    frequency:   68.9465259976

- q-position: [    0.0151515,    0.0000000,    0.0000000 ]
  distance:    0.0051712
  band:
  - # 1
    frequency:   -1.1593832495
  - # 2
    frequency:   -1.1474165691
  - # 3
    frequency:   -1.0429667775
  - # 4
    frequency:   -1.0282913075
  - # 5
    frequency:    0.0136584556
  - # 6
    frequency:    0.1918114329
  - # 7
    frequency:    0.2743297932
  - # 8
    frequency:    3.7619362042
  - # 9
    frequency:    3.7737529632
  - # 10
    frequency:    5.3398644921
  - # 11
    frequency:    6.3649477139
  - # 12
    frequency:    6.3708377974
  - # 13
    frequency:    7.0196028168
  - # 14
    frequency:    7.0251918439
  - # 15
    frequency:    8.2532393421
  - # 16
    frequency:    9.4821622863
  - # 17
    frequency:   13.9698305871
  - # 18
    frequency:   13.9701641435
  - # 19
    frequency:   14.0914596254
  - # 20
    frequency:   16.2591307530
  - # 21
    frequency:   16.2607926654
  - # 22
    frequency:   17.0765915373
  - # 23
    frequency:   17.0794872393
  - # 24
    frequency:   32.0284280020
  - # 25
    frequency:   38.3024769780
  - # 26
    frequency:   67.9748504038
  - # 27
    frequency:   68.9404753572

- q-position: [    0.0202020,    0.0000000,    0.0000000 ]
  distance:    0.0068950
  band:
  - # 1
    frequency:   -1.1588562758
  - # 2
    frequency:   -1.1378770281
  - # 3
    frequency:   -1.0392384342
  - # 4
    frequency:   -1.0126727525
  - # 5
    frequency:    0.0242982933
  - # 6
    frequency:    0.2556557536
  - # 7
    frequency:    0.3660511989
  - # 8
    frequency:    3.7542227087
  - # 9
    frequency:    3.7752620807
  - # 10
    frequency:    5.3396189039
  - # 11
    frequency:    6.3642302691
  - # 12
    frequency:    6.3746712355
  - # 13
    frequency:    7.0193473914
  - # 14
    frequency:    7.0292510823
  - # 15
    frequency:    8.2506926788
  - # 16
    frequency:    9.4770435556
  - # 17
    frequency:   13.9698879733
  - # 18
    frequency:   13.9704533657
  - # 19
    frequency:   14.0905043586
  - # 20
    frequency:   16.2605565666
  - # 21
    frequency:   16.2634945008
  - # 22
    frequency:   17.0765863874
  - # 23
    frequency:   17.0817279120
  - # 24
    frequency:   32.0249586837
  - # 25
    frequency:   38.3022898579
  - # 26
    frequency:   67.9729477054
  - # 27
    frequency:   68.9320225657

- q-position: [    0.0252525,    0.0000000,    0.0000000 ]
  distance:    0.0086187
  band:
  - # 1
    frequency:   -1.1580722145
  - # 2
    frequency:   -1.1258257861
  - # 3
    frequency:   -1.0346023920
  - # 4
    frequency:   -0.9921702530
  - # 5
    frequency:    0.0380044489
  - # 6
    frequency:    0.3194006029
  - # 7
    frequency:    0.4579589691
  - # 8
    frequency:    3.7443145670
  - # 9
    frequency:    3.7772513078
  - # 10
    frequency:    5.3393282607
  - # 11
    frequency:    6.3633319883
  - # 12
    frequency:    6.3795855592
  - # 13
    frequency:    7.0190068995
  - # 14
    frequency:    7.0344166214
  - # 15
    frequency:    8.2474365555
  - # 16
    frequency:    9.4704745179
  - # 17
    frequency:   13.9699627027
  - # 18
    frequency:   13.9707894455
  - # 19
    frequency:   14.0893052423
  - # 20
    frequency:   16.2623806877
  - # 21
    frequency:   16.2669380210
  - # 22
    frequency:   17.0765830885
  - # 23
    frequency:   17.0846038912
  - # 24
    frequency:   32.0205130521
  - # 25
    frequency:   38.3020501319
  - # 26
    frequency:   67.9705088167
  - # 27
    frequency:   68.9211856658

- q-position: [    0.0303030,    0.0000000,    0.0000000 ]
  distance:    0.0103424
  band:
  - # 1
    frequency:   -1.1569725664
  - # 2
    frequency:   -1.1113625601
  - # 3
    frequency:   -1.0291465681
  - # 4
    frequency:   -0.9664757686
  - # 5
    frequency:    0.0548037829
  - # 6
    frequency:    0.3829993248
  - # 7
    frequency:    0.5500420824
  - # 8
    frequency:    3.7322192925
  - # 9
    frequency:    3.7797560487
  - # 10
    frequency:    5.3390108952
  - # 11
    frequency:    6.3622703185
  - # 12
    frequency:    6.3855699913
  - # 13
    frequency:    7.0185727100
  - # 14
    frequency:    7.0406491238
  - # 15
    frequency:    8.2434846628
  - # 16
    frequency:    9.4624642903
  - # 17
    frequency:   13.9700554765
  - # 18
    frequency:   13.9711434825
  - # 19
    frequency:   14.0878865137
  - # 20
    frequency:   16.2645963060
  - # 21
    frequency:   16.2711007039
  - # 22
    frequency:   17.0765841031
  - # 23
    frequency:   17.0881114961
  - # 24
    frequency:   32.0151022341
  - # 25
    frequency:   38.3017584387
  - # 26
    frequency:   67.9675392813
  - # 27
    frequency:   68.9079877664

- q-position: [    0.0353535,    0.0000000,    0.0000000 ]
  distance:    0.0120662
  band:
  - # 1
    frequency:   -1.1555020070
  - # 2
    frequency:   -1.0945583638
  - # 3
    frequency:   -1.0229542391
  - # 4
    frequency:   -0.9352039659
  - # 5
    frequency:    0.0747390982
  - # 6
    frequency:    0.4463948321
  - # 7
    frequency:    0.6422613373
  - # 8
    frequency:    3.7179467483
  - # 9
    frequency:    3.7828181740
  - # 10
    frequency:    5.3386886768
  - # 11
    frequency:    6.3610658768
  - # 12
    frequency:    6.3926113713
  - # 13
    frequency:    7.0180347350
  - # 14
    frequency:    7.0479013365
  - # 15
    frequency:    8.2388538140
  - # 16
    frequency:    9.4530239891
  - # 17
    frequency:   13.9701671409
  - # 18
    frequency:   13.9714778718
  - # 19
    frequency:   14.0862804601
  - # 20
    frequency:   16.2671950871
  - # 21
    frequency:   16.2759552272
  - # 22
    frequency:   17.0765924088
  - # 23
    frequency:   17.0922462083
  - # 24
    frequency:   32.0087397585
  - # 25
    frequency:   38.3014155539
  - # 26
    frequency:   67.9640458359
  - # 27
    frequency:   68.8924569762

- q-position: [    0.0404040,    0.0000000,    0.0000000 ]
  distance:    0.0137899
  band:
  - # 1
    frequency:   -1.1536114666
  - # 2
    frequency:   -1.0754435295
  - # 3
    frequency:   -1.0160982129
  - # 4
    frequency:   -0.8978642596
  - # 5
    frequency:    0.0978789746
  - # 6
    frequency:    0.5095205220
  - # 7
    frequency:    0.7345517389
  - # 8
    frequency:    3.7015095661
  - # 9
    frequency:    3.7864852307
  - # 10
    frequency:    5.3383867177
  - # 11
    frequency:    6.3597420652
  - # 12
    frequency:    6.4006941638
  - # 13
    frequency:    7.0173816761
  - # 14
    frequency:    7.0561185440
  - # 15
    frequency:    8.2335639925
  - # 16
    frequency:    9.4421667141
  - # 17
    frequency:   13.9702986812
  - # 18
    frequency:   13.9717450288
  - # 19
    frequency:   14.0845289025
  - # 20
    frequency:   16.2701671671
  - # 21
    frequency:   16.2814695993
  - # 22
    frequency:   17.0766114792
  - # 23
    frequency:   17.0970026593
  - # 24
    frequency:   32.0014415139
  - # 25
    frequency:   38.3010223877
  - # 26
    frequency:   67.9600363876
  - # 27
    frequency:   68.8746263232

- q-position: [    0.0454545,    0.0000000,    0.0000000 ]
  distance:    0.0155137
  band:
  - # 1
    frequency:   -1.1512594534
  - # 2
    frequency:   -1.0540023703
  - # 3
    frequency:   -1.0086374664
  - # 4
    frequency:   -0.8538107194
  - # 5
    frequency:    0.1243349523
  - # 6
    frequency:    0.5723017914
  - # 7
    frequency:    0.8268269190
  - # 8
    frequency:    3.6829236524
  - # 9
    frequency:    3.7908095527
  - # 10
    frequency:    5.3381330470
  - # 11
    frequency:    6.3583246506
  - # 12
    frequency:    6.4098004698
  - # 13
    frequency:    7.0166012931
  - # 14
    frequency:    7.0652390662
  - # 15
    frequency:    8.2276384091
  - # 16
    frequency:    9.4299075297
  - # 17
    frequency:   13.9704512141
  - # 18
    frequency:   13.9718861005
  - # 19
    frequency:   14.0826847148
  - # 20
    frequency:   16.2735011462
  - # 21
    frequency:   16.2876073183
  - # 22
    frequency:   17.0766452616
  - # 23
    frequency:   17.1023746141
  - # 24
    frequency:   31.9932256995
  - # 25
    frequency:   38.3005799813
  - # 26
    frequency:   67.9555199868
  - # 27
    frequency:   68.8545336598

- q-position: [    0.0505051,    0.0000000,    0.0000000 ]
  distance:    0.0172374
  band:
  - # 1
    frequency:   -1.1484121148
  - # 2
    frequency:   -1.0301722948
  - # 3
    frequency:   -1.0006158409
  - # 4
    frequency:   -0.8021612217
  - # 5
    frequency:    0.1542927737
  - # 6
    frequency:    0.6346577850
  - # 7
    frequency:    0.9189846647
  - # 8
    frequency:    3.6622087890
  - # 9
    frequency:    3.7958472887
  - # 10
    frequency:    5.3379582651
  - # 11
    frequency:    6.3568413191
  - # 12
    frequency:    6.4199100401
  - # 13
    frequency:    7.0156806832
  - # 14
    frequency:    7.0751947900
  - # 15
    frequency:    8.2211035657
  - # 16
    frequency:    9.4162634423
  - # 17
    frequency:   13.9706259793
  - # 18
    frequency:   13.9718299542
  - # 19
    frequency:   14.0808130776
  - # 20
    frequency:   16.2771840819
  - # 21
    frequency:   16.2943275647
  - # 22
    frequency:   17.0766981516
  - # 23
    frequency:   17.1083549516
  - # 24
    frequency:   31.9841127683
  - # 25
    frequency:   38.3000895035
  - # 26
    frequency:   67.9505067969
  - # 27
    frequency:   68.8322215539

- q-position: [    0.0555556,    0.0000000,    0.0000000 ]
  distance:    0.0189611
  band:
  - # 1
    frequency:   -1.1450425467
  - # 2
    frequency:   -1.0038441747
  - # 3
    frequency:   -0.9920622224
  - # 4
    frequency:   -0.7416682040
  - # 5
    frequency:    0.1880719655
  - # 6
    frequency:    0.6965030464
  - # 7
    frequency:    1.0109126394
  - # 8
    frequency:    3.6393893400
  - # 9
    frequency:    3.8016573656
  - # 10
    frequency:    5.3378951850
  - # 11
    frequency:    6.3553212208
  - # 12
    frequency:    6.4310002922
  - # 13
    frequency:    7.0146065640
  - # 14
    frequency:    7.0859117192
  - # 15
    frequency:    8.2139893272
  - # 16
    frequency:    9.4012533754
  - # 17
    frequency:   13.9708243294
  - # 18
    frequency:   13.9714929232
  - # 19
    frequency:   14.0789919842
  - # 20
    frequency:   16.2812014823
  - # 21
    frequency:   16.3015854254
  - # 22
    frequency:   17.0767749646
  - # 23
    frequency:   17.1149356408
  - # 24
    frequency:   31.9741253630
  - # 25
    frequency:   38.2995522462
  - # 26
    frequency:   67.9450080598
  - # 27
    frequency:   68.8077371666

- q-position: [    0.0606061,    0.0000000,    0.0000000 ]
  distance:    0.0206849
  band:
  - # 1
    frequency:   -1.1411297491
  - # 2
    frequency:   -0.9829916507
  - # 3
    frequency:   -0.9748610678
  - # 4
    frequency:   -0.6705030693
  - # 5
    frequency:    0.2262455405
  - # 6
    frequency:    0.7577488312
  - # 7
    frequency:    1.1024935745
  - # 8
    frequency:    3.6144950774
  - # 9
    frequency:    3.8083004066
  - # 10
    frequency:    5.3379784714
  - # 11
    frequency:    6.3537945146
  - # 12
    frequency:    6.4430463294
  - # 13
    frequency:    7.0133655513
  - # 14
    frequency:    7.0973105332
  - # 15
    frequency:    8.2063289983
  - # 16
    frequency:    9.3848981411
  - # 17
    frequency:   13.9707799797
  - # 18
    frequency:   13.9710477192
  - # 19
    frequency:   14.0773113170
  - # 20
    frequency:   16.2855373006
  - # 21
    frequency:   16.3093321533
  - # 22
    frequency:   17.0768809048
  - # 23
    frequency:   17.1221077129
  - # 24
    frequency:   31.9632882456
  - # 25
    frequency:   38.2989696201
  - # 26
    frequency:   67.9390360577
  - # 27
    frequency:   68.7811321167

- q-position: [    0.0656566,    0.0000000,    0.0000000 ]
  distance:    0.0224086
  band:
  - # 1
    frequency:   -1.1366574953
  - # 2
    frequency:   -0.9734068909
  - # 3
    frequency:   -0.9430130405
  - # 4
    frequency:   -0.5858712639
  - # 5
    frequency:    0.2698913846
  - # 6
    frequency:    0.8183039412
  - # 7
    frequency:    1.1936094974
  - # 8
    frequency:    3.5875621444
  - # 9
    frequency:    3.8158376198
  - # 10
    frequency:    5.3382442841
  - # 11
    frequency:    6.3522919258
  - # 12
    frequency:    6.4560209627
  - # 13
    frequency:    7.0119444257
  - # 14
    frequency:    7.1093071418
  - # 15
    frequency:    8.1981594034
  - # 16
    frequency:    9.3672204090
  - # 17
    frequency:   13.9695880802
  - # 18
    frequency:   13.9712976940
  - # 19
    frequency:   14.0758697455
  - # 20
    frequency:   16.2901739290
  - # 21
    frequency:   16.3175154602
  - # 22
    frequency:   17.0770215311
  - # 23
    frequency:   17.1298612294
  - # 24
    frequency:   31.9516282194
  - # 25
    frequency:   38.2983431498
  - # 26
    frequency:   67.9326040725
  - # 27
    frequency:   68.7524623322

- q-position: [    0.0707071,    0.0000000,    0.0000000 ]
  distance:    0.0241324
  band:
  - # 1
    frequency:   -1.1316132683
  - # 2
    frequency:   -0.9633001264
  - # 3
    frequency:   -0.9080260484
  - # 4
    frequency:   -0.4832435584
  - # 5
    frequency:    0.3211169349
  - # 6
    frequency:    0.8780750188
  - # 7
    frequency:    1.2841448415
  - # 8
    frequency:    3.5586341814
  - # 9
    frequency:    3.8243296728
  - # 10
    frequency:    5.3387299353
  - # 11
    frequency:    6.3508443240
  - # 12
    frequency:    6.4698947344
  - # 13
    frequency:    7.0103303807
  - # 14
    frequency:    7.1218132316
  - # 15
    frequency:    8.1895209672
  - # 16
    frequency:    9.3482446718
  - # 17
    frequency:   13.9678121777
  - # 18
    frequency:   13.9715758757
  - # 19
    frequency:   14.0747689451
  - # 20
    frequency:   16.2950921956
  - # 21
    frequency:   16.3260798444
  - # 22
    frequency:   17.0772027205
  - # 23
    frequency:   17.1381852463
  - # 24
    frequency:   31.9391740454
  - # 25
    frequency:   38.2976744680
  - # 26
    frequency:   67.9257263408
  - # 27
    frequency:   68.7217878890

- q-position: [    0.0757576,    0.0000000,    0.0000000 ]
  distance:    0.0258561
  band:
  - # 1
    frequency:   -1.1259873374
  - # 2
    frequency:   -0.9526545429
  - # 3
    frequency:   -0.8695421668
  - # 4
    frequency:   -0.3541565697
  - # 5
    frequency:    0.3839114655
  - # 6
    frequency:    0.9369663041
  - # 7
    frequency:    1.3739885030
  - # 8
    frequency:    3.5277636444
  - # 9
    frequency:    3.8338355675
  - # 10
    frequency:    5.3394735641
  - # 11
    frequency:    6.3494823306
  - # 12
    frequency:    6.4846359415
  - # 13
    frequency:    7.0085112497
  - # 14
    frequency:    7.1347367992
  - # 15
    frequency:    8.1804577894
  - # 16
    frequency:    9.3279972086
  - # 17
    frequency:   13.9653536431
  - # 18
    frequency:   13.9718839494
  - # 19
    frequency:   14.0741053878
  - # 20
    frequency:   16.3002713633
  - # 21
    frequency:   16.3349669505
  - # 22
    frequency:   17.0774306294
  - # 23
    frequency:   17.1470677749
  - # 24
    frequency:   31.9259563515
  - # 25
    frequency:   38.2969653104
  - # 26
    frequency:   67.9184180065
  - # 27
    frequency:   68.6891728382

- q-position: [    0.0808081,    0.0000000,    0.0000000 ]
  distance:    0.0275798
  band:
  - # 1
    frequency:   -1.1197719997
  - # 2
    frequency:   -0.9414456716
  - # 3
    frequency:   -0.8270865430
  - # 4
    frequency:   -0.1671480661
  - # 5
    frequency:    0.4636939239
  - # 6
    frequency:    0.9948788776
  - # 7
    frequency:    1.4630350293
  - # 8
    frequency:    3.4950133573
  - # 9
    frequency:    3.8444115259
  - # 10
    frequency:    5.3405138367
  - # 11
    frequency:    6.3482359603
  - # 12
    frequency:    6.5002106595
  - # 13
    frequency:    7.0064757076
  - # 14
    frequency:    7.1479826708
  - # 15
    frequency:    8.1710177077
  - # 16
    frequency:    9.3065060451
  - # 17
    frequency:   13.9621296979
  - # 18
    frequency:   13.9722236478
  - # 19
    frequency:   14.0739611004
  - # 20
    frequency:   16.3056891310
  - # 21
    frequency:   16.3441159582
  - # 22
    frequency:   17.0777116526
  - # 23
    frequency:   17.1564957401
  - # 24
    frequency:   31.9120075362
  - # 25
    frequency:   38.2962175094
  - # 26
    frequency:   67.9106950707
  - # 27
    frequency:   68.6546850217

- q-position: [    0.0858586,    0.0000000,    0.0000000 ]
  distance:    0.0293036
  band:
  - # 1
    frequency:   -1.1129609796
  - # 2
    frequency:   -0.9296424288
  - # 3
    frequency:   -0.7800123013
  - # 4
    frequency:    0.2260998421
  - # 5
    frequency:    0.5605076587
  - # 6
    frequency:    1.0517094156
  - # 7
    frequency:    1.5511851727
  - # 8
    frequency:    3.4604583465
  - # 9
    frequency:    3.8561098968
  - # 10
    frequency:    5.3418896732
  - # 11
    frequency:    6.3471343024
  - # 12
    frequency:    6.5165827624
  - # 13
    frequency:    7.0042134448
  - # 14
    frequency:    7.1614530141
  - # 15
    frequency:    8.1612523402
  - # 16
    frequency:    9.2838009121
  - # 17
    frequency:   13.9580815028
  - # 18
    frequency:   13.9725967353
  - # 19
    frequency:   14.0743957404
  - # 20
    frequency:   16.3113216395
  - # 21
    frequency:   16.3534639985
  - # 22
    frequency:   17.0780523798
  - # 23
    frequency:   17.1664549373
  - # 24
    frequency:   31.8973616665
  - # 25
    frequency:   38.2954329878
  - # 26
    frequency:   67.9025743386
  - # 27
    frequency:   68.6183958764

- q-position: [    0.0909091,    0.0000000,    0.0000000 ]
  distance:    0.0310273
  band:
  - # 1
    frequency:   -1.1055489696
  - # 2
    frequency:   -0.9172078339
  - # 3
    frequency:   -0.7274056805
  - # 4
    frequency:    0.3395860795
  - # 5
    frequency:    0.6645497147
  - # 6
    frequency:    1.1073484697
  - # 7
    frequency:    1.6383460322
  - # 8
    frequency:    3.4241880226
  - # 9
    frequency:    3.8689780902
  - # 10
    frequency:    5.3436400061
  - # 11
    frequency:    6.3462052428
  - # 12
    frequency:    6.5337139377
  - # 13
    frequency:    7.0017153136
  - # 14
    frequency:    7.1750478517
  - # 15
    frequency:    8.1512170939
  - # 16
    frequency:    9.2599132020
  - # 17
    frequency:   13.9531785754
  - # 18
    frequency:   13.9730049912
  - # 19
    frequency:   14.0754423161
  - # 20
    frequency:   16.3171434820
  - # 21
    frequency:   16.3629465900
  - # 22
    frequency:   17.0784595510
  - # 23
    frequency:   17.1769299894
  - # 24
    frequency:   31.8820543699
  - # 25
    frequency:   38.2946137524
  - # 26
    frequency:   67.8940733640
  - # 27
    frequency:   68.5803802286

- q-position: [    0.0959596,    0.0000000,    0.0000000 ]
  distance:    0.0327511
  band:
  - # 1
    frequency:   -1.0975312858
  - # 2
    frequency:   -0.9040994161
  - # 3
    frequency:   -0.6679123838
  - # 4
    frequency:    0.4169731131
  - # 5
    frequency:    0.7671121352
  - # 6
    frequency:    1.1616782549
  - # 7
    frequency:    1.7244309697
  - # 8
    frequency:    3.3863087844
  - # 9
    frequency:    3.8830575468
  - # 10
    frequency:    5.3458035704
  - # 11
    frequency:    6.3454752289
  - # 12
    frequency:    6.5515636931
  - # 13
    frequency:    6.9989734463
  - # 14
    frequency:    7.1886655916
  - # 15
    frequency:    8.1409711234
  - # 16
    frequency:    9.2348759242
  - # 17
    frequency:   13.9474184741
  - # 18
    frequency:   13.9734501917
  - # 19
    frequency:   14.0771076099
  - # 20
    frequency:   16.3231277203
  - # 21
    frequency:   16.3724980923
  - # 22
    frequency:   17.0789400095
  - # 23
    frequency:   17.1879043072
  - # 24
    frequency:   31.8661227220
  - # 25
    frequency:   38.2937618870
  - # 26
    frequency:   67.8852103920
  - # 27
    frequency:   68.5407160787

- q-position: [    0.1010101,    0.0000000,    0.0000000 ]
  distance:    0.0344748
  band:
  - # 1
    frequency:   -1.0889036141
  - # 2
    frequency:   -0.8902693291
  - # 3
    frequency:   -0.5993882056
  - # 4
    frequency:    0.4826729094
  - # 5
    frequency:    0.8652670740
  - # 6
    frequency:    1.2145699047
  - # 7
    frequency:    1.8093594374
  - # 8
    frequency:    3.3469471380
  - # 9
    frequency:    3.8983827463
  - # 10
    frequency:    5.3484187265
  - # 11
    frequency:    6.3449690760
  - # 12
    frequency:    6.5700893511
  - # 13
    frequency:    6.9959813454
  - # 14
    frequency:    7.2022035958
  - # 15
    frequency:    8.1305772199
  - # 16
    frequency:    9.2087236600
  - # 17
    frequency:   13.9408224785
  - # 18
    frequency:   13.9739340921
  - # 19
    frequency:   14.0793765763
  - # 20
    frequency:   16.3292459080
  - # 21
    frequency:   16.3820521684
  - # 22
    frequency:   17.0795006541
  - # 23
    frequency:   17.1993600531
  - # 24
    frequency:   31.8496051283
  - # 25
    frequency:   38.2928795456
  - # 26
    frequency:   67.8760042986
  - # 27
    frequency:   68.4994843760

- q-position: [    0.1060606,    0.0000000,    0.0000000 ]
  distance:    0.0361986
  band:
  - # 1
    frequency:   -1.0796618232
  - # 2
    frequency:   -0.8756641930
  - # 3
    frequency:   -0.5180876682
  - # 4
    frequency:    0.5438434403
  - # 5
    frequency:    0.9588085318
  - # 6
    frequency:    1.2658801243
  - # 7
    frequency:    1.8930568123
  - # 8
    frequency:    3.3062534374
  - # 9
    frequency:    3.9149802607
  - # 10
    frequency:    5.3515233150
  - # 11
    frequency:    6.3447098158
  - # 12
    frequency:    6.5892460257
  - # 13
    frequency:    6.9927339477
  - # 14
    frequency:    7.2155588171
  - # 15
    frequency:    8.1201016050
  - # 16
    frequency:    9.1814925184
  - # 17
    frequency:   13.9334291860
  - # 18
    frequency:   13.9744584076
  - # 19
    frequency:   14.0822187934
  - # 20
    frequency:   16.3354681215
  - # 21
    frequency:   16.3915422511
  - # 22
    frequency:   17.0801483892
  - # 23
    frequency:   17.2112781134
  - # 24
    frequency:   31.8325412025
  - # 25
    frequency:   38.2919689452
  - # 26
    frequency:   67.8664745297
  - # 27
    frequency:   68.4567687870

- q-position: [    0.1111111,    0.0000000,    0.0000000 ]
  distance:    0.0379223
  band:
  - # 1
    frequency:   -1.0698018230
  - # 2
    frequency:   -0.8602246743
  - # 3
    frequency:   -0.4162867754
  - # 4
    frequency:    0.6031598940
  - # 5
    frequency:    1.0482449318
  - # 6
    frequency:    1.3154471526
  - # 7
    frequency:    1.9754542933
  - # 8
    frequency:    3.2644063618
  - # 9
    frequency:    3.9328678577
  - # 10
    frequency:    5.3551545415
  - # 11
    frequency:    6.3447185819
  - # 12
    frequency:    6.6089865772
  - # 13
    frequency:    6.9892276636
  - # 14
    frequency:    7.2286285361
  - # 15
    frequency:    8.1096135986
  - # 16
    frequency:    9.1532200933
  - # 17
    frequency:   13.9252880167
  - # 18
    frequency:   13.9750247943
  - # 19
    frequency:   14.0855949765
  - # 20
    frequency:   16.3417630000
  - # 21
    frequency:   16.4009020050
  - # 22
    frequency:   17.0808900748
  - # 23
    frequency:   17.2236380802
  - # 24
    frequency:   31.8149716403
  - # 25
    frequency:   38.2910323582
  - # 26
    frequency:   67.8566410369
  - # 27
    frequency:   68.4126554542

- q-position: [    0.1161616,    0.0000000,    0.0000000 ]
  distance:    0.0396460
  band:
  - # 1
    frequency:   -1.0593194509
  - # 2
    frequency:   -0.8438848031
  - # 3
    frequency:   -0.2712303078
  - # 4
    frequency:    0.6617195255
  - # 5
    frequency:    1.1341638696
  - # 6
    frequency:    1.3630859447
  - # 7
    frequency:    2.0564888895
  - # 8
    frequency:    3.2216182437
  - # 9
    frequency:    3.9520536612
  - # 10
    frequency:    5.3593488888
  - # 11
    frequency:    6.3450145324
  - # 12
    frequency:    6.6292615356
  - # 13
    frequency:    6.9854603934
  - # 14
    frequency:    7.2413112422
  - # 15
    frequency:    8.0991851275
  - # 16
    frequency:    9.1239454244
  - # 17
    frequency:   13.9164539050
  - # 18
    frequency:   13.9756348301
  - # 19
    frequency:   14.0894622777
  - # 20
    frequency:   16.3480977958
  - # 21
    frequency:   16.4100657783
  - # 22
    frequency:   17.0817324753
  - # 23
    frequency:   17.2364182468
  - # 24
    frequency:   31.7969380891
  - # 25
    frequency:   38.2900721052
  - # 26
    frequency:   67.8465242127
  - # 27
    frequency:   68.3672327504

- q-position: [    0.1212121,    0.0000000,    0.0000000 ]
  distance:    0.0413698
  band:
  - # 1
    frequency:   -1.0482103690
  - # 2
    frequency:   -0.8265710047
  - # 3
    frequency:    0.1766102296
  - # 4
    frequency:    0.7199665270
  - # 5
    frequency:    1.2170769375
  - # 6
    frequency:    1.4085825064
  - # 7
    frequency:    2.1361035072
  - # 8
    frequency:    3.1781413303
  - # 9
    frequency:    3.9725353794
  - # 10
    frequency:    5.3641420524