nqpoint: 300    
npath: 3      
segment_nqpoint:
- 100
- 100
- 100
labels:
- [ 'G', 'M' ]
- [ 'M', 'K' ]
- [ 'K', 'G' ]
reciprocal_lattice:
- [   0.30055154,   0.17352351,   0.00000000 ] # a*
- [   0.00000000,   0.34704703,   0.00000000 ] # b*
- [   0.00000000,   0.00000000,   0.03967458 ] # c*
natom: 7      
lattice:
- [     3.327216332825771,     0.000000000000000,     0.000000000000000 ] # a
- [    -1.663608166412886,     2.881453868097616,     0.000000000000000 ] # b
- [     0.000000000000000,     0.000000000000000,    25.205053689980907 ] # c
points:
- symbol: C # 1
  coordinates: [  0.000000000000000,  0.000000000000000,  0.500000033479098 ]
  mass: 12.010700
- symbol: H # 2
  coordinates: [  0.333332985432215,  0.666666983183674,  0.642928751087028 ]
  mass: 1.007940
- symbol: H # 3
  coordinates: [  0.666666984744047,  0.333332985985145,  0.357071248912972 ]
  mass: 1.007940
- symbol: O # 4
  coordinates: [  0.333332985432215,  0.666666983183674,  0.603708304273670 ]
  mass: 15.999400
- symbol: O # 5
  coordinates: [  0.666666984744047,  0.333332985985145,  0.396291695726339 ]
  mass: 15.999400
- symbol: Zr # 6
  coordinates: [  0.333332985432215,  0.666666983183674,  0.450364043566051 ]
  mass: 91.224000
- symbol: Zr # 7
  coordinates: [  0.666666984744047,  0.333332985985145,  0.549635955934261 ]
  mass: 91.224000

phonon:
- q-position: [    0.0000000,    0.0000000,    0.0000000 ]
  distance:    0.0000000
  band:
  - # 1
    frequency:   -0.0000309228
  - # 2
    frequency:   -0.0000002105
  - # 3
    frequency:    0.0000153364
  - # 4
    frequency:    4.5374776471
  - # 5
    frequency:    4.5374776472
  - # 6
    frequency:    6.3874465759
  - # 7
    frequency:    7.0902893005
  - # 8
    frequency:    7.0902893006
  - # 9
    frequency:    7.2923681567
  - # 10
    frequency:    7.2923681567
  - # 11
    frequency:   12.0123192847
  - # 12
    frequency:   12.2588678282
  - # 13
    frequency:   13.7928154534
  - # 14
    frequency:   13.7928154536
  - # 15
    frequency:   13.8549605963
  - # 16
    frequency:   13.8549605964
  - # 17
    frequency:   16.1513735588
  - # 18
    frequency:   18.8404808226
  - # 19
    frequency:   18.8404808226
  - # 20
    frequency:  110.5098786028
  - # 21
    frequency:  111.1355124843

- q-position: [    0.0050505,    0.0000000,    0.0000000 ]
  distance:    0.0017528
  band:
  - # 1
    frequency:    0.0017833815
  - # 2
    frequency:    0.0777564113
  - # 3
    frequency:    0.1099249555
  - # 4
    frequency:    4.5380018093
  - # 5
    frequency:    4.5388112964
  - # 6
    frequency:    6.3876536331
  - # 7
    frequency:    7.0904286275
  - # 8
    frequency:    7.0907180429
  - # 9
    frequency:    7.2924156341
  - # 10
    frequency:    7.2932461431
  - # 11
    frequency:   12.0118810543
  - # 12
    frequency:   12.2581424457
  - # 13
    frequency:   13.7930172870
  - # 14
    frequency:   13.7933564523
  - # 15
    frequency:   13.8557188487
  - # 16
    frequency:   13.8558535470
  - # 17
    frequency:   16.1515744208
  - # 18
    frequency:   18.8404095021
  - # 19
    frequency:   18.8407027371
  - # 20
    frequency:  110.5090418135
  - # 21
    frequency:  111.1347270612

- q-position: [    0.0101010,    0.0000000,    0.0000000 ]
  distance:    0.0035055
  band:
  - # 1
    frequency:    0.0071240141
  - # 2
    frequency:    0.1554643778
  - # 3
    frequency:    0.2198658395
  - # 4
    frequency:    4.5395712490
  - # 5
    frequency:    4.5428016886
  - # 6
    frequency:    6.3882761004
  - # 7
    frequency:    7.0908471163
  - # 8
    frequency:    7.0920044023
  - # 9
    frequency:    7.2925577645
  - # 10
    frequency:    7.2958737612
  - # 11
    frequency:   12.0105641779
  - # 12
    frequency:   12.2559703464
  - # 13
    frequency:   13.7936324110
  - # 14
    frequency:   13.7949913537
  - # 15
    frequency:   13.8579813705
  - # 16
    frequency:   13.8585230686
  - # 17
    frequency:   16.1521752691
  - # 18
    frequency:   18.8401961762
  - # 19
    frequency:   18.8413653820
  - # 20
    frequency:  110.5065343377
  - # 21
    frequency:  111.1323733903

- q-position: [    0.0151515,    0.0000000,    0.0000000 ]
  distance:    0.0052583
  band:
  - # 1
    frequency:    0.0159952708
  - # 2
    frequency:    0.2330756383
  - # 3
    frequency:    0.3298379972
  - # 4
    frequency:    4.5421768550
  - # 5
    frequency:    4.5494174022
  - # 6
    frequency:    6.3893177835
  - # 7
    frequency:    7.0915462799
  - # 8
    frequency:    7.0941487000
  - # 9
    frequency:    7.2927936472
  - # 10
    frequency:    7.3002321575
  - # 11
    frequency:   12.0083621577
  - # 12
    frequency:   12.2523636581
  - # 13
    frequency:   13.7946871055
  - # 14
    frequency:   13.7977539306
  - # 15
    frequency:   13.8617140613
  - # 16
    frequency:   13.8629430268
  - # 17
    frequency:   16.1531709093
  - # 18
    frequency:   18.8398427454
  - # 19
    frequency:   18.8424594893
  - # 20
    frequency:  110.5023648422
  - # 21
    frequency:  111.1284592577

- q-position: [    0.0202020,    0.0000000,    0.0000000 ]
  distance:    0.0070111
  band:
  - # 1
    frequency:    0.0283532119
  - # 2
    frequency:    0.3105423027
  - # 3
    frequency:    0.4398556407
  - # 4
    frequency:    4.5458035340
  - # 5
    frequency:    4.5586068730
  - # 6
    frequency:    6.3907847620
  - # 7
    frequency:    7.0925286036
  - # 8
    frequency:    7.0971512279
  - # 9
    frequency:    7.2931217950
  - # 10
    frequency:    7.3062904597
  - # 11
    frequency:   12.0052643541
  - # 12
    frequency:   12.2473425374
  - # 13
    frequency:   13.7962178309
  - # 14
    frequency:   13.8016947359
  - # 15
    frequency:   13.8668674705
  - # 16
    frequency:   13.8690753153
  - # 17
    frequency:   16.1545527494
  - # 18
    frequency:   18.8393523585
  - # 19
    frequency:   18.8439697034
  - # 20
    frequency:  110.4965477359
  - # 21
    frequency:  111.1229976077

- q-position: [    0.0252525,    0.0000000,    0.0000000 ]
  distance:    0.0087638
  band:
  - # 1
    frequency:    0.0441377934
  - # 2
    frequency:    0.3878170348
  - # 3
    frequency:    0.5499312866
  - # 4
    frequency:    4.5504303488
  - # 5
    frequency:    4.5702995593
  - # 6
    frequency:    6.3926850135
  - # 7
    frequency:    7.0937974912
  - # 8
    frequency:    7.1010119212
  - # 9
    frequency:    7.2935401547
  - # 10
    frequency:    7.3140065459
  - # 11
    frequency:   12.0012562699
  - # 12
    frequency:   12.2409350731
  - # 13
    frequency:   13.7982637232
  - # 14
    frequency:   13.8068746056
  - # 15
    frequency:   13.8733843690
  - # 16
    frequency:   13.8768759433
  - # 17
    frequency:   16.1563088942
  - # 18
    frequency:   18.8387293839
  - # 19
    frequency:   18.8458747182
  - # 20
    frequency:  110.4891031184
  - # 21
    frequency:  111.1160064948

- q-position: [    0.0303030,    0.0000000,    0.0000000 ]
  distance:    0.0105166
  band:
  - # 1
    frequency:    0.0632742439
  - # 2
    frequency:    0.4648532345
  - # 3
    frequency:    0.6600752203
  - # 4
    frequency:    4.5560307078
  - # 5
    frequency:    4.5844074907
  - # 6
    frequency:    6.3950279255
  - # 7
    frequency:    7.0953571905
  - # 8
    frequency:    7.1057299633
  - # 9
    frequency:    7.2940461353
  - # 10
    frequency:    7.3233280215
  - # 11
    frequency:   11.9963199481
  - # 12
    frequency:   12.2331771299
  - # 13
    frequency:   13.8008605203
  - # 14
    frequency:   13.8133584793
  - # 15
    frequency:   13.8812059139
  - # 16
    frequency:   13.8863006673
  - # 17
    frequency:   16.1584242756
  - # 18
    frequency:   18.8379793705
  - # 19
    frequency:   18.8481474647
  - # 20
    frequency:  110.4800567059
  - # 21
    frequency:  111.1075090163

- q-position: [    0.0353535,    0.0000000,    0.0000000 ]
  distance:    0.0122693
  band:
  - # 1
    frequency:    0.0856747098
  - # 2
    frequency:    0.5416052191
  - # 3
    frequency:    0.7702949818
  - # 4
    frequency:    4.5625726034
  - # 5
    frequency:    4.6008271304
  - # 6
    frequency:    6.3978237258
  - # 7
    frequency:    7.0972126990
  - # 8
    frequency:    7.1113033702
  - # 9
    frequency:    7.2946366436
  - # 10
    frequency:    7.3341933275
  - # 11
    frequency:   11.9904344825
  - # 12
    frequency:   12.2241121091
  - # 13
    frequency:   13.8040369307
  - # 14
    frequency:   13.8212105602
  - # 15
    frequency:   13.8902753965
  - # 16
    frequency:   13.8973091745
  - # 17
    frequency:   16.1608808121
  - # 18
    frequency:   18.8371089986
  - # 19
    frequency:   18.8507553494
  - # 20
    frequency:  110.4694397380
  - # 21
    frequency:  111.0975332256

- q-position: [    0.0404040,    0.0000000,    0.0000000 ]
  distance:    0.0140221
  band:
  - # 1
    frequency:    0.1112400898
  - # 2
    frequency:    0.6180284006
  - # 3
    frequency:    0.8805948794
  - # 4
    frequency:    4.5700188964
  - # 5
    frequency:    4.6194414661
  - # 6
    frequency:    6.4010828673
  - # 7
    frequency:    7.0993696508
  - # 8
    frequency:    7.1177285910
  - # 9
    frequency:    7.2953081261
  - # 10
    frequency:    7.3465329077
  - # 11
    frequency:   11.9835766472
  - # 12
    frequency:   12.2137906010
  - # 13
    frequency:   13.8078132291
  - # 14
    frequency:   13.8304910558
  - # 15
    frequency:   13.9005397860
  - # 16
    frequency:   13.9098676036
  - # 17
    frequency:   16.1636575966
  - # 18
    frequency:   18.8361260200
  - # 19
    frequency:   18.8536605391
  - # 20
    frequency:  110.4572888639
  - # 21
    frequency:  111.0861120280

- q-position: [    0.0454545,    0.0000000,    0.0000000 ]
  distance:    0.0157749
  band:
  - # 1
    frequency:    0.1398619797
  - # 2
    frequency:    0.6940794619
  - # 3
    frequency:    0.9909755344
  - # 4
    frequency:    4.5783276418
  - # 5
    frequency:    4.6401222471
  - # 6
    frequency:    6.4048154025
  - # 7
    frequency:    7.1018341871
  - # 8
    frequency:    7.1250001547
  - # 9
    frequency:    7.2960566165
  - # 10
    frequency:    7.3602703742
  - # 11
    frequency:   11.9757216498
  - # 12
    frequency:   12.2022698966
  - # 13
    frequency:   13.8122013515
  - # 14
    frequency:   13.8412542576
  - # 15
    frequency:   13.9119497958
  - # 16
    frequency:   13.9239496773
  - # 17
    frequency:   16.1667311046
  - # 18
    frequency:   18.8350391904
  - # 19
    frequency:   18.8568202898
  - # 20
    frequency:  110.4436460083
  - # 21
    frequency:  111.0732830573

- q-position: [    0.0505051,    0.0000000,    0.0000000 ]
  distance:    0.0175276
  band:
  - # 1
    frequency:    0.1714246471
  - # 2
    frequency:    0.7697165280
  - # 3
    frequency:    1.1014334602
  - # 4
    frequency:    4.5874524511
  - # 5
    frequency:    4.6627322819
  - # 6
    frequency:    6.4090303786
  - # 7
    frequency:    7.1046128095
  - # 8
    frequency:    7.1331103764
  - # 9
    frequency:    7.2968777893
  - # 10
    frequency:    7.3753236250
  - # 11
    frequency:   11.9668440201
  - # 12
    frequency:   12.1896133241
  - # 13
    frequency:   13.8172057776
  - # 14
    frequency:   13.8535475637
  - # 15
    frequency:   13.9244591832
  - # 16
    frequency:   13.9395368729
  - # 17
    frequency:   16.1700754203
  - # 18
    frequency:   18.8338581931
  - # 19
    frequency:   18.8601873144
  - # 20
    frequency:  110.4285582190
  - # 21
    frequency:  111.0590885350

- q-position: [    0.0555556,    0.0000000,    0.0000000 ]
  distance:    0.0192804
  band:
  - # 1
    frequency:    0.2058069679
  - # 2
    frequency:    0.8448993344
  - # 3
    frequency:    1.2119606782
  - # 4
    frequency:    4.5973428861
  - # 5
    frequency:    4.6871277237
  - # 6
    frequency:    6.4137352802
  - # 7
    frequency:    7.1077122203
  - # 8
    frequency:    7.1420491280
  - # 9
    frequency:    7.2977670164
  - # 10
    frequency:    7.3916058855
  - # 11
    frequency:   11.9569186455
  - # 12
    frequency:   12.1758893789
  - # 13
    frequency:   13.8228247022
  - # 14
    frequency:   13.8674110916
  - # 15
    frequency:   13.9380237778
  - # 16
    frequency:   13.9566180138
  - # 17
    frequency:   16.1736624748
  - # 18
    frequency:   18.8325935557
  - # 19
    frequency:   18.8637101870
  - # 20
    frequency:  110.4120774947
  - # 21
    frequency:  111.0435751123

- q-position: [    0.0606061,    0.0000000,    0.0000000 ]
  distance:    0.0210332
  band:
  - # 1
    frequency:    0.2428842648
  - # 2
    frequency:    0.9195893899
  - # 3
    frequency:    1.3225443708
  - # 4
    frequency:    4.6079448798
  - # 5
    frequency:    4.7131602768
  - # 6
    frequency:    6.4189355415
  - # 7
    frequency:    7.1111391488
  - # 8
    frequency:    7.1518036702
  - # 9
    frequency:    7.2987194288
  - # 10
    frequency:    7.4090266578
  - # 11
    frequency:   11.9459219637
  - # 12
    frequency:   12.1611706171
  - # 13
    frequency:   13.8290512155
  - # 14
    frequency:   13.8828776286
  - # 15
    frequency:   13.9526005181
  - # 16
    frequency:   13.9751885588
  - # 17
    frequency:   16.1774622917
  - # 18
    frequency:   18.8312565605
  - # 19
    frequency:   18.8673337776
  - # 20
    frequency:  110.3942605950
  - # 21
    frequency:  111.0267936955

- q-position: [    0.0656566,    0.0000000,    0.0000000 ]
  distance:    0.0227859
  band:
  - # 1
    frequency:    0.2825300007
  - # 2
    frequency:    0.9937501345
  - # 3
    frequency:    1.4331665747
  - # 4
    frequency:    4.6192011775
  - # 5
    frequency:    4.7406792733
  - # 6
    frequency:    6.4246341392
  - # 7
    frequency:    7.1149001673
  - # 8
    frequency:    7.1623585376
  - # 9
    frequency:    7.2997299818
  - # 10
    frequency:    7.4274925718
  - # 11
    frequency:   11.9338333144
  - # 12
    frequency:   12.1455323016
  - # 13
    frequency:   13.8358743611
  - # 14
    frequency:   13.8999727723
  - # 15
    frequency:   13.9681466251
  - # 16
    frequency:   13.9952497577
  - # 17
    frequency:   16.1814432353
  - # 18
    frequency:   18.8298591509
  - # 19
    frequency:   18.8709997138
  - # 20
    frequency:  110.3751688328
  - # 21
    frequency:  111.0087992546

- q-position: [    0.0707071,    0.0000000,    0.0000000 ]
  distance:    0.0245387
  band:
  - # 1
    frequency:    0.3246172956
  - # 2
    frequency:    1.0673470916
  - # 3
    frequency:    1.5438039117
  - # 4
    frequency:    4.6310517936
  - # 5
    frequency:    4.7695335816
  - # 6
    frequency:    6.4308312758
  - # 7
    frequency:    7.1190014969
  - # 8
    frequency:    7.1736954694
  - # 9
    frequency:    7.3007935223
  - # 10
    frequency:    7.4469081409
  - # 11
    frequency:   11.9206364311
  - # 12
    frequency:   12.1290508079
  - # 13
    frequency:   13.8432800279
  - # 14
    frequency:   13.9187151811
  - # 15
    frequency:   13.9846189524
  - # 16
    frequency:   14.0168077671
  - # 17
    frequency:   16.1855722583
  - # 18
    frequency:   18.8284138329
  - # 19
    frequency:   18.8746468642
  - # 20
    frequency:  110.3548678502
  - # 21
    frequency:  110.9896506171

- q-position: [    0.0757576,    0.0000000,    0.0000000 ]
  distance:    0.0262914
  band:
  - # 1
    frequency:    0.3690202453
  - # 2
    frequency:    1.1403480125
  - # 3
    frequency:    1.6544273595
  - # 4
    frequency:    4.6434344791
  - # 5
    frequency:    4.7995733199
  - # 6
    frequency:    6.4375241537
  - # 7
    frequency:    7.1234488050
  - # 8
    frequency:    7.1857933782
  - # 9
    frequency:    7.3019048611
  - # 10
    frequency:    7.4671764284
  - # 11
    frequency:   11.9063210322
  - # 12
    frequency:   12.1118018332
  - # 13
    frequency:   13.8512516790
  - # 14
    frequency:   13.9391169023
  - # 15
    frequency:   14.0019735114
  - # 16
    frequency:   14.0398727702
  - # 17
    frequency:   16.1898151457
  - # 18
    frequency:   18.8269335756
  - # 19
    frequency:   18.8782118389
  - # 20
    frequency:  110.3334273775
  - # 21
    frequency:  110.9694102472

- q-position: [    0.0808081,    0.0000000,    0.0000000 ]
  distance:    0.0280442
  band:
  - # 1
    frequency:    0.4156150344
  - # 2
    frequency:    1.2127230135
  - # 3
    frequency:    1.7650020595
  - # 4
    frequency:    4.6562851933
  - # 5
    frequency:    4.8306513630
  - # 6
    frequency:    6.4447068376
  - # 7
    frequency:    7.1282469947
  - # 8
    frequency:    7.1986283501
  - # 9
    frequency:    7.3030588474
  - # 10
    frequency:    7.4881996326
  - # 11
    frequency:   11.8908844282
  - # 12
    frequency:   12.0938584916
  - # 13
    frequency:   13.8597709335
  - # 14
    frequency:   13.9611837635
  - # 15
    frequency:   14.0201651495
  - # 16
    frequency:   14.0644581164
  - # 17
    frequency:   16.1941367505
  - # 18
    frequency:   18.8254317092
  - # 19
    frequency:   18.8816295029
  - # 20
    frequency:  110.3109209776
  - # 21
    frequency:  110.9481440102

- q-position: [    0.0858586,    0.0000000,    0.0000000 ]
  distance:    0.0297970
  band:
  - # 1
    frequency:    0.4642808442
  - # 2
    frequency:    1.2844447050
  - # 3
    frequency:    1.8754871626
  - # 4
    frequency:    4.6695385764
  - # 5
    frequency:    4.8626246370
  - # 6
    frequency:    6.4523701985
  - # 7
    frequency:    7.1333999880
  - # 8
    frequency:    7.2121736730
  - # 9
    frequency:    7.3042504499
  - # 10
    frequency:    7.5098796012
  - # 11
    frequency:   11.8743330276
  - # 12
    frequency:   12.0752894214
  - # 13
    frequency:   13.8688180277
  - # 14
    frequency:   13.9849158245
  - # 15
    frequency:   14.0391473545
  - # 16
    frequency:   14.0905794830
  - # 17
    frequency:   16.1985012215
  - # 18
    frequency:   18.8239218244
  - # 19
    frequency:   18.8848334972
  - # 20
    frequency:  110.2874257759
  - # 21
    frequency:  110.9259209248

- q-position: [    0.0909091,    0.0000000,    0.0000000 ]
  distance:    0.0315497
  band:
  - # 1
    frequency:    0.5149005634
  - # 2
    frequency:    1.3554883096
  - # 3
    frequency:    1.9858357095
  - # 4
    frequency:    4.6831284166
  - # 5
    frequency:    4.8953552063
  - # 6
    frequency:    6.4605019316
  - # 7
    frequency:    7.1389105010
  - # 8
    frequency:    7.2263998896
  - # 9
    frequency:    7.3054748431
  - # 10
    frequency:    7.5321182851
  - # 11
    frequency:   11.8566835963
  - # 12
    frequency:   12.0561570620
  - # 13
    frequency:   13.8783721769
  - # 14
    frequency:   14.0103078893
  - # 15
    frequency:   14.0588721618
  - # 16
    frequency:   14.1182540557
  - # 17
    frequency:   16.2028722193
  - # 18
    frequency:   18.8224176725
  - # 19
    frequency:   18.8877567630
  - # 20
    frequency:  110.2630221769
  - # 21
    frequency:  110.9028129025

- q-position: [    0.0959596,    0.0000000,    0.0000000 ]
  distance:    0.0333025
  band:
  - # 1
    frequency:    0.5673613169
  - # 2
    frequency:    1.4258317698
  - # 3
    frequency:    2.0959945467
  - # 4
    frequency:    4.6969881094
  - # 5
    frequency:    4.9287111643
  - # 6
    frequency:    6.4690866361
  - # 7
    frequency:    7.1447798111
  - # 8
    frequency:    7.2412748755
  - # 9
    frequency:    7.3067275039
  - # 10
    frequency:    7.5548181404
  - # 11
    frequency:   11.8379641126
  - # 12
    frequency:   12.0365162678
  - # 13
    frequency:   13.8884118582
  - # 14
    frequency:   14.0373500727
  - # 15
    frequency:   14.0792901400
  - # 16
    frequency:   14.1474997224
  - # 17
    frequency:   16.2072131213
  - # 18
    frequency:   18.8209330686
  - # 19
    frequency:   18.8903320663
  - # 20
    frequency:  110.2377935683
  - # 21
    frequency:  110.8788944763

- q-position: [    0.1010101,    0.0000000,    0.0000000 ]
  distance:    0.0350553
  band:
  - # 1
    frequency:    0.6215548282
  - # 2
    frequency:    1.4954558445
  - # 3
    frequency:    2.2059042755
  - # 4
    frequency:    4.7110511046
  - # 5
    frequency:    4.9625673408
  - # 6
    frequency:    6.4781059497
  - # 7
    frequency:    7.1510075136
  - # 8
    frequency:    7.2567639388
  - # 9
    frequency:    7.3080043216
  - # 10
    frequency:    7.5778824883
  - # 11
    frequency:   11.8182140897
  - # 12
    frequency:   12.0164134069
  - # 13
    frequency:   13.8989150311
  - # 14
    frequency:   14.0660284129
  - # 15
    frequency:   14.1003504388
  - # 16
    frequency:   14.1783342825
  - # 17
    frequency:   16.2114872132
  - # 18
    frequency:   18.8194817988
  - # 19
    frequency:   18.8924925169
  - # 20
    frequency:  110.2118260138
  - # 21
    frequency:  110.8542425185

- q-position: [    0.1060606,    0.0000000,    0.0000000 ]
  distance:    0.0368080
  band:
  - # 1
    frequency:    0.6773776377
  - # 2
    frequency:    1.5643441904
  - # 3
    frequency:    2.3154992334
  - # 4
    frequency:    4.7252513369
  - # 5
    frequency:    4.9968058427
  - # 6
    frequency:    6.4875387240
  - # 7
    frequency:    7.1575912624
  - # 8
    frequency:    7.2728299443
  - # 9
    frequency:    7.3093017283
  - # 10
    frequency:    7.6012158412
  - # 11
    frequency:   11.7974842843
  - # 12
    frequency:   11.9958860360
  - # 13
    frequency:   13.9098593069
  - # 14
    frequency:   14.0963255152
  - # 15
    frequency:   14.1220008836
  - # 16
    frequency:   14.2107746728
  - # 17
    frequency:   16.2156578688
  - # 18
    frequency:   18.8180775321
  - # 19
    frequency:   18.8941720792
  - # 20
    frequency:  110.1852079359
  - # 21
    frequency:  110.8289359503

- q-position: [    0.1111111,    0.0000000,    0.0000000 ]
  distance:    0.0385608
  band:
  - # 1
    frequency:    0.7347311938
  - # 2
    frequency:    1.6324834300
  - # 3
    frequency:    2.4247075068
  - # 4
    frequency:    4.7395236390
  - # 5
    frequency:    5.0313164477
  - # 6
    frequency:    6.4973612348
  - # 7
    frequency:    7.1645264883
  - # 8
    frequency:    7.2894334586
  - # 9
    frequency:    7.3106168575
  - # 10
    frequency:    7.6247242011
  - # 11
    frequency:   11.7758357955
  - # 12
    frequency:   11.9749631669
  - # 13
    frequency:   13.9212220789
  - # 14
    frequency:   14.1282212064
  - # 15
    frequency:   14.1441881041
  - # 16
    frequency:   14.2448362207
  - # 17
    frequency:   16.2196887165
  - # 18
    frequency:   18.8167337388
  - # 19
    frequency:   18.8953060710
  - # 20
    frequency:  110.1580297894
  - # 21
    frequency:  110.8030554421

- q-position: [    0.1161616,    0.0000000,    0.0000000 ]
  distance:    0.0403135
  band:
  - # 1
    frequency:    0.7935218401
  - # 2
    frequency:    1.6998632030
  - # 3
    frequency:    2.5334509748
  - # 4
    frequency:    4.7538041339
  - # 5
    frequency:    5.0659968677
  - # 6
    frequency:    6.5075474161
  - # 7
    frequency:    7.1718060827
  - # 8
    frequency:    7.3065329168
  - # 9
    frequency:    7.3119477461
  - # 10
    frequency:    7.6483153375
  - # 11
    frequency:   11.7533386312
  - # 12
    frequency:   11.9536660577
  - # 13
    frequency:   13.9329806194
  - # 14
    frequency:   14.1616931751
  - # 15
    frequency:   14.1668576903
  - # 16
    frequency:   14.2805319394
  - # 17
    frequency:   16.2235437926
  - # 18
    frequency:   18.8154636153
  - # 19
    frequency:   18.8958316475
  - # 20
    frequency:  110.1303837274
  - # 21
    frequency:  110.7766831074

- q-position: [    0.1212121,    0.0000000,    0.0000000 ]
  distance:    0.0420663
  band:
  - # 1
    frequency:    0.8536607146
  - # 2
    frequency:    1.7664761996
  - # 3
    frequency:    2.6416453830
  - # 4
    frequency:    4.7680306044
  - # 5
    frequency:    5.1007528998
  - # 6
    frequency:    6.5180691120
  - # 7
    frequency:    7.1794200275
  - # 8
    frequency:    7.3132935992
  - # 9
    frequency:    7.3240848097
  - # 10
    frequency:    7.6718990492
  - # 11
    frequency:   11.7300698906
  - # 12
    frequency:   11.9320093950
  - # 13
    frequency:   13.9451121501
  - # 14
    frequency:   14.1899543659
  - # 15
    frequency:   14.1967175686
  - # 16
    frequency:   14.3178718838
  - # 17
    frequency:   16.2271876833
  - # 18
    frequency:   18.8142800174
  - # 19
    frequency:   18.8956882667
  - # 20
    frequency:  110.1023632604
  - # 21
    frequency:  110.7499021912

- q-position: [    0.1262626,    0.0000000,    0.0000000 ]
  distance:    0.0438191
  band:
  - # 1
    frequency:    0.9150635808
  - # 2
    frequency:    1.8323181758
  - # 3
    frequency:    2.7492004488
  - # 4
    frequency:    4.7821428394
  - # 5
    frequency:    5.1354984817
  - # 6
    frequency:    6.5288963404
  - # 7
    frequency:    7.1873549435
  - # 8
    frequency:    7.3146551482
  - # 9
    frequency:    7.3420438888
  - # 10
    frequency:    7.6953874137
  - # 11
    frequency:   11.7061117398
  - # 12
    frequency:   11.9100026997
  - # 13
    frequency:   13.9575938901
  - # 14
    frequency:   14.2134221751
  - # 15
    frequency:   14.2332695199
  - # 16
    frequency:   14.3568625878
  - # 17
    frequency:   16.2305856539
  - # 18
    frequency:   18.8131954009
  - # 19
    frequency:   18.8948181336
  - # 20
    frequency:  110.0740629103
  - # 21
    frequency:  110.7227967533

- q-position: [    0.1313131,    0.0000000,    0.0000000 ]
  distance:    0.0455718
  band:
  - # 1
    frequency:    0.9776506041
  - # 2
    frequency:    1.8973879472
  - # 3
    frequency:    2.8560199960
  - # 4
    frequency:    4.7960829551
  - # 5
    frequency:    5.1701556670
  - # 6
    frequency:    6.5399975623
  - # 7
    frequency:    7.1955935112
  - # 8
    frequency:    7.3160351478
  - # 9
    frequency:    7.3603633873
  - # 10
    frequency:    7.7186950291
  - # 11
    frequency:   11.6815493579
  - # 12
    frequency:   11.8876517890
  - # 13
    frequency:   13.9704030863
  - # 14
    frequency:   14.2372046778
  - # 15
    frequency:   14.2713235761
  - # 16
    frequency:   14.3975066038
  - # 17
    frequency:   16.2337037662
  - # 18
    frequency:   18.8122217719
  - # 19
    frequency:   18.8931666214
  - # 20
    frequency:  110.0455778603
  - # 21
    frequency:  110.6954513479

- q-position: [    0.1363636,    0.0000000,    0.0000000 ]
  distance:    0.0473246
  band:
  - # 1
    frequency:    1.0413460892
  - # 2
    frequency:    1.9616873614
  - # 3
    frequency:    2.9620021217
  - # 4
    frequency:    4.8097956910
  - # 5
    frequency:    5.2046545325
  - # 6
    frequency:    6.5513399540
  - # 7
    frequency:    7.2041136944
  - # 8
    frequency:    7.3174390861
  - # 9
    frequency:    7.3789952545
  - # 10
    frequency:    7.7417392489
  - # 11
    frequency:   11.6564690014
  - # 12
    frequency:   11.8649601544
  - # 13
    frequency:   13.9835170272
  - # 14
    frequency:   14.2612451493
  - # 15
    frequency:   14.3108540107
  - # 16
    frequency:   14.4398021578
  - # 17
    frequency:   16.2365089847
  - # 18
    frequency:   18.8113706454
  - # 19
    frequency:   18.8906826671
  - # 20
    frequency:  110.0170036023
  - # 21
    frequency:  110.6679507017

- q-position: [    0.1414141,    0.0000000,    0.0000000 ]
  distance:    0.0490774
  band:
  - # 1
    frequency:    1.1060781894
  - # 2
    frequency:    2.0252212476
  - # 3
    frequency:    3.0670393949
  - # 4
    frequency:    4.8232286803
  - # 5
    frequency:    5.2389330308
  - # 6
    frequency:    6.5628896780
  - # 7
    frequency:    7.2128876556
  - # 8
    frequency:    7.3188762160
  - # 9
    frequency:    7.3978904014
  - # 10
    frequency:    7.7644404129
  - # 11
    frequency:   11.6309562876
  - # 12
    frequency:   11.8419301589
  - # 13
    frequency:   13.9969130447
  - # 14
    frequency:   14.2854867823
  - # 15
    frequency:   14.3518350059
  - # 16
    frequency:   14.4837429312
  - # 17
    frequency:   16.2389692708
  - # 18
    frequency:   18.8106530136
  - # 19
    frequency:   18.8873191383
  - # 20
    frequency:  109.9884355824
  - # 21
    frequency:  110.6403793910

- q-position: [    0.1464646,    0.0000000,    0.0000000 ]
  distance:    0.0508301
  band:
  - # 1
    frequency:    1.1717785977
  - # 2
    frequency:    2.0879973416
  - # 3
    frequency:    3.1710190894
  - # 4
    frequency:    4.8363326951
  - # 5
    frequency:    5.2729367970
  - # 6
    frequency:    6.5746121508
  - # 7
    frequency:    7.2218801881
  - # 8
    frequency:    7.3203610886
  - # 9
    frequency:    7.4169989523
  - # 10
    frequency:    7.7867220744
  - # 11
    frequency:   11.6050947523
  - # 12
    frequency:   11.8185640056
  - # 13
    frequency:   14.0105685049
  - # 14
    frequency:   14.3098728881
  - # 15
    frequency:   14.3942407061
  - # 16
    frequency:   14.5293179664
  - # 17
    frequency:   16.2410536662
  - # 18
    frequency:   18.8100793220
  - # 19
    frequency:   18.8830331715
  - # 20
    frequency:  109.9599688476
  - # 21
    frequency:  110.6128215184

- q-position: [    0.1515152,    0.0000000,    0.0000000 ]
  distance:    0.0525829
  band:
  - # 1
    frequency:    1.2383822293
  - # 2
    frequency:    2.1500261855
  - # 3
    frequency:    3.2738234518
  - # 4
    frequency:    4.8490618655
  - # 5
    frequency:    5.3066189186
  - # 6
    frequency:    6.5864723055
  - # 7
    frequency:    7.2310463871
  - # 8
    frequency:    7.3219158624
  - # 9
    frequency:    7.4362705022
  - # 10
    frequency:    7.8085112257
  - # 11
    frequency:   11.5789646954
  - # 12
    frequency:   11.7948644644
  - # 13
    frequency:   14.0244607908
  - # 14
    frequency:   14.3343470959
  - # 15
    frequency:   14.4380451489
  - # 16
    frequency:   14.5765116885
  - # 17
    frequency:   16.2427323645
  - # 18
    frequency:   18.8096594556
  - # 19
    frequency:   18.8777864782
  - # 20
    frequency:  109.9316976923
  - # 21
    frequency:  110.5853603921
