nqpoint: 300    
npath: 3      
segment_nqpoint:
- 100
- 100
- 100
labels:
- [ 'G', 'M' ]
- [ 'M', 'K' ]
- [ 'K', 'G' ]
reciprocal_lattice:
- [   0.30055154,   0.17352351,   0.00000000 ] # a*
- [   0.00000000,   0.34704703,   0.00000000 ] # b*
- [   0.00000000,   0.00000000,   0.03967458 ] # c*
natom: 7      
lattice:
- [     3.327216332825771,     0.000000000000000,     0.000000000000000 ] # a
- [    -1.663608166412886,     2.881453868097616,     0.000000000000000 ] # b
- [     0.000000000000000,     0.000000000000000,    25.205053689980907 ] # c
points:
- symbol: C # 1
  coordinates: [  0.000000000000000,  0.000000000000000,  0.500000033479098 ]
  mass: 12.010700
- symbol: H # 2
  coordinates: [  0.333332985432215,  0.666666983183674,  0.642928751087028 ]
  mass: 1.007940
- symbol: H # 3
  coordinates: [  0.666666984744047,  0.333332985985145,  0.357071248912972 ]
  mass: 1.007940
- symbol: O # 4
  coordinates: [  0.333332985432215,  0.666666983183674,  0.603708304273670 ]
  mass: 15.999400
- symbol: O # 5
  coordinates: [  0.666666984744047,  0.333332985985145,  0.396291695726339 ]
  mass: 15.999400
- symbol: Zr # 6
  coordinates: [  0.333332985432215,  0.666666983183674,  0.450364043566051 ]
  mass: 91.224000
- symbol: Zr # 7
  coordinates: [  0.666666984744047,  0.333332985985145,  0.549635955934261 ]
  mass: 91.224000

phonon:
- q-position: [    0.0000000,    0.0000000,    0.0000000 ]
  distance:    0.0000000
  band:
  - # 1
    frequency:   -0.0000032219
  - # 2
    frequency:   -0.0000006751
  - # 3
    frequency:    0.0000033396
  - # 4
    frequency:    4.7522717833
  - # 5
    frequency:    4.7522717833
  - # 6
    frequency:    6.8727129845
  - # 7
    frequency:    7.2046549208
  - # 8
    frequency:    7.2046549208
  - # 9
    frequency:    7.4900732635
  - # 10
    frequency:    7.4900732635
  - # 11
    frequency:   12.0284697889
  - # 12
    frequency:   12.3132181197
  - # 13
    frequency:   13.9054068259
  - # 14
    frequency:   13.9054068259
  - # 15
    frequency:   14.0922925234
  - # 16
    frequency:   14.0922925234
  - # 17
    frequency:   16.0678562796
  - # 18
    frequency:   18.1954415831
  - # 19
    frequency:   18.1954415831
  - # 20
    frequency:  110.6800356280
  - # 21
    frequency:  110.8005771453

- q-position: [    0.0050505,    0.0000000,    0.0000000 ]
  distance:    0.0017528
  band:
  - # 1
    frequency:    0.0298199555
  - # 2
    frequency:    0.0701290757
  - # 3
    frequency:    0.1057474414
  - # 4
    frequency:    4.7524665834
  - # 5
    frequency:    4.7528540234
  - # 6
    frequency:    6.8724345222
  - # 7
    frequency:    7.2047190576
  - # 8
    frequency:    7.2047223656
  - # 9
    frequency:    7.4899239707
  - # 10
    frequency:    7.4904938087
  - # 11
    frequency:   12.0282987981
  - # 12
    frequency:   12.3127572275
  - # 13
    frequency:   13.9054114095
  - # 14
    frequency:   13.9057182234
  - # 15
    frequency:   14.0925198760
  - # 16
    frequency:   14.0929913812
  - # 17
    frequency:   16.0681733902
  - # 18
    frequency:   18.1958666193
  - # 19
    frequency:   18.1963972738
  - # 20
    frequency:  110.6795299525
  - # 21
    frequency:  110.8001946724

- q-position: [    0.0101010,    0.0000000,    0.0000000 ]
  distance:    0.0035055
  band:
  - # 1
    frequency:    0.0597484595
  - # 2
    frequency:    0.1402856058
  - # 3
    frequency:    0.2115160653
  - # 4
    frequency:    4.7530496699
  - # 5
    frequency:    4.7546011190
  - # 6
    frequency:    6.8716010856
  - # 7
    frequency:    7.2049125035
  - # 8
    frequency:    7.2049272763
  - # 9
    frequency:    7.4894762662
  - # 10
    frequency:    7.4917539141
  - # 11
    frequency:   12.0277806084
  - # 12
    frequency:   12.3113750239
  - # 13
    frequency:   13.9054352208
  - # 14
    frequency:   13.9066529167
  - # 15
    frequency:   14.0932019442
  - # 16
    frequency:   14.0950876319
  - # 17
    frequency:   16.0691222672
  - # 18
    frequency:   18.1971383039
  - # 19
    frequency:   18.1992559065
  - # 20
    frequency:  110.6780153053
  - # 21
    frequency:  110.7990444273

- q-position: [    0.0151515,    0.0000000,    0.0000000 ]
  distance:    0.0052583
  band:
  - # 1
    frequency:    0.0898935391
  - # 2
    frequency:    0.2104965635
  - # 3
    frequency:    0.3173267610
  - # 4
    frequency:    4.7540171235
  - # 5
    frequency:    4.7575141650
  - # 6
    frequency:    6.8702185051
  - # 7
    frequency:    7.2052383308
  - # 8
    frequency:    7.2052773164
  - # 9
    frequency:    7.4887306932
  - # 10
    frequency:    7.4938490191
  - # 11
    frequency:   12.0268996863
  - # 12
    frequency:   12.3090729160
  - # 13
    frequency:   13.9055082810
  - # 14
    frequency:   13.9082123912
  - # 15
    frequency:   14.0943387536
  - # 16
    frequency:   14.0985803432
  - # 17
    frequency:   16.0706955851
  - # 18
    frequency:   18.1992463976
  - # 19
    frequency:   18.2039922141
  - # 20
    frequency:  110.6754987362
  - # 21
    frequency:  110.7971180487

- q-position: [    0.0202020,    0.0000000,    0.0000000 ]
  distance:    0.0070111
  band:
  - # 1
    frequency:    0.1203621808
  - # 2
    frequency:    0.2807879680
  - # 3
    frequency:    0.4231998286
  - # 4
    frequency:    4.7553624848
  - # 5
    frequency:    4.7615948801
  - # 6
    frequency:    6.8682964323
  - # 7
    frequency:    7.2057015486
  - # 8
    frequency:    7.2057850476
  - # 9
    frequency:    7.4876882309
  - # 10
    frequency:    7.4967716177
  - # 11
    frequency:   12.0256305359
  - # 12
    frequency:   12.3058532068
  - # 13
    frequency:   13.9056800909
  - # 14
    frequency:   13.9103990701
  - # 15
    frequency:   14.0959303303
  - # 16
    frequency:   14.1034680791
  - # 17
    frequency:   16.0728812632
  - # 18
    frequency:   18.2021739465
  - # 19
    frequency:   18.2105642585
  - # 20
    frequency:  110.6719917102
  - # 21
    frequency:  110.7944019878

- q-position: [    0.0252525,    0.0000000,    0.0000000 ]
  distance:    0.0087638
  band:
  - # 1
    frequency:    0.1512598187
  - # 2
    frequency:    0.3511844258
  - # 3
    frequency:    0.5291546778
  - # 4
    frequency:    4.7570768629
  - # 5
    frequency:    4.7668454516
  - # 6
    frequency:    6.8658482443
  - # 7
    frequency:    7.2063089366
  - # 8
    frequency:    7.2064676249
  - # 9
    frequency:    7.4863504044
  - # 10
    frequency:    7.5005113902
  - # 11
    frequency:   12.0239382919
  - # 12
    frequency:   12.3017190360
  - # 13
    frequency:   13.9060188330
  - # 14
    frequency:   13.9132162342
  - # 15
    frequency:   14.0979766759
  - # 16
    frequency:   14.1097490661
  - # 17
    frequency:   16.0756626513
  - # 18
    frequency:   18.2058974482
  - # 19
    frequency:   18.2189136939
  - # 20
    frequency:  110.6675097156
  - # 21
    frequency:  110.7908780519

- q-position: [    0.0303030,    0.0000000,    0.0000000 ]
  distance:    0.0105166
  band:
  - # 1
    frequency:    0.1826898308
  - # 2
    frequency:    0.4217086953
  - # 3
    frequency:    0.6352095185
  - # 4
    frequency:    4.7591490823
  - # 5
    frequency:    4.7732683228
  - # 6
    frequency:    6.8628909136
  - # 7
    frequency:    7.2070688164
  - # 8
    frequency:    7.2073463934
  - # 9
    frequency:    7.4847194339
  - # 10
    frequency:    7.5050553675
  - # 11
    frequency:   12.0217795484
  - # 12
    frequency:   12.2966742989
  - # 13
    frequency:   13.9066102613
  - # 14
    frequency:   13.9166679130
  - # 15
    frequency:   14.1004777347
  - # 16
    frequency:   14.1174214103
  - # 17
    frequency:   16.0790187786
  - # 18
    frequency:   18.2103870816
  - # 19
    frequency:   18.2289661406
  - # 20
    frequency:  110.6620717737
  - # 21
    frequency:  110.7865241028

- q-position: [    0.0353535,    0.0000000,    0.0000000 ]
  distance:    0.0122693
  band:
  - # 1
    frequency:    0.2147530472
  - # 2
    frequency:    0.4923812796
  - # 3
    frequency:    0.7413810421
  - # 4
    frequency:    4.7615658682
  - # 5
    frequency:    4.7808659286
  - # 6
    frequency:    6.8594448487
  - # 7
    frequency:    7.2079907616
  - # 8
    frequency:    7.2084464062
  - # 9
    frequency:    7.4827984223
  - # 10
    frequency:    7.5103881101
  - # 11
    frequency:   12.0191034256
  - # 12
    frequency:   12.2907235495
  - # 13
    frequency:   13.9075562865
  - # 14
    frequency:   13.9207587446
  - # 15
    frequency:   14.1034333527
  - # 16
    frequency:   14.1264833479
  - # 17
    frequency:   16.0829246530
  - # 18
    frequency:   18.2156069983
  - # 19
    frequency:   18.2406316747
  - # 20
    frequency:  110.6556998978
  - # 21
    frequency:  110.7813148644

- q-position: [    0.0404040,    0.0000000,    0.0000000 ]
  distance:    0.0140221
  band:
  - # 1
    frequency:    0.2475472733
  - # 2
    frequency:    0.5632200529
  - # 3
    frequency:    0.8476840901
  - # 4
    frequency:    4.7643120634
  - # 5
    frequency:    4.7896403869
  - # 6
    frequency:    6.8555337105
  - # 7
    frequency:    7.2090852519
  - # 8
    frequency:    7.2097958830
  - # 9
    frequency:    7.4805915774
  - # 10
    frequency:    7.5164918870
  - # 11
    frequency:   12.0158528671
  - # 12
    frequency:   12.2838718880
  - # 13
    frequency:   13.9089732722
  - # 14
    frequency:   13.9254938090
  - # 15
    frequency:   14.1068432308
  - # 16
    frequency:   14.1369335146
  - # 17
    frequency:   16.0873515988
  - # 18
    frequency:   18.2215156727
  - # 19
    frequency:   18.2538054373
  - # 20
    frequency:  110.6484185381
  - # 21
    frequency:  110.7752227928

- q-position: [    0.0454545,    0.0000000,    0.0000000 ]
  distance:    0.0157749
  band:
  - # 1
    frequency:    0.2811668294
  - # 2
    frequency:    0.6342399266
  - # 3
    frequency:    0.9541313101
  - # 4
    frequency:    4.7673708744
  - # 5
    frequency:    4.7995931520
  - # 6
    frequency:    6.8511842064
  - # 7
    frequency:    7.2103632719
  - # 8
    frequency:    7.2114256313
  - # 9
    frequency:    7.4781044659
  - # 10
    frequency:    7.5233468392
  - # 11
    frequency:   12.0119661551
  - # 12
    frequency:   12.2761248348
  - # 13
    frequency:   13.9109900605
  - # 14
    frequency:   13.9308784329
  - # 15
    frequency:   14.1107068737
  - # 16
    frequency:   14.1487712190
  - # 17
    frequency:   16.0922676193
  - # 18
    frequency:   18.2280663067
  - # 19
    frequency:   18.2683683669
  - # 20
    frequency:  110.6402540448
  - # 21
    frequency:  110.7682189788

- q-position: [    0.0505051,    0.0000000,    0.0000000 ]
  distance:    0.0175276
  band:
  - # 1
    frequency:    0.3157021095
  - # 2
    frequency:    0.7054525567
  - # 3
    frequency:    1.0607327975
  - # 4
    frequency:    4.7707241405
  - # 5
    frequency:    4.8107246401
  - # 6
    frequency:    6.8464258695
  - # 7
    frequency:    7.2118358589
  - # 8
    frequency:    7.2133684450
  - # 9
    frequency:    7.4753442962
  - # 10
    frequency:    7.5309311183
  - # 11
    frequency:   12.0073786230
  - # 12
    frequency:   12.2674881927
  - # 13
    frequency:   13.9137457560
  - # 14
    frequency:   13.9369179713
  - # 15
    frequency:   14.1150235368
  - # 16
    frequency:   14.1619967036
  - # 17
    frequency:   16.0976377698
  - # 18
    frequency:   18.2352072847
  - # 19
    frequency:   18.2841880576
  - # 20
    frequency:  110.6312341654
  - # 21
    frequency:  110.7602740590

- q-position: [    0.0555556,    0.0000000,    0.0000000 ]
  distance:    0.0192804
  band:
  - # 1
    frequency:    0.3512391610
  - # 2
    frequency:    0.7768660960
  - # 3
    frequency:    1.1674957229
  - # 4
    frequency:    4.7743526216
  - # 5
    frequency:    4.8230338349
  - # 6
    frequency:    6.8412908244
  - # 7
    frequency:    7.2135136010
  - # 8
    frequency:    7.2156584993
  - # 9
    frequency:    7.4723202305
  - # 10
    frequency:    7.5392209922
  - # 11
    frequency:   12.0020245319
  - # 12
    frequency:   12.2579678962
  - # 13
    frequency:   13.9173873091
  - # 14
    frequency:   13.9436175644
  - # 15
    frequency:   14.1197921731
  - # 16
    frequency:   14.1766113837
  - # 17
    frequency:   16.1034245291
  - # 18
    frequency:   18.2428826748
  - # 19
    frequency:   18.3011197421
  - # 20
    frequency:  110.6213875788
  - # 21
    frequency:  110.7513591282

- q-position: [    0.0606061,    0.0000000,    0.0000000 ]
  distance:    0.0210332
  band:
  - # 1
    frequency:    0.3878592860
  - # 2
    frequency:    0.8484849928
  - # 3
    frequency:    1.2744239447
  - # 4
    frequency:    4.7782362982
  - # 5
    frequency:    4.8365178850
  - # 6
    frequency:    6.8358135428
  - # 7
    frequency:    7.2154060848
  - # 8
    frequency:    7.2183307502
  - # 9
    frequency:    7.4690437251
  - # 10
    frequency:    7.5481909180
  - # 11
    frequency:   11.9958390620
  - # 12
    frequency:   12.2475698506
  - # 13
    frequency:   13.9220669485
  - # 14
    frequency:   13.9509818738
  - # 15
    frequency:   14.1250113835
  - # 16
    frequency:   14.1926180532
  - # 17
    frequency:   16.1095881572
  - # 18
    frequency:   18.2510327703
  - # 19
    frequency:   18.3190073978
  - # 20
    frequency:  110.6107434580
  - # 21
    frequency:  110.7414466558

- q-position: [    0.0656566,    0.0000000,    0.0000000 ]
  distance:    0.0227859
  band:
  - # 1
    frequency:    0.4256386660
  - # 2
    frequency:    0.9203098358
  - # 3
    frequency:    1.3815176092
  - # 4
    frequency:    4.7823546795
  - # 5
    frequency:    4.8511717011
  - # 6
    frequency:    6.8300305919
  - # 7
    frequency:    7.2175212922
  - # 8
    frequency:    7.2214203508
  - # 9
    frequency:    7.4655289033
  - # 10
    frequency:    7.5578135822
  - # 11
    frequency:   11.9887603584
  - # 12
    frequency:   12.2362997616
  - # 13
    frequency:   13.9279395253
  - # 14
    frequency:   13.9590147984
  - # 15
    frequency:   14.1306793730
  - # 16
    frequency:   14.2100210522
  - # 17
    frequency:   16.1160870310
  - # 18
    frequency:   18.2595946663
  - # 19
    frequency:   18.3376849687
  - # 20
    frequency:  110.5993310431
  - # 21
    frequency:  110.7305114194

- q-position: [    0.0707071,    0.0000000,    0.0000000 ]
  distance:    0.0245387
  band:
  - # 1
    frequency:    0.4646480111
  - # 2
    frequency:    0.9923372448
  - # 3
    frequency:    1.4887727377
  - # 4
    frequency:    4.7866871123
  - # 5
    frequency:    4.8669875657
  - # 6
    frequency:    6.8239803764
  - # 7
    frequency:    7.2198649417
  - # 8
    frequency:    7.2249620895
  - # 9
    frequency:    7.4617929658
  - # 10
    frequency:    7.5680599138
  - # 11
    frequency:   11.9807315528
  - # 12
    frequency:   12.2241629635
  - # 13
    frequency:   13.9351598412
  - # 14
    frequency:   13.9677191725
  - # 15
    frequency:   14.1367939170
  - # 16
    frequency:   14.2288263917
  - # 17
    frequency:   16.1228779508
  - # 18
    frequency:   18.2685028652
  - # 19
    frequency:   18.3569776955
  - # 20
    frequency:  110.5871791964
  - # 21
    frequency:  110.7185314756

- q-position: [    0.0757576,    0.0000000,    0.0000000 ]
  distance:    0.0262914
  band:
  - # 1
    frequency:    0.5049522323
  - # 2
    frequency:    1.0645598069
  - # 3
    frequency:    1.5961808045
  - # 4
    frequency:    4.7912130875
  - # 5
    frequency:    4.8839547635
  - # 6
    frequency:    6.8177028764
  - # 7
    frequency:    7.2224397648
  - # 8
    frequency:    7.2289898557
  - # 9
    frequency:    7.4578566489
  - # 10
    frequency:    7.5788990769
  - # 11
    frequency:   11.9717026747
  - # 12
    frequency:   12.2111642540
  - # 13
    frequency:   13.9438800396
  - # 14
    frequency:   13.9770964461
  - # 15
    frequency:   14.1433523408
  - # 16
    frequency:   14.2490418354
  - # 17
    frequency:   16.1299164133
  - # 18
    frequency:   18.2776899052
  - # 19
    frequency:   18.3767035414
  - # 20
    frequency:  110.5743159062
  - # 21
    frequency:  110.7054891958

- q-position: [    0.0808081,    0.0000000,    0.0000000 ]
  distance:    0.0280442
  band:
  - # 1
    frequency:    0.5466101392
  - # 2
    frequency:    1.1369660555
  - # 3
    frequency:    1.7037283069
  - # 4
    frequency:    4.7959125370
  - # 5
    frequency:    4.9020592435
  - # 6
    frequency:    6.8112393811
  - # 7
    frequency:    7.2252447092
  - # 8
    frequency:    7.2335361382
  - # 9
    frequency:    7.4537447432
  - # 10
    frequency:    7.5902984497
  - # 11
    frequency:   11.9616323584
  - # 12
    frequency:   12.1973077508
  - # 13
    frequency:   13.9542471392
  - # 14
    frequency:   13.9871463489
  - # 15
    frequency:   14.1503515183
  - # 16
    frequency:   14.2706769381
  - # 17
    frequency:   16.1371568503
  - # 18
    frequency:   18.2870870055
  - # 19
    frequency:   18.3966746996
  - # 20
    frequency:  110.5607676964
  - # 21
    frequency:  110.6913724018

- q-position: [    0.0858586,    0.0000000,    0.0000000 ]
  distance:    0.0297970
  band:
  - # 1
    frequency:    0.5896741622
  - # 2
    frequency:    1.2095404903
  - # 3
    frequency:    1.8113963310
  - # 4
    frequency:    4.8007661176
  - # 5
    frequency:    4.9212833211
  - # 6
    frequency:    6.8046322205
  - # 7
    frequency:    7.2282740511
  - # 8
    frequency:    7.2386315572
  - # 9
    frequency:    7.4494866924
  - # 10
    frequency:    7.6022235993
  - # 11
    frequency:   11.9504892525
  - # 12
    frequency:   12.1825967847
  - # 13
    frequency:   13.9664007881
  - # 14
    frequency:   13.9978665376
  - # 15
    frequency:   14.1577878940
  - # 16
    frequency:   14.2937430436
  - # 17
    frequency:   16.1445528333
  - # 18
    frequency:   18.2966247212
  - # 19
    frequency:   18.4166991671
  - # 20
    frequency:  110.5465588911
  - # 21
    frequency:  110.6761756463

- q-position: [    0.0909091,    0.0000000,    0.0000000 ]
  distance:    0.0315497
  band:
  - # 1
    frequency:    0.6341901002
  - # 2
    frequency:    1.2822636349
  - # 3
    frequency:    1.9191601172
  - # 4
    frequency:    4.8057554766
  - # 5
    frequency:    4.9416054294
  - # 6
    frequency:    6.7979244956
  - # 7
    frequency:    7.2315163992
  - # 8
    frequency:    7.2443044334
  - # 9
    frequency:    7.4451172914
  - # 10
    frequency:    7.6146382578
  - # 11
    frequency:   11.9382530539
  - # 12
    frequency:   12.1670338479
  - # 13
    frequency:   13.9804713049
  - # 14
    frequency:   14.0092522248
  - # 15
    frequency:   14.1656575349
  - # 16
    frequency:   14.3182532429
  - # 17
    frequency:   16.1520572459
  - # 18
    frequency:   18.3062336014
  - # 19
    frequency:   18.4365823650
  - # 20
    frequency:  110.5317106708
  - # 21
    frequency:  110.6599016928

- q-position: [    0.0959596,    0.0000000,    0.0000000 ]
  distance:    0.0333025
  band:
  - # 1
    frequency:    0.6801968934
  - # 2
    frequency:    1.3551121304
  - # 3
    frequency:    2.0269886283
  - # 4
    frequency:    4.8108634957
  - # 5
    frequency:    4.9629999267
  - # 6
    frequency:    6.7911598089
  - # 7
    frequency:    7.2349535707
  - # 8
    frequency:    7.2505803974
  - # 9
    frequency:    7.4406775101
  - # 10
    frequency:    7.6275043085
  - # 11
    frequency:   11.9249151050
  - # 12
    frequency:   12.1506206102
  - # 13
    frequency:   13.9965780582
  - # 14
    frequency:   14.0212957878
  - # 15
    frequency:   14.1739562207
  - # 16
    frequency:   14.3442222965
  - # 17
    frequency:   16.1596224303
  - # 18
    frequency:   18.3158448447
  - # 19
    frequency:   18.4561287903
  - # 20
    frequency:  110.5162398417
  - # 21
    frequency:  110.6425632671

- q-position: [    0.1010101,    0.0000000,    0.0000000 ]
  distance:    0.0350553
  band:
  - # 1
    frequency:    0.7277264232
  - # 2
    frequency:    1.4280588609
  - # 3
    frequency:    2.1348441261
  - # 4
    frequency:    4.8160745079
  - # 5
    frequency:    4.9854369663
  - # 6
    frequency:    6.7843819964
  - # 7
    frequency:    7.2385593230
  - # 8
    frequency:    7.2574820375
  - # 9
    frequency:    7.4362154594
  - # 10
    frequency:    7.6407817861
  - # 11
    frequency:   11.9104785233
  - # 12
    frequency:   12.1333580110
  - # 13
    frequency:   14.0148282160
  - # 14
    frequency:   14.0339863524
  - # 15
    frequency:   14.1826795800
  - # 16
    frequency:   14.3716665194
  - # 17
    frequency:   16.1672003098
  - # 18
    frequency:   18.3253909448
  - # 19
    frequency:   18.4751436773
  - # 20
    frequency:  110.5001572228
  - # 21
    frequency:  110.6241851669

- q-position: [    0.1060606,    0.0000000,    0.0000000 ]
  distance:    0.0368080
  band:
  - # 1
    frequency:    0.7768033404
  - # 2
    frequency:    1.5010731077
  - # 3
    frequency:    2.2426817591
  - # 4
    frequency:    4.8213744869
  - # 5
    frequency:    5.0088824344
  - # 6
    frequency:    6.7776348638
  - # 7
    frequency:    7.2422979406
  - # 8
    frequency:    7.2650285913
  - # 9
    frequency:    7.4317875068
  - # 10
    frequency:    7.6544288964
  - # 11
    frequency:   11.8949578661
  - # 12
    frequency:   12.1152464275
  - # 13
    frequency:   14.0353158741
  - # 14
    frequency:   14.0473093460
  - # 15
    frequency:   14.1918232832
  - # 16
    frequency:   14.4006036323
  - # 17
    frequency:   16.1747424965
  - # 18
    frequency:   18.3348063201
  - # 19
    frequency:   18.4934346530
  - # 20
    frequency:  110.4834655427
  - # 21
    frequency:  110.6048068328

- q-position: [    0.1111111,    0.0000000,    0.0000000 ]
  distance:    0.0385608
  band:
  - # 1
    frequency:    0.8274449231
  - # 2
    frequency:    1.5741207311
  - # 3
    frequency:    2.3504491683
  - # 4
    frequency:    4.8267512023
  - # 5
    frequency:    5.0332979597
  - # 6
    frequency:    6.7709619285
  - # 7
    frequency:    7.2461227100
  - # 8
    frequency:    7.2732356778
  - # 9
    frequency:    7.4274595127
  - # 10
    frequency:    7.6684020584
  - # 11
    frequency:   11.8783783677
  - # 12
    frequency:   12.0962859087
  - # 13
    frequency:   14.0581215502
  - # 14
    frequency:   14.0612460107
  - # 15
    frequency:   14.2013833065
  - # 16
    frequency:   14.4310525750
  - # 17
    frequency:   16.1822003869
  - # 18
    frequency:   18.3440279211
  - # 19
    frequency:   18.5108133684
  - # 20
    frequency:  110.4661567374
  - # 21
    frequency:  110.5844854796

- q-position: [    0.1161616,    0.0000000,    0.0000000 ]
  distance:    0.0403135
  band:
  - # 1
    frequency:    0.8796609678
  - # 2
    frequency:    1.6471643740
  - # 3
    frequency:    2.4580861141
  - # 4
    frequency:    4.8321943424
  - # 5
    frequency:    5.0586409970
  - # 6
    frequency:    6.7644061693
  - # 7
    frequency:    7.2499743869
  - # 8
    frequency:    7.2821150738
  - # 9
    frequency:    7.4233080848
  - # 10
    frequency:    7.6826559712
  - # 11
    frequency:   11.8607748152
  - # 12
    frequency:   12.0764764593
  - # 13
    frequency:   14.0757728666
  - # 14
    frequency:   14.0833120098
  - # 15
    frequency:   14.2113562792
  - # 16
    frequency:   14.4630332833
  - # 17
    frequency:   16.1895252532
  - # 18
    frequency:   18.3529958103
  - # 19
    frequency:   18.5270970889
  - # 20
    frequency:  110.4482085912
  - # 21
    frequency:  110.5632998419

- q-position: [    0.1212121,    0.0000000,    0.0000000 ]
  distance:    0.0420663
  band:
  - # 1
    frequency:    0.9334537155
  - # 2
    frequency:    1.7201636869
  - # 3
    frequency:    2.5655241309
  - # 4
    frequency:    4.8376955993
  - # 5
    frequency:    5.0848649870
  - # 6
    frequency:    6.7580097859
  - # 7
    frequency:    7.2537798866
  - # 8
    frequency:    7.2916745320
  - # 9
    frequency:    7.4194216288
  - # 10
    frequency:    7.6971437062
  - # 11
    frequency:   11.8421901540
  - # 12
    frequency:   12.0558183509
  - # 13
    frequency:   14.0908611098
  - # 14
    frequency:   14.1109403734
  - # 15
    frequency:   14.2217399329
  - # 16
    frequency:   14.4965664242
  - # 17
    frequency:   16.1966683336
  - # 18
    frequency:   18.3616537078
  - # 19
    frequency:   18.5421102313
  - # 20
    frequency:  110.4295808102
  - # 21
    frequency:  110.5413544343

- q-position: [    0.1262626,    0.0000000,    0.0000000 ]
  distance:    0.0438191
  band:
  - # 1
    frequency:    0.9888178176
  - # 2
    frequency:    1.7930755713
  - # 3
    frequency:    2.6726862138
  - # 4
    frequency:    4.8432487175
  - # 5
    frequency:    5.1119195896
  - # 6
    frequency:    6.7518139718
  - # 7
    frequency:    7.2574516255
  - # 8
    frequency:    7.3019176424
  - # 9
    frequency:    7.4159007669
  - # 10
    frequency:    7.7118168253
  - # 11
    frequency:   11.8226739222
  - # 12
    frequency:   12.0343124401
  - # 13
    frequency:   14.1064759340
  - # 14
    frequency:   14.1410464467
  - # 15
    frequency:   14.2325336691
  - # 16
    frequency:   14.5316730892
  - # 17
    frequency:   16.2035809274
  - # 18
    frequency:   18.3699494988
  - # 19
    frequency:   18.5556858315
  - # 20
    frequency:  110.4102109757
  - # 21
    frequency:  110.5187838775

- q-position: [    0.1313131,    0.0000000,    0.0000000 ]
  distance:    0.0455718
  band:
  - # 1
    frequency:    1.0457403442
  - # 2
    frequency:    1.8658544378
  - # 3
    frequency:    2.7794865424
  - # 4
    frequency:    4.8488495037
  - # 5
    frequency:    5.1397509929
  - # 6
    frequency:    6.7458586985
  - # 7
    frequency:    7.2608882132
  - # 8
    frequency:    7.3128437348
  - # 9
    frequency:    7.4128574322
  - # 10
    frequency:    7.7266255252
  - # 11
    frequency:   11.8022806192
  - # 12
    frequency:   12.0119604722
  - # 13
    frequency:   14.1225757610
  - # 14
    frequency:   14.1736572078
  - # 15
    frequency:   14.2437392574
  - # 16
    frequency:   14.5683744413
  - # 17
    frequency:   16.2102144975
  - # 18
    frequency:   18.3778356972
  - # 19
    frequency:   18.5676669349
  - # 20
    frequency:  110.3900115013
  - # 21
    frequency:  110.4957561571

- q-position: [    0.1363636,    0.0000000,    0.0000000 ]
  distance:    0.0473246
  band:
  - # 1
    frequency:    1.1042008384
  - # 2
    frequency:    1.9384524782
  - # 3
    frequency:    2.8858302485
  - # 4
    frequency:    4.8544957993
  - # 5
    frequency:    5.1683022904
  - # 6
    frequency:    6.7401825162
  - # 7
    frequency:    7.2639774540
  - # 8
    frequency:    7.3244478224
  - # 9
    frequency:    7.4104116810
  - # 10
    frequency:    7.7415188044
  - # 11
    frequency:   11.7810681018
  - # 12
    frequency:   11.9887653603
  - # 13
    frequency:   14.1391113815
  - # 14
    frequency:   14.2087873896
  - # 15
    frequency:   14.2553616707
  - # 16
    frequency:   14.6066913155
  - # 17
    frequency:   16.2165207828
  - # 18
    frequency:   18.3852698609
  - # 19
    frequency:   18.5779078972
  - # 20
    frequency:  110.3688697529
  - # 21
    frequency:  110.4724726525

- q-position: [    0.1414141,    0.0000000,    0.0000000 ]
  distance:    0.0490774
  band:
  - # 1
    frequency:    1.1641714212
  - # 2
    frequency:    2.0108199489
  - # 3
    frequency:    2.9916132317
  - # 4
    frequency:    4.8601874148
  - # 5
    frequency:    5.1975139261
  - # 6
    frequency:    6.7348223685
  - # 7
    frequency:    7.2666026694
  - # 8
    frequency:    7.3367205849
  - # 9
    frequency:    7.4086852166
  - # 10
    frequency:    7.7564446537
  - # 11
    frequency:   11.7590960877
  - # 12
    frequency:   11.9647314310
  - # 13
    frequency:   14.1560250244
  - # 14
    frequency:   14.2464400998
  - # 15
    frequency:   14.2674100341
  - # 16
    frequency:   14.6466437712
  - # 17
    frequency:   16.2224519236
  - # 18
    frequency:   18.3922149561
  - # 19
    frequency:   18.5862755874
  - # 20
    frequency:  110.3466545045
  - # 21
    frequency:  110.4491617580

- q-position: [    0.1464646,    0.0000000,    0.0000000 ]
  distance:    0.0508301
  band:
  - # 1
    frequency:    1.2256169484
  - # 2
    frequency:    2.0829054634
  - # 3
    frequency:    3.0967220304
  - # 4
    frequency:    4.8659260284
  - # 5
    frequency:    5.2273241979
  - # 6
    frequency:    6.7298134216
  - # 7
    frequency:    7.2686528462
  - # 8
    frequency:    7.3496483894
  - # 9
    frequency:    7.4077911210
  - # 10
    frequency:    7.7713502666
  - # 11
    frequency:   11.7364248283
  - # 12
    frequency:   11.9398646397
  - # 13
    frequency:   14.1732494264
  - # 14
    frequency:   14.2798986223
  - # 15
    frequency:   14.2866074333
  - # 16
    frequency:   14.6882505977
  - # 17
    frequency:   16.2279605995
  - # 18
    frequency:   18.3986396652
  - # 19
    frequency:   18.5926504885
  - # 20
    frequency:  110.3232317023
  - # 21
    frequency:  110.4260631213

- q-position: [    0.1515152,    0.0000000,    0.0000000 ]
  distance:    0.0525829
  band:
  - # 1
    frequency:    1.2884952221
  - # 2
    frequency:    2.1546562922
  - # 3
    frequency:    3.2010337549
  - # 4
    frequency:    4.8717150506
  - # 5
    frequency:    5.2576698146
  - # 6
    frequency:    6.7251889082
  - # 7
    frequency:    7.2700357785
  - # 8
    frequency:    7.3632133471
  - # 9
    frequency:    7.4078206284
  - # 10
    frequency:    7.7861822689
  - # 11
    frequency:   11.7131139906
  - # 12
    frequency:   11.9141727596
  - # 13
    frequency:   14.1907070491
  - # 14
    frequency:   14.2928477537
  - # 15
    frequency:   14.3292710405
  - # 16
    frequency:   14.7315287753
  - # 17
    frequency:   16.2330001821
  - # 18
    frequency:   18.4045186382
  - # 19
    frequency:   18.5969276857
  - # 20
    frequency:  110.2984893662
  - # 21
    frequency:  110.4034026636
