nqpoint: 300    
npath: 3      
segment_nqpoint:
- 100
- 100
- 100
labels:
- [ 'G', 'M' ]
- [ 'M', 'K' ]
- [ 'K', 'G' ]
reciprocal_lattice:
- [   0.29675892,   0.17133384,   0.00000000 ] # a*
- [   0.00000000,   0.34266768,   0.00000000 ] # b*
- [   0.00000000,   0.00000000,   0.04017554 ] # c*
natom: 6      
lattice:
- [     3.369738668769026,     0.000000000000000,     0.000000000000000 ] # a
- [    -1.684869334384513,     2.918279291264133,     0.000000000000000 ] # b
- [     0.000000000000000,     0.000000000000000,    24.890767354269254 ] # c
points:
- symbol: C # 1
  coordinates: [  0.000000000000000,  0.000000000000000,  0.454443966637870 ]
  mass: 12.010700
- symbol: O # 2
  coordinates: [  0.333332985432214,  0.666666983183674,  0.638420147040733 ]
  mass: 15.999400
- symbol: O # 3
  coordinates: [  0.666666984744047,  0.333332985985144,  0.361579852959267 ]
  mass: 15.999400
- symbol: P # 4
  coordinates: [  0.333332985432214,  0.666666983183674,  0.578510679041127 ]
  mass: 30.973762
- symbol: Sc # 5
  coordinates: [  0.333332985432214,  0.666666983183674,  0.387581325101519 ]
  mass: 44.955912
- symbol: Sc # 6
  coordinates: [  0.666666984744047,  0.333332985985144,  0.491338114988817 ]
  mass: 44.955912

phonon:
- q-position: [    0.0000000,    0.0000000,    0.0000000 ]
  distance:    0.0000000
  band:
  - # 1
    frequency:   -0.0000141446
  - # 2
    frequency:    0.0000001714
  - # 3
    frequency:    0.0000154962
  - # 4
    frequency:    0.6993784169
  - # 5
    frequency:    0.6993784170
  - # 6
    frequency:    4.0848996536
  - # 7
    frequency:    4.0848996537
  - # 8
    frequency:    4.1281880193
  - # 9
    frequency:    4.7414154722
  - # 10
    frequency:    4.7414154722
  - # 11
    frequency:    7.1173710233
  - # 12
    frequency:   12.6231540896
  - # 13
    frequency:   12.6231540896
  - # 14
    frequency:   13.6541108589
  - # 15
    frequency:   15.1253647760
  - # 16
    frequency:   15.1253647760
  - # 17
    frequency:   16.4922799980
  - # 18
    frequency:   34.5193439189

- q-position: [    0.0050505,    0.0000000,    0.0000000 ]
  distance:    0.0017306
  band:
  - # 1
    frequency:   -0.0264213602
  - # 2
    frequency:   -0.0008510890
  - # 3
    frequency:    0.1009821053
  - # 4
    frequency:    0.7021253213
  - # 5
    frequency:    0.7050216898
  - # 6
    frequency:    4.0793259284
  - # 7
    frequency:    4.0853426527
  - # 8
    frequency:    4.1351611089
  - # 9
    frequency:    4.7412414034
  - # 10
    frequency:    4.7417438631
  - # 11
    frequency:    7.1165095979
  - # 12
    frequency:   12.6206302560
  - # 13
    frequency:   12.6232662684
  - # 14
    frequency:   13.6553568409
  - # 15
    frequency:   15.1253062985
  - # 16
    frequency:   15.1257987251
  - # 17
    frequency:   16.4923231669
  - # 18
    frequency:   34.5190873183

- q-position: [    0.0101010,    0.0000000,    0.0000000 ]
  distance:    0.0034613
  band:
  - # 1
    frequency:   -0.0510000624
  - # 2
    frequency:   -0.0032096003
  - # 3
    frequency:    0.1989463935
  - # 4
    frequency:    0.7101617944
  - # 5
    frequency:    0.7224870186
  - # 6
    frequency:    4.0678810835
  - # 7
    frequency:    4.0866709184
  - # 8
    frequency:    4.1507938109
  - # 9
    frequency:    4.7407194800
  - # 10
    frequency:    4.7427306171
  - # 11
    frequency:    7.1139302528
  - # 12
    frequency:   12.6130767074
  - # 13
    frequency:   12.6236021496
  - # 14
    frequency:   13.6590813358
  - # 15
    frequency:   15.1251312390
  - # 16
    frequency:   15.1270943318
  - # 17
    frequency:   16.4924551639
  - # 18
    frequency:   34.5183178679

- q-position: [    0.0151515,    0.0000000,    0.0000000 ]
  distance:    0.0051919
  band:
  - # 1
    frequency:   -0.0720127531
  - # 2
    frequency:   -0.0064804990
  - # 3
    frequency:    0.2906509283
  - # 4
    frequency:    0.7229329680
  - # 5
    frequency:    0.7532735154
  - # 6
    frequency:    4.0553197971
  - # 7
    frequency:    4.0888822335
  - # 8
    frequency:    4.1703006833
  - # 9
    frequency:    4.7398505651
  - # 10
    frequency:    4.7443808484
  - # 11
    frequency:    7.1096477845
  - # 12
    frequency:   12.6005463541
  - # 13
    frequency:   12.6241597692
  - # 14
    frequency:   13.6652446527
  - # 15
    frequency:   15.1248407161
  - # 16
    frequency:   15.1292332668
  - # 17
    frequency:   16.4926834037
  - # 18
    frequency:   34.5170366198

- q-position: [    0.0202020,    0.0000000,    0.0000000 ]
  distance:    0.0069226
  band:
  - # 1
    frequency:   -0.0878752277
  - # 2
    frequency:   -0.0095889938
  - # 3
    frequency:    0.3728836261
  - # 4
    frequency:    0.7396727022
  - # 5
    frequency:    0.7993016632
  - # 6
    frequency:    4.0430101832
  - # 7
    frequency:    4.0919728253
  - # 8
    frequency:    4.1922621106
  - # 9
    frequency:    4.7386361429
  - # 10
    frequency:    4.7467043442
  - # 11
    frequency:    7.1036868642
  - # 12
    frequency:   12.5831244031
  - # 13
    frequency:   12.6249358598
  - # 14
    frequency:   13.6737826926
  - # 15
    frequency:   15.1244365917
  - # 16
    frequency:   15.1321862666
  - # 17
    frequency:   16.4930200586
  - # 18
    frequency:   34.5152453260

- q-position: [    0.0252525,    0.0000000,    0.0000000 ]
  distance:    0.0086532
  band:
  - # 1
    frequency:   -0.0969924687
  - # 2
    frequency:   -0.0105707165
  - # 3
    frequency:    0.4435500432
  - # 4
    frequency:    0.7595540611
  - # 5
    frequency:    0.8616259074
  - # 6
    frequency:    4.0313170839
  - # 7
    frequency:    4.0959372517
  - # 8
    frequency:    4.2162405126
  - # 9
    frequency:    4.7370783883
  - # 10
    frequency:    4.7497175723
  - # 11
    frequency:    7.0960820555
  - # 12
    frequency:   12.5609244470
  - # 13
    frequency:   12.6259258602
  - # 14
    frequency:   13.6846095400
  - # 15
    frequency:   15.1239214677
  - # 16
    frequency:   15.1359149898
  - # 17
    frequency:   16.4934817818
  - # 18
    frequency:   34.5129464336

- q-position: [    0.0303030,    0.0000000,    0.0000000 ]
  distance:    0.0103839
  band:
  - # 1
    frequency:   -0.0973215734
  - # 2
    frequency:    0.0035889552
  - # 3
    frequency:    0.5028941878
  - # 4
    frequency:    0.7817993850
  - # 5
    frequency:    0.9390919652
  - # 6
    frequency:    4.0203304867
  - # 7
    frequency:    4.1007682442
  - # 8
    frequency:    4.2420509079
  - # 9
    frequency:    4.7351802654
  - # 10
    frequency:    4.7534467272
  - # 11
    frequency:    7.0868778452
  - # 12
    frequency:   12.5340839230
  - # 13
    frequency:   12.6271239284
  - # 14
    frequency:   13.6976202853
  - # 15
    frequency:   15.1232986806
  - # 16
    frequency:   15.1403744811
  - # 17
    frequency:   16.4940893214
  - # 18
    frequency:   34.5101430810

- q-position: [    0.0353535,    0.0000000,    0.0000000 ]
  distance:    0.0121145
  band:
  - # 1
    frequency:   -0.0850451259
  - # 2
    frequency:    0.0216858184
  - # 3
    frequency:    0.5532704112
  - # 4
    frequency:    0.8057376888
  - # 5
    frequency:    1.0285007778
  - # 6
    frequency:    4.0100541441
  - # 7
    frequency:    4.1064565083
  - # 8
    frequency:    4.2695704069
  - # 9
    frequency:    4.7329456566
  - # 10
    frequency:    4.7579320894
  - # 11
    frequency:    7.0761286899
  - # 12
    frequency:   12.5027595459
  - # 13
    frequency:   12.6285229590
  - # 14
    frequency:   13.7126935790
  - # 15
    frequency:   15.1225722947
  - # 16
    frequency:   15.1455161279
  - # 17
    frequency:   16.4948670329
  - # 18
    frequency:   34.5068390905

- q-position: [    0.0404040,    0.0000000,    0.0000000 ]
  distance:    0.0138452
  band:
  - # 1
    frequency:   -0.0460760337
  - # 2
    frequency:    0.0389494994
  - # 3
    frequency:    0.5976214882
  - # 4
    frequency:    0.8308219660
  - # 5
    frequency:    1.1261040389
  - # 6
    frequency:    4.0004655769
  - # 7
    frequency:    4.1129904861
  - # 8
    frequency:    4.2986749775
  - # 9
    frequency:    4.7303795243
  - # 10
    frequency:    4.7632340925
  - # 11
    frequency:    7.0638990854
  - # 12
    frequency:   12.4671231852
  - # 13
    frequency:   12.6301146064
  - # 14
    frequency:   13.7296935663
  - # 15
    frequency:   15.1217470932
  - # 16
    frequency:   15.1512909811
  - # 17
    frequency:   16.4958422915
  - # 18
    frequency:   34.5030389612

- q-position: [    0.0454545,    0.0000000,    0.0000000 ]
  distance:    0.0155758
  band:
  - # 1
    frequency:    0.0588340060
  - # 2
    frequency:    0.0794263991
  - # 3
    frequency:    0.6383255048
  - # 4
    frequency:    0.8566242367
  - # 5
    frequency:    1.2287514133
  - # 6
    frequency:    3.9915393070
  - # 7
    frequency:    4.1203560801
  - # 8
    frequency:    4.3292110164
  - # 9
    frequency:    4.7274881092
  - # 10
    frequency:    4.7694416349
  - # 11
    frequency:    7.0502636626
  - # 12
    frequency:   12.4273584642
  - # 13
    frequency:   12.6318893115
  - # 14
    frequency:   13.7484710346
  - # 15
    frequency:   15.1208285668
  - # 16
    frequency:   15.1576533123
  - # 17
    frequency:   16.4970448172
  - # 18
    frequency:   34.4987478599

- q-position: [    0.0505051,    0.0000000,    0.0000000 ]
  distance:    0.0173064
  band:
  - # 1
    frequency:    0.0814892225
  - # 2
    frequency:    0.1356467352
  - # 3
    frequency:    0.6769402547
  - # 4
    frequency:    0.8828217501
  - # 5
    frequency:    1.3341481699
  - # 6
    frequency:    3.9832573673
  - # 7
    frequency:    4.1285363407
  - # 8
    frequency:    4.3609769481
  - # 9
    frequency:    4.7242791680
  - # 10
    frequency:    4.7766832848
  - # 11
    frequency:    7.0353073164
  - # 12
    frequency:   12.3836581859
  - # 13
    frequency:   12.6338363358
  - # 14
    frequency:   13.7688637762
  - # 15
    frequency:   15.1198229002
  - # 16
    frequency:   15.1645642835
  - # 17
    frequency:   16.4985059227
  - # 18
    frequency:   34.4939716102

- q-position: [    0.0555556,    0.0000000,    0.0000000 ]
  distance:    0.0190371
  band:
  - # 1
    frequency:    0.1067503571
  - # 2
    frequency:    0.1854233610
  - # 3
    frequency:    0.7143799322
  - # 4
    frequency:    0.9091819103
  - # 5
    frequency:    1.4406811689
  - # 6
    frequency:    3.9756146695
  - # 7
    frequency:    4.1375111143
  - # 8
    frequency:    4.3937065907
  - # 9
    frequency:    4.7207622582
  - # 10
    frequency:    4.7851419836
  - # 11
    frequency:    7.0191253691
  - # 12
    frequency:   12.3362225543
  - # 13
    frequency:   12.6359438006
  - # 14
    frequency:   13.7906962870
  - # 15
    frequency:   15.1187369554
  - # 16
    frequency:   15.1719956139
  - # 17
    frequency:   16.5002577027
  - # 18
    frequency:   34.4887166813

- q-position: [    0.0606061,    0.0000000,    0.0000000 ]
  distance:    0.0207677
  band:
  - # 1
    frequency:    0.1343451356
  - # 2
    frequency:    0.2331947477
  - # 3
    frequency:    0.7511469300
  - # 4
    frequency:    0.9355493283
  - # 5
    frequency:    1.5471874154
  - # 6
    frequency:    3.9686220315
  - # 7
    frequency:    4.1472566512
  - # 8
    frequency:    4.4270513324
  - # 9
    frequency:    4.7169490776
  - # 10
    frequency:    4.7950733189
  - # 11
    frequency:    7.0018237711
  - # 12
    frequency:   12.2852580911
  - # 13
    frequency:   12.6381987340
  - # 14
    frequency:   13.8137789847
  - # 15
    frequency:   15.1175782514
  - # 16
    frequency:   15.1799331306
  - # 17
    frequency:   16.5023321835
  - # 18
    frequency:   34.4829901746

- q-position: [    0.0656566,    0.0000000,    0.0000000 ]
  distance:    0.0224984
  band:
  - # 1
    frequency:    0.1639482298
  - # 2
    frequency:    0.2800269302
  - # 3
    frequency:    0.7875042713
  - # 4
    frequency:    0.9618360842
  - # 5
    frequency:    1.6527792882
  - # 6
    frequency:    3.9623080278
  - # 7
    frequency:    4.1577451639
  - # 8
    frequency:    4.4605614974
  - # 9
    frequency:    4.7128538700
  - # 10
    frequency:    4.8068257402
  - # 11
    frequency:    6.9835193356
  - # 12
    frequency:   12.2309771163
  - # 13
    frequency:   12.6405871241
  - # 14
    frequency:   13.8379071582
  - # 15
    frequency:   15.1163549413
  - # 16
    frequency:   15.1883800918
  - # 17
    frequency:   16.5047604607
  - # 18
    frequency:   34.4767998096

- q-position: [    0.0707071,    0.0000000,    0.0000000 ]
  distance:    0.0242290
  band:
  - # 1
    frequency:    0.1952010661
  - # 2
    frequency:    0.3261903494
  - # 3
    frequency:    0.8235854155
  - # 4
    frequency:    0.9880151693
  - # 5
    frequency:    1.7567304966
  - # 6
    frequency:    3.9567201663
  - # 7
    frequency:    4.1689443257
  - # 8
    frequency:    4.4936718879
  - # 9
    frequency:    4.7084939121
  - # 10
    frequency:    4.8208571078
  - # 11
    frequency:    6.9643399992
  - # 12
    frequency:   12.1735976641
  - # 13
    frequency:   12.6430939815
  - # 14
    frequency:   13.8628598586
  - # 15
    frequency:   15.1150757846
  - # 16
    frequency:   15.1973601581
  - # 17
    frequency:   16.5075718520
  - # 18
    frequency:   34.4701539085

- q-position: [    0.0757576,    0.0000000,    0.0000000 ]
  distance:    0.0259597
  band:
  - # 1
    frequency:    0.2277189841
  - # 2
    frequency:    0.3716602663
  - # 3
    frequency:    0.8594607522
  - # 4
    frequency:    1.0141165742
  - # 5
    frequency:    1.8584045172
  - # 6
    frequency:    3.9519255590
  - # 7
    frequency:    4.1808166911
  - # 8
    frequency:    4.5257038575
  - # 9
    frequency:    4.7038901030
  - # 10
    frequency:    4.8377348851
  - # 11
    frequency:    6.9444250945
  - # 12
    frequency:   12.1133437222
  - # 13
    frequency:   12.6457034091
  - # 14
    frequency:   13.8883989502
  - # 15
    frequency:   15.1137501154
  - # 16
    frequency:   15.2069198682
  - # 17
    frequency:   16.5107930989
  - # 18
    frequency:   34.4630613795

- q-position: [    0.0808081,    0.0000000,    0.0000000 ]
  distance:    0.0276903
  band:
  - # 1
    frequency:    0.2610924285
  - # 2
    frequency:    0.4162679695
  - # 3
    frequency:    0.8951774948
  - # 4
    frequency:    1.0402252106
  - # 5
    frequency:    1.9572097561
  - # 6
    frequency:    3.9480110275
  - # 7
    frequency:    4.1933190144
  - # 8
    frequency:    4.5559042245
  - # 9
    frequency:    4.6990676828
  - # 10
    frequency:    4.8580994726
  - # 11
    frequency:    6.9239256095
  - # 12
    frequency:   12.0504457028
  - # 13
    frequency:   12.6483986813
  - # 14
    frequency:   13.9142685425
  - # 15
    frequency:   15.1123878065
  - # 16
    frequency:   15.2171304411
  - # 17
    frequency:   16.5144476490
  - # 18
    frequency:   34.4555316991

- q-position: [    0.0858586,    0.0000000,    0.0000000 ]
  distance:    0.0294210
  band:
  - # 1
    frequency:    0.2948849829
  - # 2
    frequency:    0.4597567578
  - # 3
    frequency:    0.9307837645
  - # 4
    frequency:    1.0664795907
  - # 5
    frequency:    2.0525713934
  - # 6
    frequency:    3.9450823829
  - # 7
    frequency:    4.2064014283
  - # 8
    frequency:    4.5835393146
  - # 9
    frequency:    4.6940571164
  - # 10
    frequency:    4.8825722759
  - # 11
    frequency:    6.9030043991
  - # 12
    frequency:   11.9851410731
  - # 13
    frequency:   12.6511623317
  - # 14
    frequency:   13.9401950457
  - # 15
    frequency:   15.1109992286
  - # 16
    frequency:   15.2280886922
  - # 17
    frequency:   16.5185550545
  - # 18
    frequency:   34.4475748932

- q-position: [    0.0909091,    0.0000000,    0.0000000 ]
  distance:    0.0311516
  band:
  - # 1
    frequency:    0.3286297510
  - # 2
    frequency:    0.5018060312
  - # 3
    frequency:    0.9663431279
  - # 4
    frequency:    1.0930698459
  - # 5
    frequency:    2.1439142216
  - # 6
    frequency:    3.9432624157
  - # 7
    frequency:    4.2200064398
  - # 8
    frequency:    4.6080342131
  - # 9
    frequency:    4.6888951893
  - # 10
    frequency:    4.9116183515
  - # 11
    frequency:    6.8818362989
  - # 12
    frequency:   11.9176750881
  - # 13
    frequency:   12.6539762506
  - # 14
    frequency:   13.9658881133
  - # 15
    frequency:   15.1095952035
  - # 16
    frequency:   15.2399168102
  - # 17
    frequency:   16.5231305153
  - # 18
    frequency:   34.4392015176

- q-position: [    0.0959596,    0.0000000,    0.0000000 ]
  distance:    0.0328823
  band:
  - # 1
    frequency:    0.3618250935
  - # 2
    frequency:    0.5420449346
  - # 3
    frequency:    1.0019429349
  - # 4
    frequency:    1.1202332709
  - # 5
    frequency:    2.2306535878
  - # 6
    frequency:    3.9426869246
  - # 7
    frequency:    4.2340676791
  - # 8
    frequency:    4.6290984773
  - # 9
    frequency:    4.6836263743
  - # 10
    frequency:    4.9454223268
  - # 11
    frequency:    6.8606080725
  - # 12
    frequency:   11.8483015791
  - # 13
    frequency:   12.6568217911
  - # 14
    frequency:   13.9910427510
  - # 15
    frequency:   15.1081869538
  - # 16
    frequency:   15.2527607212
  - # 17
    frequency:   16.5281845959
  - # 18
    frequency:   34.4304226369

- q-position: [    0.1010101,    0.0000000,    0.0000000 ]
  distance:    0.0346129
  band:
  - # 1
    frequency:    0.3939305277
  - # 2
    frequency:    0.5800649428
  - # 3
    frequency:    1.0376980139
  - # 4
    frequency:    1.1482453046
  - # 5
    frequency:    2.3121932493
  - # 6
    frequency:    3.9434979477
  - # 7
    frequency:    4.2485083299
  - # 8
    frequency:    4.6467627833
  - # 9
    frequency:    4.6783045407
  - # 10
    frequency:    4.9838530675
  - # 11
    frequency:    6.8395181094
  - # 12
    frequency:   11.7772837559
  - # 13
    frequency:   12.6596798850
  - # 14
    frequency:   14.0153428614
  - # 15
    frequency:   15.1067860464
  - # 16
    frequency:   15.2667867719
  - # 17
    frequency:   16.5337231362
  - # 18
    frequency:   34.4212498030

- q-position: [    0.1060606,    0.0000000,    0.0000000 ]
  distance:    0.0363435
  band:
  - # 1
    frequency:    0.4243634559
  - # 2
    frequency:    0.6154362883
  - # 3
    frequency:    1.0737502174
  - # 4
    frequency:    1.1774040598
  - # 5
    frequency:    2.3879299021
  - # 6
    frequency:    3.9458333163
  - # 7
    frequency:    4.2632391553
  - # 8
    frequency:    4.6613073445
  - # 9
    frequency:    4.6729950883
  - # 10
    frequency:    5.0265362039
  - # 11
    frequency:    6.8187757677
  - # 12
    frequency:   11.7048949880
  - # 13
    frequency:   12.6625311666
  - # 14
    frequency:   14.0384664312
  - # 15
    frequency:   15.1054043307
  - # 16
    frequency:   15.2821765221
  - # 17
    frequency:   16.5397473726
  - # 18
    frequency:   34.4116950327

- q-position: [    0.1111111,    0.0000000,    0.0000000 ]
  distance:    0.0380742
  band:
  - # 1
    frequency:    0.4524971328
  - # 2
    frequency:    0.6477303299
  - # 3
    frequency:    1.1102637816
  - # 4
    frequency:    1.2080076408
  - # 5
    frequency:    2.4572644658
  - # 6
    frequency:    3.9498118785
  - # 7
    frequency:    4.2781560313
  - # 8
    frequency:    4.6677775891
  - # 9
    frequency:    4.6731377739
  - # 10
    frequency:    5.0729787797
  - # 11
    frequency:    6.7986002415
  - # 12
    frequency:   11.6314195244
  - # 13
    frequency:   12.6653561053
  - # 14
    frequency:   14.0600924412
  - # 15
    frequency:   15.1040538724
  - # 16
    frequency:   15.2991195746
  - # 17
    frequency:   16.5462542752
  - # 18
    frequency:   34.4017707844

- q-position: [    0.1161616,    0.0000000,    0.0000000 ]
  distance:    0.0398048
  band:
  - # 1
    frequency:    0.4776597112
  - # 2
    frequency:    0.6765469517
  - # 3
    frequency:    1.1474164205
  - # 4
    frequency:    1.2403257713
  - # 5
    frequency:    2.5196198884
  - # 6
    frequency:    3.9555143952
  - # 7
    frequency:    4.2931369312
  - # 8
    frequency:    4.6627489901
  - # 9
    frequency:    4.6826772912
  - # 10
    frequency:    5.1226770456
  - # 11
    frequency:    6.7792188226
  - # 12
    frequency:   11.5571531159
  - # 13
    frequency:   12.6681351450
  - # 14
    frequency:   14.0799093665
  - # 15
    frequency:   15.1027468824
  - # 16
    frequency:   15.3178045781
  - # 17
    frequency:   16.5532371058
  - # 18
    frequency:   34.3914899340

- q-position: [    0.1212121,    0.0000000,    0.0000000 ]
  distance:    0.0415355
  band:
  - # 1
    frequency:    0.4991331690
  - # 2
    frequency:    0.7015428144
  - # 3
    frequency:    1.1853864812
  - # 4
    frequency:    1.2745701904
  - # 5
    frequency:    2.5744642470
  - # 6
    frequency:    3.9629612987
  - # 7
    frequency:    4.3080383818
  - # 8
    frequency:    4.6580273502
  - # 9
    frequency:    4.6903049501
  - # 10
    frequency:    5.1751776375
  - # 11
    frequency:    6.7608644294
  - # 12
    frequency:   11.4824034982
  - # 13
    frequency:   12.6708488508
  - # 14
    frequency:   14.0976248528
  - # 15
    frequency:   15.1014956413
  - # 16
    frequency:   15.3384088267
  - # 17
    frequency:   16.5606861906
  - # 18
    frequency:   34.3808657505

- q-position: [    0.1262626,    0.0000000,    0.0000000 ]
  distance:    0.0432661
  band:
  - # 1
    frequency:    0.5161493236
  - # 2
    frequency:    0.7224539809
  - # 3
    frequency:    1.2243372534
  - # 4
    frequency:    1.3108704080
  - # 5
    frequency:    2.6213364102
  - # 6
    frequency:    3.9720901303
  - # 7
    frequency:    4.3226916100
  - # 8
    frequency:    4.6537558898
  - # 9
    frequency:    4.6963337335
  - # 10
    frequency:    5.2300982076
  - # 11
    frequency:    6.7437723019
  - # 12
    frequency:   11.4074906871
  - # 13
    frequency:   12.6734780599
  - # 14
    frequency:   14.1129758557
  - # 15
    frequency:   15.1003124196
  - # 16
    frequency:   15.3610871812
  - # 17
    frequency:   16.5685899027
  - # 18
    frequency:   34.3699118708

- q-position: [    0.1313131,    0.0000000,    0.0000000 ]
  distance:    0.0449968
  band:
  - # 1
    frequency:    0.5278779515
  - # 2
    frequency:    0.7391067179
  - # 3
    frequency:    1.2644003514
  - # 4
    frequency:    1.3492610344
  - # 5
    frequency:    2.6598699731
  - # 6
    frequency:    3.9827370549
  - # 7
    frequency:    4.3368989773
  - # 8
    frequency:    4.6501067485
  - # 9
    frequency:    4.7010113786
  - # 10
    frequency:    5.2871245749
  - # 11
    frequency:    6.7281758131
  - # 12
    frequency:   11.3327470390
  - # 13
    frequency:   12.6760040372
  - # 14
    frequency:   14.1257382779
  - # 15
    frequency:   15.0992093959
  - # 16
    frequency:   15.3859612861
  - # 17
    frequency:   16.5769358450
  - # 18
    frequency:   34.3586422740

- q-position: [    0.1363636,    0.0000000,    0.0000000 ]
  distance:    0.0467274
  band:
  - # 1
    frequency:    0.5333991018
  - # 2
    frequency:    0.7514135598
  - # 3
    frequency:    1.3056605552
  - # 4
    frequency:    1.3896835601
  - # 5
    frequency:    2.6898103817
  - # 6
    frequency:    3.9946276251
  - # 7
    frequency:    4.3504319574
  - # 8
    frequency:    4.6472831915
  - # 9
    frequency:    4.7045303808
  - # 10
    frequency:    5.3459979101
  - # 11
    frequency:    6.7143014442
  - # 12
    frequency:   11.2585170160
  - # 13
    frequency:   12.6784086330
  - # 14
    frequency:   14.1357350365
  - # 15
    frequency:   15.0981985715
  - # 16
    frequency:   15.4131101603
  - # 17
    frequency:   16.5857122275
  - # 18
    frequency:   34.3470712552

- q-position: [    0.1414141,    0.0000000,    0.0000000 ]
  distance:    0.0484581
  band:
  - # 1
    frequency:    0.5316470274
  - # 2
    frequency:    0.7593563622
  - # 3
    frequency:    1.3481442104
  - # 4
    frequency:    1.4320007621
  - # 5
    frequency:    2.7110209178
  - # 6
    frequency:    4.0073811296
  - # 7
    frequency:    4.3630328486
  - # 8
    frequency:    4.6455180718
  - # 9
    frequency:    4.7070398275
  - # 10
    frequency:    5.4064993141
  - # 11
    frequency:    6.7023631028
  - # 12
    frequency:   11.1851565969
  - # 13
    frequency:   12.6806744404
  - # 14
    frequency:   14.1428415973
  - # 15
    frequency:   15.0972916839
  - # 16
    frequency:   15.4425631285
  - # 17
    frequency:   16.5949094339
  - # 18
    frequency:   34.3352133996

- q-position: [    0.1464646,    0.0000000,    0.0000000 ]
  distance:    0.0501887
  band:
  - # 1
    frequency:    0.5213034741
  - # 2
    frequency:    0.7629614839
  - # 3
    frequency:    1.3918121734
  - # 4
    frequency:    1.4760184453
  - # 5
    frequency:    2.7234757628
  - # 6
    frequency:    4.0205302419
  - # 7
    frequency:    4.3744233503
  - # 8
    frequency:    4.6450654116
  - # 9
    frequency:    4.7086560295
  - # 10
    frequency:    5.4684348926
  - # 11
    frequency:    6.6925561430
  - # 12
    frequency:   11.1130322670
  - # 13
    frequency:   12.6827849525
  - # 14
    frequency:   14.1469883340
  - # 15
    frequency:   15.0965001198
  - # 16
    frequency:   15.4742957337
  - # 17
    frequency:   16.6045217797
  - # 18
    frequency:   34.3230835553

- q-position: [    0.1515152,    0.0000000,    0.0000000 ]
  distance:    0.0519193
  band:
  - # 1
    frequency:    0.5005934083
  - # 2
    frequency:    0.7622728913
  - # 3
    frequency:    1.4365566319
  - # 4
    frequency:    1.5215084963
  - # 5
    frequency:    2.7272419997
  - # 6
    frequency:    4.0335540380
  - # 7
    frequency:    4.3843232213
  - # 8
    frequency:    4.6461818856
  - # 9
    frequency:    4.7094711315
  - # 10
    frequency:    5.5316222652
  - # 11
    frequency:    6.6850516497
  - # 12
    frequency:   11.0425195190
  - # 13
    frequency:   12.6847247155
  - # 14
    frequency:   14.1481595443
  - # 15
    frequency:   15.0958348284
  - # 16
    frequency:   15.5082287947
  - # 17
    frequency:   16.6145494650
  - # 18
    frequency:   34.3106968067

- q-position: [    0.1565657,    0.0000000,    0.0000000 ]
  distance:    0.0536500
  band:
  - # 1
    frequency:    0.4668642879
  - # 2
    frequency:    0.7573272849
  - # 3
    frequency:    1.4821994276
  - # 4
    frequency:    1.5682288030
  - # 5
    frequency:    2.7224558657
  - # 6
    frequency:    4.0459191923
  - # 7
    frequency:    4.3924800297
  - # 8
    frequency:    4.6490971923
  - # 9
    frequency:    4.7095598014
  - # 10
    frequency:    5.5958785460
  - # 11
    frequency:    6.6799917531
  - # 12
    frequency:   10.9740007993
  - # 13
    frequency:   12.6864794755
  - # 14
    frequency:   14.1463894467
  - # 15
    frequency:   15.0953062365
  - # 16
    frequency:   15.5442302736
  - # 17
    frequency:   16.6250007339
  - # 18
    frequency:   34.2980684475

- q-position: [    0.1616162,    0.0000000,    0.0000000 ]
  distance:    0.0553806
  band:
  - # 1
    frequency:    0.4155797163
  - # 2
    frequency:    0.7481327848
  - # 3
    frequency:    1.5284880114
  - # 4
    frequency:    1.6159379754
  - # 5
    frequency:    2.7093008046
  - # 6
    frequency:    4.0571225701
  - # 7
    frequency:    4.3987056175
  - # 8
    frequency:    4.6539776916
  - # 9
    frequency:    4.7089843781
  - # 10
    frequency:    5.6610095158
  - # 11
    frequency:    6.6774869111
  - # 12
    frequency:   10.9078628399
  - # 13
    frequency:   12.6880363192
  - # 14
    frequency:   14.1417558735
  - # 15
    frequency:   15.0949241659
  - # 16
    frequency:   15.5821192246
  - # 17
    frequency:   16.6358942491
  - # 18
    frequency:   34.2852139538

- q-position: [    0.1666667,    0.0000000,    0.0000000 ]
  distance:    0.0571113
  band:
  - # 1
    frequency:    0.3371794776
  - # 2
    frequency:    0.7346504540
  - # 3
    frequency:    1.5750836494
  - # 4
    frequency:    1.6644047607
  - # 5
    frequency:    2.6879958893
  - # 6
    frequency:    4.0667288603
  - # 7
    frequency:    4.4029082996
  - # 8
    frequency:    4.6608942854
  - # 9
    frequency:    4.7077988654
  - # 10
    frequency:    5.7267995905
  - # 11
    frequency:    6.6776161907
  - # 12
    frequency:   10.8444933297
  - # 13
    frequency:   12.6893838027
  - # 14
    frequency:   14.1343725819
  - # 15
    frequency:   15.0946977555
  - # 16
    frequency:   15.6216708993
  - # 17
    frequency:   16.6472616883
  - # 18
    frequency:   34.2721489569

- q-position: [    0.1717172,    0.0000000,    0.0000000 ]
  distance:    0.0588419
  band:
  - # 1
    frequency:    0.1994310060
  - # 2
    frequency:    0.7167763608
  - # 3
    frequency:    1.6215340399
  - # 4
    frequency:    1.7134131075
  - # 5
    frequency:    2.6588042895
  - # 6
    frequency:    4.0743987987
  - # 7
    frequency:    4.4051075834
  - # 8
    frequency:    4.6698077585
  - # 9
    frequency:    4.7060520606
  - # 10
    frequency:    5.7930021139
  - # 11
    frequency:    6.6804315588
  - # 12
    frequency:   10.7842769018
  - # 13
    frequency:   12.6905120699
  - # 14
    frequency:   14.1243811007
  - # 15
    frequency:   15.0946353876
  - # 16
    frequency:   15.6626220965
  - # 17
    frequency:   16.6591505498
  - # 18
    frequency:   34.2588892169

- q-position: [    0.1767677,    0.0000000,    0.0000000 ]
  distance:    0.0605726
  band:
  - # 1
    frequency:   -0.2240844331
  - # 2
    frequency:    0.6943206387
  - # 3
    frequency:    1.6672173216
  - # 4
    frequency:    1.7627641455
  - # 5
    frequency:    2.6220750472
  - # 6
    frequency:    4.0799059395
  - # 7
    frequency:    4.4054246538
  - # 8
    frequency:    4.6805783329
  - # 9
    frequency:    4.7037899972
  - # 10
    frequency:    5.8593294250
  - # 11
    frequency:    6.6859670349
  - # 12
    frequency:   10.7275904440
  - # 13
    frequency:   12.6914129554
  - # 14