nqpoint: 300    
npath: 3      
segment_nqpoint:
- 100
- 100
- 100
labels:
- [ 'G', 'M' ]
- [ 'M', 'K' ]
- [ 'K', 'G' ]
reciprocal_lattice:
- [   0.27881771,   0.16097548,   0.00000000 ] # a*
- [   0.00000000,   0.32195096,   0.00000000 ] # b*
- [   0.00000000,   0.00000000,   0.04198574 ] # c*
natom: 5      
lattice:
- [     3.586572704208845,     0.000000000000000,     0.000000000000000 ] # a
- [    -1.793286352104422,     3.106063074372092,     0.000000000000000 ] # b
- [     0.000000000000000,     0.000000000000000,    23.817608905072507 ] # c
points:
- symbol: Br # 1
  coordinates: [  0.666666984744047,  0.333332985985145,  0.377871684595646 ]
  mass: 79.904000
- symbol: F # 2
  coordinates: [  0.333332985432215,  0.666666983183674,  0.622128315404354 ]
  mass: 18.998403
- symbol: N # 3
  coordinates: [  0.000000000000000,  0.000000000000000,  0.518726719836710 ]
  mass: 14.006700
- symbol: Y # 4
  coordinates: [  0.333332985432215,  0.666666983183674,  0.461049467838060 ]
  mass: 88.905850
- symbol: Y # 5
  coordinates: [  0.666666984744047,  0.333332985985145,  0.571446113447488 ]
  mass: 88.905850

phonon:
- q-position: [    0.0000000,    0.0000000,    0.0000000 ]
  distance:    0.0000000
  band:
  - # 1
    frequency:   -0.0000097829
  - # 2
    frequency:    0.0000000723
  - # 3
    frequency:    0.0000111177
  - # 4
    frequency:    2.7564339832
  - # 5
    frequency:    2.7564339832
  - # 6
    frequency:    4.2534069788
  - # 7
    frequency:    4.8556102414
  - # 8
    frequency:    4.8556102414
  - # 9
    frequency:    6.2441227086
  - # 10
    frequency:    6.2441227086
  - # 11
    frequency:    7.2607794782
  - # 12
    frequency:    9.7155428220
  - # 13
    frequency:   11.1370645484
  - # 14
    frequency:   11.7374838350
  - # 15
    frequency:   11.7374838350

- q-position: [    0.0050505,    0.0000000,    0.0000000 ]
  distance:    0.0016260
  band:
  - # 1
    frequency:   -0.0207208693
  - # 2
    frequency:    0.0021811232
  - # 3
    frequency:    0.0586076882
  - # 4
    frequency:    2.7568413204
  - # 5
    frequency:    2.7576802518
  - # 6
    frequency:    4.2528756258
  - # 7
    frequency:    4.8553106097
  - # 8
    frequency:    4.8556263122
  - # 9
    frequency:    6.2433270687
  - # 10
    frequency:    6.2441506963
  - # 11
    frequency:    7.2601547071
  - # 12
    frequency:    9.7146379832
  - # 13
    frequency:   11.1358311359
  - # 14
    frequency:   11.7368331282
  - # 15
    frequency:   11.7374831863

- q-position: [    0.0101010,    0.0000000,    0.0000000 ]
  distance:    0.0032520
  band:
  - # 1
    frequency:   -0.0413440923
  - # 2
    frequency:    0.0086957417
  - # 3
    frequency:    0.1171063881
  - # 4
    frequency:    2.7580635464
  - # 5
    frequency:    2.7614042714
  - # 6
    frequency:    4.2512854826
  - # 7
    frequency:    4.8544143033
  - # 8
    frequency:    4.8556713172
  - # 9
    frequency:    6.2409430184
  - # 10
    frequency:    6.2442349276
  - # 11
    frequency:    7.2582831654
  - # 12
    frequency:    9.7119253898
  - # 13
    frequency:   11.1321237828
  - # 14
    frequency:   11.7348904492
  - # 15
    frequency:   11.7374785725

- q-position: [    0.0151515,    0.0000000,    0.0000000 ]
  distance:    0.0048780
  band:
  - # 1
    frequency:   -0.0617545998
  - # 2
    frequency:    0.0194631781
  - # 3
    frequency:    0.1753874065
  - # 4
    frequency:    2.7601013246
  - # 5
    frequency:    2.7675620485
  - # 6
    frequency:    4.2486482711
  - # 7
    frequency:    4.8529290471
  - # 8
    frequency:    4.8557355740
  - # 9
    frequency:    6.2369792473
  - # 10
    frequency:    6.2443761991
  - # 11
    frequency:    7.2551731391
  - # 12
    frequency:    9.7074108244
  - # 13
    frequency:   11.1259214726
  - # 14
    frequency:   11.7316838081
  - # 15
    frequency:   11.7374620099

- q-position: [    0.0202020,    0.0000000,    0.0000000 ]
  distance:    0.0065041
  band:
  - # 1
    frequency:   -0.0818085323
  - # 2
    frequency:    0.0343637391
  - # 3
    frequency:    0.2333426758
  - # 4
    frequency:    2.7629558224
  - # 5
    frequency:    2.7760814463
  - # 6
    frequency:    4.2449834395
  - # 7
    frequency:    4.8508675778
  - # 8
    frequency:    4.8558027405
  - # 9
    frequency:    6.2314505126
  - # 10
    frequency:    6.2445758142
  - # 11
    frequency:    7.2508383427
  - # 12
    frequency:    9.7011039655
  - # 13
    frequency:   11.1171902772
  - # 14
    frequency:   11.7272588442
  - # 15
    frequency:   11.7374202597

- q-position: [    0.0252525,    0.0000000,    0.0000000 ]
  distance:    0.0081301
  band:
  - # 1
    frequency:   -0.1013299036
  - # 2
    frequency:    0.0532538355
  - # 3
    frequency:    0.2908651443
  - # 4
    frequency:    2.7666287918
  - # 5
    frequency:    2.7868638559
  - # 6
    frequency:    4.2403180353
  - # 7
    frequency:    4.8482474383
  - # 8
    frequency:    4.8558495107
  - # 9
    frequency:    6.2243780501
  - # 10
    frequency:    6.2448355461
  - # 11
    frequency:    7.2452977757
  - # 12
    frequency:    9.6930184471
  - # 13
    frequency:   11.1058850002
  - # 14
    frequency:   11.7216772653
  - # 15
    frequency:   11.7373349266

- q-position: [    0.0303030,    0.0000000,    0.0000000 ]
  distance:    0.0097561
  band:
  - # 1
    frequency:   -0.1201130890
  - # 2
    frequency:    0.0759783168
  - # 3
    frequency:    0.3478492615
  - # 4
    frequency:    2.7711226569
  - # 5
    frequency:    2.7997863353
  - # 6
    frequency:    4.2346865316
  - # 7
    frequency:    4.8450906965
  - # 8
    frequency:    4.8558451942
  - # 9
    frequency:    6.2157901505
  - # 10
    frequency:    6.2451575886
  - # 11
    frequency:    7.2385755227
  - # 12
    frequency:    9.6831719373
  - # 13
    frequency:   11.0919514541
  - # 14
    frequency:   11.7150146905
  - # 15
    frequency:   11.7371825962

- q-position: [    0.0353535,    0.0000000,    0.0000000 ]
  distance:    0.0113821
  band:
  - # 1
    frequency:   -0.1379273480
  - # 2
    frequency:    0.1023783112
  - # 3
    frequency:    0.4041915858
  - # 4
    frequency:    2.7764405845
  - # 5
    frequency:    2.8147040495
  - # 6
    frequency:    4.2281306152
  - # 7
    frequency:    4.8414235914
  - # 8
    frequency:    4.8557511847
  - # 9
    frequency:    6.2057229002
  - # 10
    frequency:    6.2455444933
  - # 11
    frequency:    7.2307004968
  - # 12
    frequency:    9.6715862321
  - # 13
    frequency:   11.0753293235
  - # 14
    frequency:   11.7073579451
  - # 15
    frequency:   11.7369350073

- q-position: [    0.0404040,    0.0000000,    0.0000000 ]
  distance:    0.0130081
  band:
  - # 1
    frequency:   -0.1545203602
  - # 2
    frequency:    0.1322951535
  - # 3
    frequency:    0.4597915401
  - # 4
    frequency:    2.7825865104
  - # 5
    frequency:    2.8314528317
  - # 6
    frequency:    4.2206989407
  - # 7
    frequency:    4.8372761149
  - # 8
    frequency:    4.8555203319
  - # 9
    frequency:    6.1942210798
  - # 10
    frequency:    6.2459990963
  - # 11
    frequency:    7.2217061297
  - # 12
    frequency:    9.6582873585
  - # 13
    frequency:   11.0559555245
  - # 14
    frequency:   11.6988019021
  - # 15
    frequency:   11.7365592584

- q-position: [    0.0454545,    0.0000000,    0.0000000 ]
  distance:    0.0146341
  band:
  - # 1
    frequency:   -0.1696191268
  - # 2
    frequency:    0.1655717930
  - # 3
    frequency:    0.5145523371
  - # 4
    frequency:    2.7895650897
  - # 5
    frequency:    2.8498516964
  - # 6
    frequency:    4.2124468588
  - # 7
    frequency:    4.8326815367
  - # 8
    frequency:    4.8550962330
  - # 9
    frequency:    6.1813392146
  - # 10
    frequency:    6.2465244348
  - # 11
    frequency:    7.2116300103
  - # 12
    frequency:    9.6433056808
  - # 13
    frequency:   11.0337679195
  - # 14
    frequency:   11.6894460120
  - # 15
    frequency:   11.7360180434

- q-position: [    0.0505051,    0.0000000,    0.0000000 ]
  distance:    0.0162601
  band:
  - # 1
    frequency:   -0.1829274860
  - # 2
    frequency:    0.2020529059
  - # 3
    frequency:    0.5683820906
  - # 4
    frequency:    2.7973815396
  - # 5
    frequency:    2.8697051558
  - # 6
    frequency:    4.2034361230
  - # 7
    frequency:    4.8276758822
  - # 8
    frequency:    4.8544124736
  - # 9
    frequency:    6.1671427580
  - # 10
    frequency:    6.2471236566
  - # 11
    frequency:    7.2005134779
  - # 12
    frequency:    9.6266760027
  - # 13
    frequency:   11.0087092007
  - # 14
    frequency:   11.6793907133
  - # 15
    frequency:   11.7352699163

- q-position: [    0.0555556,    0.0000000,    0.0000000 ]
  distance:    0.0178862
  band:
  - # 1
    frequency:   -0.1941196520
  - # 2
    frequency:    0.2415844761
  - # 3
    frequency:    0.6211951196
  - # 4
    frequency:    2.8060413438
  - # 5
    frequency:    2.8908052216
  - # 6
    frequency:    4.1937345792
  - # 7
    frequency:    4.8222973742
  - # 8
    frequency:    4.8533918609
  - # 9
    frequency:    6.1517093808
  - # 10
    frequency:    6.2477999225
  - # 11
    frequency:    7.1884011768
  - # 12
    frequency:    9.6084376577
  - # 13
    frequency:   10.9807307178
  - # 14
    frequency:   11.6687339500
  - # 15
    frequency:   11.7342695782

- q-position: [    0.0606061,    0.0000000,    0.0000000 ]
  distance:    0.0195122
  band:
  - # 1
    frequency:   -0.2028286720
  - # 2
    frequency:    0.2840132135
  - # 3
    frequency:    0.6729134444
  - # 4
    frequency:    2.8155497957
  - # 5
    frequency:    2.9129330109
  - # 6
    frequency:    4.1834158381
  - # 7
    frequency:    4.8165858511
  - # 8
    frequency:    4.8519457108
  - # 9
    frequency:    6.1351303244
  - # 10
    frequency:    6.2485563060
  - # 11
    frequency:    7.1753405816
  - # 12
    frequency:    9.5886345788
  - # 13
    frequency:   10.9497960192
  - # 14
    frequency:   11.6575680283
  - # 15
    frequency:   11.7329681860

- q-position: [    0.0656566,    0.0000000,    0.0000000 ]
  distance:    0.0211382
  band:
  - # 1
    frequency:   -0.2086274061
  - # 2
    frequency:    0.3291859319
  - # 3
    frequency:    0.7234684553
  - # 4
    frequency:    2.8259113602
  - # 5
    frequency:    2.9358599078
  - # 6
    frequency:    4.1725589252
  - # 7
    frequency:    4.8105821745
  - # 8
    frequency:    4.8499732762
  - # 9
    frequency:    6.1175117515
  - # 10
    frequency:    6.2493956902
  - # 11
    frequency:    7.1613815037
  - # 12
    frequency:    9.5673153390
  - # 13
    frequency:   10.9158838996
  - # 14
    frequency:   11.6459770246
  - # 15
    frequency:   11.7313136765

- q-position: [    0.0707071,    0.0000000,    0.0000000 ]
  distance:    0.0227642
  band:
  - # 1
    frequency:   -0.2109969684
  - # 2
    frequency:    0.3769488888
  - # 3
    frequency:    0.7728027269
  - # 4
    frequency:    2.8371288509
  - # 5
    frequency:    2.9593482671
  - # 6
    frequency:    4.1612478948
  - # 7
    frequency:    4.8043276403
  - # 8
    frequency:    4.8473614376
  - # 9
    frequency:    6.0989760068
  - # 10
    frequency:    6.2503206659
  - # 11
    frequency:    7.1465755939
  - # 12
    frequency:    9.5445331537
  - # 13
    frequency:   10.8789908000
  - # 14
    frequency:   11.6340348955
  - # 15
    frequency:   11.7292511045

- q-position: [    0.0757576,    0.0000000,    0.0000000 ]
  distance:    0.0243902
  band:
  - # 1
    frequency:   -0.2092716521
  - # 2
    frequency:    0.4271470431
  - # 3
    frequency:    0.8208719244
  - # 4
    frequency:    2.8492024303
  - # 5
    frequency:    2.9831516759
  - # 6
    frequency:    4.1495713817
  - # 7
    frequency:    4.7978634075
  - # 8
    frequency:    4.8439848151
  - # 9
    frequency:    6.0796626617
  - # 10
    frequency:    6.2513334315
  - # 11
    frequency:    7.1309758534
  - # 12
    frequency:    9.5203458348
  - # 13
    frequency:   10.8391324868
  - # 14
    frequency:   11.6218043666
  - # 15
    frequency:   11.7267229893

- q-position: [    0.0808081,    0.0000000,    0.0000000 ]
  distance:    0.0260162
  band:
  - # 1
    frequency:   -0.2025345694
  - # 2
    frequency:    0.4796231752
  - # 3
    frequency:    0.8676467366
  - # 4
    frequency:    2.8621284579
  - # 5
    frequency:    3.0070148193
  - # 6
    frequency:    4.1376220464
  - # 7
    frequency:    4.7912299595
  - # 8
    frequency:    4.8397065106
  - # 9
    frequency:    6.0597291843
  - # 10
    frequency:    6.2524356987
  - # 11
    frequency:    7.1146361706
  - # 12
    frequency:    9.4948156887
  - # 13
    frequency:   10.7963450163
  - # 14
    frequency:   11.6093365909
  - # 15
    frequency:   11.7236696678

- q-position: [    0.0858586,    0.0000000,    0.0000000 ]
  distance:    0.0276423
  band:
  - # 1
    frequency:   -0.1893947996
  - # 2
    frequency:    0.5342168221
  - # 3
    frequency:    0.9131147482
  - # 4
    frequency:    2.8758982272
  - # 5
    frequency:    3.0306730249
  - # 6
    frequency:    4.1254958467
  - # 7
    frequency:    4.7844666108
  - # 8
    frequency:    4.8343797372
  - # 9
    frequency:    6.0393510329
  - # 10
    frequency:    6.2536286037
  - # 11
    frequency:    7.0976108971
  - # 12
    frequency:    9.4680093473
  - # 13
    frequency:   10.7506850669
  - # 14
    frequency:   11.5966714927
  - # 15
    frequency:   11.7200296492

- q-position: [    0.0909091,    0.0000000,    0.0000000 ]
  distance:    0.0292683
  band:
  - # 1
    frequency:   -0.1674174114
  - # 2
    frequency:    0.5907629841
  - # 3
    frequency:    0.9572821474
  - # 4
    frequency:    2.8904966513
  - # 5
    frequency:    3.0538515989
  - # 6
    frequency:    4.1132910351
  - # 7
    frequency:    4.7776110727
  - # 8
    frequency:    4.8278506398
  - # 9
    frequency:    6.0187209404
  - # 10
    frequency:    6.2549126278
  - # 11
    frequency:    7.0799544789
  - # 12
    frequency:    9.4399975239
  - # 13
    frequency:   10.7022297712
  - # 14
    frequency:   11.5838386613
  - # 15
    frequency:   11.7157399692

- q-position: [    0.0959596,    0.0000000,    0.0000000 ]
  distance:    0.0308943
  band:
  - # 1
    frequency:   -0.1311291123
  - # 2
    frequency:    0.6490905643
  - # 3
    frequency:    1.0001751579
  - # 4
    frequency:    2.9059009655
  - # 5
    frequency:    3.0762651050
  - # 6
    frequency:    4.1011067449
  - # 7
    frequency:    4.7706990880
  - # 8
    frequency:    4.8199626431
  - # 9
    frequency:    5.9980471358
  - # 10
    frequency:    6.2562875283
  - # 11
    frequency:    7.0617211540
  - # 12
    frequency:    9.4108546852
  - # 13
    frequency:   10.6510762050
  - # 14
    frequency:   11.5708586326
  - # 15
    frequency:   11.7107365413

- q-position: [    0.1010101,    0.0000000,    0.0000000 ]
  distance:    0.0325203
  band:
  - # 1
    frequency:   -0.0556145069
  - # 2
    frequency:    0.7090204982
  - # 3
    frequency:    1.0418410723
  - # 4
    frequency:    2.9220795298
  - # 5
    frequency:    3.0976167925
  - # 6
    frequency:    4.0890409801
  - # 7
    frequency:    4.7637641448
  - # 8
    frequency:    4.8105626582
  - # 9
    frequency:    5.9775502633
  - # 10
    frequency:    6.2577522805
  - # 11
    frequency:    7.0429647292
  - # 12
    frequency:    9.3806586302
  - # 13
    frequency:   10.5973406897
  - # 14
    frequency:   11.5577443977
  - # 15
    frequency:   11.7049545008

- q-position: [    0.1060606,    0.0000000,    0.0000000 ]
  distance:    0.0341463
  band:
  - # 1
    frequency:    0.1205034968
  - # 2
    frequency:    0.7703635223
  - # 3
    frequency:    1.0823487763
  - # 4
    frequency:    2.9389908090
  - # 5
    frequency:    3.1175984405
  - # 6
    frequency:    4.0771877878
  - # 7
    frequency:    4.7568372752
  - # 8
    frequency:    4.7995094270
  - # 9
    frequency:    5.9574588178
  - # 10
    frequency:    6.2593050332
  - # 11
    frequency:    7.0237384419
  - # 12
    frequency:    9.3494899684
  - # 13
    frequency:   10.5411580414
  - # 14
    frequency:   11.5445029970
  - # 15
    frequency:   11.6983285412

- q-position: [    0.1111111,    0.0000000,    0.0000000 ]
  distance:    0.0357723
  band:
  - # 1
    frequency:    0.1893405638
  - # 2
    frequency:    0.8329175142
  - # 3
    frequency:    1.1217886609
  - # 4
    frequency:    2.9565826089
  - # 5
    frequency:    3.1358909496
  - # 6
    frequency:    4.0656333604
  - # 7
    frequency:    4.7499469424
  - # 8
    frequency:    4.7866841495
  - # 9
    frequency:    5.9380030411
  - # 10
    frequency:    6.2609430785
  - # 11
    frequency:    7.0040949133
  - # 12
    frequency:    9.3174314914
  - # 13
    frequency:   10.4826808709
  - # 14
    frequency:   11.5311370873
  - # 15
    frequency:   11.6907932404

- q-position: [    0.1161616,    0.0000000,    0.0000000 ]
  distance:    0.0373983
  band:
  - # 1
    frequency:    0.2470691541
  - # 2
    frequency:    0.8964643149
  - # 3
    frequency:    1.1602718485
  - # 4
    frequency:    2.9747916291
  - # 5
    frequency:    3.1521660788
  - # 6
    frequency:    4.0544508334
  - # 7
    frequency:    4.7431190181
  - # 8
    frequency:    4.7720033157
  - # 9
    frequency:    5.9194074086
  - # 10
    frequency:    6.2626628352
  - # 11
    frequency:    6.9840861949
  - # 12
    frequency:    9.2845674304
  - # 13
    frequency:   10.4220790039
  - # 14
    frequency:   11.5176464045
  - # 15
    frequency:   11.6822833753

- q-position: [    0.1212121,    0.0000000,    0.0000000 ]
  distance:    0.0390244
  band:
  - # 1
    frequency:    0.3003083175
  - # 2
    frequency:    0.9607659168
  - # 3
    frequency:    1.1979286909
  - # 4
    frequency:    2.9935433765
  - # 5
    frequency:    3.1660897683
  - # 6
    frequency:    4.0436936351
  - # 7
    frequency:    4.7363768457
  - # 8
    frequency:    4.7554333517
  - # 9
    frequency:    5.9018820815
  - # 10
    frequency:    6.2644598479
  - # 11
    frequency:    6.9637639062
  - # 12
    frequency:    9.2509825983
  - # 13
    frequency:   10.3595390557
  - # 14
    frequency:   11.5040290748
  - # 15
    frequency:   11.6727342224

- q-position: [    0.1262626,    0.0000000,    0.0000000 ]
  distance:    0.0406504
  band:
  - # 1
    frequency:    0.3511091105
  - # 2
    frequency:    1.0255598710
  - # 3
    frequency:    1.2349065372
  - # 4
    frequency:    3.0127524579
  - # 5
    frequency:    3.1773275055
  - # 6
    frequency:    4.0333874561
  - # 7
    frequency:    4.7297413857
  - # 8
    frequency:    4.7370062913
  - # 9
    frequency:    5.8856139465
  - # 10
    frequency:    6.2663288017
  - # 11
    frequency:    6.9431794604
  - # 12
    frequency:    9.2167614161
  - # 13
    frequency:   10.2952641694
  - # 14
    frequency:   11.4902827504
  - # 15
    frequency:   11.6620818468

- q-position: [    0.1313131,    0.0000000,    0.0000000 ]
  distance:    0.0422764
  band:
  - # 1
    frequency:    0.4002752518
  - # 2
    frequency:    1.0905537369
  - # 3
    frequency:    1.2713668147
  - # 4
    frequency:    3.0323232462
  - # 5
    frequency:    3.1855521797
  - # 6
    frequency:    4.0235212824
  - # 7
    frequency:    4.7168352445
  - # 8
    frequency:    4.7232314329
  - # 9
    frequency:    5.8707580611
  - # 10
    frequency:    6.2682635510
  - # 11
    frequency:    6.9223843709
  - # 12
    frequency:    9.1819868282
  - # 13
    frequency:   10.2294739032
  - # 14
    frequency:   11.4764055678
  - # 15
    frequency:   11.6502633746

- q-position: [    0.1363636,    0.0000000,    0.0000000 ]
  distance:    0.0439024
  band:
  - # 1
    frequency:    0.4480890107
  - # 2
    frequency:    1.1554183845
  - # 3
    frequency:    1.3074815061
  - # 4
    frequency:    3.0521508917
  - # 5
    frequency:    3.1904548559
  - # 6
    frequency:    4.0140384974
  - # 7
    frequency:    4.6951279719
  - # 8
    frequency:    4.7168638961
  - # 9
    frequency:    5.8574303925
  - # 10
    frequency:    6.2702571635
  - # 11
    frequency:    6.9014306291
  - # 12
    frequency:    9.1467391202
  - # 13
    frequency:   10.1624042327
  - # 14
    frequency:   11.4623969348
  - # 15
    frequency:   11.6372172531

- q-position: [    0.1414141,    0.0000000,    0.0000000 ]
  distance:    0.0455284
  band:
  - # 1
    frequency:    0.4945450485
  - # 2
    frequency:    1.2197799800
  - # 3
    frequency:    1.3434291494
  - # 4
    frequency:    3.0721226282
  - # 5
    frequency:    3.1917589510
  - # 6
    frequency:    4.0048297685
  - # 7
    frequency:    4.6721964051
  - # 8
    frequency:    4.7106541246
  - # 9
    frequency:    5.8457026370
  - # 10
    frequency:    6.2723019787
  - # 11
    frequency:    6.8803711406
  - # 12
    frequency:    9.1110946631
  - # 13
    frequency:   10.0943076213
  - # 14
    frequency:   11.4482581619
  - # 15
    frequency:   11.6228834951

- q-position: [    0.1464646,    0.0000000,    0.0000000 ]
  distance:    0.0471544
  band:
  - # 1
    frequency:    0.5394336765
  - # 2
    frequency:    1.2832106042
  - # 3
    frequency:    1.3793905102
  - # 4
    frequency:    3.0921193158
  - # 5
    frequency:    3.1892385234
  - # 6
    frequency:    3.9957301742
  - # 7
    frequency:    4.6484594951
  - # 8
    frequency:    4.7046162676
  - # 9
    frequency:    5.8355996342
  - # 10
    frequency:    6.2743896788
  - # 11
    frequency:    6.8592602035
  - # 12
    frequency:    9.0751246226
  - # 13
    frequency:   10.0254530920
  - # 14
    frequency:   11.4339929558
  - # 15
    frequency:   11.6072039105

- q-position: [    0.1515152,    0.0000000,    0.0000000 ]
  distance:    0.0487804
  band:
  - # 1
    frequency:    0.5823602812
  - # 2
    frequency:    1.3452177623
  - # 3
    frequency:    1.4155441031
  - # 4
    frequency:    3.1120171500
  - # 5
    frequency:    3.1827418425
  - # 6
    frequency:    3.9865235504
  - # 7
    frequency:    4.6244363976
  - # 8
    frequency:    4.6987636492
  - # 9
    frequency:    5.8270995166
  - # 10
    frequency:    6.2765113727
  - # 11
    frequency:    6.8381540080
  - # 12
    frequency:    9.0388936965
  - # 13
    frequency:    9.9561262153
  - # 14
    frequency:   11.4196077922
  - # 15
    frequency:   11.5901223238

- q-position: [    0.1565657,    0.0000000,    0.0000000 ]
  distance:    0.0504065
  band:
  - # 1
    frequency:    0.6227260798
  - # 2
    frequency:    1.4052337572
  - # 3
    frequency:    1.4520617391
  - # 4
    frequency:    3.1316894729
  - # 5
    frequency:    3.1722220394
  - # 6
    frequency:    3.9769569612
  - # 7
    frequency:    4.6007269823
  - # 8
    frequency:    4.6931091412
  - # 9
    frequency:    5.8201363401
  - # 10
    frequency:    6.2786576911
  - # 11
    frequency:    6.8171111293
  - # 12
    frequency:    9.0024589703
  - # 13
    frequency:    9.8866289017
  - # 14
    frequency:   11.4051121863
  - # 15
    frequency:   11.5715847802

- q-position: [    0.1616162,    0.0000000,    0.0000000 ]
  distance:    0.0520325
  band:
  - # 1
    frequency:    0.6596738675
  - # 2
    frequency:    1.4626073567
  - # 3
    frequency:    1.4891042774
  - # 4
    frequency:    3.1510086262
  - # 5
    frequency:    3.1577770690
  - # 6
    frequency:    3.9667670051
  - # 7
    frequency:    4.5779775154
  - # 8
    frequency:    4.6876655149
  - # 9
    frequency:    5.8146046494
  - # 10
    frequency:    6.2808188908
  - # 11
    frequency:    6.7961929786
  - # 12
    frequency:    8.9658690228
  - # 13
    frequency:    9.8172788514
  - # 14
    frequency:   11.3905188743
  - # 15
    frequency:   11.5515397395

- q-position: [    0.1666667,    0.0000000,    0.0000000 ]
  distance:    0.0536585
  band:
  - # 1
    frequency:    0.6919903503
  - # 2
    frequency:    1.5166029717
  - # 3
    frequency:    1.5268177368
  - # 4
    frequency:    3.1397006406
  - # 5
    frequency:    3.1698477961
  - # 6
    frequency:    3.9557169234
  - # 7
    frequency:    4.5568318302
  - # 8
    frequency:    4.6824457552
  - # 9
    frequency:    5.8103652808
  - # 10
    frequency:    6.2829849689
  - # 11
    frequency:    6.7754641653
  - # 12
    frequency:    8.9291634601
  - # 13
    frequency:    9.7484084714
  - # 14
    frequency:   11.3758439197
  - # 15
    frequency:   11.5299382606

- q-position: [    0.1717172,    0.0000000,    0.0000000 ]
  distance:    0.0552845
  band:
  - # 1
    frequency:    0.7179445782
  - # 2
    frequency:    1.5653299015
  - # 3
    frequency:    1.5664173661
  - # 4
    frequency:    3.1185429484
  - # 5
    frequency:    3.1880828130
  - # 6
    frequency:    3.9436392315
  - # 7
    frequency:    4.5378726657
  - # 8
    frequency:    4.6774633192
  - # 9
    frequency:    5.8072517260
  - # 10
    frequency:    6.2851457834
  - # 11
    frequency:    6.7549927098
  - # 12
    frequency:    8.8923731108
  - # 13
    frequency:    9.6803630159
  - # 14
    frequency:   11.3611067553
  - # 15
    frequency:   11.5067341768

- q-position: [    0.1767677,    0.0000000,    0.0000000 ]
  distance:    0.0569105
  band:
  - # 1
    frequency:    0.7350238052
  - # 2
    frequency:    1.6047475187
  - # 3
    frequency:    1.6112310227
  - # 4
    frequency:    3.0951734137
  - # 5
    frequency:    3.2055938830
  - # 6
    frequency:    3.9304741890
  - # 7
    frequency:    4.5215630998
  - # 8
    frequency:    4.6727323237
  - # 9
    frequency:    5.8050765149
  - # 10
    frequency:    6.2872911793
  - # 11
    frequency:    6.7348500330
  - # 12
    frequency:    8.8555211689
  - # 13
    frequency:    9.6134976624
  - # 14
    frequency:   11.3463301681
  - # 15
    frequency:   11.4818842640

- q-position: [    0.1818182,    0.0000000,    0.0000000 ]
  distance:    0.0585365
  band:
  - # 1
    frequency:    0.7394932331
  - # 2
    frequency:    1.6451541483
  - # 3
    frequency:    1.6503185743
  - # 4
    frequency:    3.0708263179
  - # 5
    frequency:    3.2222672374
  - # 6
    frequency:    3.9162925290
  - # 7
    frequency:    4.5082013604
  - # 8
    frequency:    4.6682676486
  - # 9
    frequency:    5.8036372845
  - # 10
    frequency:    6.2894111201
  - # 11
    frequency:    6.7151106310
  - # 12
    frequency:    8.8186255978
  - # 13
    frequency:    9.5481731996
  - # 14
    frequency:   11.3315402360
  - # 15
    frequency:   11.4553484035

- q-position: [    0.1868687,    0.0000000,    0.0000000 ]
  distance:    0.0601626
  band:
  - # 1
    frequency:    0.7256210317
  - # 2
    frequency:    1.6832414831
  - # 3
    frequency:    1.6866086878
  - # 4
    frequency:    3.0470959633
  - # 5
    frequency:    3.2379966981
  - # 6
    frequency:    3.9012940933
  - # 7
    frequency:    4.4979006180
  - # 8
    frequency:    4.6640849452
  - # 9
    frequency:    5.8027224094
  - # 10
    frequency:    6.2914958210
  - # 11
    frequency:    6.6958513320
  - # 12
    frequency:    8.7817030928
  - # 13
    frequency:    9.4847500278
  - # 14
    frequency:   11.3167662205
  - # 15
    frequency:   11.4270897397

- q-position: [    0.1919192,    0.0000000,    0.0000000 ]
  distance:    0.0617886
  band:
  - # 1
    frequency:    0.6841312609
  - # 2
    frequency:    1.7101167365
  - # 3
    frequency:    1.7291445589
  - # 4
    frequency:    3.0258392873
  - # 5
    frequency:    3.2526851618
  - # 6
    frequency:    3.8857821331
  - # 7
    frequency:    4.4905980585
  - # 8
    frequency:    4.6602005442
  - # 9
    frequency:    5.8021162439
  - # 10
    frequency:    6.2935358841
  - # 11
    frequency:    6.6771500302
  - # 12
    frequency:    8.7447747851
  - # 13
    frequency:    9.4235802774
  - # 14
    frequency:   11.3020404204
  - # 15
    frequency:   11.3970748366

- q-position: [    0.1969697,    0.0000000,    0.0000000 ]
  distance:    0.0634146
  band:
  - # 1
    frequency:    0.5981842602
  - # 2
    frequency:    1.7318765750
  - # 3
    frequency:    1.7727695081
  - # 4
    frequency:    3.0089577276
  - # 5
    frequency:    3.2662460118
  - # 6
    frequency:    3.8701219215
  - # 7
    frequency:    4.4860881025
  - # 8
    frequency:    4.6566312591
  - # 9
    frequency:    5.8016041375
  - # 10
    frequency:    6.2955224334
  - # 11
    frequency:    6.6590837973
  - # 12
    frequency:    8.7078736287
  - # 13
    frequency:    9.3649980919
  - # 14
    frequency:   11.2873979910
  - # 15
    frequency:   11.3652738315

- q-position: [    0.2020202,    0.0000000,    0.0000000 ]
  distance:    0.0650406
  band:
  - # 1
    frequency:    0.4259059698
  - # 2
    frequency:    1.7503320187
  - # 3
    frequency:    1.8174659526
  - # 4
    frequency:    2.9980817373
  - # 5
    frequency:    3.2786044642
  - # 6
    frequency:    3.8546968084
  - # 7
    frequency:    4.4840683016
  - # 8
    frequency:    4.6533940893
  - # 9
    frequency:    5.8009774279
  - # 10
    frequency:    6.2974472482
  - # 11
    frequency:    6.6417263118
  - # 12
    frequency:    8.6710530173
  - # 13
    frequency:    9.3093085105
  - # 14
    frequency:   11.2728767306
  - # 15
    frequency:   11.3316605912

- q-position: [    0.2070707,    0.0000000,    0.0000000 ]
  distance:    0.0666666
  band:
  - # 1
    frequency:   -0.2721720470
  - # 2
    frequency:    1.7678581419
  - # 3
    frequency:    1.8631917811
  - # 4
    frequency:    2.9942549224
  - # 5
    frequency:    3.2896988586
  - # 6
    frequency:    3.8398730032
  - # 7
    frequency:    4.4841858827
  - # 8
    frequency:    4.6505058309
  - # 9
    frequency:    5.8000385851
  - # 10
    frequency:    6.2993028935
  - # 11
    frequency:    6.6251446058
  - # 12
    frequency:    8.6343956749
  - # 13
    frequency:    9.2567758815
  - # 14
    frequency:   11.2585168386
  - # 15
    frequency:   11.2962128683

- q-position: [    0.2121212,    0.0000000,    0.0000000 ]
  distance:    0.0682926
  band:
  - # 1
    frequency:   -0.6455699915
  - # 2