nqpoint: 300    
npath: 3      
segment_nqpoint:
- 100
- 100
- 100
labels:
- [ 'G', 'M' ]
- [ 'M', 'K' ]
- [ 'K', 'G' ]
reciprocal_lattice:
- [   0.32096646,   0.18531007,   0.00000000 ] # a*
- [   0.00000000,   0.37062015,   0.00000000 ] # b*
- [   0.00000000,   0.00000000,   0.03815075 ] # c*
natom: 7      
lattice:
- [     3.115590298088400,     0.000000000000000,     0.000000000000000 ] # a
- [    -1.557795149044200,     2.698180345923737,     0.000000000000000 ] # b
- [     0.000000000000000,     0.000000000000000,    26.211804108463355 ] # c
points:
- symbol: C # 1
  coordinates: [  0.333332985432215,  0.666666983183674,  0.610634209649536 ]
  mass: 12.010700
- symbol: N # 2
  coordinates: [  0.000000000000000,  0.000000000000000,  0.513696364333532 ]
  mass: 14.006700
- symbol: N # 3
  coordinates: [  0.333332985432215,  0.666666983183674,  0.656643245052558 ]
  mass: 14.006700
- symbol: O # 4
  coordinates: [  0.666666984744047,  0.333332985985145,  0.343356754947442 ]
  mass: 15.999400
- symbol: P # 5
  coordinates: [  0.666666984744047,  0.333332985985145,  0.400226181800519 ]
  mass: 30.973762
- symbol: Ti # 6
  coordinates: [  0.333332985432215,  0.666666983183674,  0.470451711753078 ]
  mass: 47.867000
- symbol: Ti # 7
  coordinates: [  0.666666984744047,  0.333332985985145,  0.557105125397272 ]
  mass: 47.867000

phonon:
- q-position: [    0.0000000,    0.0000000,    0.0000000 ]
  distance:    0.0000000
  band:
  - # 1
    frequency:   -0.0000172970
  - # 2
    frequency:   -0.0000002339
  - # 3
    frequency:    0.0000128433
  - # 4
    frequency:    1.3823383048
  - # 5
    frequency:    1.3823383048
  - # 6
    frequency:    1.9421518695
  - # 7
    frequency:    1.9421518696
  - # 8
    frequency:    4.6861140861
  - # 9
    frequency:    4.6861140861
  - # 10
    frequency:    5.9123769772
  - # 11
    frequency:    5.9123769773
  - # 12
    frequency:    5.9316698573
  - # 13
    frequency:    8.2786358674
  - # 14
    frequency:    8.2786358674
  - # 15
    frequency:   10.1814557614
  - # 16
    frequency:   11.7155054366
  - # 17
    frequency:   15.0885330746
  - # 18
    frequency:   16.3343819826
  - # 19
    frequency:   16.3343819826
  - # 20
    frequency:   34.4830285984
  - # 21
    frequency:   59.9233181148

- q-position: [    0.0050505,    0.0000000,    0.0000000 ]
  distance:    0.0018718
  band:
  - # 1
    frequency:    0.0025786995
  - # 2
    frequency:    0.0506093563
  - # 3
    frequency:    0.1156788934
  - # 4
    frequency:    1.3820866273
  - # 5
    frequency:    1.3863382912
  - # 6
    frequency:    1.9430623745
  - # 7
    frequency:    1.9457845895
  - # 8
    frequency:    4.6862612474
  - # 9
    frequency:    4.6874620672
  - # 10
    frequency:    5.8998899841
  - # 11
    frequency:    5.9126446769
  - # 12
    frequency:    5.9446922960
  - # 13
    frequency:    8.2787126073
  - # 14
    frequency:    8.2798213143
  - # 15
    frequency:   10.1812785554
  - # 16
    frequency:   11.7151280809
  - # 17
    frequency:   15.0883972729
  - # 18
    frequency:   16.3341955098
  - # 19
    frequency:   16.3342735828
  - # 20
    frequency:   34.4828546602
  - # 21
    frequency:   59.9232863945

- q-position: [    0.0101010,    0.0000000,    0.0000000 ]
  distance:    0.0037436
  band:
  - # 1
    frequency:    0.0102755182
  - # 2
    frequency:    0.1006358427
  - # 3
    frequency:    0.2313033760
  - # 4
    frequency:    1.3813583509
  - # 5
    frequency:    1.3981292280
  - # 6
    frequency:    1.9458003251
  - # 7
    frequency:    1.9567105943
  - # 8
    frequency:    4.6867025015
  - # 9
    frequency:    4.6914979789
  - # 10
    frequency:    5.8815701815
  - # 11
    frequency:    5.9134474574
  - # 12
    frequency:    5.9646271120
  - # 13
    frequency:    8.2789429593
  - # 14
    frequency:    8.2833711067
  - # 15
    frequency:   10.1807471799
  - # 16
    frequency:   11.7139954667
  - # 17
    frequency:   15.0879906158
  - # 18
    frequency:   16.3336370028
  - # 19
    frequency:   16.3339486770
  - # 20
    frequency:   34.4823331011
  - # 21
    frequency:   59.9231913140

- q-position: [    0.0151515,    0.0000000,    0.0000000 ]
  distance:    0.0056155
  band:
  - # 1
    frequency:    0.0229764618
  - # 2
    frequency:    0.1494833154
  - # 3
    frequency:    0.3468187550
  - # 4
    frequency:    1.3802339357
  - # 5
    frequency:    1.4171111247
  - # 6
    frequency:    1.9503850845
  - # 7
    frequency:    1.9750061117
  - # 8
    frequency:    4.6874371620
  - # 9
    frequency:    4.6981978538
  - # 10
    frequency:    5.8632131303
  - # 11
    frequency:    5.9147843602
  - # 12
    frequency:    5.9857047040
  - # 13
    frequency:    8.2793273161
  - # 14
    frequency:    8.2892656973
  - # 15
    frequency:   10.1798623629
  - # 16
    frequency:   11.7121059710
  - # 17
    frequency:   15.0873153367
  - # 18
    frequency:   16.3327091903
  - # 19
    frequency:   16.3334081448
  - # 20
    frequency:   34.4814646870
  - # 21
    frequency:   59.9230331142

- q-position: [    0.0202020,    0.0000000,    0.0000000 ]
  distance:    0.0074873
  band:
  - # 1
    frequency:    0.0405084796
  - # 2
    frequency:    0.1965295451
  - # 3
    frequency:    0.4621697642
  - # 4
    frequency:    1.3788479058
  - # 5
    frequency:    1.4423695628
  - # 6
    frequency:    1.9568490721
  - # 7
    frequency:    2.0007732943
  - # 8
    frequency:    4.6884640983
  - # 9
    frequency:    4.7075221612
  - # 10
    frequency:    5.8453763657
  - # 11
    frequency:    5.9166537757
  - # 12
    frequency:    6.0074105755
  - # 13
    frequency:    8.2798663197
  - # 14
    frequency:    8.2974728268
  - # 15
    frequency:   10.1786253206
  - # 16
    frequency:   11.7094569501
  - # 17
    frequency:   15.0863751257
  - # 18
    frequency:   16.3314166023
  - # 19
    frequency:   16.3326534475
  - # 20
    frequency:   34.4802506924
  - # 21
    frequency:   59.9228121960

- q-position: [    0.0252525,    0.0000000,    0.0000000 ]
  distance:    0.0093591
  band:
  - # 1
    frequency:    0.0626584979
  - # 2
    frequency:    0.2411145317
  - # 3
    frequency:    0.5773002271
  - # 4
    frequency:    1.3773887042
  - # 5
    frequency:    1.4727888661
  - # 6
    frequency:    1.9652378588
  - # 7
    frequency:    2.0341021997
  - # 8
    frequency:    4.6897817545
  - # 9
    frequency:    4.7194164051
  - # 10
    frequency:    5.8282418814
  - # 11
    frequency:    5.9190534263
  - # 12
    frequency:    6.0296225202
  - # 13
    frequency:    8.2805608415
  - # 14
    frequency:    8.3079479907
  - # 15
    frequency:   10.1770377613
  - # 16
    frequency:   11.7060448303
  - # 17
    frequency:   15.0851750808
  - # 18
    frequency:   16.3297655437
  - # 19
    frequency:   16.3316866218
  - # 20
    frequency:   34.4786928981
  - # 21
    frequency:   59.9225291188

- q-position: [    0.0303030,    0.0000000,    0.0000000 ]
  distance:    0.0112309
  band:
  - # 1
    frequency:    0.0891919971
  - # 2
    frequency:    0.2825309441
  - # 3
    frequency:    0.6921526397
  - # 4
    frequency:    1.3760968271
  - # 5
    frequency:    1.5071834957
  - # 6
    frequency:    1.9756100573
  - # 7
    frequency:    2.0750199894
  - # 8
    frequency:    4.6913881762
  - # 9
    frequency:    4.7338119120
  - # 10
    frequency:    5.8119290513
  - # 11
    frequency:    5.9219803428
  - # 12
    frequency:    6.0522972635
  - # 13
    frequency:    8.2814119567
  - # 14
    frequency:    8.3206350673
  - # 15
    frequency:   10.1751018919
  - # 16
    frequency:   11.7018652326
  - # 17
    frequency:   15.0837216422
  - # 18
    frequency:   16.3277640570
  - # 19
    frequency:   16.3305102705
  - # 20
    frequency:   34.4767935868
  - # 21
    frequency:   59.9221845989

- q-position: [    0.0353535,    0.0000000,    0.0000000 ]
  distance:    0.0131027
  band:
  - # 1
    frequency:    0.1198676620
  - # 2
    frequency:    0.3200180876
  - # 3
    frequency:    0.8066675914
  - # 4
    frequency:    1.3752594298
  - # 5
    frequency:    1.5444260345
  - # 6
    frequency:    1.9880367821
  - # 7
    frequency:    2.1234362750
  - # 8
    frequency:    4.6932810444
  - # 9
    frequency:    4.7506267658
  - # 10
    frequency:    5.7965448139
  - # 11
    frequency:    5.9254308365
  - # 12
    frequency:    6.0754197498
  - # 13
    frequency:    8.2824209098
  - # 14
    frequency:    8.3354670835
  - # 15
    frequency:   10.1728204267
  - # 16
    frequency:   11.6969131300
  - # 17
    frequency:   15.0820225090
  - # 18
    frequency:   16.3254218757
  - # 19
    frequency:   16.3291275494
  - # 20
    frequency:   34.4745555386
  - # 21
    frequency:   59.9217795072

- q-position: [    0.0404040,    0.0000000,    0.0000000 ]
  distance:    0.0149746
  band:
  - # 1
    frequency:    0.1544470897
  - # 2
    frequency:    0.3527609905
  - # 3
    frequency:    0.9207828790
  - # 4
    frequency:    1.3751991227
  - # 5
    frequency:    1.5835498859
  - # 6
    frequency:    2.0026004206
  - # 7
    frequency:    2.1790993111
  - # 8
    frequency:    4.6954577159
  - # 9
    frequency:    4.7697668432
  - # 10
    frequency:    5.7821965974
  - # 11
    frequency:    5.9294004674
  - # 12
    frequency:    6.0989896241
  - # 13
    frequency:    8.2835890746
  - # 14
    frequency:    8.3523670910
  - # 15
    frequency:   10.1701965992
  - # 16
    frequency:   11.6911830334
  - # 17
    frequency:   15.0800865419
  - # 18
    frequency:   16.3227503670
  - # 19
    frequency:   16.3275421530
  - # 20
    frequency:   34.4719820248
  - # 21
    frequency:   59.9213148667

- q-position: [    0.0454545,    0.0000000,    0.0000000 ]
  distance:    0.0168464
  band:
  - # 1
    frequency:    0.1927001671
  - # 2
    frequency:    0.3798956601
  - # 3
    frequency:    1.0344320306
  - # 4
    frequency:    1.3762547166
  - # 5
    frequency:    1.6238101182
  - # 6
    frequency:    2.0193924463
  - # 7
    frequency:    2.2415778024
  - # 8
    frequency:    4.6979152706
  - # 9
    frequency:    4.7911269028
  - # 10
    frequency:    5.7689966216
  - # 11
    frequency:    5.9338840096
  - # 12
    frequency:    6.1230162830
  - # 13
    frequency:    8.2849179073
  - # 14
    frequency:    8.3712491243
  - # 15
    frequency:   10.1672341773
  - # 16
    frequency:   11.6846692051
  - # 17
    frequency:   15.0779236519
  - # 18
    frequency:   16.3197624657
  - # 19
    frequency:   16.3257582947
  - # 20
    frequency:   34.4690768010
  - # 21
    frequency:   59.9207918494

- q-position: [    0.0505051,    0.0000000,    0.0000000 ]
  distance:    0.0187182
  band:
  - # 1
    frequency:    0.2344073881
  - # 2
    frequency:    0.4005194988
  - # 3
    frequency:    1.1475416583
  - # 4
    frequency:    1.3787527849
  - # 5
    frequency:    1.6646978780
  - # 6
    frequency:    2.0385100400
  - # 7
    frequency:    2.3102749334
  - # 8
    frequency:    4.7006505641
  - # 9
    frequency:    4.8145916854
  - # 10
    frequency:    5.7570635548
  - # 11
    frequency:    5.9388754163
  - # 12
    frequency:    6.1475165333
  - # 13
    frequency:    8.2864088936
  - # 14
    frequency:    8.3920192094
  - # 15
    frequency:   10.1639374828
  - # 16
    frequency:   11.6773658938
  - # 17
    frequency:   15.0755446794
  - # 18
    frequency:   16.3164725989
  - # 19
    frequency:   16.3237806857
  - # 20
    frequency:   34.4658440990
  - # 21
    frequency:   59.9202117722

- q-position: [    0.0555556,    0.0000000,    0.0000000 ]
  distance:    0.0205900
  band:
  - # 1
    frequency:    0.2793603412
  - # 2
    frequency:    0.4137013797
  - # 3
    frequency:    1.2600263635
  - # 4
    frequency:    1.3829715537
  - # 5
    frequency:    1.7059184254
  - # 6
    frequency:    2.0600513770
  - # 7
    frequency:    2.3844689634
  - # 8
    frequency:    4.7036602853
  - # 9
    frequency:    4.8400369998
  - # 10
    frequency:    5.7465231722
  - # 11
    frequency:    5.9443677856
  - # 12
    frequency:    6.1725132064
  - # 13
    frequency:    8.2880634910
  - # 14
    frequency:    8.4145763954
  - # 15
    frequency:   10.1603114156
  - # 16
    frequency:   11.6692675904
  - # 17
    frequency:   15.0729612639
  - # 18
    frequency:   16.3128966024
  - # 19
    frequency:   16.3216145089
  - # 20
    frequency:   34.4622886175
  - # 21
    frequency:   59.9195760935

- q-position: [    0.0606061,    0.0000000,    0.0000000 ]
  distance:    0.0224618
  band:
  - # 1
    frequency:    0.3273612718
  - # 2
    frequency:    0.4184782100
  - # 3
    frequency:    1.3717781102
  - # 4
    frequency:    1.3891025086
  - # 5
    frequency:    1.7473535004
  - # 6
    frequency:    2.0841096016
  - # 7
    frequency:    2.4633662089
  - # 8
    frequency:    4.7069410198
  - # 9
    frequency:    4.8673307799
  - # 10
    frequency:    5.7375085438
  - # 11
    frequency:    5.9503533287
  - # 12
    frequency:    6.1980341812
  - # 13
    frequency:    8.2898830658
  - # 14
    frequency:    8.4388137800
  - # 15
    frequency:   10.1563614831
  - # 16
    frequency:   11.6603692973
  - # 17
    frequency:   15.0701857085
  - # 18
    frequency:   16.3090516293
  - # 19
    frequency:   16.3192653898
  - # 20
    frequency:   34.4584155123
  - # 21
    frequency:   59.9188864083

- q-position: [    0.0656566,    0.0000000,    0.0000000 ]
  distance:    0.0243336
  band:
  - # 1
    frequency:    0.3782222634
  - # 2
    frequency:    0.4138129400
  - # 3
    frequency:    1.3972186458
  - # 4
    frequency:    1.4826417263
  - # 5
    frequency:    1.7890340573
  - # 6
    frequency:    2.1107657479
  - # 7
    frequency:    2.5461517524
  - # 8
    frequency:    4.7104893154
  - # 9
    frequency:    4.8963341278
  - # 10
    frequency:    5.7301599127
  - # 11
    frequency:    5.9568233426
  - # 12
    frequency:    6.2241116124
  - # 13
    frequency:    8.2918688267
  - # 14
    frequency:    8.4646195088
  - # 15
    frequency:   10.1520938361
  - # 16
    frequency:   11.6506668099
  - # 17
    frequency:   15.0672308413
  - # 18
    frequency:   16.3049560506
  - # 19
    frequency:   16.3167393637
  - # 20
    frequency:   34.4542303850
  - # 21
    frequency:   59.9181444435

- q-position: [    0.0707071,    0.0000000,    0.0000000 ]
  distance:    0.0262055
  band:
  - # 1
    frequency:    0.3984679682
  - # 2
    frequency:    0.4317643256
  - # 3
    frequency:    1.4072589724
  - # 4
    frequency:    1.5923504650
  - # 5
    frequency:    1.8311609863
  - # 6
    frequency:    2.1400811448
  - # 7
    frequency:    2.6320287039
  - # 8
    frequency:    4.7143017529
  - # 9
    frequency:    4.9269023851
  - # 10
    frequency:    5.7246242697
  - # 11
    frequency:    5.9637681887
  - # 12
    frequency:    6.2507812783
  - # 13
    frequency:    8.2940217540
  - # 14
    frequency:    8.4918777250
  - # 15
    frequency:   10.1475153099
  - # 16
    frequency:   11.6401570043
  - # 17
    frequency:   15.0641098765
  - # 18
    frequency:   16.3006293505
  - # 19
    frequency:   16.3140428386
  - # 20
    frequency:   34.4497392709
  - # 21
    frequency:   59.9173520524

- q-position: [    0.0757576,    0.0000000,    0.0000000 ]
  distance:    0.0280773
  band:
  - # 1
    frequency:    0.3706943469
  - # 2
    frequency:    0.4878165116
  - # 3
    frequency:    1.4190350589
  - # 4
    frequency:    1.7003232192
  - # 5
    frequency:    1.8742765570
  - # 6
    frequency:    2.1720901022
  - # 7
    frequency:    2.7202433987
  - # 8
    frequency:    4.7183750177
  - # 9
    frequency:    4.9588863106
  - # 10
    frequency:    5.7210545465
  - # 11
    frequency:    5.9711772790
  - # 12
    frequency:    6.2780820123
  - # 13
    frequency:    8.2963425278
  - # 14
    frequency:    8.5204694574
  - # 15
    frequency:   10.1426334735
  - # 16
    frequency:   11.6288381276
  - # 17
    frequency:   15.0608362777
  - # 18
    frequency:   16.2960920147
  - # 19
    frequency:   16.3111825551
  - # 20
    frequency:   34.4449486262
  - # 21
    frequency:   59.9165112091

- q-position: [    0.0808081,    0.0000000,    0.0000000 ]
  distance:    0.0299491
  band:
  - # 1
    frequency:    0.3274455409
  - # 2
    frequency:    0.5462151057
  - # 3
    frequency:    1.4322583532
  - # 4
    frequency:    1.8048548380
  - # 5
    frequency:    1.9200544966
  - # 6
    frequency:    2.2067938246
  - # 7
    frequency:    2.8100983312
  - # 8
    frequency:    4.7227059752
  - # 9
    frequency:    4.9921334831
  - # 10
    frequency:    5.7196082849
  - # 11
    frequency:    5.9790390722
  - # 12
    frequency:    6.3060551993
  - # 13
    frequency:    8.2988314529
  - # 14
    frequency:    8.5502734331
  - # 15
    frequency:   10.1374566851
  - # 16
    frequency:   11.6167100867
  - # 17
    frequency:   15.0574236262
  - # 18
    frequency:   16.2913654142
  - # 19
    frequency:   16.3081655419
  - # 20
    frequency:   34.4398653142
  - # 21
    frequency:   59.9156240023

- q-position: [    0.0858586,    0.0000000,    0.0000000 ]
  distance:    0.0318209
  band:
  - # 1
    frequency:    0.2618778368
  - # 2
    frequency:    0.6068028846
  - # 3
    frequency:    1.4465803171
  - # 4
    frequency:    1.8993428019
  - # 5
    frequency:    1.9750626727
  - # 6
    frequency:    2.2441564553
  - # 7
    frequency:    2.9009563484
  - # 8
    frequency:    4.7272917459
  - # 9
    frequency:    5.0264900817
  - # 10
    frequency:    5.7204455935
  - # 11
    frequency:    5.9873410789
  - # 12
    frequency:    6.3347443238
  - # 13
    frequency:    8.3014883841
  - # 14
    frequency:    8.5811668098
  - # 15
    frequency:   10.1319941546
  - # 16
    frequency:   11.6037747318
  - # 17
    frequency:   15.0538854968
  - # 18
    frequency:   16.2864716846
  - # 19
    frequency:   16.3049990683
  - # 20
    frequency:   34.4344965902
  - # 21
    frequency:   59.9146926289

- q-position: [    0.0909091,    0.0000000,    0.0000000 ]
  distance:    0.0336927
  band:
  - # 1
    frequency:    0.1486926101
  - # 2
    frequency:    0.6694284391
  - # 3
    frequency:    1.4616347027
  - # 4
    frequency:    1.9688494333
  - # 5
    frequency:    2.0541961938
  - # 6
    frequency:    2.2841038905
  - # 7
    frequency:    2.9922395779
  - # 8
    frequency:    4.7321297835
  - # 9
    frequency:    5.0618032243
  - # 10
    frequency:    5.7237261665
  - # 11
    frequency:    5.9960698798
  - # 12
    frequency:    6.3641945585
  - # 13
    frequency:    8.3043126504
  - # 14
    frequency:    8.6130258227
  - # 15
    frequency:   10.1262560130
  - # 16
    frequency:   11.5900361316
  - # 17
    frequency:   15.0502353435
  - # 18
    frequency:   16.2814336012
  - # 19
    frequency:   16.3016905928
  - # 20
    frequency:   34.4288500863
  - # 21
    frequency:   59.9137193874

- q-position: [    0.0959596,    0.0000000,    0.0000000 ]
  distance:    0.0355646
  band:
  - # 1
    frequency:   -0.1772736714
  - # 2
    frequency:    0.7339455436
  - # 3
    frequency:    1.4770730517
  - # 4
    frequency:    2.0191804006
  - # 5
    frequency:    2.1515977530
  - # 6
    frequency:    2.3265255584
  - # 7
    frequency:    3.0834257846
  - # 8
    frequency:    4.7372179522
  - # 9
    frequency:    5.0979240384
  - # 10
    frequency:    5.7296051426
  - # 11
    frequency:    6.0052111552
  - # 12
    frequency:    6.3944523784
  - # 13
    frequency:    8.3073029812
  - # 14
    frequency:    8.6457263468
  - # 15
    frequency:   10.1202533885
  - # 16
    frequency:   11.5755008361
  - # 17
    frequency:   15.0464863962
  - # 18
    frequency:   16.2762744530
  - # 19
    frequency:   16.2982477095
  - # 20
    frequency:   34.4229337950
  - # 21
    frequency:   59.9127066703

- q-position: [    0.1010101,    0.0000000,    0.0000000 ]
  distance:    0.0374364
  band:
  - # 1
    frequency:   -0.3019664021
  - # 2
    frequency:    0.8002125577
  - # 3
    frequency:    1.4925887656
  - # 4
    frequency:    2.0637991705
  - # 5
    frequency:    2.2537438987
  - # 6
    frequency:    2.3712788639
  - # 7
    frequency:    3.1740439732
  - # 8
    frequency:    4.7425546063
  - # 9
    frequency:    5.1347115809
  - # 10
    frequency:    5.7382276370
  - # 11
    frequency:    6.0147497276
  - # 12
    frequency:    6.4255651860
  - # 13
    frequency:    8.3104574334
  - # 14
    frequency:    8.6791443762
  - # 15
    frequency:   10.1139984868
  - # 16
    frequency:   11.5601781257
  - # 17
    frequency:   15.0426515711
  - # 18
    frequency:   16.2710179128
  - # 19
    frequency:   16.2946780916
  - # 20
    frequency:   34.4167560521
  - # 21
    frequency:   59.9116569571

- q-position: [    0.1060606,    0.0000000,    0.0000000 ]
  distance:    0.0393082
  band:
  - # 1
    frequency:   -0.3953415004
  - # 2
    frequency:    0.8680918483
  - # 3
    frequency:    1.5079292962
  - # 4
    frequency:    2.1066342967
  - # 5
    frequency:    2.3566393162
  - # 6
    frequency:    2.4181955902
  - # 7
    frequency:    3.2636703437
  - # 8
    frequency:    4.7481386694
  - # 9
    frequency:    5.1720375873
  - # 10
    frequency:    5.7497219235
  - # 11
    frequency:    6.0246696174
  - # 12
    frequency:    6.4575809260
  - # 13
    frequency:    8.3137733216
  - # 14
    frequency:    8.7131564255
  - # 15
    frequency:   10.1075046761
  - # 16
    frequency:   11.5440802437
  - # 17
    frequency:   15.0387433958
  - # 18
    frequency:   16.2656879075
  - # 19
    frequency:   16.2909894323
  - # 20
    frequency:   34.4103255191
  - # 21
    frequency:   59.9105728065

- q-position: [    0.1111111,    0.0000000,    0.0000000 ]
  distance:    0.0411800
  band:
  - # 1
    frequency:   -0.4752870498
  - # 2
    frequency:    0.9374492195
  - # 3
    frequency:    1.5228986692
  - # 4
    frequency:    2.1487196620
  - # 5
    frequency:    2.4591784162
  - # 6
    frequency:    2.4670893315
  - # 7
    frequency:    3.3519252136
  - # 8
    frequency:    4.7539697155
  - # 9
    frequency:    5.2097917931
  - # 10
    frequency:    5.7641914963
  - # 11
    frequency:    6.0349541114
  - # 12
    frequency:    6.4905476672
  - # 13
    frequency:    8.3172471521
  - # 14
    frequency:    8.7476398585
  - # 15
    frequency:   10.1007865736
  - # 16
    frequency:   11.5272226120
  - # 17
    frequency:   15.0347739488
  - # 18
    frequency:   16.2603084881
  - # 19
    frequency:   16.2871893855
  - # 20
    frequency:   34.4036511643
  - # 21
    frequency:   59.9094568481

- q-position: [    0.1161616,    0.0000000,    0.0000000 ]
  distance:    0.0430518
  band:
  - # 1
    frequency:   -0.5469522391
  - # 2
    frequency:    1.0081533407
  - # 3
    frequency:    1.5373535293
  - # 4
    frequency:    2.1903978767
  - # 5
    frequency:    2.5177630363
  - # 6
    frequency:    2.5609437227
  - # 7
    frequency:    3.4384711919
  - # 8
    frequency:    4.7600480517
  - # 9
    frequency:    5.2478872571
  - # 10
    frequency:    5.7817065850
  - # 11
    frequency:    6.0455858426
  - # 12
    frequency:    6.5245131274
  - # 13
    frequency:    8.3208745612
  - # 14
    frequency:    8.7824731523
  - # 15
    frequency:   10.0938601304
  - # 16
    frequency:   11.5096240278
  - # 17
    frequency:   15.0307548160
  - # 18
    frequency:   16.2549036994
  - # 19
    frequency:   16.2832855041
  - # 20
    frequency:   34.3967422447
  - # 21
    frequency:   59.9083117746

- q-position: [    0.1212121,    0.0000000,    0.0000000 ]
  distance:    0.0449237
  band:
  - # 1
    frequency:   -0.6125940715
  - # 2
    frequency:    1.0800751593
  - # 3
    frequency:    1.5511957001
  - # 4
    frequency:    2.2317978146
  - # 5
    frequency:    2.5700159165
  - # 6
    frequency:    2.6617299340
  - # 7
    frequency:    3.5230126719
  - # 8
    frequency:    4.7663748035
  - # 9
    frequency:    5.2862647812
  - # 10
    frequency:    5.8022960745
  - # 11
    frequency:    6.0565468826
  - # 12
    frequency:    6.5595241129
  - # 13
    frequency:    8.3246502590
  - # 14
    frequency:    8.8175361050
  - # 15
    frequency:   10.0867427123
  - # 16
    frequency:   11.4913068426
  - # 17
    frequency:   15.0266970625
  - # 18
    frequency:   16.2494974519
  - # 19
    frequency:   16.2792851798
  - # 20
    frequency:   34.3896082858
  - # 21
    frequency:   59.9071403331

- q-position: [    0.1262626,    0.0000000,    0.0000000 ]
  distance:    0.0467955
  band:
  - # 1
    frequency:   -0.6734091035
  - # 2
    frequency:    1.1530872873
  - # 3
    frequency:    1.5643635310
  - # 4
    frequency:    2.2729667282
  - # 5
    frequency:    2.6236492396
  - # 6
    frequency:    2.7614131670
  - # 7
    frequency:    3.6052965587
  - # 8
    frequency:    4.7729520035
  - # 9
    frequency:    5.3248953121
  - # 10
    frequency:    5.8259410615
  - # 11
    frequency:    6.0678188435
  - # 12
    frequency:    6.5956258485
  - # 13
    frequency:    8.3285679798
  - # 14
    frequency:    8.8527099958
  - # 15
    frequency:   10.0794531694
  - # 16
    frequency:   11.4722971242
  - # 17
    frequency:   15.0226112198
  - # 18
    frequency:   16.2441133959
  - # 19
    frequency:   16.2751955820
  - # 20
    frequency:   34.3822590618
  - # 21
    frequency:   59.9059453169

- q-position: [    0.1313131,    0.0000000,    0.0000000 ]
  distance:    0.0486673
  band:
  - # 1
    frequency:   -0.7301075442
  - # 2
    frequency:    1.2270633466
  - # 3
    frequency:    1.5768234862
  - # 4
    frequency:    2.3139162019
  - # 5
    frequency:    2.6784707860
  - # 6
    frequency:    2.8599061222
  - # 7
    frequency:    3.6851140159
  - # 8
    frequency:    4.7797826850
  - # 9
    frequency:    5.3637792620
  - # 10
    frequency:    5.8525713014
  - # 11
    frequency:    6.0793829882
  - # 12
    frequency:    6.6328611732
  - # 13
    frequency:    8.3326204393
  - # 14
    frequency:    8.8878777092
  - # 15
    frequency:   10.0720118906
  - # 16
    frequency:   11.4526248016
  - # 17
    frequency:   15.0185072877
  - # 18
    frequency:   16.2387747976
  - # 19
    frequency:   16.2710235998
  - # 20
    frequency:   34.3747045755
  - # 21
    frequency:   59.9047295559

- q-position: [    0.1363636,    0.0000000,    0.0000000 ]
  distance:    0.0505391
  band:
  - # 1
    frequency:   -0.7831434181
  - # 2
    frequency:    1.3018772554
  - # 3
    frequency:    1.5885627518
  - # 4
    frequency:    2.3546412600
  - # 5
    frequency:    2.7342979691
  - # 6
    frequency:    2.9571398727
  - # 7
    frequency:    3.7623029107
  - # 8
    frequency:    4.7868709817
  - # 9
    frequency:    5.4029421197
  - # 10
    frequency:    5.8820654591
  - # 11
    frequency:    6.0912203481
  - # 12
    frequency:    6.6712695848
  - # 13
    frequency:    8.3367993000
  - # 14
    frequency:    8.9229238329
  - # 15
    frequency:   10.0644408324
  - # 16
    frequency:   11.4323237960
  - # 17
    frequency:   15.0143947503
  - # 18
    frequency:   16.2335044198
  - # 19
    frequency:   16.2667757848
  - # 20
    frequency:   34.3669550372
  - # 21
    frequency:   59.9034959084

- q-position: [    0.1414141,    0.0000000,    0.0000000 ]
  distance:    0.0524109
  band:
  - # 1
    frequency:   -0.8328219781
  - # 2
    frequency:    1.3774024368
  - # 3
    frequency:    1.5995831612
  - # 4
    frequency:    2.3951295868
  - # 5
    frequency:    2.7909597517
  - # 6
    frequency:    3.0530553542
  - # 7
    frequency:    3.8367505429
  - # 8
    frequency:    4.7942222361
  - # 9
    frequency:    5.4424264685
  - # 10
    frequency:    5.9142554106
  - # 11
    frequency:    6.1033118455
  - # 12
    frequency:    6.7108861254
  - # 13
    frequency:    8.3410951453
  - # 14
    frequency:    8.9577347436
  - # 15
    frequency:   10.0567635140
  - # 16
    frequency:   11.4114321401
  - # 17
    frequency:   15.0102826036
  - # 18
    frequency:   16.2283244062
  - # 19
    frequency:   16.2624582988
  - # 20
    frequency:   34.3590208440
  - # 21
    frequency:   59.9022472521

- q-position: [    0.1464646,    0.0000000,    0.0000000 ]
  distance:    0.0542827
  band:
  - # 1
    frequency:   -0.8793554576
  - # 2
    frequency:    1.4535109219
  - # 3
    frequency:    1.6098964466
  - # 4
    frequency:    2.4353666372
  - # 5
    frequency:    2.8482975651
  - # 6
    frequency:    3.1475988146
  - # 7
    frequency:    3.9083961836
  - # 8
    frequency:    4.8018431164
  - # 9
    frequency:    5.4822813886
  - # 10
    frequency:    5.9489340338
  - # 11
    frequency:    6.1156384192
  - # 12
    frequency:    6.7517401124
  - # 13
    frequency:    8.3454974629
  - # 14
    frequency:    8.9921986957
  - # 15
    frequency:   10.0490049635
  - # 16
    frequency:   11.3899920866
  - # 17
    frequency:   15.0061793935
  - # 18
    frequency:   16.2232561713
  - # 19
    frequency:   16.2580768640
  - # 20
    frequency:   34.3509125584
  - # 21
    frequency:   59.9009864742

- q-position: [    0.1515152,    0.0000000,    0.0000000 ]
  distance:    0.0561546
  band:
  - # 1
    frequency:   -0.9228944349
  - # 2
    frequency:    1.5300723155
  - # 3
    frequency:    1.6195206716
  - # 4
    frequency:    2.4753389082
  - # 5
    frequency:    2.9061654546
  - # 6
    frequency:    3.2407189988
  - # 7
    frequency:    3.9772329355
  - # 8
    frequency:    4.8097417468
  - # 9
    frequency:    5.5225508752
  - # 10
    frequency:    5.9858652754
  - # 11
    frequency:    6.1281811506
  - # 12
    frequency:    6.7938537363
  - # 13
    frequency:    8.3499946382
  - # 14
    frequency:    9.0262059294
  - # 15
    frequency:   10.0411916020
  - # 16
    frequency:   11.3680502106
  - # 17
    frequency:   15.0020932627
  - # 18
    frequency:   16.2183202954
  - # 19
    frequency:   16.2536367200
  - # 20
    frequency:   34.3426408872
  - # 21
    frequency:   59.8997164633