nqpoint: 300    
npath: 3      
segment_nqpoint:
- 100
- 100
- 100
labels:
- [ 'G', 'M' ]
- [ 'M', 'K' ]
- [ 'K', 'G' ]
reciprocal_lattice:
- [   0.32096646,   0.18531007,   0.00000000 ] # a*
- [   0.00000000,   0.37062015,   0.00000000 ] # b*
- [   0.00000000,   0.00000000,   0.03815075 ] # c*
natom: 7      
lattice:
- [     3.115590298088400,     0.000000000000000,     0.000000000000000 ] # a
- [    -1.557795149044200,     2.698180345923737,     0.000000000000000 ] # b
- [     0.000000000000000,     0.000000000000000,    26.211804108463355 ] # c
points:
- symbol: C # 1
  coordinates: [  0.333332985432215,  0.666666983183674,  0.610634209649536 ]
  mass: 12.010700
- symbol: N # 2
  coordinates: [  0.000000000000000,  0.000000000000000,  0.513696364333532 ]
  mass: 14.006700
- symbol: N # 3
  coordinates: [  0.333332985432215,  0.666666983183674,  0.656643245052558 ]
  mass: 14.006700
- symbol: O # 4
  coordinates: [  0.666666984744047,  0.333332985985145,  0.343356754947442 ]
  mass: 15.999400
- symbol: P # 5
  coordinates: [  0.666666984744047,  0.333332985985145,  0.400226181800519 ]
  mass: 30.973762
- symbol: Ti # 6
  coordinates: [  0.333332985432215,  0.666666983183674,  0.470451711753078 ]
  mass: 47.867000
- symbol: Ti # 7
  coordinates: [  0.666666984744047,  0.333332985985145,  0.557105125397272 ]
  mass: 47.867000

phonon:
- q-position: [    0.0000000,    0.0000000,    0.0000000 ]
  distance:    0.0000000
  band:
  - # 1
    frequency:   -0.0000005767
  - # 2
    frequency:    0.0000005875
  - # 3
    frequency:    0.0000021096
  - # 4
    frequency:    0.8642888424
  - # 5
    frequency:    0.8642888424
  - # 6
    frequency:    1.7433956524
  - # 7
    frequency:    1.7433956524
  - # 8
    frequency:    4.7244437442
  - # 9
    frequency:    4.7244437442
  - # 10
    frequency:    5.8578538140
  - # 11
    frequency:    5.8578538140
  - # 12
    frequency:    5.9406705936
  - # 13
    frequency:    8.7685807740
  - # 14
    frequency:    8.7685807740
  - # 15
    frequency:   10.1821307704
  - # 16
    frequency:   11.6977883653
  - # 17
    frequency:   15.0365759123
  - # 18
    frequency:   16.3938543052
  - # 19
    frequency:   16.3938543052
  - # 20
    frequency:   34.4864027830
  - # 21
    frequency:   59.9192256853

- q-position: [    0.0050505,    0.0000000,    0.0000000 ]
  distance:    0.0018718
  band:
  - # 1
    frequency:   -0.1793159706
  - # 2
    frequency:    0.0545046598
  - # 3
    frequency:    0.2022498738
  - # 4
    frequency:    0.8656414526
  - # 5
    frequency:    0.8778580189
  - # 6
    frequency:    1.7436497960
  - # 7
    frequency:    1.7459912273
  - # 8
    frequency:    4.7244775166
  - # 9
    frequency:    4.7257115074
  - # 10
    frequency:    5.8517479045
  - # 11
    frequency:    5.8579913861
  - # 12
    frequency:    5.9470611250
  - # 13
    frequency:    8.7683944509
  - # 14
    frequency:    8.7695170563
  - # 15
    frequency:   10.1819579436
  - # 16
    frequency:   11.6974683198
  - # 17
    frequency:   15.0365405821
  - # 18
    frequency:   16.3935915455
  - # 19
    frequency:   16.3936226819
  - # 20
    frequency:   34.4862213893
  - # 21
    frequency:   59.9192033899

- q-position: [    0.0101010,    0.0000000,    0.0000000 ]
  distance:    0.0037436
  band:
  - # 1
    frequency:   -0.2365744180
  - # 2
    frequency:    0.1080470419
  - # 3
    frequency:    0.3028983437
  - # 4
    frequency:    0.8697963397
  - # 5
    frequency:    0.9168189058
  - # 6
    frequency:    1.7444177433
  - # 7
    frequency:    1.7537846642
  - # 8
    frequency:    4.7245802926
  - # 9
    frequency:    4.7295094153
  - # 10
    frequency:    5.8370899833
  - # 11
    frequency:    5.8584030043
  - # 12
    frequency:    5.9625822953
  - # 13
    frequency:    8.7678368160
  - # 14
    frequency:    8.7723211407
  - # 15
    frequency:   10.1814395844
  - # 16
    frequency:   11.6965074199
  - # 17
    frequency:   15.0364348659
  - # 18
    frequency:   16.3928046832
  - # 19
    frequency:   16.3929290206
  - # 20
    frequency:   34.4856775153
  - # 21
    frequency:   59.9191365209

- q-position: [    0.0151515,    0.0000000,    0.0000000 ]
  distance:    0.0056155
  band:
  - # 1
    frequency:   -0.2674414038
  - # 2
    frequency:    0.1596337792
  - # 3
    frequency:    0.3931515213
  - # 4
    frequency:    0.8770394560
  - # 5
    frequency:    0.9767848512
  - # 6
    frequency:    1.7457164597
  - # 7
    frequency:    1.7668069378
  - # 8
    frequency:    4.7247564171
  - # 9
    frequency:    4.7358212927
  - # 10
    frequency:    5.8187072389
  - # 11
    frequency:    5.8590854227
  - # 12
    frequency:    5.9824350569
  - # 13
    frequency:    8.7669118585
  - # 14
    frequency:    8.7769787836
  - # 15
    frequency:   10.1805760710
  - # 16
    frequency:   11.6949033885
  - # 17
    frequency:   15.0362595757
  - # 18
    frequency:   16.3914979608
  - # 19
    frequency:   16.3917769380
  - # 20
    frequency:   34.4847720813
  - # 21
    frequency:   59.9190251304

- q-position: [    0.0202020,    0.0000000,    0.0000000 ]
  distance:    0.0074873
  band:
  - # 1
    frequency:   -0.2809911450
  - # 2
    frequency:    0.2082238898
  - # 3
    frequency:    0.4815053571
  - # 4
    frequency:    0.8878253178
  - # 5
    frequency:    1.0524456067
  - # 6
    frequency:    1.7475756380
  - # 7
    frequency:    1.7851464088
  - # 8
    frequency:    4.7250130268
  - # 9
    frequency:    4.7446200730
  - # 10
    frequency:    5.7989345137
  - # 11
    frequency:    5.8600333904
  - # 12
    frequency:    6.0043314485
  - # 13
    frequency:    8.7656261767
  - # 14
    frequency:    8.7834663887
  - # 15
    frequency:   10.1793680810
  - # 16
    frequency:   11.6926524735
  - # 17
    frequency:   15.0360160296
  - # 18
    frequency:   16.3896784193
  - # 19
    frequency:   16.3901724288
  - # 20
    frequency:   34.4835066180
  - # 21
    frequency:   59.9188693056

- q-position: [    0.0252525,    0.0000000,    0.0000000 ]
  distance:    0.0093591
  band:
  - # 1
    frequency:   -0.2801984504
  - # 2
    frequency:    0.2527433657
  - # 3
    frequency:    0.5709342987
  - # 4
    frequency:    0.9027288731
  - # 5
    frequency:    1.1388185057
  - # 6
    frequency:    1.7500399386
  - # 7
    frequency:    1.8090058666
  - # 8
    frequency:    4.7253598974
  - # 9
    frequency:    4.7558676191
  - # 10
    frequency:    5.7787670642
  - # 11
    frequency:    5.8612398835
  - # 12
    frequency:    6.0273418254
  - # 13
    frequency:    8.7639889045
  - # 14
    frequency:    8.7917512184
  - # 15
    frequency:   10.1778166598
  - # 16
    frequency:   11.6897495130
  - # 17
    frequency:   15.0357059993
  - # 18
    frequency:   16.3873558549
  - # 19
    frequency:   16.3881238181
  - # 20
    frequency:   34.4818832616
  - # 21
    frequency:   59.9186691703

- q-position: [    0.0303030,    0.0000000,    0.0000000 ]
  distance:    0.0112309
  band:
  - # 1
    frequency:   -0.2654516466
  - # 2
    frequency:    0.2921461506
  - # 3
    frequency:    0.6624783172
  - # 4
    frequency:    0.9223549714
  - # 5
    frequency:    1.2316434533
  - # 6
    frequency:    1.7531723636
  - # 7
    frequency:    1.8387845380
  - # 8
    frequency:    4.7258092379
  - # 9
    frequency:    4.7695144365
  - # 10
    frequency:    5.7586948630
  - # 11
    frequency:    5.8626964178
  - # 12
    frequency:    6.0510605939
  - # 13
    frequency:    8.7620116090
  - # 14
    frequency:    8.8017916821
  - # 15
    frequency:   10.1759233145
  - # 16
    frequency:   11.6861880278
  - # 17
    frequency:   15.0353316388
  - # 18
    frequency:   16.3845427566
  - # 19
    frequency:   16.3856416940
  - # 20
    frequency:   34.4799047475
  - # 21
    frequency:   59.9184248861

- q-position: [    0.0353535,    0.0000000,    0.0000000 ]
  distance:    0.0131027
  band:
  - # 1
    frequency:   -0.2345385152
  - # 2
    frequency:    0.3255230776
  - # 3
    frequency:    0.7563267854
  - # 4
    frequency:    0.9472030819
  - # 5
    frequency:    1.3272489326
  - # 6
    frequency:    1.7570590251
  - # 7
    frequency:    1.8751784547
  - # 8
    frequency:    4.7263754393
  - # 9
    frequency:    4.7854992388
  - # 10
    frequency:    5.7390131843
  - # 11
    frequency:    5.8643934297
  - # 12
    frequency:    6.0752957545
  - # 13
    frequency:    8.7597081614
  - # 14
    frequency:    8.8135376940
  - # 15
    frequency:   10.1736901283
  - # 16
    frequency:   11.6819603400
  - # 17
    frequency:   15.0348953959
  - # 18
    frequency:   16.3812542273
  - # 19
    frequency:   16.3827388235
  - # 20
    frequency:   34.4775744018
  - # 21
    frequency:   59.9181366543

- q-position: [    0.0404040,    0.0000000,    0.0000000 ]
  distance:    0.0149746
  band:
  - # 1
    frequency:   -0.1794577552
  - # 2
    frequency:    0.3522302775
  - # 3
    frequency:    0.8523081097
  - # 4
    frequency:    0.9775143629
  - # 5
    frequency:    1.4222741902
  - # 6
    frequency:    1.7618156660
  - # 7
    frequency:    1.9192641521
  - # 8
    frequency:    4.7270747866
  - # 9
    frequency:    4.8037483155
  - # 10
    frequency:    5.7199383009
  - # 11
    frequency:    5.8663207125
  - # 12
    frequency:    6.0999534881
  - # 13
    frequency:    8.7570945826
  - # 14
    frequency:    8.8269310925
  - # 15
    frequency:   10.1711198930
  - # 16
    frequency:   11.6770577208
  - # 17
    frequency:   15.0343999093
  - # 18
    frequency:   16.3775078860
  - # 19
    frequency:   16.3794300515
  - # 20
    frequency:   34.4748961310
  - # 21
    frequency:   59.9178047185

- q-position: [    0.0454545,    0.0000000,    0.0000000 ]
  distance:    0.0168464
  band:
  - # 1
    frequency:   -0.0446532909
  - # 2
    frequency:    0.3719792125
  - # 3
    frequency:    0.9501271419
  - # 4
    frequency:    1.0131573267
  - # 5
    frequency:    1.5135150912
  - # 6
    frequency:    1.7675963790
  - # 7
    frequency:    1.9724637293
  - # 8
    frequency:    4.7279251442
  - # 9
    frequency:    4.8241746295
  - # 10
    frequency:    5.7016554110
  - # 11
    frequency:    5.8684678921
  - # 12
    frequency:    6.1249907473
  - # 13
    frequency:    8.7541888661
  - # 14
    frequency:    8.8419061110
  - # 15
    frequency:   10.1682162546
  - # 16
    frequency:   11.6714705658
  - # 17
    frequency:   15.0338478933
  - # 18
    frequency:   16.3733237522
  - # 19
    frequency:   16.3757321847
  - # 20
    frequency:   34.4718744099
  - # 21
    frequency:   59.9174293664

- q-position: [    0.0505051,    0.0000000,    0.0000000 ]
  distance:    0.0187182
  band:
  - # 1
    frequency:    0.1891504612
  - # 2
    frequency:    0.3848358374
  - # 3
    frequency:    1.0494730716
  - # 4
    frequency:    1.0536029173
  - # 5
    frequency:    1.5981119024
  - # 6
    frequency:    1.7746050028
  - # 7
    frequency:    2.0362158606
  - # 8
    frequency:    4.7289456246
  - # 9
    frequency:    4.8466765649
  - # 10
    frequency:    5.6843411563
  - # 11
    frequency:    5.8708249244
  - # 12
    frequency:    6.1503935803
  - # 13
    frequency:    8.7510107794
  - # 14
    frequency:    8.8583898892
  - # 15
    frequency:   10.1649838697
  - # 16
    frequency:   11.6651885993
  - # 17
    frequency:   15.0332420140
  - # 18
    frequency:   16.3687241132
  - # 19
    frequency:   16.3716638618
  - # 20
    frequency:   34.4685142683
  - # 21
    frequency:   59.9170109336

- q-position: [    0.0555556,    0.0000000,    0.0000000 ]
  distance:    0.0205900
  band:
  - # 1
    frequency:    0.2851623880
  - # 2
    frequency:    0.3911249788
  - # 3
    frequency:    1.0979912667
  - # 4
    frequency:    1.1500607124
  - # 5
    frequency:    1.6741385372
  - # 6
    frequency:    1.7831095156
  - # 7
    frequency:    2.1112904700
  - # 8
    frequency:    4.7301562509
  - # 9
    frequency:    4.8711362258
  - # 10
    frequency:    5.6681758298
  - # 11
    frequency:    5.8733825997
  - # 12
    frequency:    6.1761661913
  - # 13
    frequency:    8.7475816486
  - # 14
    frequency:    8.8763030135
  - # 15
    frequency:   10.1614285649
  - # 16
    frequency:   11.6582011065
  - # 17
    frequency:   15.0325847614
  - # 18
    frequency:   16.3637333715
  - # 19
    frequency:   16.3672454117
  - # 20
    frequency:   34.4648212752
  - # 21
    frequency:   59.9165498062

- q-position: [    0.0606061,    0.0000000,    0.0000000 ]
  distance:    0.0224618
  band:
  - # 1
    frequency:    0.3672260652
  - # 2
    frequency:    0.3912861615
  - # 3
    frequency:    1.1452425268
  - # 4
    frequency:    1.2516390803
  - # 5
    frequency:    1.7411795359
  - # 6
    frequency:    1.7934591360
  - # 7
    frequency:    2.1971487449
  - # 8
    frequency:    4.7315776224
  - # 9
    frequency:    4.8974171865
  - # 10
    frequency:    5.6533512082
  - # 11
    frequency:    5.8761330350
  - # 12
    frequency:    6.2023249039
  - # 13
    frequency:    8.7439241265
  - # 14
    frequency:    8.8955600759
  - # 15
    frequency:   10.1575574996
  - # 16
    frequency:   11.6504971953
  - # 17
    frequency:   15.0318783190
  - # 18
    frequency:   16.3583778759
  - # 19
    frequency:   16.3624987011
  - # 20
    frequency:   34.4608015225
  - # 21
    frequency:   59.9160464246

- q-position: [    0.0656566,    0.0000000,    0.0000000 ]
  distance:    0.0243336
  band:
  - # 1
    frequency:    0.3857353750
  - # 2
    frequency:    0.4434174829
  - # 3
    frequency:    1.1941566938
  - # 4
    frequency:    1.3539841573
  - # 5
    frequency:    1.8002472547
  - # 6
    frequency:    1.8061022657
  - # 7
    frequency:    2.2919861482
  - # 8
    frequency:    4.7332305924
  - # 9
    frequency:    4.9253616136
  - # 10
    frequency:    5.6400765593
  - # 11
    frequency:    5.8790701405
  - # 12
    frequency:    6.2288945525
  - # 13
    frequency:    8.7400619494
  - # 14
    frequency:    8.9160702392
  - # 15
    frequency:   10.1533793234
  - # 16
    frequency:   11.6420660834
  - # 17
    frequency:   15.0311244385
  - # 18
    frequency:   16.3526857335
  - # 19
    frequency:   16.3574469744
  - # 20
    frequency:   34.4564616059
  - # 21
    frequency:   59.9155012871

- q-position: [    0.0707071,    0.0000000,    0.0000000 ]
  distance:    0.0262055
  band:
  - # 1
    frequency:    0.3747589633
  - # 2
    frequency:    0.5165487673
  - # 3
    frequency:    1.2434772133
  - # 4
    frequency:    1.4568822103
  - # 5
    frequency:    1.8216001441
  - # 6
    frequency:    1.8530681488
  - # 7
    frequency:    2.3934244462
  - # 8
    frequency:    4.7351359670
  - # 9
    frequency:    4.9547867418
  - # 10
    frequency:    5.6285839602
  - # 11
    frequency:    5.8821900443
  - # 12
    frequency:    6.2559061780
  - # 13
    frequency:    8.7360196846
  - # 14
    frequency:    8.9377377983
  - # 15
    frequency:   10.1489043297
  - # 16
    frequency:   11.6328974124
  - # 17
    frequency:   15.0303243212
  - # 18
    frequency:   16.3466866039
  - # 19
    frequency:   16.3521146853
  - # 20
    frequency:   34.4518086055
  - # 21
    frequency:   59.9149149537

- q-position: [    0.0757576,    0.0000000,    0.0000000 ]
  distance:    0.0280773
  band:
  - # 1
    frequency:    0.3584327780
  - # 2
    frequency:    0.5879229255
  - # 3
    frequency:    1.2919278970
  - # 4
    frequency:    1.5601016988
  - # 5
    frequency:    1.8406256240
  - # 6
    frequency:    1.9013970071
  - # 7
    frequency:    2.4991950865
  - # 8
    frequency:    4.7373142311
  - # 9
    frequency:    4.9854808382
  - # 10
    frequency:    5.6191333254
  - # 11
    frequency:    5.8854914634
  - # 12
    frequency:    6.2833954792
  - # 13
    frequency:    8.7318224725
  - # 14
    frequency:    8.9604627278
  - # 15
    frequency:   10.1441445989
  - # 16
    frequency:   11.6229815854
  - # 17
    frequency:   15.0294785117
  - # 18
    frequency:   16.3404114765
  - # 19
    frequency:   16.3465273259
  - # 20
    frequency:   34.4468500646
  - # 21
    frequency:   59.9142880501

- q-position: [    0.0808081,    0.0000000,    0.0000000 ]
  distance:    0.0299491
  band:
  - # 1
    frequency:    0.3365369525
  - # 2
    frequency:    0.6582320660
  - # 3
    frequency:    1.3382528024
  - # 4
    frequency:    1.6633392175
  - # 5
    frequency:    1.8639302223
  - # 6
    frequency:    1.9467399167
  - # 7
    frequency:    2.6074463809
  - # 8
    frequency:    4.7397853077
  - # 9
    frequency:    5.0171990966
  - # 10
    frequency:    5.6120169660
  - # 11
    frequency:    5.8889760093
  - # 12
    frequency:    6.3114017410
  - # 13
    frequency:    8.7274957659
  - # 14
    frequency:    8.9841412057
  - # 15
    frequency:   10.1391141316
  - # 16
    frequency:   11.6123101256
  - # 17
    frequency:   15.0285868082
  - # 18
    frequency:   16.3338924306
  - # 19
    frequency:   16.3407112507
  - # 20
    frequency:   34.4415939671
  - # 21
    frequency:   59.9136212718

- q-position: [    0.0858586,    0.0000000,    0.0000000 ]
  distance:    0.0318209
  band:
  - # 1
    frequency:    0.3084122348
  - # 2
    frequency:    0.7278722547
  - # 3
    frequency:    1.3812902852
  - # 4
    frequency:    1.7660898547
  - # 5
    frequency:    1.8922618431
  - # 6
    frequency:    1.9904451458
  - # 7
    frequency:    2.7167636307
  - # 8
    frequency:    4.7425683559
  - # 9
    frequency:    5.0496604582
  - # 10
    frequency:    5.6075628108
  - # 11
    frequency:    5.8926484205
  - # 12
    frequency:    6.3399670889
  - # 13
    frequency:    8.7230650705
  - # 14
    frequency:    9.0086661067
  - # 15
    frequency:   10.1338289689
  - # 16
    frequency:   11.6008760531
  - # 17
    frequency:   15.0276481937
  - # 18
    frequency:   16.3271623797
  - # 19
    frequency:   16.3346935016
  - # 20
    frequency:   34.4360487142
  - # 21
    frequency:   59.9129153882

- q-position: [    0.0909091,    0.0000000,    0.0000000 ]
  distance:    0.0336927
  band:
  - # 1
    frequency:    0.2726343176
  - # 2
    frequency:    0.7970791531
  - # 3
    frequency:    1.4200919713
  - # 4
    frequency:    1.8672607131
  - # 5
    frequency:    1.9262318015
  - # 6
    frequency:    2.0341620752
  - # 7
    frequency:    2.8260822369
  - # 8
    frequency:    4.7456816112
  - # 9
    frequency:    5.0825472488
  - # 10
    frequency:    5.6061344618
  - # 11
    frequency:    5.8965167137
  - # 12
    frequency:    6.3691359797
  - # 13
    frequency:    8.7185556888
  - # 14
    frequency:    9.0339274568
  - # 15
    frequency:   10.1283073004
  - # 16
    frequency:   11.5886742771
  - # 17
    frequency:   15.0266607908
  - # 18
    frequency:   16.3202548002
  - # 19
    frequency:   16.3285016318
  - # 20
    frequency:   34.4302230995
  - # 21
    frequency:   59.9121712466

- q-position: [    0.0959596,    0.0000000,    0.0000000 ]
  distance:    0.0355646
  band:
  - # 1
    frequency:    0.2260921785
  - # 2
    frequency:    0.8659945766
  - # 3
    frequency:    1.4540555861
  - # 4
    frequency:    1.9638036065
  - # 5
    frequency:    1.9661673032
  - # 6
    frequency:    2.0812935399
  - # 7
    frequency:    2.9345915774
  - # 8
    frequency:    4.7491422711
  - # 9
    frequency:    5.1155107346
  - # 10
    frequency:    5.6081250031
  - # 11
    frequency:    5.9005922509
  - # 12
    frequency:    6.3989548696
  - # 13
    frequency:    8.7139924716
  - # 14
    frequency:    9.0598128451
  - # 15
    frequency:   10.1225695584
  - # 16
    frequency:   11.5757019987
  - # 17
    frequency:   15.0256218449
  - # 18
    frequency:   16.3132034477
  - # 19
    frequency:   16.3221635337
  - # 20
    frequency:   34.4241262838
  - # 21
    frequency:   59.9113897760

- q-position: [    0.1010101,    0.0000000,    0.0000000 ]
  distance:    0.0374364
  band:
  - # 1
    frequency:    0.1602244617
  - # 2
    frequency:    0.9347020935
  - # 3
    frequency:    1.4830043123
  - # 4
    frequency:    2.0120189337
  - # 5
    frequency:    2.0468978963
  - # 6
    frequency:    2.1408800762
  - # 7
    frequency:    3.0416595569
  - # 8
    frequency:    4.7529664285
  - # 9
    frequency:    5.1481868263
  - # 10
    frequency:    5.6139403366
  - # 11
    frequency:    5.9048897194
  - # 12
    frequency:    6.4294720133
  - # 13
    frequency:    8.7093995776
  - # 14
    frequency:    9.0862077873
  - # 15
    frequency:   10.1166384983
  - # 16
    frequency:   11.5619591211
  - # 17
    frequency:   15.0245277364
  - # 18
    frequency:   16.3060420611
  - # 19
    frequency:   16.3157072693
  - # 20
    frequency:   34.4177677687
  - # 21
    frequency:   59.9105719911

- q-position: [    0.1060606,    0.0000000,    0.0000000 ]
  distance:    0.0393082
  band:
  - # 1
    frequency:   -0.0429771278
  - # 2
    frequency:    1.0032471455
  - # 3
    frequency:    1.5071595857
  - # 4
    frequency:    2.0633769358
  - # 5
    frequency:    2.1069193585
  - # 6
    frequency:    2.2226776721
  - # 7
    frequency:    3.1467798836
  - # 8
    frequency:    4.7571690548
  - # 9
    frequency:    5.1802261057
  - # 10
    frequency:    5.6239678549
  - # 11
    frequency:    5.9094270246
  - # 12
    frequency:    6.4607373493
  - # 13
    frequency:    8.7048002466
  - # 14
    frequency:    9.1129960398
  - # 15
    frequency:   10.1105392655
  - # 16
    frequency:   11.5474486637
  - # 17
    frequency:   15.0233740256
  - # 18
    frequency:   16.2988040579
  - # 19
    frequency:   16.3091609068
  - # 20
    frequency:   34.4111573698
  - # 21
    frequency:   59.9097189954

- q-position: [    0.1111111,    0.0000000,    0.0000000 ]
  distance:    0.0411800
  band:
  - # 1
    frequency:   -0.1769127631
  - # 2
    frequency:    1.0716487645
  - # 3
    frequency:    1.5270195085
  - # 4
    frequency:    2.1195840642
  - # 5
    frequency:    2.1519289534
  - # 6
    frequency:    2.3186999192
  - # 7
    frequency:    3.2495369767
  - # 8
    frequency:    4.7617640328
  - # 9
    frequency:    5.2113392543
  - # 10
    frequency:    5.6385293502
  - # 11
    frequency:    5.9142250993
  - # 12
    frequency:    6.4928024257
  - # 13
    frequency:    8.7002165847
  - # 14
    frequency:    9.1400598637
  - # 15
    frequency:   10.1042994466
  - # 16
    frequency:   11.5321771749
  - # 17
    frequency:   15.0221555291
  - # 18
    frequency:   16.2915222232
  - # 19
    frequency:   16.3025523634
  - # 20
    frequency:   34.4043051888
  - # 21
    frequency:   59.9088319847

- q-position: [    0.1161616,    0.0000000,    0.0000000 ]
  distance:    0.0430518
  band:
  - # 1
    frequency:   -0.2501061470
  - # 2
    frequency:    1.1399064211
  - # 3
    frequency:    1.5432077537
  - # 4
    frequency:    2.1798798521
  - # 5
    frequency:    2.1911622574
  - # 6
    frequency:    2.4197488693
  - # 7
    frequency:    3.3495832318
  - # 8
    frequency:    4.7667642411
  - # 9
    frequency:    5.2413515610
  - # 10
    frequency:    5.6578244462
  - # 11
    frequency:    5.9193076308
  - # 12
    frequency:    6.5257203137
  - # 13
    frequency:    8.6956693671
  - # 14
    frequency:    9.1672802418
  - # 15
    frequency:   10.0979491018
  - # 16
    frequency:   11.5161551415
  - # 17
    frequency:   15.0208664289
  - # 18
    frequency:   16.2842283956
  - # 19
    frequency:   16.2959092552
  - # 20
    frequency:   34.3972215863
  - # 21
    frequency:   59.9079122499

- q-position: [    0.1212121,    0.0000000,    0.0000000 ]
  distance:    0.0449237
  band:
  - # 1
    frequency:   -0.3090145267
  - # 2
    frequency:    1.2080039067
  - # 3
    frequency:    1.5563528493
  - # 4
    frequency:    2.2279301340
  - # 5
    frequency:    2.2435160474
  - # 6
    frequency:    2.5225277888
  - # 7
    frequency:    3.4466247384
  - # 8
    frequency:    4.7721816890
  - # 9
    frequency:    5.2702507344
  - # 10
    frequency:    5.6818802881
  - # 11
    frequency:    5.9247007158
  - # 12
    frequency:    6.5595454504
  - # 13
    frequency:    8.6911778564
  - # 14
    frequency:    9.1945370532
  - # 15
    frequency:   10.0915207751
  - # 16
    frequency:   11.4993973907
  - # 17
    frequency:   15.0195004115
  - # 18
    frequency:   16.2769531547
  - # 19
    frequency:   16.2892587554
  - # 20
    frequency:   34.3899171530
  - # 21
    frequency:   59.9069611790

- q-position: [    0.1262626,    0.0000000,    0.0000000 ]
  distance:    0.0467955
  band:
  - # 1
    frequency:   -0.3605385439
  - # 2
    frequency:    1.2759113320
  - # 3
    frequency:    1.5670192463
  - # 4
    frequency:    2.2633991967
  - # 5
    frequency:    2.3098214891
  - # 6
    frequency:    2.6258697874
  - # 7
    frequency:    3.5404128501
  - # 8
    frequency:    4.7780277017
  - # 9
    frequency:    5.2982080451
  - # 10
    frequency:    5.7105274305
  - # 11
    frequency:    5.9304324470
  - # 12
    frequency:    6.5943333445
  - # 13
    frequency:    8.6867596401
  - # 14
    frequency:    9.2217092175
  - # 15
    frequency:   10.0850494711
  - # 16
    frequency:   11.4819234813
  - # 17
    frequency:   15.0180508352
  - # 18
    frequency:   16.2697255140
  - # 19
    frequency:   16.2826274623
  - # 20
    frequency:   34.3824026818
  - # 21
    frequency:   59.9059802594

- q-position: [    0.1313131,    0.0000000,    0.0000000 ]
  distance:    0.0486673
  band:
  - # 1
    frequency:   -0.4073369783
  - # 2
    frequency:    1.3435858872
  - # 3
    frequency:    1.5756816033
  - # 4
    frequency:    2.2980850240
  - # 5
    frequency:    2.3782247182
  - # 6
    frequency:    2.7292509765
  - # 7
    frequency:    3.6307399365
  - # 8
    frequency:    4.7843131555
  - # 9
    frequency:    5.3255607993
  - # 10
    frequency:    5.7434139018
  - # 11
    frequency:    5.9365324443
  - # 12
    frequency:    6.6301400772
  - # 13
    frequency:    8.6824304869
  - # 14
    frequency:    9.2486748231
  - # 15
    frequency:   10.0785725853
  - # 16
    frequency:   11.4637580827
  - # 17
    frequency:   15.0165109218
  - # 18
    frequency:   16.2625726241
  - # 19
    frequency:   16.2760412749
  - # 20
    frequency:   34.3746891397
  - # 21
    frequency:   59.9049710787

- q-position: [    0.1363636,    0.0000000,    0.0000000 ]
  distance:    0.0505391
  band:
  - # 1
    frequency:   -0.4507390723
  - # 2
    frequency:    1.4109717677
  - # 3
    frequency:    1.5827247718
  - # 4
    frequency:    2.3322731264
  - # 5
    frequency:    2.4482516189
  - # 6
    frequency:    2.8323741798
  - # 7
    frequency:    3.7174382290
  - # 8
    frequency:    4.7910487591
  - # 9
    frequency:    5.3527613257
  - # 10
    frequency:    5.7800522908
  - # 11
    frequency:    5.9430313383
  - # 12
    frequency:    6.6670215297
  - # 13
    frequency:    8.6782042218
  - # 14
    frequency:    9.2753112650
  - # 15
    frequency:   10.0721297665
  - # 16
    frequency:   11.4449313380
  - # 17
    frequency:   15.0148739672
  - # 18
    frequency:   16.2555194921
  - # 19
    frequency:   16.2695252800
  - # 20
    frequency:   34.3667876390
  - # 21
    frequency:   59.9039353254

- q-position: [    0.1414141,    0.0000000,    0.0000000 ]
  distance:    0.0524109
  band:
  - # 1
    frequency:   -0.4915031748
  - # 2
    frequency:    1.4779995256
  - # 3
    frequency:    1.5884552460
  - # 4
    frequency:    2.3661560131
  - # 5
    frequency:    2.5195121503
  - # 6
    frequency:    2.9350354789
  - # 7
    frequency:    3.8003809912
  - # 8
    frequency:    4.7982453809
  - # 9
    frequency:    5.3803112982
  - # 10
    frequency:    5.8198811395
  - # 11
    frequency:    5.9499602205
  - # 12
    frequency:    6.7050322771
  - # 13
    frequency:    8.6740926222
  - # 14
    frequency:    9.3014954227
  - # 15
    frequency:   10.0657626819
  - # 16
    frequency:   11.4254792116
  - # 17
    frequency:   15.0131335660
  - # 18
    frequency:   16.2485887219
  - # 19
    frequency:   16.2631036476
  - # 20
    frequency:   34.3587094103
  - # 21
    frequency:   59.9028747890

- q-position: [    0.1464646,    0.0000000,    0.0000000 ]
  distance:    0.0542827
  band:
  - # 1
    frequency:   -0.5300959085
  - # 2
    frequency:    1.5445850331
  - # 3
    frequency:    1.5931157310
  - # 4
    frequency:    2.3998862021
  - # 5
    frequency:    2.5916843799
  - # 6
    frequency:    3.0370741250
  - # 7
    frequency:    3.8794853676
  - # 8
    frequency:    4.8059144181
  - # 9
    frequency:    5.4087011724
  - # 10
    frequency:    5.8623210867
  - # 11
    frequency:    5.9573500714
  - # 12
    frequency:    6.7442241083
  - # 13
    frequency:    8.6701053323
  - # 14
    frequency:    9.3271039258
  - # 15
    frequency:   10.0595146430
  - # 16
    frequency:   11.4054438161
  - # 17
    frequency:   15.0112838434
  - # 18
    frequency:   16.2418002818
  - # 19
    frequency:   16.2567995368
  - # 20
    frequency:   34.3504657745
  - # 21
    frequency:   59.9017913588

- q-position: [    0.1515152,    0.0000000,    0.0000000 ]
  distance:    0.0561546
  band:
  - # 1
    frequency:   -0.5668168737
  - # 2
    frequency:    1.5968989297
  - # 3
    frequency:    1.6106282029
  - # 4
    frequency:    2.4336000516
  - # 5
    frequency:    2.6644996065
  - # 6
    frequency:    3.1383511396
  - # 7
    frequency:    3.9547162630
  - # 8
    frequency:    4.8140682036
  - # 9
    frequency:    5.4383658242
  - # 10
    frequency:    5.9068150446
  - # 11
    frequency:    5.9652311802
  - # 12
    frequency:    6.7846441603
  - # 13
    frequency:    8.6662497980
  - # 14
    frequency:    9.3520135619
  - # 15
    frequency:   10.0534300400
  - # 16
    frequency:   11.3848737197
  - # 17
    frequency:   15.0093196870
  - # 18
    frequency:   16.2351713047
  - # 19
    frequency:   16.2506350107
  - # 20
    frequency:   34.3420681161
  - # 21
    frequency:   59.9006870223