nqpoint: 300    
npath: 3      
segment_nqpoint:
- 100
- 100
- 100
labels:
- [ 'G', 'M' ]
- [ 'M', 'K' ]
- [ 'K', 'G' ]
reciprocal_lattice:
- [   0.30589807,   0.17661033,   0.00000000 ] # a*
- [   0.00000000,   0.35322067,   0.00000000 ] # b*
- [   0.00000000,   0.00000000,   0.04204442 ] # c*
natom: 6      
lattice:
- [     3.269062805551137,     0.000000000000000,     0.000000000000000 ] # a
- [    -1.634531402775568,     2.831091436170226,     0.000000000000000 ] # b
- [     0.000000000000000,     0.000000000000000,    23.784368356269976 ] # c
points:
- symbol: C # 1
  coordinates: [  0.000000000000000,  0.000000000000000,  0.526202380302710 ]
  mass: 12.010700
- symbol: H # 2
  coordinates: [  0.333332985432215,  0.666666983183674,  0.621600209634012 ]
  mass: 1.007940
- symbol: H # 3
  coordinates: [  0.666666984744047,  0.333332985985145,  0.378399790365988 ]
  mass: 1.007940
- symbol: Hf # 4
  coordinates: [  0.333332985432215,  0.666666983183674,  0.475976714368936 ]
  mass: 178.490000
- symbol: Hf # 5
  coordinates: [  0.666666984744047,  0.333332985985145,  0.579487775607586 ]
  mass: 178.490000
- symbol: O # 6
  coordinates: [  0.666666984744047,  0.333332985985145,  0.420022197437118 ]
  mass: 15.999400

phonon:
- q-position: [    0.0000000,    0.0000000,    0.0000000 ]
  distance:    0.0000000
  band:
  - # 1
    frequency:   -0.0000112701
  - # 2
    frequency:   -0.0000002669
  - # 3
    frequency:    0.0000093163
  - # 4
    frequency:    3.7899827917
  - # 5
    frequency:    3.7899827917
  - # 6
    frequency:    5.4768479059
  - # 7
    frequency:    7.8529909797
  - # 8
    frequency:    7.8529909797
  - # 9
    frequency:   13.0498047628
  - # 10
    frequency:   15.9887658615
  - # 11
    frequency:   15.9887658615
  - # 12
    frequency:   17.7603326571
  - # 13
    frequency:   19.5574911118
  - # 14
    frequency:   19.5574911118
  - # 15
    frequency:   27.8546074774
  - # 16
    frequency:   30.1917220784
  - # 17
    frequency:   30.1917220785
  - # 18
    frequency:  109.6165815970

- q-position: [    0.0050505,    0.0000000,    0.0000000 ]
  distance:    0.0017839
  band:
  - # 1
    frequency:    0.0011223239
  - # 2
    frequency:    0.0623006107
  - # 3
    frequency:    0.0958490933
  - # 4
    frequency:    3.7902431490
  - # 5
    frequency:    3.7908201692
  - # 6
    frequency:    5.4768213285
  - # 7
    frequency:    7.8531539759
  - # 8
    frequency:    7.8533138125
  - # 9
    frequency:   13.0490120242
  - # 10
    frequency:   15.9878293941
  - # 11
    frequency:   15.9890059845
  - # 12
    frequency:   17.7600815286
  - # 13
    frequency:   19.5573915010
  - # 14
    frequency:   19.5574449034
  - # 15
    frequency:   27.8544168831
  - # 16
    frequency:   30.1917651017
  - # 17
    frequency:   30.1921204364
  - # 18
    frequency:  109.6164580293

- q-position: [    0.0101010,    0.0000000,    0.0000000 ]
  distance:    0.0035679
  band:
  - # 1
    frequency:    0.0044861028
  - # 2
    frequency:    0.1245796844
  - # 3
    frequency:    0.1916722966
  - # 4
    frequency:    3.7910231285
  - # 5
    frequency:    3.7933278451
  - # 6
    frequency:    5.4767411560
  - # 7
    frequency:    7.8536425859
  - # 8
    frequency:    7.8542806475
  - # 9
    frequency:   13.0466360206
  - # 10
    frequency:   15.9850252458
  - # 11
    frequency:   15.9897258279
  - # 12
    frequency:   17.7593294057
  - # 13
    frequency:   19.5570939764
  - # 14
    frequency:   19.5573071255
  - # 15
    frequency:   27.8538453592
  - # 16
    frequency:   30.1918933201
  - # 17
    frequency:   30.1933141718
  - # 18
    frequency:  109.6160876918

- q-position: [    0.0151515,    0.0000000,    0.0000000 ]
  distance:    0.0053518
  band:
  - # 1
    frequency:    0.0100826299
  - # 2
    frequency:    0.1868157588
  - # 3
    frequency:    0.2874435786
  - # 4
    frequency:    3.7923194625
  - # 5
    frequency:    3.7974925242
  - # 6
    frequency:    5.4766060724
  - # 7
    frequency:    7.8544556760
  - # 8
    frequency:    7.8558865129
  - # 9
    frequency:   13.0426833645
  - # 10
    frequency:   15.9803691998
  - # 11
    frequency:   15.9909238178
  - # 12
    frequency:   17.7580800548
  - # 13
    frequency:   19.5566024411
  - # 14
    frequency:   19.5570803108
  - # 15
    frequency:   27.8528936816
  - # 16
    frequency:   30.1921041866
  - # 17
    frequency:   30.1952992798
  - # 18
    frequency:  109.6154716806

- q-position: [    0.0202020,    0.0000000,    0.0000000 ]
  distance:    0.0071358
  band:
  - # 1
    frequency:    0.0178974476
  - # 2
    frequency:    0.2489875184
  - # 3
    frequency:    0.3831366295
  - # 4
    frequency:    3.7941267344
  - # 5
    frequency:    3.8032922931
  - # 6
    frequency:    5.4764139033
  - # 7
    frequency:    7.8555913596
  - # 8
    frequency:    7.8581231811
  - # 9
    frequency:   13.0371649946
  - # 10
    frequency:   15.9738876306
  - # 11
    frequency:   15.9925973409
  - # 12
    frequency:   17.7563396814
  - # 13
    frequency:   19.5559233339
  - # 14
    frequency:   19.5567686498
  - # 15
    frequency:   27.8515631400
  - # 16
    frequency:   30.1923934769
  - # 17
    frequency:   30.1980691214
  - # 18
    frequency:  109.6146118175

- q-position: [    0.0252525,    0.0000000,    0.0000000 ]
  distance:    0.0089197
  band:
  - # 1
    frequency:    0.0279107045
  - # 2
    frequency:    0.3110738673
  - # 3
    frequency:    0.4787247241
  - # 4
    frequency:    3.7964374244
  - # 5
    frequency:    3.8106969787
  - # 6
    frequency:    5.4761616433
  - # 7
    frequency:    7.8570470029
  - # 8
    frequency:    7.8609792559
  - # 9
    frequency:   13.0300960535
  - # 10
    frequency:   15.9656176034
  - # 11
    frequency:   15.9947427582
  - # 12
    frequency:   17.7541168256
  - # 13
    frequency:   19.5550655311
  - # 14
    frequency:   19.5563779452
  - # 15
    frequency:   27.8498555323
  - # 16
    frequency:   30.1927553210
  - # 17
    frequency:   30.2016144754
  - # 18
    frequency:  109.6135106444

- q-position: [    0.0303030,    0.0000000,    0.0000000 ]
  distance:    0.0107037
  band:
  - # 1
    frequency:    0.0400975240
  - # 2
    frequency:    0.3730540001
  - # 3
    frequency:    0.5741805886
  - # 4
    frequency:    3.7992419705
  - # 5
    frequency:    3.8196686319
  - # 6
    frequency:    5.4758454941
  - # 7
    frequency:    7.8588192315
  - # 8
    frequency:    7.8644402943
  - # 9
    frequency:   13.0214957165
  - # 10
    frequency:   15.9556070066
  - # 11
    frequency:   15.9973554254
  - # 12
    frequency:   17.7514222210
  - # 13
    frequency:   19.5540402123
  - # 14
    frequency:   19.5559155483
  - # 15
    frequency:   27.8477731572
  - # 16
    frequency:   30.1931822467
  - # 17
    frequency:   30.2059236116
  - # 18
    frequency:  109.6121714132

- q-position: [    0.0353535,    0.0000000,    0.0000000 ]
  distance:    0.0124876
  band:
  - # 1
    frequency:    0.0544284505
  - # 2
    frequency:    0.4349074712
  - # 3
    frequency:    0.6694762728
  - # 4
    frequency:    3.8025288474
  - # 5
    frequency:    3.8301621209
  - # 6
    frequency:    5.4754609133
  - # 7
    frequency:    7.8609039405
  - # 8
    frequency:    7.8684889613
  - # 9
    frequency:   13.0113869726
  - # 10
    frequency:   15.9439147076
  - # 11
    frequency:   16.0004297185
  - # 12
    frequency:   17.7482686220
  - # 13
    frequency:   19.5528606908
  - # 14
    frequency:   19.5553902783
  - # 15
    frequency:   27.8453188046
  - # 16
    frequency:   30.1936652349
  - # 17
    frequency:   30.2109823823
  - # 18
    frequency:  109.6105980747

- q-position: [    0.0404040,    0.0000000,    0.0000000 ]
  distance:    0.0142715
  band:
  - # 1
    frequency:    0.0708699562
  - # 2
    frequency:    0.4966142606
  - # 3
    frequency:    0.7645830274
  - # 4
    frequency:    3.8062846598
  - # 5
    frequency:    3.8421258125
  - # 6
    frequency:    5.4750026713
  - # 7
    frequency:    7.8632963056
  - # 8
    frequency:    7.8731052167
  - # 9
    frequency:   12.9997963591
  - # 10
    frequency:   15.9306107252
  - # 11
    frequency:   16.0039590651
  - # 12
    frequency:   17.7446706060
  - # 13
    frequency:   19.5515422150
  - # 14
    frequency:   19.5548123254
  - # 15
    frequency:   27.8424957443
  - # 16
    frequency:   30.1941937857
  - # 17
    frequency:   30.2167743321
  - # 18
    frequency:  109.6087952639

- q-position: [    0.0454545,    0.0000000,    0.0000000 ]
  distance:    0.0160555
  band:
  - # 1
    frequency:    0.0893849874
  - # 2
    frequency:    0.5581548381
  - # 3
    frequency:    0.8594711882
  - # 4
    frequency:    3.8104942505
  - # 5
    frequency:    3.8555023229
  - # 6
    frequency:    5.4744649183
  - # 7
    frequency:    7.8659907974
  - # 8
    frequency:    7.8782665327
  - # 9
    frequency:   12.9867536513
  - # 10
    frequency:   15.9157764054
  - # 11
    frequency:   16.0079359813
  - # 12
    frequency:   17.7406443566
  - # 13
    frequency:   19.5501017410
  - # 14
    frequency:   19.5541931378
  - # 15
    frequency:   27.8393077120
  - # 16
    frequency:   30.1947559958
  - # 17
    frequency:   30.2232808237
  - # 18
    frequency:  109.6067682838

- q-position: [    0.0505051,    0.0000000,    0.0000000 ]
  distance:    0.0178394
  band:
  - # 1
    frequency:    0.1099335310
  - # 2
    frequency:    0.6195102229
  - # 3
    frequency:    0.9541100669
  - # 4
    frequency:    3.8151408219
  - # 5
    frequency:    3.8702293135
  - # 6
    frequency:    5.4738412584
  - # 7
    frequency:    7.8689811982
  - # 8
    frequency:    7.8839481397
  - # 9
    frequency:   12.9722915098
  - # 10
    frequency:   15.8995045912
  - # 11
    frequency:   16.0123521141
  - # 12
    frequency:   17.7362074350
  - # 13
    frequency:   19.5485576841
  - # 14
    frequency:   19.5535452936
  - # 15
    frequency:   27.8357588942
  - # 16
    frequency:   30.1953386451
  - # 17
    frequency:   30.2304811797
  - # 18
    frequency:  109.6045230855

- q-position: [    0.0555556,    0.0000000,    0.0000000 ]
  distance:    0.0196234
  band:
  - # 1
    frequency:    0.1324731826
  - # 2
    frequency:    0.6806620405
  - # 3
    frequency:    1.0484678500
  - # 4
    frequency:    3.8202060680
  - # 5
    frequency:    3.8862403123
  - # 6
    frequency:    5.4731248314
  - # 7
    frequency:    7.8722606210
  - # 8
    frequency:    7.8901232991
  - # 9
    frequency:   12.9564450894
  - # 10
    frequency:   15.8818997701
  - # 11
    frequency:   16.0171982896
  - # 12
    frequency:   17.7313785463
  - # 13
    frequency:   19.5469296503
  - # 14
    frequency:   19.5528823605
  - # 15
    frequency:   27.8318539111
  - # 16
    frequency:   30.1959272931
  - # 17
    frequency:   30.2383528358
  - # 18
    frequency:  109.6020662478

- q-position: [    0.0606061,    0.0000000,    0.0000000 ]
  distance:    0.0214073
  band:
  - # 1
    frequency:    0.1569596969
  - # 2
    frequency:    0.7415925739
  - # 3
    frequency:    1.1425115055
  - # 4
    frequency:    3.8256703180
  - # 5
    frequency:    3.9034655395
  - # 6
    frequency:    5.4723084003
  - # 7
    frequency:    7.8758215314
  - # 8
    frequency:    7.8967636003
  - # 9
    frequency:   12.9392516142
  - # 10
    frequency:   15.8630781889
  - # 11
    frequency:   16.0224645655
  - # 12
    frequency:   17.7261773074
  - # 13
    frequency:   19.5452381565
  - # 14
    frequency:   19.5522187415
  - # 15
    frequency:   27.8275977972
  - # 16
    frequency:   30.1965063828
  - # 17
    frequency:   30.2468715072
  - # 18
    frequency:  109.5994049526

- q-position: [    0.0656566,    0.0000000,    0.0000000 ]
  distance:    0.0231913
  band:
  - # 1
    frequency:    0.1833475063
  - # 2
    frequency:    0.8022848117
  - # 3
    frequency:    1.2362066972
  - # 4
    frequency:    3.8315126872
  - # 5
    frequency:    3.9218327202
  - # 6
    frequency:    5.4713844451
  - # 7
    frequency:    7.8796557723
  - # 8
    frequency:    7.9038392783
  - # 9
    frequency:   12.9207499250
  - # 10
    frequency:   15.8431679184
  - # 11
    frequency:   16.0281402894
  - # 12
    frequency:   17.7206240216
  - # 13
    frequency:   19.5435043409
  - # 14
    frequency:   19.5515695109
  - # 15
    frequency:   27.8229959815
  - # 16
    frequency:   30.1970593527
  - # 17
    frequency:   30.2560113630
  - # 18
    frequency:  109.5965469598

- q-position: [    0.0707071,    0.0000000,    0.0000000 ]
  distance:    0.0249752
  band:
  - # 1
    frequency:    0.2115901943
  - # 2
    frequency:    0.8627224896
  - # 3
    frequency:    1.3295177081
  - # 4
    frequency:    3.8377112360
  - # 5
    frequency:    3.9412678682
  - # 6
    frequency:    5.4703452612
  - # 7
    frequency:    7.8837545920
  - # 8
    frequency:    7.9113195502
  - # 9
    frequency:   12.9009800081
  - # 10
    frequency:   15.8223088543
  - # 11
    frequency:   16.0342141616
  - # 12
    frequency:   17.7147394661
  - # 13
    frequency:   19.5417496711
  - # 14
    frequency:   19.5509502400
  - # 15
    frequency:   27.8180542653
  - # 16
    frequency:   30.1975687547
  - # 17
    frequency:   30.2657452081
  - # 18
    frequency:  109.5935005794

- q-position: [    0.0757576,    0.0000000,    0.0000000 ]
  distance:    0.0267591
  band:
  - # 1
    frequency:    0.2416409133
  - # 2
    frequency:    0.9228901271
  - # 3
    frequency:    1.4224073712
  - # 4
    frequency:    3.8442431336
  - # 5
    frequency:    3.9616960285
  - # 6
    frequency:    5.4691830621
  - # 7
    frequency:    7.8881086743
  - # 8
    frequency:    7.9191729645
  - # 9
    frequency:   12.8799825141
  - # 10
    frequency:   15.8006526391
  - # 11
    frequency:   16.0406743016
  - # 12
    frequency:   17.7085446955
  - # 13
    frequency:   19.5399956541
  - # 14
    frequency:   19.5503768160
  - # 15
    frequency:   27.8127787992
  - # 16
    frequency:   30.1980163777
  - # 17
    frequency:   30.2760446708
  - # 18
    frequency:  109.5902746416

- q-position: [    0.0808081,    0.0000000,    0.0000000 ]
  distance:    0.0285431
  band:
  - # 1
    frequency:    0.2734527407
  - # 2
    frequency:    0.9827730582
  - # 3
    frequency:    1.5148370083
  - # 4
    frequency:    3.8510848253
  - # 5
    frequency:    3.9830419687
  - # 6
    frequency:    5.4678900852
  - # 7
    frequency:    7.8927081725
  - # 8
    frequency:    7.9273677622
  - # 9
    frequency:   12.8577982796
  - # 10
    frequency:   15.7783624886
  - # 11
    frequency:   16.0475083190
  - # 12
    frequency:   17.7020608644
  - # 13
    frequency:   19.5382635529
  - # 14
    frequency:   19.5498652539
  - # 15
    frequency:   27.8071760584
  - # 16
    frequency:   30.1983833757
  - # 17
    frequency:   30.2868803932
  - # 18
    frequency:  109.5868784655

- q-position: [    0.0858586,    0.0000000,    0.0000000 ]
  distance:    0.0303270
  band:
  - # 1
    frequency:    0.3069789684
  - # 2
    frequency:    1.0423574558
  - # 3
    frequency:    1.6067663764
  - # 4
    frequency:    3.8582122024
  - # 5
    frequency:    4.0052308125
  - # 6
    frequency:    5.4664587018
  - # 7
    frequency:    7.8975427457
  - # 8
    frequency:    7.9358722421
  - # 9
    frequency:   12.8344678657
  - # 10
    frequency:   15.7556129075
  - # 11
    frequency:   16.0547033874
  - # 12
    frequency:   17.6953090724
  - # 13
    frequency:   19.5365741147
  - # 14
    frequency:   19.5494315048
  - # 15
    frequency:   27.8012528180
  - # 16
    frequency:   30.1986503989
  - # 17
    frequency:   30.2982222226
  - # 18
    frequency:  109.5833218259

- q-position: [    0.0909091,    0.0000000,    0.0000000 ]
  distance:    0.0321110
  band:
  - # 1
    frequency:    0.3421733246
  - # 2
    frequency:    1.1016303493
  - # 3
    frequency:    1.6981536218
  - # 4
    frequency:    3.8656007721
  - # 5
    frequency:    4.0281886110
  - # 6
    frequency:    5.4648815292
  - # 7
    frequency:    7.9026015984
  - # 8
    frequency:    7.9446551279
  - # 9
    frequency:   12.8100311280
  - # 10
    frequency:   15.7325892787
  - # 11
    frequency:   16.0622463211
  - # 12
    frequency:   17.6883102296
  - # 13
    frequency:   19.5349473149
  - # 14
    frequency:   19.5490912619
  - # 15
    frequency:   27.7950161266
  - # 16
    frequency:   30.1987977280
  - # 17
    frequency:   30.3100394027
  - # 18
    frequency:  109.5796149188

- q-position: [    0.0959596,    0.0000000,    0.0000000 ]
  distance:    0.0338949
  band:
  - # 1
    frequency:    0.3789901296
  - # 2
    frequency:    1.1605796360
  - # 3
    frequency:    1.7889552400
  - # 4
    frequency:    3.8732258264
  - # 5
    frequency:    4.0518428488
  - # 6
    frequency:    5.4631515455
  - # 7
    frequency:    7.9078735232
  - # 8
    frequency:    7.9536859305
  - # 9
    frequency:   12.7845268368
  - # 10
    frequency:   15.7094873109
  - # 11
    frequency:   16.0701236532
  - # 12
    frequency:   17.6810849466
  - # 13
    frequency:   19.5334021199
  - # 14
    frequency:   19.5488597662
  - # 15
    frequency:   27.7884732799
  - # 16
    frequency:   30.1988054089
  - # 17
    frequency:   30.3223007616
  - # 18
    frequency:  109.5757683248

- q-position: [    0.1010101,    0.0000000,    0.0000000 ]
  distance:    0.0356789
  band:
  - # 1
    frequency:    0.4173843862
  - # 2
    frequency:    1.2191940845
  - # 3
    frequency:    1.8791260436
  - # 4
    frequency:    3.8810626089
  - # 5
    frequency:    4.0761228859
  - # 6
    frequency:    5.4612622076
  - # 7
    frequency:    7.9133469451
  - # 8
    frequency:    7.9629352998
  - # 9
    frequency:   12.7579923646
  - # 10
    frequency:   15.6865123300
  - # 11
    frequency:   16.0783217153
  - # 12
    frequency:   17.6736534453
  - # 13
    frequency:   19.5319562738
  - # 14
    frequency:   19.5487516141
  - # 15
    frequency:   27.7816317936
  - # 16
    frequency:   30.1986533886
  - # 17
    frequency:   30.3349748957
  - # 18
    frequency:  109.5717929723

- q-position: [    0.1060606,    0.0000000,    0.0000000 ]
  distance:    0.0374628
  band:
  - # 1
    frequency:    0.4573118112
  - # 2
    frequency:    1.2774633317
  - # 3
    frequency:    1.9686191353
  - # 4
    frequency:    3.8890864773
  - # 5
    frequency:    4.1009603359
  - # 6
    frequency:    5.4592075707
  - # 7
    frequency:    7.9190099696
  - # 8
    frequency:    7.9723753618
  - # 9
    frequency:   12.7304634601
  - # 10
    frequency:   15.6638784014
  - # 11
    frequency:   16.0868267175
  - # 12
    frequency:   17.6660354904
  - # 13
    frequency:   19.5306261091
  - # 14
    frequency:   19.5487805685
  - # 15
    frequency:   27.7744993767
  - # 16
    frequency:   30.1983216505
  - # 17
    frequency:   30.3480303474
  - # 18
    frequency:  109.5677000987

- q-position: [    0.1111111,    0.0000000,    0.0000000 ]
  distance:    0.0392467
  band:
  - # 1
    frequency:    0.4987288132
  - # 2
    frequency:    1.3353778718
  - # 3
    frequency:    2.0573858880
  - # 4
    frequency:    3.8972730604
  - # 5
    frequency:    4.1262893822
  - # 6
    frequency:    5.4569824117
  - # 7
    frequency:    7.9248504320
  - # 8
    frequency:    7.9819800334
  - # 9
    frequency:   12.7019741266
  - # 10
    frequency:   15.6418072734
  - # 11
    frequency:   16.0956248277
  - # 12
    frequency:   17.6582503408
  - # 13
    frequency:   19.5294263864
  - # 14
    frequency:   19.5489593762
  - # 15
    frequency:   27.7670839044
  - # 16
    frequency:   30.1977903482
  - # 17
    frequency:   30.3614357756
  - # 18
    frequency:  109.5635012110

- q-position: [    0.1161616,    0.0000000,    0.0000000 ]
  distance:    0.0410307
  band:
  - # 1
    frequency:    0.5415924221
  - # 2
    frequency:    1.3929290384
  - # 3
    frequency:    2.1453759300
  - # 4
    frequency:    3.9055984095
  - # 5
    frequency:    4.1520470359
  - # 6
    frequency:    5.4545823553
  - # 7
    frequency:    7.9308559490
  - # 8
    frequency:    7.9917253097
  - # 9
    frequency:   12.6725566209
  - # 10
    frequency:   15.6205271331
  - # 11
    frequency:   16.1047022492
  - # 12
    frequency:   17.6503167180
  - # 13
    frequency:   19.5283701613
  - # 14
    frequency:   19.5492995935
  - # 15
    frequency:   27.7593933916
  - # 16
    frequency:   30.1970399369
  - # 17
    frequency:   30.3751601170
  - # 18
    frequency:  109.5592080455

- q-position: [    0.1212121,    0.0000000,    0.0000000 ]
  distance:    0.0428146
  band:
  - # 1
    frequency:    0.5858601783
  - # 2
    frequency:    1.4501089782
  - # 3
    frequency:    2.2325371376
  - # 4
    frequency:    3.9140391417
  - # 5
    frequency:    4.1781733385
  - # 6
    frequency:    5.4520040029
  - # 7
    frequency:    7.9370139722
  - # 8
    frequency:    8.0015895184
  - # 9
    frequency:   12.6422415850
  - # 10
    frequency:   15.6002711728
  - # 11
    frequency:   16.1140452962
  - # 12
    frequency:   17.6422527897
  - # 13
    frequency:   19.5274686832
  - # 14
    frequency:   19.5498114209
  - # 15
    frequency:   27.7514359676
  - # 16
    frequency:   30.1960513016
  - # 17
    frequency:   30.3891727375
  - # 18
    frequency:  109.5548325268

- q-position: [    0.1262626,    0.0000000,    0.0000000 ]
  distance:    0.0445986
  band:
  - # 1
    frequency:    0.6314899885
  - # 2
    frequency:    1.5069106183
  - # 3
    frequency:    2.3188156339
  - # 4
    frequency:    3.9225725749
  - # 5
    frequency:    4.2046115122
  - # 6
    frequency:    5.4492450672
  - # 7
    frequency:    7.9433118416
  - # 8
    frequency:    8.0115535351
  - # 9
    frequency:   12.6110583207
  - # 10
    frequency:   15.5812759706
  - # 11
    frequency:   16.1236404660
  - # 12
    frequency:   17.6340761664
  - # 13
    frequency:   19.5267313224
  - # 14
    frequency:   19.5505035504
  - # 15
    frequency:   27.7432198505
  - # 16
    frequency:   30.1948058824
  - # 17
    frequency:   30.4034435725
  - # 18
    frequency:  109.5503867262

- q-position: [    0.1313131,    0.0000000,    0.0000000 ]
  distance:    0.0463825
  band:
  - # 1
    frequency:    0.6784399566
  - # 2
    frequency:    1.5633276254
  - # 3
    frequency:    2.4041557946
  - # 4
    frequency:    3.9311768534
  - # 5
    frequency:    4.2313080607
  - # 6
    frequency:    5.4463045098
  - # 7
    frequency:    7.9497368411
  - # 8
    frequency:    8.0216009543
  - # 9
    frequency:   12.5790352076
  - # 10
    frequency:   15.5637796921
  - # 11
    frequency:   16.1334745071
  - # 12
    frequency:   17.6258039104
  - # 13
    frequency:   19.5261655277
  - # 14
    frequency:   19.5513830264
  - # 15
    frequency:   27.7347533248
  - # 16
    frequency:   30.1932857940
  - # 17
    frequency:   30.4179432556
  - # 18
    frequency:  109.5458828201

- q-position: [    0.1363636,    0.0000000,    0.0000000 ]
  distance:    0.0481665
  band:
  - # 1
    frequency:    0.7266681946
  - # 2
    frequency:    1.6193543578
  - # 3
    frequency:    2.4885002637
  - # 4
    frequency:    3.9398310640
  - # 5
    frequency:    4.2582128237
  - # 6
    frequency:    5.4431826859
  - # 7
    frequency:    7.9562762530
  - # 8
    frequency:    8.0317182131
  - # 9
    frequency:   12.5462002603
  - # 10
    frequency:   15.5480201342
  - # 11
    frequency:   16.1435344816
  - # 12
    frequency:   17.6174525528
  - # 13
    frequency:   19.5257768133
  - # 14
    frequency:   19.5524551214
  - # 15
    frequency:   27.7260447184
  - # 16
    frequency:   30.1914739407
  - # 17
    frequency:   30.4326432343
  - # 18
    frequency:  109.5413330472

- q-position: [    0.1414141,    0.0000000,    0.0000000 ]
  distance:    0.0499504
  band:
  - # 1
    frequency:    0.7761326238
  - # 2
    frequency:    1.6749858110
  - # 3
    frequency:    2.5717899778
  - # 4
    frequency:    3.9485153402
  - # 5
    frequency:    4.2852789861
  - # 6
    frequency:    5.4398814945
  - # 7
    frequency:    7.9629174126
  - # 8
    frequency:    8.0418946613
  - # 9
    frequency:   12.5125818123
  - # 10
    frequency:   15.5342326340
  - # 11
    frequency:   16.1538078232
  - # 12
    frequency:   17.6090381189
  - # 13
    frequency:   19.5255687721
  - # 14
    frequency:   19.5537232289
  - # 15
    frequency:   27.7171023830
  - # 16
    frequency:   30.1893541260
  - # 17
    frequency:   30.4475158725
  - # 18
    frequency:  109.5367496672

- q-position: [    0.1464646,    0.0000000,    0.0000000 ]
  distance:    0.0517343
  band:
  - # 1
    frequency:    0.8267907706
  - # 2
    frequency:    1.7302175558
  - # 3
    frequency:    2.6539642043
  - # 4
    frequency:    3.9572109563
  - # 5
    frequency:    4.3124630426
  - # 6
    frequency:    5.4364045368
  - # 7
    frequency:    7.9696477621
  - # 8
    frequency:    8.0521225781
  - # 9
    frequency:   12.4782093035
  - # 10
    frequency:   15.5226478787
  - # 11
    frequency:   16.1642823874
  - # 12
    frequency:   17.6005761595
  - # 13
    frequency:   19.5255431159
  - # 14
    frequency:   19.5551887744
  - # 15
    frequency:   27.7079346759
  - # 16
    frequency:   30.1869111549
  - # 17
    frequency:   30.4625345405
  - # 18
    frequency:  109.5321449178

- q-position: [    0.1515152,    0.0000000,    0.0000000 ]
  distance:    0.0535183
  band:
  - # 1
    frequency:    0.8785995646
  - # 2
    frequency:    1.7850456709
  - # 3
    frequency:    2.7349605935
  - # 4
    frequency:    3.9659004090
  - # 5
    frequency:    4.3397247179
  - # 6
    frequency:    5.4327572840
  - # 7
    frequency:    7.9764549024
  - # 8
    frequency:    8.0623971316
  - # 9
    frequency:   12.4431141427
  - # 10
    frequency:   15.5134896589
  - # 11
    frequency:   16.1749464959
  - # 12
    frequency:   17.5920817866
  - # 13
    frequency:   19.5256997386
  - # 14
    frequency:   19.5568511454
  - # 15
    frequency:   27.6985499442
  - # 16
    frequency:   30.1841309307
  - # 17
    frequency:   30.4776736901
  - # 18
    frequency:  109.5275309733

- q-position: [    0.1565657,    0.0000000,    0.0000000 ]
  distance:    0.0553022
  band:
  - # 1
    frequency:    0.9315151445
  - # 2
    frequency:    1.8394666689
  - # 3
    frequency:    2.8147152494
  - # 4
    frequency:    3.9745674880
  - # 5
    frequency:    4.3670268400
  - # 6
    frequency:    5.4289472546
  - # 7
    frequency:    7.9833266426
  - # 8
    frequency:    8.0727162820
  - # 9
    frequency:   12.4073306071
  - # 10
    frequency:   15.5069726141
  - # 11
    frequency:   16.1857889727
  - # 12
    frequency:   17.5835697129
  - # 13
    frequency:   19.5260368011
  - # 14
    frequency:   19.5587076416
  - # 15
    frequency:   27.6889565118
  - # 16
    frequency:   30.1810005435
  - # 17
    frequency:   30.4929089166
  - # 18
    frequency:  109.5229199029

- q-position: [    0.1616162,    0.0000000,    0.0000000 ]
  distance:    0.0570862
  band:
  - # 1
    frequency:    0.9854926770
  - # 2
    frequency:    1.8934774180
  - # 3
    frequency:    2.8931628238
  - # 4
    frequency:    3.9831973332
  - # 5
    frequency:    4.3943351650
  - # 6
    frequency:    5.4249842045
  - # 7
    frequency:    7.9902510480
  - # 8
    frequency:    8.0830806295
  - # 9
    frequency:   12.3708967351
  - # 10
    frequency:   15.5033000244
  - # 11
    frequency:   16.1967991737
  - # 12
    frequency:   17.5750542927
  - # 13
    frequency:   19.5265508348
  - # 14
    frequency:   19.5607534457
  - # 15
    frequency:   27.6791626690
  - # 16
    frequency:   30.1775083522
  - # 17
    frequency:   30.5082170076
  - # 18
    frequency:  109.5183236296

- q-position: [    0.1666667,    0.0000000,    0.0000000 ]
  distance:    0.0588701
  band:
  - # 1
    frequency:    1.0404861940
  - # 2
    frequency:    1.9470750579
  - # 3
    frequency:    2.9702366372
  - # 4
    frequency:    3.9917764803
  - # 5
    frequency:    4.4216181465
  - # 6
    frequency:    5.4208803321
  - # 7
    frequency:    7.9972164830
  - # 8
    frequency:    8.0934932084
  - # 9
    frequency:   12.3338551684
  - # 10
    frequency:   15.5026617049
  - # 11
    frequency:   16.2079670074
  - # 12
    frequency:   17.5665495648
  - # 13
    frequency:   19.5272368612
  - # 14
    frequency:   19.5629816154
  - # 15
    frequency:   27.6691766647
  - # 16
    frequency:   30.1736440583
  - # 17
    frequency:   30.5235759776
  - # 18
    frequency:  109.5137538898

- q-position: [    0.1717172,    0.0000000,    0.0000000 ]
  distance:    0.0606541
  band:
  - # 1
    frequency:    1.0964484513
  - # 2
    frequency:    2.0002569122
  - # 3
    frequency:    3.0458688344
  - # 4
    frequency:    4.0002928945
  - # 5
    frequency:    4.4488466460
  - # 6
    frequency:    5.4166504984
  - # 7
    frequency:    8.0042116520
  - # 8
    frequency:    8.1039592336
  - # 9
    frequency:   12.2962538967
  - # 10
    frequency:   15.5052320564
  - # 11
    frequency:   16.2192829485
  - # 12
    frequency:   17.5580692953
  - # 13
    frequency:   19.5280885252
  - # 14
    frequency:   19.5653830964
  - # 15
    frequency:   27.6590067027
  - # 16
    frequency:   30.1693987716
  - # 17
    frequency:   30.5389650903
  - # 18
    frequency:  109.5092221938

- q-position: [    0.1767677,    0.0000000,    0.0000000 ]
  distance:    0.0624380
  band:
  - # 1
    frequency:    1.1533308138
  - # 2
    frequency:    2.0530203971
  - # 3
    frequency:    3.1199905803
  - # 4
    frequency:    4.0087359914
  - # 5
    frequency:    4.4759935745
  - # 6
    frequency:    5.4123124673
  - # 7
    frequency:    8.0112256348
  - # 8
    frequency:    8.1144858018
  - # 9
    frequency:   12.2581468619
  - # 10
    frequency:   15.5111683234
  - # 11
    frequency:   16.2307380437
  - # 12
    frequency:   17.5496270197
  - # 13
    frequency:   19.5290982387
  - # 14