nqpoint: 300    
npath: 3      
segment_nqpoint:
- 100
- 100
- 100
labels:
- [ 'G', 'M' ]
- [ 'M', 'K' ]
- [ 'K', 'G' ]
reciprocal_lattice:
- [   0.31787119,   0.18352302,   0.00000000 ] # a*
- [   0.00000000,   0.36704604,   0.00000000 ] # b*
- [   0.00000000,   0.00000000,   0.03804872 ] # c*
natom: 8      
lattice:
- [     3.145928359665709,     0.000000000000000,     0.000000000000000 ] # a
- [    -1.572964179832855,     2.724453877923231,     0.000000000000000 ] # b
- [     0.000000000000000,     0.000000000000000,    26.282094004595535 ] # c
points:
- symbol: C # 1
  coordinates: [  0.000000000000000,  0.000000000000000,  0.470394842079834 ]
  mass: 12.010700
- symbol: C # 2
  coordinates: [  0.333332985432215,  0.666666983183674,  0.611739212963789 ]
  mass: 12.010700
- symbol: H # 3
  coordinates: [  0.666666984744048,  0.333332985985145,  0.342438467742575 ]
  mass: 1.007940
- symbol: N # 4
  coordinates: [  0.333332985432215,  0.666666983183674,  0.564357215544134 ]
  mass: 14.006700
- symbol: O # 5
  coordinates: [  0.333332985432215,  0.666666983183674,  0.657561532257426 ]
  mass: 15.999400
- symbol: O # 6
  coordinates: [  0.666666984744048,  0.333332985985145,  0.379946062358084 ]
  mass: 15.999400
- symbol: Ti # 7
  coordinates: [  0.333332985432215,  0.666666983183674,  0.427607508258052 ]
  mass: 47.867000
- symbol: Ti # 8
  coordinates: [  0.666666984744048,  0.333332985985145,  0.513152665029077 ]
  mass: 47.867000

phonon:
- q-position: [    0.0000000,    0.0000000,    0.0000000 ]
  distance:    0.0000000
  band:
  - # 1
    frequency:   -1.2589102429
  - # 2
    frequency:   -1.2589102428
  - # 3
    frequency:   -0.0000056385
  - # 4
    frequency:   -0.0000009466
  - # 5
    frequency:    0.0000056972
  - # 6
    frequency:    5.3934901637
  - # 7
    frequency:    5.3934901637
  - # 8
    frequency:    7.0854696207
  - # 9
    frequency:    7.4294731366
  - # 10
    frequency:    7.4294731366
  - # 11
    frequency:    8.0879969895
  - # 12
    frequency:    8.0879969895
  - # 13
    frequency:   11.3630534786
  - # 14
    frequency:   13.1869212420
  - # 15
    frequency:   13.1869212421
  - # 16
    frequency:   14.2376095904
  - # 17
    frequency:   17.2204440915
  - # 18
    frequency:   17.2204440915
  - # 19
    frequency:   18.2439622531
  - # 20
    frequency:   18.7867073916
  - # 21
    frequency:   18.7867073916
  - # 22
    frequency:   38.4962061858
  - # 23
    frequency:   69.4179872519
  - # 24
    frequency:  112.3703336878

- q-position: [    0.0050505,    0.0000000,    0.0000000 ]
  distance:    0.0018538
  band:
  - # 1
    frequency:   -1.2577593009
  - # 2
    frequency:   -1.2554741890
  - # 3
    frequency:   -0.1065672518
  - # 4
    frequency:    0.0955483947
  - # 5
    frequency:    0.1685426557
  - # 6
    frequency:    5.3942711034
  - # 7
    frequency:    5.3953947672
  - # 8
    frequency:    7.0833889109
  - # 9
    frequency:    7.4299650149
  - # 10
    frequency:    7.4323743810
  - # 11
    frequency:    8.0883541101
  - # 12
    frequency:    8.0891169854
  - # 13
    frequency:   11.3624990983
  - # 14
    frequency:   13.1855315318
  - # 15
    frequency:   13.1875311449
  - # 16
    frequency:   14.2406919323
  - # 17
    frequency:   17.2205033722
  - # 18
    frequency:   17.2207624430
  - # 19
    frequency:   18.2439464120
  - # 20
    frequency:   18.7872612384
  - # 21
    frequency:   18.7878233553
  - # 22
    frequency:   38.4962282740
  - # 23
    frequency:   69.4164170617
  - # 24
    frequency:  112.3701836984

- q-position: [    0.0101010,    0.0000000,    0.0000000 ]
  distance:    0.0037075
  band:
  - # 1
    frequency:   -1.2543316104
  - # 2
    frequency:   -1.2452010659
  - # 3
    frequency:   -0.1299060747
  - # 4
    frequency:    0.1912471616
  - # 5
    frequency:    0.2922173360
  - # 6
    frequency:    5.3966089603
  - # 7
    frequency:    5.4010914110
  - # 8
    frequency:    7.0773574036
  - # 9
    frequency:    7.4314323511
  - # 10
    frequency:    7.4408671727
  - # 11
    frequency:    8.0894270826
  - # 12
    frequency:    8.0924699621
  - # 13
    frequency:   11.3608384104
  - # 14
    frequency:   13.1814175617
  - # 15
    frequency:   13.1893582599
  - # 16
    frequency:   14.2498758390
  - # 17
    frequency:   17.2206810037
  - # 18
    frequency:   17.2217165932
  - # 19
    frequency:   18.2438971912
  - # 20
    frequency:   18.7889178622
  - # 21
    frequency:   18.7911623763
  - # 22
    frequency:   38.4962943682
  - # 23
    frequency:   69.4117110712
  - # 24
    frequency:  112.3697333637

- q-position: [    0.0151515,    0.0000000,    0.0000000 ]
  distance:    0.0055613
  band:
  - # 1
    frequency:   -1.2486995493
  - # 2
    frequency:   -1.2281854486
  - # 3
    frequency:   -0.1458254889
  - # 4
    frequency:    0.2872301932
  - # 5
    frequency:    0.4202028933
  - # 6
    frequency:    5.4004889121
  - # 7
    frequency:    5.4105290382
  - # 8
    frequency:    7.0679288851
  - # 9
    frequency:    7.4338504218
  - # 10
    frequency:    7.4543967828
  - # 11
    frequency:    8.0912206460
  - # 12
    frequency:    8.0980349484
  - # 13
    frequency:   11.3580787294
  - # 14
    frequency:   13.1747376104
  - # 15
    frequency:   13.1923948285
  - # 16
    frequency:   14.2649792505
  - # 17
    frequency:   17.2209763561
  - # 18
    frequency:   17.2233038343
  - # 19
    frequency:   18.2438095454
  - # 20
    frequency:   18.7916625589
  - # 21
    frequency:   18.7966978927
  - # 22
    frequency:   38.4964039587
  - # 23
    frequency:   69.4038829977
  - # 24
    frequency:  112.3689815942

- q-position: [    0.0202020,    0.0000000,    0.0000000 ]
  distance:    0.0074151
  band:
  - # 1
    frequency:   -1.2409741198
  - # 2
    frequency:   -1.2045511885
  - # 3
    frequency:   -0.1596170217
  - # 4
    frequency:    0.3836007090
  - # 5
    frequency:    0.5516342286
  - # 6
    frequency:    5.4058864667
  - # 7
    frequency:    5.4236240000
  - # 8
    frequency:    7.0558252860
  - # 9
    frequency:    7.4371785969
  - # 10
    frequency:    7.4722397592
  - # 11
    frequency:    8.0937423840
  - # 12
    frequency:    8.1057772019
  - # 13
    frequency:   11.3542321012
  - # 14
    frequency:   13.1657334394
  - # 15
    frequency:   13.1966279933
  - # 16
    frequency:   14.2857210776
  - # 17
    frequency:   17.2213883848
  - # 18
    frequency:   17.2255196745
  - # 19
    frequency:   18.2436752194
  - # 20
    frequency:   18.7954709726
  - # 21
    frequency:   18.8043858025
  - # 22
    frequency:   38.4965562022
  - # 23
    frequency:   69.3929556283
  - # 24
    frequency:  112.3679266052

- q-position: [    0.0252525,    0.0000000,    0.0000000 ]
  distance:    0.0092688
  band:
  - # 1
    frequency:   -1.2312920873
  - # 2
    frequency:   -1.1744057351
  - # 3
    frequency:   -0.1709732511
  - # 4
    frequency:    0.4804212720
  - # 5
    frequency:    0.6856031313
  - # 6
    frequency:    5.4127677749
  - # 7
    frequency:    5.4402621204
  - # 8
    frequency:    7.0417732715
  - # 9
    frequency:    7.4413612009
  - # 10
    frequency:    7.4936674084
  - # 11
    frequency:    8.0970022492
  - # 12
    frequency:    8.1156485286
  - # 13
    frequency:   11.3493150904
  - # 14
    frequency:   13.1547032408
  - # 15
    frequency:   13.2020399082
  - # 16
    frequency:   14.3117487104
  - # 17
    frequency:   17.2219156387
  - # 18
    frequency:   17.2283578681
  - # 19
    frequency:   18.2434829620
  - # 20
    frequency:   18.8003093208
  - # 21
    frequency:   18.8141647259
  - # 22
    frequency:   38.4967499298
  - # 23
    frequency:   69.3789607078
  - # 24
    frequency:  112.3665659646

- q-position: [    0.0303030,    0.0000000,    0.0000000 ]
  distance:    0.0111226
  band:
  - # 1
    frequency:   -1.2198009058
  - # 2
    frequency:   -1.1377862393
  - # 3
    frequency:   -0.1782372081
  - # 4
    frequency:    0.5777092168
  - # 5
    frequency:    0.8215930006
  - # 6
    frequency:    5.4210900591
  - # 7
    frequency:    5.4603013876
  - # 8
    frequency:    7.0264102527
  - # 9
    frequency:    7.4463287145
  - # 10
    frequency:    7.5180398784
  - # 11
    frequency:    8.1010118893
  - # 12
    frequency:    8.1275877414
  - # 13
    frequency:   11.3433484913
  - # 14
    frequency:   13.1419730897
  - # 15
    frequency:   13.2086078893
  - # 16
    frequency:   14.3426671874
  - # 17
    frequency:   17.2225562713
  - # 18
    frequency:   17.2318104574
  - # 19
    frequency:   18.2432187974
  - # 20
    frequency:   18.8061347070
  - # 21
    frequency:   18.8259563956
  - # 22
    frequency:   38.4969836595
  - # 23
    frequency:   69.3619387821
  - # 24
    frequency:  112.3648966576

- q-position: [    0.0353535,    0.0000000,    0.0000000 ]
  distance:    0.0129764
  band:
  - # 1
    frequency:   -1.2066437671
  - # 2
    frequency:   -1.0946059792
  - # 3
    frequency:   -0.1790029583
  - # 4
    frequency:    0.6754376897
  - # 5
    frequency:    0.9592541186
  - # 6
    frequency:    5.4308021481
  - # 7
    frequency:    5.4835751014
  - # 8
    frequency:    7.0102546651
  - # 9
    frequency:    7.4519993083
  - # 10
    frequency:    7.5448359971
  - # 11
    frequency:    8.1057837730
  - # 12
    frequency:    8.1415212638
  - # 13
    frequency:   11.3363569716
  - # 14
    frequency:   13.1278717007
  - # 15
    frequency:   13.2163046060
  - # 16
    frequency:   14.3780652151
  - # 17
    frequency:   17.2233080547
  - # 18
    frequency:   17.2358678246
  - # 19
    frequency:   18.2428663316
  - # 20
    frequency:   18.8128955182
  - # 21
    frequency:   18.8396661871
  - # 22
    frequency:   38.4972556111
  - # 23
    frequency:   69.3419389993
  - # 24
    frequency:  112.3629151698

- q-position: [    0.0404040,    0.0000000,    0.0000000 ]
  distance:    0.0148301
  band:
  - # 1
    frequency:   -1.1919468908
  - # 2
    frequency:   -1.0446081404
  - # 3
    frequency:   -0.1695918335
  - # 4
    frequency:    0.7735414555
  - # 5
    frequency:    1.0982950917
  - # 6
    frequency:    5.4418451071
  - # 7
    frequency:    5.5098952835
  - # 8
    frequency:    6.9937125555
  - # 9
    frequency:    7.4582806903
  - # 10
    frequency:    7.5736468280
  - # 11
    frequency:    8.1113301204
  - # 12
    frequency:    8.1573638815
  - # 13
    frequency:   11.3283686599
  - # 14
    frequency:   13.1127111496
  - # 15
    frequency:   13.2250983088
  - # 16
    frequency:   14.4175353571
  - # 17
    frequency:   17.2241683972
  - # 18
    frequency:   17.2405187540
  - # 19
    frequency:   18.2424070741
  - # 20
    frequency:   18.8205319027
  - # 21
    frequency:   18.8551838021
  - # 22
    frequency:   38.4975637245
  - # 23
    frequency:   69.3190188685
  - # 24
    frequency:  112.3606175857

- q-position: [    0.0454545,    0.0000000,    0.0000000 ]
  distance:    0.0166839
  band:
  - # 1
    frequency:   -1.1758104622
  - # 2
    frequency:   -0.9873305889
  - # 3
    frequency:   -0.1427121673
  - # 4
    frequency:    0.8719258324
  - # 5
    frequency:    1.2384494389
  - # 6
    frequency:    5.4541529507
  - # 7
    frequency:    5.5390561563
  - # 8
    frequency:    6.9770976988
  - # 9
    frequency:    7.4650722395
  - # 10
    frequency:    7.6041557340
  - # 11
    frequency:    8.1176616494
  - # 12
    frequency:    8.1750196424
  - # 13
    frequency:   11.3194146897
  - # 14
    frequency:   13.0967741704
  - # 15
    frequency:   13.2349530910
  - # 16
    frequency:   14.4606877635
  - # 17
    frequency:   17.2251343629
  - # 18
    frequency:   17.2457505010
  - # 19
    frequency:   18.2418207572
  - # 20
    frequency:   18.8289763260
  - # 21
    frequency:   18.8723841094
  - # 22
    frequency:   38.4979056809
  - # 23
    frequency:   69.2932439785
  - # 24
    frequency:  112.3579997032

- q-position: [    0.0505051,    0.0000000,    0.0000000 ]
  distance:    0.0185377
  band:
  - # 1
    frequency:   -1.1583036570
  - # 2
    frequency:   -0.9220836485
  - # 3
    frequency:   -0.0703391765
  - # 4
    frequency:    0.9704768182
  - # 5
    frequency:    1.3794718958
  - # 6
    frequency:    5.4676534242
  - # 7
    frequency:    5.5708375092
  - # 8
    frequency:    6.9606532937
  - # 9
    frequency:    7.4722673802
  - # 10
    frequency:    7.6361169223
  - # 11
    frequency:    8.1247861680
  - # 12
    frequency:    8.1943828951
  - # 13
    frequency:   11.3095287123
  - # 14
    frequency:   13.0803072722
  - # 15
    frequency:   13.2458291807
  - # 16
    frequency:   14.5071581729
  - # 17
    frequency:   17.2262026944
  - # 18
    frequency:   17.2515488691
  - # 19
    frequency:   18.2410856433
  - # 20
    frequency:   18.8381541974
  - # 21
    frequency:   18.8911281429
  - # 22
    frequency:   38.4982789265
  - # 23
    frequency:   69.2646876778
  - # 24
    frequency:  112.3550571621

- q-position: [    0.0555556,    0.0000000,    0.0000000 ]
  distance:    0.0203914
  band:
  - # 1
    frequency:   -1.1394632947
  - # 2
    frequency:   -0.8479477048
  - # 3
    frequency:    0.1411599739
  - # 4
    frequency:    1.0690707004
  - # 5
    frequency:    1.5211423830
  - # 6
    frequency:    5.4822688392
  - # 7
    frequency:    5.6050077868
  - # 8
    frequency:    6.9445707250
  - # 9
    frequency:    7.4797561347
  - # 10
    frequency:    7.6693370138
  - # 11
    frequency:    8.1327070561
  - # 12
    frequency:    8.2153394522
  - # 13
    frequency:   11.2987463952
  - # 14
    frequency:   13.0635183143
  - # 15
    frequency:   13.2576832593
  - # 16
    frequency:   14.5566115258
  - # 17
    frequency:   17.2273698376
  - # 18
    frequency:   17.2578982920
  - # 19
    frequency:   18.2401788133
  - # 20
    frequency:   18.8479845644
  - # 21
    frequency:   18.9112642477
  - # 22
    frequency:   38.4986806991
  - # 23
    frequency:   69.2334307175
  - # 24
    frequency:  112.3517855844

- q-position: [    0.0606061,    0.0000000,    0.0000000 ]
  distance:    0.0222452
  band:
  - # 1
    frequency:   -1.1192950874
  - # 2
    frequency:   -0.7638083678
  - # 3
    frequency:    0.2397841886
  - # 4
    frequency:    1.1675820062
  - # 5
    frequency:    1.6632689302
  - # 6
    frequency:    5.4979169480
  - # 7
    frequency:    5.6413267621
  - # 8
    frequency:    6.9290044974
  - # 9
    frequency:    7.4874277711
  - # 10
    frequency:    7.7036605819
  - # 11
    frequency:    8.1414217039
  - # 12
    frequency:    8.2377678538
  - # 13
    frequency:   11.2871049190
  - # 14
    frequency:   13.0465771200
  - # 15
    frequency:   13.2704688029
  - # 16
    frequency:   14.6087425850
  - # 17
    frequency:   17.2286319696
  - # 18
    frequency:   17.2647819203
  - # 19
    frequency:   18.2390764353
  - # 20
    frequency:   18.8583808667
  - # 21
    frequency:   18.9326293618
  - # 22
    frequency:   38.4991080561
  - # 23
    frequency:   69.1995608603
  - # 24
    frequency:  112.3481807263

- q-position: [    0.0656566,    0.0000000,    0.0000000 ]
  distance:    0.0240990
  band:
  - # 1
    frequency:   -1.0977762746
  - # 2
    frequency:   -0.6684233508
  - # 3
    frequency:    0.3349658442
  - # 4
    frequency:    1.2658893083
  - # 5
    frequency:    1.8056873863
  - # 6
    frequency:    5.5145118426
  - # 7
    frequency:    5.6795476827
  - # 8
    frequency:    6.9140838038
  - # 9
    frequency:    7.4951734452
  - # 10
    frequency:    7.7389592509
  - # 11
    frequency:    8.1509199890
  - # 12
    frequency:    8.2615407045
  - # 13
    frequency:   11.2746424871
  - # 14
    frequency:   13.0296179340
  - # 15
    frequency:   13.2841364406
  - # 16
    frequency:   14.6632747351
  - # 17
    frequency:   17.2299850269
  - # 18
    frequency:   17.2721817117
  - # 19
    frequency:   18.2377540152
  - # 20
    frequency:   18.8692517434
  - # 21
    frequency:   18.9550504142
  - # 22
    frequency:   38.4995579049
  - # 23
    frequency:   69.1631724569
  - # 24
    frequency:  112.3442386390

- q-position: [    0.0707071,    0.0000000,    0.0000000 ]
  distance:    0.0259528
  band:
  - # 1
    frequency:   -1.0748585525
  - # 2
    frequency:   -0.5602089171
  - # 3
    frequency:    0.4356172748
  - # 4
    frequency:    1.3638789238
  - # 5
    frequency:    1.9482584378
  - # 6
    frequency:    5.5319648634
  - # 7
    frequency:    5.7194188031
  - # 8
    frequency:    6.8999215358
  - # 9
    frequency:    7.5028887257
  - # 10
    frequency:    7.7751236160
  - # 11
    frequency:    8.1611828881
  - # 12
    frequency:    8.2865260511
  - # 13
    frequency:   11.2613978619
  - # 14
    frequency:   13.0127428342
  - # 15
    frequency:   13.2986343284
  - # 16
    frequency:   14.7199578266
  - # 17
    frequency:   17.2314247372
  - # 18
    frequency:   17.2800785217
  - # 19
    frequency:   18.2361866339
  - # 20
    frequency:   18.8805018867
  - # 21
    frequency:   18.9783458197
  - # 22
    frequency:   38.5000270354
  - # 23
    frequency:   69.1243659927
  - # 24
    frequency:  112.3399558363

- q-position: [    0.0757576,    0.0000000,    0.0000000 ]
  distance:    0.0278065
  band:
  - # 1
    frequency:   -1.0504704792
  - # 2
    frequency:   -0.4349310144
  - # 3
    frequency:    0.5439100379
  - # 4
    frequency:    1.4614468645
  - # 5
    frequency:    2.0908631408
  - # 6
    frequency:    5.5501855036
  - # 7
    frequency:    5.7606842327
  - # 8
    frequency:    6.8866215065
  - # 9
    frequency:    7.5104758825
  - # 10
    frequency:    7.8120572918
  - # 11
    frequency:    8.1721813253
  - # 12
    frequency:    8.3125887673
  - # 13
    frequency:   11.2474099375
  - # 14
    frequency:   12.9960255050
  - # 15
    frequency:   13.3139085307
  - # 16
    frequency:   14.7785656402
  - # 17
    frequency:   17.2329466510
  - # 18
    frequency:   17.2884521969
  - # 19
    frequency:   18.2343491734
  - # 20
    frequency:   18.8920329342
  - # 21
    frequency:   19.0023270496
  - # 22
    frequency:   38.5005121524
  - # 23
    frequency:   69.0832476081
  - # 24
    frequency:  112.3353294679

- q-position: [    0.0808081,    0.0000000,    0.0000000 ]
  distance:    0.0296603
  band:
  - # 1
    frequency:   -1.0245188045
  - # 2
    frequency:   -0.2724083481
  - # 3
    frequency:    0.6578977936
  - # 4
    frequency:    1.5584995060
  - # 5
    frequency:    2.2333980126
  - # 6
    frequency:    5.5690822986
  - # 7
    frequency:    5.8030840509
  - # 8
    frequency:    6.8742845180
  - # 9
    frequency:    7.5178458330
  - # 10
    frequency:    7.8496725373
  - # 11
    frequency:    8.1838753528
  - # 12
    frequency:    8.3395919158
  - # 13
    frequency:   11.2327173586
  - # 14
    frequency:   12.9795150009
  - # 15
    frequency:   13.3299034087
  - # 16
    frequency:   14.8388933230
  - # 17
    frequency:   17.2345461751
  - # 18
    frequency:   17.2972816663
  - # 19
    frequency:   18.2322165378
  - # 20
    frequency:   18.9037443911
  - # 21
    frequency:   19.0268002568
  - # 22
    frequency:   38.5010099104
  - # 23
    frequency:   69.0399285943
  - # 24
    frequency:  112.3303574959

- q-position: [    0.0858586,    0.0000000,    0.0000000 ]
  distance:    0.0315141
  band:
  - # 1
    frequency:   -0.9968883646
  - # 2
    frequency:    0.1857845663
  - # 3
    frequency:    0.7734118549
  - # 4
    frequency:    1.6549534275
  - # 5
    frequency:    2.3757703408
  - # 6
    frequency:    5.5885636867
  - # 7
    frequency:    5.8463536484
  - # 8
    frequency:    6.8630137589
  - # 9
    frequency:    7.5249196538
  - # 10
    frequency:    7.8878870506
  - # 11
    frequency:    8.1962137380
  - # 12
    frequency:    8.3673980579
  - # 13
    frequency:   11.2173581930
  - # 14
    frequency:   12.9632392959
  - # 15
    frequency:   13.3465620090
  - # 16
    frequency:   14.9007549871
  - # 17
    frequency:   17.2362186065
  - # 18
    frequency:   17.3065450313
  - # 19
    frequency:   18.2297638696
  - # 20
    frequency:   18.9155345737
  - # 21
    frequency:   19.0515679368
  - # 22
    frequency:   38.5015169479
  - # 23
    frequency:   68.9945248692
  - # 24
    frequency:  112.3250388717

- q-position: [    0.0909091,    0.0000000,    0.0000000 ]
  distance:    0.0333678
  band:
  - # 1
    frequency:   -0.9674402525
  - # 2
    frequency:    0.3780794386
  - # 3
    frequency:    0.8869742155
  - # 4
    frequency:    1.7507347819
  - # 5
    frequency:    2.5178940315
  - # 6
    frequency:    5.6085388326
  - # 7
    frequency:    5.8902222778
  - # 8
    frequency:    6.8529198960
  - # 9
    frequency:    7.5316296022
  - # 10
    frequency:    7.9266216394
  - # 11
    frequency:    8.2091340091
  - # 12
    frequency:    8.3958704891
  - # 13
    frequency:   11.2013696604
  - # 14
    frequency:   12.9472085172
  - # 15
    frequency:   13.3638264497
  - # 16
    frequency:   14.9639815605
  - # 17
    frequency:   17.2379591668
  - # 18
    frequency:   17.3162196536
  - # 19
    frequency:   18.2269667654
  - # 20
    frequency:   18.9273015671
  - # 21
    frequency:   19.0764306039
  - # 22
    frequency:   38.5020299228
  - # 23
    frequency:   68.9471564345
  - # 24
    frequency:  112.3193737126

- q-position: [    0.0959596,    0.0000000,    0.0000000 ]
  distance:    0.0352216
  band:
  - # 1
    frequency:   -0.9360079186
  - # 2
    frequency:    0.5064368965
  - # 3
    frequency:    0.9969092632
  - # 4
    frequency:    1.8457784581
  - # 5
    frequency:    2.6596860892
  - # 6
    frequency:    5.6289184047
  - # 7
    frequency:    5.9344108291
  - # 8
    frequency:    6.8441261047
  - # 9
    frequency:    7.5379196254
  - # 10
    frequency:    7.9657985551
  - # 11
    frequency:    8.2225629656
  - # 12
    frequency:    8.4248743845
  - # 13
    frequency:   11.1847879211
  - # 14
    frequency:   12.9314178322
  - # 15
    frequency:   13.3816383004
  - # 16
    frequency:   15.0284189142
  - # 17
    frequency:   17.2397630364
  - # 18
    frequency:   17.3262822386
  - # 19
    frequency:   18.2238014907
  - # 20
    frequency:   18.9389441854
  - # 21
    frequency:   19.1011884680
  - # 22
    frequency:   38.5025455469
  - # 23
    frequency:   68.8979468196
  - # 24
    frequency:  112.3133634740

- q-position: [    0.1010101,    0.0000000,    0.0000000 ]
  distance:    0.0370754
  band:
  - # 1
    frequency:   -0.9023906518
  - # 2
    frequency:    0.6156529065
  - # 3
    frequency:    1.1028155140
  - # 4
    frequency:    1.9400271990
  - # 5
    frequency:    2.8010636977
  - # 6
    frequency:    5.6496152992
  - # 7
    frequency:    5.9786289126
  - # 8
    frequency:    6.8367731577
  - # 9
    frequency:    7.5437453793
  - # 10
    frequency:    8.0053403351
  - # 11
    frequency:    8.2364176312
  - # 12
    frequency:    8.4542778433
  - # 13
    frequency:   11.1676479226
  - # 14
    frequency:   12.9158499920
  - # 15
    frequency:   13.3999389527
  - # 16
    frequency:   15.0939262554
  - # 17
    frequency:   17.2416253885
  - # 18
    frequency:   17.3367089138
  - # 19
    frequency:   18.2202451932
  - # 20
    frequency:   18.9503629287
  - # 21
    frequency:   19.1256430958
  - # 22
    frequency:   38.5030606205
  - # 23
    frequency:   68.8470225142
  - # 24
    frequency:  112.3070111164

- q-position: [    0.1060606,    0.0000000,    0.0000000 ]
  distance:    0.0389291
  band:
  - # 1
    frequency:   -0.8663434983
  - # 2
    frequency:    0.7164209514
  - # 3
    frequency:    1.2048718001
  - # 4
    frequency:    2.0334307732
  - # 5
    frequency:    2.9419418160
  - # 6
    frequency:    5.6705453055
  - # 7
    frequency:    6.0225714662
  - # 8
    frequency:    6.8310245141
  - # 9
    frequency:    7.5490738094
  - # 10
    frequency:    8.0451690385
  - # 11
    frequency:    8.2506065857
  - # 12
    frequency:    8.4839528284
  - # 13
    frequency:   11.1499833021
  - # 14
    frequency:   12.9004775568
  - # 15
    frequency:   13.4186699779
  - # 16
    frequency:   15.1603747596
  - # 17
    frequency:   17.2435414227
  - # 18
    frequency:   17.3474753017
  - # 19
    frequency:   18.2162761163
  - # 20
    frequency:   18.9614609251
  - # 21
    frequency:   19.1495990412
  - # 22
    frequency:   38.5035720658
  - # 23
    frequency:   68.7945123934
  - # 24
    frequency:  112.3003212654

- q-position: [    0.1111111,    0.0000000,    0.0000000 ]
  distance:    0.0407829
  band:
  - # 1
    frequency:   -0.8275619541
  - # 2
    frequency:    0.8130238273
  - # 3
    frequency:    1.3034460998
  - # 4
    frequency:    2.1259452432
  - # 5
    frequency:    3.0822311850
  - # 6
    frequency:    5.6916277078
  - # 7
    frequency:    6.0659153428
  - # 8
    frequency:    6.8270710809
  - # 9
    frequency:    7.5538823793
  - # 10
    frequency:    8.0852057857
  - # 11
    frequency:    8.2650315916
  - # 12
    frequency:    8.5137760021
  - # 13
    frequency:   11.1318263404
  - # 14
    frequency:   12.8852648389
  - # 15
    frequency:   13.4377734708
  - # 16
    frequency:   15.2276464054
  - # 17
    frequency:   17.2455063972
  - # 18
    frequency:   17.3585565852
  - # 19
    frequency:   18.2118738101
  - # 20
    frequency:   18.9721448512
  - # 21
    frequency:   19.1728654356
  - # 22
    frequency:   38.5040769598
  - # 23
    frequency:   68.7405471397
  - # 24
    frequency:  112.2933003599

- q-position: [    0.1161616,    0.0000000,    0.0000000 ]
  distance:    0.0426367
  band:
  - # 1
    frequency:   -0.7856584544
  - # 2
    frequency:    0.9075174223
  - # 3
    frequency:    1.3989288133
  - # 4
    frequency:    2.2175323475
  - # 5
    frequency:    3.2218366461
  - # 6
    frequency:    5.7127858209
  - # 7
    frequency:    6.1083167267
  - # 8
    frequency:    6.8251348998
  - # 9
    frequency:    7.5581580422
  - # 10
    frequency:    8.1253705314
  - # 11
    frequency:    8.2795894125
  - # 12
    frequency:    8.5436294625
  - # 13
    frequency:   11.1132079609
  - # 14
    frequency:   12.8701695996
  - # 15
    frequency:   13.4571923755
  - # 16
    frequency:   15.2956329774
  - # 17
    frequency:   17.2475156596
  - # 18
    frequency:   17.3699275653
  - # 19
    frequency:   18.2070193392
  - # 20
    frequency:   18.9823258206
  - # 21
    frequency:   19.1952575230
  - # 22
    frequency:   38.5045725644
  - # 23
    frequency:   68.6852586638
  - # 24
    frequency:  112.2859567903

- q-position: [    0.1212121,    0.0000000,    0.0000000 ]
  distance:    0.0444904
  band:
  - # 1
    frequency:   -0.7401251161
  - # 2
    frequency:    1.0009845216
  - # 3
    frequency:    1.4916736333
  - # 4
    frequency:    2.3081589920
  - # 5
    frequency:    3.3606556815
  - # 6
    frequency:    5.7339474585
  - # 7
    frequency:    6.1494108163
  - # 8
    frequency:    6.8254704093
  - # 9
    frequency:    7.5618960581
  - # 10
    frequency:    8.1655820129
  - # 11
    frequency:    8.2941737236
  - # 12
    frequency:    8.5734013881
  - # 13
    frequency:   11.0941577672
  - # 14
    frequency:   12.8551445371
  - # 15
    frequency:   13.4768707930
  - # 16
    frequency:   15.3642352032
  - # 17
    frequency:   17.2495646773
  - # 18
    frequency:   17.3815627093
  - # 19
    frequency:   18.2016954878
  - # 20
    frequency:   18.9919202342
  - # 21
    frequency:   19.2165981329
  - # 22
    frequency:   38.5050563559
  - # 23
    frequency:   68.6287795294
  - # 24
    frequency:  112.2783010211

- q-position: [    0.1262626,    0.0000000,    0.0000000 ]
  distance:    0.0463442
  band:
  - # 1
    frequency:   -0.6902718383
  - # 2
    frequency:    1.0940241456
  - # 3
    frequency:    1.5819825299
  - # 4
    frequency:    2.3977968373
  - # 5
    frequency:    3.4985771017
  - # 6
    frequency:    5.7550453323
  - # 7
    frequency:    6.1888159277
  - # 8
    frequency:    6.8283611991
  - # 9
    frequency:    7.5650987500
  - # 10
    frequency:    8.2057578273
  - # 11
    frequency:    8.3086770172
  - # 12
    frequency:    8.6029866008
  - # 13
    frequency:   11.0747041110
  - # 14
    frequency:   12.8401385981
  - # 15
    frequency:   13.4967542694
  - # 16
    frequency:   15.4333619949
  - # 17
    frequency:   17.2516490644
  - # 18
    frequency:   17.3934361888
  - # 19
    frequency:   18.1958869604
  - # 20
    frequency:   19.0008505822
  - # 21
    frequency:   19.2367190799
  - # 22
    frequency:   38.5055260519
  - # 23
    frequency:   68.5712423846
  - # 24
    frequency:  112.2703456986

- q-position: [    0.1313131,    0.0000000,    0.0000000 ]
  distance:    0.0481980
  band:
  - # 1
    frequency:   -0.6351165979
  - # 2
    frequency:    1.1869733921
  - # 3
    frequency:    1.6701070794
  - # 4
    frequency:    2.4864219663
  - # 5
    frequency:    3.6354798107
  - # 6
    frequency:    5.7760173836
  - # 7
    frequency:    6.2261447790
  - # 8
    frequency:    6.8341095616
  - # 9
    frequency:    7.5677742783
  - # 10
    frequency:    8.2458145978
  - # 11
    frequency:    8.3229924243
  - # 12
    frequency:    8.6322870569
  - # 13
    frequency:   11.0548741829
  - # 14
    frequency:   12.8250981439
  - # 15
    frequency:   13.5167900617
  - # 16
    frequency:   15.5029297695
  - # 17
    frequency:   17.2537646078
  - # 18
    frequency:   17.4055219071
  - # 19
    frequency:   18.1895805786
  - # 20
    frequency:   19.0090461922
  - # 21
    frequency:   19.2554624830
  - # 22
    frequency:   38.5059796357
  - # 23
    frequency:   68.5127794036
  - # 24
    frequency:  112.2621057401

- q-position: [    0.1363636,    0.0000000,    0.0000000 ]
  distance:    0.0500517
  band:
  - # 1
    frequency:   -0.5731733069
  - # 2
    frequency:    1.2800186012
  - # 3
    frequency:    1.7562549395
  - # 4
    frequency:    2.5740146146
  - # 5
    frequency:    3.7712315943
  - # 6
    frequency:    5.7968070481
  - # 7