nqpoint: 300    
npath: 3      
segment_nqpoint:
- 100
- 100
- 100
labels:
- [ 'G', 'M' ]
- [ 'M', 'K' ]
- [ 'K', 'G' ]
reciprocal_lattice:
- [   0.31787119,   0.18352302,   0.00000000 ] # a*
- [   0.00000000,   0.36704604,   0.00000000 ] # b*
- [   0.00000000,   0.00000000,   0.03804872 ] # c*
natom: 8      
lattice:
- [     3.145928359665709,     0.000000000000000,     0.000000000000000 ] # a
- [    -1.572964179832855,     2.724453877923231,     0.000000000000000 ] # b
- [     0.000000000000000,     0.000000000000000,    26.282094004595535 ] # c
points:
- symbol: C # 1
  coordinates: [  0.000000000000000,  0.000000000000000,  0.470394842079834 ]
  mass: 12.010700
- symbol: C # 2
  coordinates: [  0.333332985432215,  0.666666983183674,  0.611739212963789 ]
  mass: 12.010700
- symbol: H # 3
  coordinates: [  0.666666984744048,  0.333332985985145,  0.342438467742575 ]
  mass: 1.007940
- symbol: N # 4
  coordinates: [  0.333332985432215,  0.666666983183674,  0.564357215544134 ]
  mass: 14.006700
- symbol: O # 5
  coordinates: [  0.333332985432215,  0.666666983183674,  0.657561532257426 ]
  mass: 15.999400
- symbol: O # 6
  coordinates: [  0.666666984744048,  0.333332985985145,  0.379946062358084 ]
  mass: 15.999400
- symbol: Ti # 7
  coordinates: [  0.333332985432215,  0.666666983183674,  0.427607508258052 ]
  mass: 47.867000
- symbol: Ti # 8
  coordinates: [  0.666666984744048,  0.333332985985145,  0.513152665029077 ]
  mass: 47.867000

phonon:
- q-position: [    0.0000000,    0.0000000,    0.0000000 ]
  distance:    0.0000000
  band:
  - # 1
    frequency:   -0.8640766305
  - # 2
    frequency:   -0.8640766299
  - # 3
    frequency:   -0.0000465057
  - # 4
    frequency:   -0.0000004229
  - # 5
    frequency:    0.0000392194
  - # 6
    frequency:    5.5390999510
  - # 7
    frequency:    5.5390999511
  - # 8
    frequency:    7.2804008549
  - # 9
    frequency:    7.4862401243
  - # 10
    frequency:    7.4862401243
  - # 11
    frequency:    8.2605642460
  - # 12
    frequency:    8.2605642461
  - # 13
    frequency:   11.4566755819
  - # 14
    frequency:   13.4044955719
  - # 15
    frequency:   13.4044955720
  - # 16
    frequency:   14.3834239564
  - # 17
    frequency:   17.2236379787
  - # 18
    frequency:   17.2236379789
  - # 19
    frequency:   18.3856806329
  - # 20
    frequency:   19.2916555008
  - # 21
    frequency:   19.2916555011
  - # 22
    frequency:   38.5064463874
  - # 23
    frequency:   69.2908363820
  - # 24
    frequency:  112.5065315300

- q-position: [    0.0050505,    0.0000000,    0.0000000 ]
  distance:    0.0018538
  band:
  - # 1
    frequency:   -0.8629265210
  - # 2
    frequency:   -0.8595431741
  - # 3
    frequency:    0.0026447572
  - # 4
    frequency:    0.0829703841
  - # 5
    frequency:    0.1395940653
  - # 6
    frequency:    5.5395158098
  - # 7
    frequency:    5.5407014911
  - # 8
    frequency:    7.2757551824
  - # 9
    frequency:    7.4864066080
  - # 10
    frequency:    7.4911778584
  - # 11
    frequency:    8.2606900347
  - # 12
    frequency:    8.2614132218
  - # 13
    frequency:   11.4558738069
  - # 14
    frequency:   13.4028791842
  - # 15
    frequency:   13.4047886757
  - # 16
    frequency:   14.3860393644
  - # 17
    frequency:   17.2236684042
  - # 18
    frequency:   17.2239585045
  - # 19
    frequency:   18.3853446382
  - # 20
    frequency:   19.2911329753
  - # 21
    frequency:   19.2918205586
  - # 22
    frequency:   38.5064375967
  - # 23
    frequency:   69.2895603236
  - # 24
    frequency:  112.5060882856

- q-position: [    0.0101010,    0.0000000,    0.0000000 ]
  distance:    0.0037075
  band:
  - # 1
    frequency:   -0.8595180609
  - # 2
    frequency:   -0.8460803439
  - # 3
    frequency:    0.0105970626
  - # 4
    frequency:    0.1661887972
  - # 5
    frequency:    0.2799917377
  - # 6
    frequency:    5.5407623220
  - # 7
    frequency:    5.5454945342
  - # 8
    frequency:    7.2629578600
  - # 9
    frequency:    7.4869045385
  - # 10
    frequency:    7.5048543927
  - # 11
    frequency:    8.2610669358
  - # 12
    frequency:    8.2639544742
  - # 13
    frequency:   11.4534725633
  - # 14
    frequency:   13.3980805305
  - # 15
    frequency:   13.4056675882
  - # 16
    frequency:   14.3938314965
  - # 17
    frequency:   17.2237596915
  - # 18
    frequency:   17.2249191641
  - # 19
    frequency:   18.3843374813
  - # 20
    frequency:   19.2895679202
  - # 21
    frequency:   19.2923133256
  - # 22
    frequency:   38.5064112894
  - # 23
    frequency:   69.2857347139
  - # 24
    frequency:  112.5047601778

- q-position: [    0.0151515,    0.0000000,    0.0000000 ]
  distance:    0.0055613
  band:
  - # 1
    frequency:   -0.8539686928
  - # 2
    frequency:   -0.8240096026
  - # 3
    frequency:    0.0239163274
  - # 4
    frequency:    0.2498685860
  - # 5
    frequency:    0.4217611761
  - # 6
    frequency:    5.5428363000
  - # 7
    frequency:    5.5534445824
  - # 8
    frequency:    7.2443963381
  - # 9
    frequency:    7.4877293704
  - # 10
    frequency:    7.5248912878
  - # 11
    frequency:    8.2616935546
  - # 12
    frequency:    8.2681710907
  - # 13
    frequency:   11.4494840348
  - # 14
    frequency:   13.3902447254
  - # 15
    frequency:   13.4071311155
  - # 16
    frequency:   14.4066445492
  - # 17
    frequency:   17.2239118741
  - # 18
    frequency:   17.2265172110
  - # 19
    frequency:   18.3826616415
  - # 20
    frequency:   19.2869678883
  - # 21
    frequency:   19.2931265996
  - # 22
    frequency:   38.5063676587
  - # 23
    frequency:   69.2793672428
  - # 24
    frequency:  112.5025520762

- q-position: [    0.0202020,    0.0000000,    0.0000000 ]
  distance:    0.0074151
  band:
  - # 1
    frequency:   -0.8464490147
  - # 2
    frequency:   -0.7936100134
  - # 3
    frequency:    0.0427249609
  - # 4
    frequency:    0.3341614054
  - # 5
    frequency:    0.5651132979
  - # 6
    frequency:    5.5457324454
  - # 7
    frequency:    5.5644949005
  - # 8
    frequency:    7.2222289550
  - # 9
    frequency:    7.4888735834
  - # 10
    frequency:    7.5491449886
  - # 11
    frequency:    8.2625675623
  - # 12
    frequency:    8.2740352530
  - # 13
    frequency:   11.4439283258
  - # 14
    frequency:   13.3795940091
  - # 15
    frequency:   13.4091772731
  - # 16
    frequency:   14.4242386638
  - # 17
    frequency:   17.2241250074
  - # 18
    frequency:   17.2287480887
  - # 19
    frequency:   18.3803212417
  - # 20
    frequency:   19.2833454248
  - # 21
    frequency:   19.2942484300
  - # 22
    frequency:   38.5063070259
  - # 23
    frequency:   69.2704707031
  - # 24
    frequency:  112.4994720761

- q-position: [    0.0252525,    0.0000000,    0.0000000 ]
  distance:    0.0092688
  band:
  - # 1
    frequency:   -0.8371517836
  - # 2
    frequency:   -0.7548675605
  - # 3
    frequency:    0.0672524196
  - # 4
    frequency:    0.4191435539
  - # 5
    frequency:    0.7099350268
  - # 6
    frequency:    5.5494433699
  - # 7
    frequency:    5.5785676107
  - # 8
    frequency:    7.1979231865
  - # 9
    frequency:    7.4903267646
  - # 10
    frequency:    7.5761682446
  - # 11
    frequency:    8.2636856910
  - # 12
    frequency:    8.2815087755
  - # 13
    frequency:   11.4368331663
  - # 14
    frequency:   13.3664036595
  - # 15
    frequency:   13.4118032931
  - # 16
    frequency:   14.4463143005
  - # 17
    frequency:   17.2243991687
  - # 18
    frequency:   17.2316054629
  - # 19
    frequency:   18.3773220350
  - # 20
    frequency:   19.2787180041
  - # 21
    frequency:   19.2956621981
  - # 22
    frequency:   38.5062298388
  - # 23
    frequency:   69.2590629551
  - # 24
    frequency:  112.4955314678

- q-position: [    0.0303030,    0.0000000,    0.0000000 ]
  distance:    0.0111226
  band:
  - # 1
    frequency:   -0.8262600614
  - # 2
    frequency:   -0.7072953781
  - # 3
    frequency:    0.0979212096
  - # 4
    frequency:    0.5048173678
  - # 5
    frequency:    0.8559230288
  - # 6
    frequency:    5.5539596244
  - # 7
    frequency:    5.5955651335
  - # 8
    frequency:    7.1723908898
  - # 9
    frequency:    7.4920757227
  - # 10
    frequency:    7.6050744391
  - # 11
    frequency:    8.2650437260
  - # 12
    frequency:    8.2905438263
  - # 13
    frequency:   11.4282335129
  - # 14
    frequency:   13.3509765718
  - # 15
    frequency:   13.4150056355
  - # 16
    frequency:   14.4725380460
  - # 17
    frequency:   17.2247344561
  - # 18
    frequency:   17.2350812643
  - # 19
    frequency:   18.3736713856
  - # 20
    frequency:   19.2731079410
  - # 21
    frequency:   19.2973467294
  - # 22
    frequency:   38.5061366698
  - # 23
    frequency:   69.2451668774
  - # 24
    frequency:  112.4907446934

- q-position: [    0.0353535,    0.0000000,    0.0000000 ]
  distance:    0.0129764
  band:
  - # 1
    frequency:   -0.8139216455
  - # 2
    frequency:   -0.6498469772
  - # 3
    frequency:    0.1355151592
  - # 4
    frequency:    0.5911250071
  - # 5
    frequency:    1.0027232412
  - # 6
    frequency:    5.5592697362
  - # 7
    frequency:    5.6153718898
  - # 8
    frequency:    7.1461982460
  - # 9
    frequency:    7.4941046328
  - # 10
    frequency:    7.6353271627
  - # 11
    frequency:    8.2666364975
  - # 12
    frequency:    8.3010838017
  - # 13
    frequency:   11.4181710600
  - # 14
    frequency:   13.3336207860
  - # 15
    frequency:   13.4187800015
  - # 16
    frequency:   14.5025655601
  - # 17
    frequency:   17.2251309882
  - # 18
    frequency:   17.2391657430
  - # 19
    frequency:   18.3693782425
  - # 20
    frequency:   19.2665422777
  - # 21
    frequency:   19.2992764383
  - # 22
    frequency:   38.5060282129
  - # 23
    frequency:   69.2288103037
  - # 24
    frequency:  112.4851292915

- q-position: [    0.0404040,    0.0000000,    0.0000000 ]
  distance:    0.0148301
  band:
  - # 1
    frequency:   -0.8002338363
  - # 2
    frequency:   -0.5809204458
  - # 3
    frequency:    0.1815086191
  - # 4
    frequency:    0.6779688534
  - # 5
    frequency:    1.1500179524
  - # 6
    frequency:    5.5653602528
  - # 7
    frequency:    5.6378561690
  - # 8
    frequency:    7.1197108986
  - # 9
    frequency:    7.4963952103
  - # 10
    frequency:    7.6665945774
  - # 11
    frequency:    8.2684578701
  - # 12
    frequency:    8.3130643200
  - # 13
    frequency:   11.4066936750
  - # 14
    frequency:   13.3146323401
  - # 15
    frequency:   13.4231213496
  - # 16
    frequency:   14.5360592676
  - # 17
    frequency:   17.2255889027
  - # 18
    frequency:   17.2438475317
  - # 19
    frequency:   18.3644531078
  - # 20
    frequency:   19.2590526466
  - # 21
    frequency:   19.3014215043
  - # 22
    frequency:   38.5059052815
  - # 23
    frequency:   69.2100259459
  - # 24
    frequency:  112.4787058305

- q-position: [    0.0454545,    0.0000000,    0.0000000 ]
  distance:    0.0166839
  band:
  - # 1
    frequency:   -0.7852385758
  - # 2
    frequency:   -0.4986088099
  - # 3
    frequency:    0.2386417822
  - # 4
    frequency:    0.7652322703
  - # 5
    frequency:    1.2975570380
  - # 6
    frequency:    5.5722157935
  - # 7
    frequency:    5.6628720570
  - # 8
    frequency:    7.0931790961
  - # 9
    frequency:    7.4989269128
  - # 10
    frequency:    7.6986638180
  - # 11
    frequency:    8.2705007334
  - # 12
    frequency:    8.3264142948
  - # 13
    frequency:   11.3938547783
  - # 14
    frequency:   13.2942839947
  - # 15
    frequency:   13.4280239147
  - # 16
    frequency:   14.5727002340
  - # 17
    frequency:   17.2261083554
  - # 18
    frequency:   17.2491137184
  - # 19
    frequency:   18.3589079976
  - # 20
    frequency:   19.2506751093
  - # 21
    frequency:   19.3037480814
  - # 22
    frequency:   38.5057688037
  - # 23
    frequency:   69.1888513033
  - # 24
    frequency:  112.4714978299

- q-position: [    0.0505051,    0.0000000,    0.0000000 ]
  distance:    0.0185377
  band:
  - # 1
    frequency:   -0.7689250008
  - # 2
    frequency:   -0.4017309173
  - # 3
    frequency:    0.3113284331
  - # 4
    frequency:    0.8527963318
  - # 5
    frequency:    1.4451556223
  - # 6
    frequency:    5.5798191063
  - # 7
    frequency:    5.6902613157
  - # 8
    frequency:    7.0667860774
  - # 9
    frequency:    7.5016771667
  - # 10
    frequency:    7.7313922501
  - # 11
    frequency:    8.2727569918
  - # 12
    frequency:    8.3410570497
  - # 13
    frequency:   11.3797126830
  - # 14
    frequency:   13.2728191501
  - # 15
    frequency:   13.4334812288
  - # 16
    frequency:   14.6121948816
  - # 17
    frequency:   17.2266895186
  - # 18
    frequency:   17.2549499249
  - # 19
    frequency:   18.3527563955
  - # 20
    frequency:   19.2414499737
  - # 21
    frequency:   19.3062185375
  - # 22
    frequency:   38.5056198190
  - # 23
    frequency:   69.1653285596
  - # 24
    frequency:  112.4635316700

- q-position: [    0.0555556,    0.0000000,    0.0000000 ]
  distance:    0.0203914
  band:
  - # 1
    frequency:   -0.7512354338
  - # 2
    frequency:   -0.2905766115
  - # 3
    frequency:    0.4030337202
  - # 4
    frequency:    0.9405508017
  - # 5
    frequency:    1.5926790647
  - # 6
    frequency:    5.5881511316
  - # 7
    frequency:    5.7198551062
  - # 8
    frequency:    7.0406759927
  - # 9
    frequency:    7.5046216161
  - # 10
    frequency:    7.7646793608
  - # 11
    frequency:    8.2752175567
  - # 12
    frequency:    8.3569114358
  - # 13
    frequency:   11.3643299150
  - # 14
    frequency:   13.2504497328
  - # 15
    frequency:   13.4394861445
  - # 16
    frequency:   14.6542777559
  - # 17
    frequency:   17.2273325789
  - # 18
    frequency:   17.2613403915
  - # 19
    frequency:   18.3460132000
  - # 20
    frequency:   19.2314215881
  - # 21
    frequency:   19.3087917263
  - # 22
    frequency:   38.5054594730
  - # 23
    frequency:   69.1395044654
  - # 24
    frequency:  112.4548364917

- q-position: [    0.0606061,    0.0000000,    0.0000000 ]
  distance:    0.0222452
  band:
  - # 1
    frequency:   -0.7320713962
  - # 2
    frequency:   -0.1494964061
  - # 3
    frequency:    0.5089315928
  - # 4
    frequency:    1.0283997594
  - # 5
    frequency:    1.7400267295
  - # 6
    frequency:    5.5971910699
  - # 7
    frequency:    5.7514754453
  - # 8
    frequency:    7.0149706339
  - # 9
    frequency:    7.5077343925
  - # 10
    frequency:    7.7984500828
  - # 11
    frequency:    8.2778723408
  - # 12
    frequency:    8.3738929176
  - # 13
    frequency:   11.3477725301
  - # 14
    frequency:   13.2273567729
  - # 15
    frequency:   13.4460308595
  - # 16
    frequency:   14.6987115987
  - # 17
    frequency:   17.2280377348
  - # 18
    frequency:   17.2682680654
  - # 19
    frequency:   18.3386946636
  - # 20
    frequency:   19.2206381159
  - # 21
    frequency:   19.3114232875
  - # 22
    frequency:   38.5052890126
  - # 23
    frequency:   69.1114302098
  - # 24
    frequency:  112.4454440845

- q-position: [    0.0656566,    0.0000000,    0.0000000 ]
  distance:    0.0240990
  band:
  - # 1
    frequency:   -0.7112973831
  - # 2
    frequency:    0.1739210601
  - # 3
    frequency:    0.6182106713
  - # 4
    frequency:    1.1162632902
  - # 5
    frequency:    1.8871187397
  - # 6
    frequency:    5.6069164556
  - # 7
    frequency:    5.7849362866
  - # 8
    frequency:    6.9897800285
  - # 9
    frequency:    7.5109883998
  - # 10
    frequency:    7.8326445832
  - # 11
    frequency:    8.2807102555
  - # 12
    frequency:    8.3919145965
  - # 13
    frequency:   11.3301094433
  - # 14
    frequency:   13.2036925944
  - # 15
    frequency:   13.4531069438
  - # 16
    frequency:   14.7452857931
  - # 17
    frequency:   17.2288051941
  - # 18
    frequency:   17.2757146914
  - # 19
    frequency:   18.3308183265
  - # 20
    frequency:   19.2091512892
  - # 21
    frequency:   19.3140659766
  - # 22
    frequency:   38.5051097802
  - # 23
    frequency:   69.0811612780
  - # 24
    frequency:  112.4353887646

- q-position: [    0.0707071,    0.0000000,    0.0000000 ]
  distance:    0.0259528
  band:
  - # 1
    frequency:   -0.6887411108
  - # 2
    frequency:    0.2851741001
  - # 3
    frequency:    0.7244799713
  - # 4
    frequency:    1.2040767836
  - # 5
    frequency:    2.0338863539
  - # 6
    frequency:    5.6173032330
  - # 7
    frequency:    5.8200441088
  - # 8
    frequency:    6.9652096893
  - # 9
    frequency:    7.5143556123
  - # 10
    frequency:    7.8672118264
  - # 11
    frequency:    8.2837192149
  - # 12
    frequency:    8.4108881497
  - # 13
    frequency:   11.3114117851
  - # 14
    frequency:   13.1795838198
  - # 15
    frequency:   13.4607053672
  - # 16
    frequency:   14.7938139625
  - # 17
    frequency:   17.2296351702
  - # 18
    frequency:   17.2836609033
  - # 19
    frequency:   18.3224029432
  - # 20
    frequency:   19.1970161449
  - # 21
    frequency:   19.3166700211
  - # 22
    frequency:   38.5049232075
  - # 23
    frequency:   69.0487572982
  - # 24
    frequency:  112.4247072437

- q-position: [    0.0757576,    0.0000000,    0.0000000 ]
  distance:    0.0278065
  band:
  - # 1
    frequency:   -0.6641893722
  - # 2
    frequency:    0.3689981673
  - # 3
    frequency:    0.8262159509
  - # 4
    frequency:    1.2917890620
  - # 5
    frequency:    2.1802653474
  - # 6
    frequency:    5.6283258373
  - # 7
    frequency:    5.8565978805
  - # 8
    frequency:    6.9413661253
  - # 9
    frequency:    7.5178073827
  - # 10
    frequency:    7.9021054269
  - # 11
    frequency:    8.2868861446
  - # 12
    frequency:    8.4307246670
  - # 13
    frequency:   11.2917522945
  - # 14
    frequency:   13.1551346544
  - # 15
    frequency:   13.4688165283
  - # 16
    frequency:   14.8441312488
  - # 17
    frequency:   17.2305278780
  - # 18
    frequency:   17.2920863155
  - # 19
    frequency:   18.3134684039
  - # 20
    frequency:   19.1842907437
  - # 21
    frequency:   19.3191835011
  - # 22
    frequency:   38.5047308092
  - # 23
    frequency:   69.0142818765
  - # 24
    frequency:  112.4134384880

- q-position: [    0.0808081,    0.0000000,    0.0000000 ]
  distance:    0.0296603
  band:
  - # 1
    frequency:   -0.6373784281
  - # 2
    frequency:    0.4447849154
  - # 3
    frequency:    0.9236819015
  - # 4
    frequency:    1.3793601349
  - # 5
    frequency:    2.3261915685
  - # 6
    frequency:    5.6399572774
  - # 7
    frequency:    5.8943882455
  - # 8
    frequency:    6.9183616149
  - # 9
    frequency:    7.5213147530
  - # 10
    frequency:    7.9372809456
  - # 11
    frequency:    8.2901969997
  - # 12
    frequency:    8.4513353735
  - # 13
    frequency:   11.2712047592
  - # 14
    frequency:   13.1304301187
  - # 15
    frequency:   13.4774302845
  - # 16
    frequency:   14.8960915911
  - # 17
    frequency:   17.2314835294
  - # 18
    frequency:   17.3009696113
  - # 19
    frequency:   18.3040356514
  - # 20
    frequency:   19.1710358727
  - # 21
    frequency:   19.3215527531
  - # 22
    frequency:   38.5045341759
  - # 23
    frequency:   68.9778024207
  - # 24
    frequency:  112.4016235686

- q-position: [    0.0858586,    0.0000000,    0.0000000 ]
  distance:    0.0315141
  band:
  - # 1
    frequency:   -0.6079769478
  - # 2
    frequency:    0.5179859075
  - # 3
    frequency:    1.0175085272
  - # 4
    frequency:    1.4667590206
  - # 5
    frequency:    2.4715979671
  - # 6
    frequency:    5.6521692221
  - # 7
    frequency:    5.9331957365
  - # 8
    frequency:    6.8963189318
  - # 9
    frequency:    7.5248487679
  - # 10
    frequency:    7.9726941349
  - # 11
    frequency:    8.2936367913
  - # 12
    frequency:    8.4726322379
  - # 13
    frequency:   11.2498435054
  - # 14
    frequency:   13.1055390478
  - # 15
    frequency:   13.4865359822
  - # 16
    frequency:   14.9495651791
  - # 17
    frequency:   17.2325023275
  - # 18
    frequency:   17.3102886298
  - # 19
    frequency:   18.2941265945
  - # 20
    frequency:   19.1573147348
  - # 21
    frequency:   19.3237227926
  - # 22
    frequency:   38.5043349667
  - # 23
    frequency:   68.9393899540
  - # 24
    frequency:  112.3893055034

- q-position: [    0.0909091,    0.0000000,    0.0000000 ]
  distance:    0.0333678
  band:
  - # 1
    frequency:   -0.5755575043
  - # 2
    frequency:    0.5907666615
  - # 3
    frequency:    1.1082949079
  - # 4
    frequency:    1.5539618343
  - # 5
    frequency:    2.6164125862
  - # 6
    frequency:    5.6649320874
  - # 7
    frequency:    5.9727877692
  - # 8
    frequency:    6.8753765794
  - # 9
    frequency:    7.5283807832
  - # 10
    frequency:    8.0082998292
  - # 11
    frequency:    8.2971896241
  - # 12
    frequency:    8.4945284645
  - # 13
    frequency:   11.2277429441
  - # 14
    frequency:   13.0805167719
  - # 15
    frequency:   13.4961224878
  - # 16
    frequency:   15.0044361662
  - # 17
    frequency:   17.2335844610
  - # 18
    frequency:   17.3200204469
  - # 19
    frequency:   18.2837640189
  - # 20
    frequency:   19.1431926255
  - # 21
    frequency:   19.3256377536
  - # 22
    frequency:   38.5041349016
  - # 23
    frequency:   68.8991189185
  - # 24
    frequency:  112.3765290920

- q-position: [    0.0959596,    0.0000000,    0.0000000 ]
  distance:    0.0352216
  band:
  - # 1
    frequency:   -0.5395484589
  - # 2
    frequency:    0.6641162764
  - # 3
    frequency:    1.1965296484
  - # 4
    frequency:    1.6409502012
  - # 5
    frequency:    2.7605571712
  - # 6
    frequency:    5.6782151268
  - # 7
    frequency:    6.0129141151
  - # 8
    frequency:    6.8556950409
  - # 9
    frequency:    7.5318827669
  - # 10
    frequency:    8.0440512882
  - # 11
    frequency:    8.3008387457
  - # 12
    frequency:    8.5169388771
  - # 13
    frequency:   11.2049771698
  - # 14
    frequency:   13.0554074510
  - # 15
    frequency:   13.5061782180
  - # 16
    frequency:   15.0606006637
  - # 17
    frequency:   17.2347300965
  - # 18
    frequency:   17.3301414519
  - # 19
    frequency:   18.2729714974
  - # 20
    frequency:   19.1287365993
  - # 21
    frequency:   19.3272413424
  - # 22
    frequency:   38.5039357536
  - # 23
    frequency:   68.8570669687
  - # 24
    frequency:  112.3633407429

- q-position: [    0.1010101,    0.0000000,    0.0000000 ]
  distance:    0.0370754
  band:
  - # 1
    frequency:   -0.4991486627
  - # 2
    frequency:    0.7385129879
  - # 3
    frequency:    1.2825947572
  - # 4
    frequency:    1.7277099817
  - # 5
    frequency:    2.9039461653
  - # 6
    frequency:    5.6919865222
  - # 7
    frequency:    6.0533004970
  - # 8
    frequency:    6.8374645365
  - # 9
    frequency:    7.5353275877
  - # 10
    frequency:    8.0798998670
  - # 11
    frequency:    8.3045666088
  - # 12
    frequency:    8.5397802040
  - # 13
    frequency:   11.1816196143
  - # 14
    frequency:   13.0302460734
  - # 15
    frequency:   13.5166911706
  - # 16
    frequency:   15.1179650105
  - # 17
    frequency:   17.2359393707
  - # 18
    frequency:   17.3406274179
  - # 19
    frequency:   18.2617733003
  - # 20
    frequency:   19.1140151276
  - # 21
    frequency:   19.3284773004
  - # 22
    frequency:   38.5037393403
  - # 23
    frequency:   68.8133147574
  - # 24
    frequency:  112.3497882948

- q-position: [    0.1060606,    0.0000000,    0.0000000 ]
  distance:    0.0389291
  band:
  - # 1
    frequency:   -0.4531636193
  - # 2
    frequency:    0.8141851714
  - # 3
    frequency:    1.3667859816
  - # 4
    frequency:    1.8142302666
  - # 5
    frequency:    3.0464859444
  - # 6
    frequency:    5.7062134770
  - # 7
    frequency:    6.0936399712
  - # 8
    frequency:    6.8209147275
  - # 9
    frequency:    7.5386892892
  - # 10
    frequency:    8.1157949225
  - # 11
    frequency:    8.3083549459
  - # 12
    frequency:    8.5629712777
  - # 13
    frequency:   11.1577427484
  - # 14
    frequency:   13.0050601443
  - # 15
    frequency:   13.5276489548
  - # 16
    frequency:   15.1764442932
  - # 17
    frequency:   17.2372123820
  - # 18
    frequency:   17.3514535650
  - # 19
    frequency:   18.2501943079
  - # 20
    frequency:   19.0990977492
  - # 21
    frequency:   19.3292898743
  - # 22
    frequency:   38.5035475153
  - # 23
    frequency:   68.7679457124
  - # 24
    frequency:  112.3359208319

- q-position: [    0.1111111,    0.0000000,    0.0000000 ]
  distance:    0.0407829
  band:
  - # 1
    frequency:   -0.3996515690
  - # 2
    frequency:    0.8912287199
  - # 3
    frequency:    1.4493326561
  - # 4
    frequency:    1.9005025899
  - # 5
    frequency:    3.1880741901
  - # 6
    frequency:    5.7208623107
  - # 7
    frequency:    6.1335819569
  - # 8
    frequency:    6.8063265834
  - # 9
    frequency:    7.5419433427
  - # 10
    frequency:    8.1516838943
  - # 11
    frequency:    8.3121848584
  - # 12
    frequency:    8.5864331609
  - # 13
    frequency:   11.1334178278
  - # 14
    frequency:   12.9798710977
  - # 15
    frequency:   13.5390388210
  - # 16
    frequency:   15.2359610858
  - # 17
    frequency:   17.2385491806
  - # 18
    frequency:   17.3625946154
  - # 19
    frequency:   18.2382599266
  - # 20
    frequency:   19.0840547178
  - # 21
    frequency:   19.3296242893
  - # 22
    frequency:   38.5033621599
  - # 23
    frequency:   68.7210458063
  - # 24
    frequency:  112.3217884941

- q-position: [    0.1161616,    0.0000000,    0.0000000 ]
  distance:    0.0426367
  band:
  - # 1
    frequency:   -0.3350097850
  - # 2
    frequency:    0.9696652299
  - # 3
    frequency:    1.5304136228
  - # 4
    frequency:    1.9865203143
  - # 5
    frequency:    3.3285993350
  - # 6
    frequency:    5.7358985554
  - # 7
    frequency:    6.1727194178
  - # 8
    frequency:    6.7940459719
  - # 9
    frequency:    7.5450668804
  - # 10
    frequency:    8.1875125095
  - # 11
    frequency:    8.3160369176
  - # 12
    frequency:    8.6100892168
  - # 13
    frequency:   11.1087146780
  - # 14
    frequency:   12.9546954703
  - # 15
    frequency:   13.5508476893
  - # 16
    frequency:   15.2964443773
  - # 17
    frequency:   17.2399497580
  - # 18
    frequency:   17.3740248406
  - # 19
    frequency:   18.2259960104
  - # 20
    frequency:   19.0689566453
  - # 21
    frequency:   19.3294272209
  - # 22
    frequency:   38.5031851734
  - # 23
    frequency:   68.6727033189
  - # 24
    frequency:  112.3074422837

- q-position: [    0.1212121,    0.0000000,    0.0000000 ]
  distance:    0.0444904
  band:
  - # 1
    frequency:   -0.2507628121
  - # 2
    frequency:    1.0494730350
  - # 3
    frequency:    1.6101692920
  - # 4
    frequency:    2.0722781468
  - # 5
    frequency:    3.4679400318
  - # 6
    frequency:    5.7512870546
  - # 7
    frequency:    6.2105762301
  - # 8
    frequency:    6.7844969904
  - # 9
    frequency:    7.5480389021
  - # 10
    frequency:    8.2232250754
  - # 11
    frequency:    8.3198912787
  - # 12
    frequency:    8.6338651374
  - # 13
    frequency:   11.0837015088
  - # 14
    frequency:   12.9295458708
  - # 15
    frequency:   13.5630621778
  - # 16
    frequency:   15.3578286570
  - # 17
    frequency:   17.2414140358
  - # 18
    frequency:   17.3857180990
  - # 19
    frequency:   18.2134287895
  - # 20
    frequency:   19.0538741459
  - # 21
    frequency:   19.3286472635
  - # 22
    frequency:   38.5030184649
  - # 23
    frequency:   68.6230085942
  - # 24
    frequency:  112.2929338674

- q-position: [    0.1262626,    0.0000000,    0.0000000 ]
  distance:    0.0463442
  band:
  - # 1
    frequency:   -0.1080321441
  - # 2
    frequency:    1.1306047177
  - # 3
    frequency:    1.6887106314
  - # 4
    frequency:    2.1577717525
  - # 5
    frequency:    3.6059646092
  - # 6
    frequency:    5.7669920641
  - # 7
    frequency:    6.2465998403
  - # 8
    frequency:    6.7781899838
  - # 9
    frequency:    7.5508404570
  - # 10
    frequency:    8.2587648281
  - # 11
    frequency:    8.3237278049
  - # 12
    frequency:    8.6576889464
  - # 13
    frequency:   11.0584447528
  - # 14
    frequency:   12.9044317790
  - # 15
    frequency:   13.5756686299
  - # 16
    frequency:   15.4200531300
  - # 17
    frequency:   17.2429418536
  - # 18
    frequency:   17.3976478633
  - # 19
    frequency:   18.2005848082
  - # 20
    frequency:   19.0388774814
  - # 21
    frequency:   19.3272353897
  - # 22
    frequency:   38.5028639437
  - # 23
    frequency:   68.5720537919
  - # 24
    frequency:  112.2783153763

- q-position: [    0.1313131,    0.0000000,    0.0000000 ]
  distance:    0.0481980
  band:
  - # 1
    frequency:    0.2034685145
  - # 2
    frequency:    1.2129974233
  - # 3
    frequency:    1.7661258683
  - # 4
    frequency:    2.2429974415
  - # 5
    frequency:    3.7425304855
  - # 6
    frequency:    5.7829773566
  - # 7
    frequency:    6.2801692048
  - # 8
    frequency:    6.7757142997
  - # 9
    frequency:    7.5534547976
  - # 10
    frequency:    8.2940743121
  - # 11
    frequency:    8.3275262011
  - # 12
    frequency:    8.6814909925
  - # 13
    frequency:   11.0330089199
  - # 14
    frequency:   12.8793602016
  - # 15
    frequency:   13.5886531395
  - # 16
    frequency:   15.4830610407
  - # 17
    frequency:   17.2445329568
  - # 18
    frequency:   17.4097872361
  - # 19
    frequency:   18.1874908740
  - # 20
    frequency:   19.0240362109
  - # 21
    frequency:   19.3251453983
  - # 22
    frequency:   38.5027235100
  - # 23
    frequency:   68.5199326336
  - # 24
    frequency:  112.2636392042

- q-position: [    0.1363636,    0.0000000,    0.0000000 ]
  distance:    0.0500517
  band:
  - # 1
    frequency:    0.3103599960
  - # 2
    frequency:    1.2965791265
  - # 3
    frequency:    1.8424855245
  - # 4
    frequency:    2.3279519092
  - # 5
    frequency:    3.8774835096
  - # 6
    frequency:    5.7992063303
  - # 7