nqpoint: 300    
npath: 3      
segment_nqpoint:
- 100
- 100
- 100
labels:
- [ 'G', 'M' ]
- [ 'M', 'K' ]
- [ 'K', 'G' ]
reciprocal_lattice:
- [   0.30681961,   0.17714238,   0.00000000 ] # a*
- [   0.00000000,   0.35428476,   0.00000000 ] # b*
- [   0.00000000,   0.00000000,   0.04420612 ] # c*
natom: 5      
lattice:
- [     3.259244139497968,     0.000000000000000,     0.000000000000000 ] # a
- [    -1.629622069748984,     2.822588221935546,     0.000000000000000 ] # b
- [     0.000000000000000,     0.000000000000000,    22.621299793819759 ] # c
points:
- symbol: H # 1
  coordinates: [  0.666666984744047,  0.333332985985145,  0.397855122474388 ]
  mass: 1.007940
- symbol: N # 2
  coordinates: [  0.000000000000000,  0.000000000000000,  0.500327702244546 ]
  mass: 14.006700
- symbol: O # 3
  coordinates: [  0.333332985432215,  0.666666983183674,  0.602144877525612 ]
  mass: 15.999400
- symbol: Zr # 4
  coordinates: [  0.333332985432215,  0.666666983183674,  0.441058837348936 ]
  mass: 91.224000
- symbol: Zr # 5
  coordinates: [  0.666666984744047,  0.333332985985145,  0.558086367037992 ]
  mass: 91.224000

phonon:
- q-position: [    0.0000000,    0.0000000,    0.0000000 ]
  distance:    0.0000000
  band:
  - # 1
    frequency:   -0.0000172142
  - # 2
    frequency:   -0.0000001338
  - # 3
    frequency:    0.0000134472
  - # 4
    frequency:    4.0644517298
  - # 5
    frequency:    4.0644517298
  - # 6
    frequency:    6.6287188474
  - # 7
    frequency:   10.7234459282
  - # 8
    frequency:   10.7234459282
  - # 9
    frequency:   14.6049080031
  - # 10
    frequency:   14.6049080031
  - # 11
    frequency:   15.3877623259
  - # 12
    frequency:   17.0910877775
  - # 13
    frequency:   27.1704131062
  - # 14
    frequency:   32.8118227144
  - # 15
    frequency:   32.8118227145

- q-position: [    0.0050505,    0.0000000,    0.0000000 ]
  distance:    0.0017893
  band:
  - # 1
    frequency:    0.0019576053
  - # 2
    frequency:    0.0706979795
  - # 3
    frequency:    0.1214309309
  - # 4
    frequency:    4.0647962900
  - # 5
    frequency:    4.0659008989
  - # 6
    frequency:    6.6283730618
  - # 7
    frequency:   10.7235201795
  - # 8
    frequency:   10.7240104907
  - # 9
    frequency:   14.6046086475
  - # 10
    frequency:   14.6048938252
  - # 11
    frequency:   15.3872922024
  - # 12
    frequency:   17.0902855497
  - # 13
    frequency:   27.1701733166
  - # 14
    frequency:   32.8119585647
  - # 15
    frequency:   32.8123607040

- q-position: [    0.0101010,    0.0000000,    0.0000000 ]
  distance:    0.0035786
  band:
  - # 1
    frequency:    0.0079256367
  - # 2
    frequency:    0.1413900048
  - # 3
    frequency:    0.2428208956
  - # 4
    frequency:    4.0658300239
  - # 5
    frequency:    4.0702413509
  - # 6
    frequency:    6.6273356949
  - # 7
    frequency:   10.7237430796
  - # 8
    frequency:   10.7257017305
  - # 9
    frequency:   14.6037119470
  - # 10
    frequency:   14.6048512004
  - # 11
    frequency:   15.3858816415
  - # 12
    frequency:   17.0878827535
  - # 13
    frequency:   27.1694554866
  - # 14
    frequency:   32.8123651117
  - # 15
    frequency:   32.8139722117

- q-position: [    0.0151515,    0.0000000,    0.0000000 ]
  distance:    0.0053680
  band:
  - # 1
    frequency:    0.0178455468
  - # 2
    frequency:    0.2120701204
  - # 3
    frequency:    0.3641288683
  - # 4
    frequency:    4.0675530824
  - # 5
    frequency:    4.0774520736
  - # 6
    frequency:    6.6256067256
  - # 7
    frequency:   10.7241150692
  - # 8
    frequency:   10.7285123304
  - # 9
    frequency:   14.6022219802
  - # 10
    frequency:   14.6047798558
  - # 11
    frequency:   15.3835300924
  - # 12
    frequency:   17.0838910245
  - # 13
    frequency:   27.1682642138
  - # 14
    frequency:   32.8130393484
  - # 15
    frequency:   32.8166498786

- q-position: [    0.0202020,    0.0000000,    0.0000000 ]
  distance:    0.0071573
  band:
  - # 1
    frequency:    0.0316782873
  - # 2
    frequency:    0.2827323633
  - # 3
    frequency:    0.4853137098
  - # 4
    frequency:    4.0699656885
  - # 5
    frequency:    4.0874985492
  - # 6
    frequency:    6.6231861485
  - # 7
    frequency:   10.7246368898
  - # 8
    frequency:   10.7324301789
  - # 9
    frequency:   14.6001454754
  - # 10
    frequency:   14.6046793387
  - # 11
    frequency:   15.3802367036
  - # 12
    frequency:   17.0783296683
  - # 13
    frequency:   27.1666071026
  - # 14
    frequency:   32.8139762768
  - # 15
    frequency:   32.8203815225

- q-position: [    0.0252525,    0.0000000,    0.0000000 ]
  distance:    0.0089466
  band:
  - # 1
    frequency:    0.0493699873
  - # 2
    frequency:    0.3533707574
  - # 3
    frequency:    0.6063341060
  - # 4
    frequency:    4.0730680949
  - # 5
    frequency:    4.1003334807
  - # 6
    frequency:    6.6200740202
  - # 7
    frequency:   10.7253095938
  - # 8
    frequency:   10.7374384946
  - # 9
    frequency:   14.5974917081
  - # 10
    frequency:   14.6045490181
  - # 11
    frequency:   15.3760004209
  - # 12
    frequency:   17.0712255297
  - # 13
    frequency:   27.1644946767
  - # 14
    frequency:   32.8151689290
  - # 15
    frequency:   32.8251502588

- q-position: [    0.0303030,    0.0000000,    0.0000000 ]
  distance:    0.0107359
  band:
  - # 1
    frequency:    0.0708530089
  - # 2
    frequency:    0.4239793040
  - # 3
    frequency:    0.7271485068
  - # 4
    frequency:    4.0768605269
  - # 5
    frequency:    4.1158977533
  - # 6
    frequency:    6.6162705233
  - # 7
    frequency:   10.7261345583
  - # 8
    frequency:   10.7435159973
  - # 9
    frequency:   14.5942723625
  - # 10
    frequency:   14.6043880881
  - # 11
    frequency:   15.3708201213
  - # 12
    frequency:   17.0626128111
  - # 13
    frequency:   27.1619402605
  - # 14
    frequency:   32.8166083961
  - # 15
    frequency:   32.8309346687

- q-position: [    0.0353535,    0.0000000,    0.0000000 ]
  distance:    0.0125252
  band:
  - # 1
    frequency:    0.0960470703
  - # 2
    frequency:    0.4945519677
  - # 3
    frequency:    0.8477150610
  - # 4
    frequency:    4.0813431108
  - # 5
    frequency:    4.1341215856
  - # 6
    frequency:    6.6117760504
  - # 7
    frequency:   10.7271135021
  - # 8
    frequency:   10.7506371247
  - # 9
    frequency:   14.5905013592
  - # 10
    frequency:   14.6041955720
  - # 11
    frequency:   15.3646947785
  - # 12
    frequency:   17.0525328414
  - # 13
    frequency:   27.1589598291
  - # 14
    frequency:   32.8182838652
  - # 15
    frequency:   32.8377090079

- q-position: [    0.0404040,    0.0000000,    0.0000000 ]
  distance:    0.0143145
  band:
  - # 1
    frequency:    0.1248604894
  - # 2
    frequency:    0.5650826564
  - # 3
    frequency:    0.9679915476
  - # 4
    frequency:    4.0865157925
  - # 5
    frequency:    4.1549258138
  - # 6
    frequency:    6.6065913078
  - # 7
    frequency:   10.7282485060
  - # 8
    frequency:   10.7587722891
  - # 9
    frequency:   14.5861946541
  - # 10
    frequency:   14.6039703258
  - # 11
    frequency:   15.3576236567
  - # 12
    frequency:   17.0410337957
  - # 13
    frequency:   27.1555718323
  - # 14
    frequency:   32.8201826655
  - # 15
    frequency:   32.8454434561

- q-position: [    0.0454545,    0.0000000,    0.0000000 ]
  distance:    0.0161039
  band:
  - # 1
    frequency:    0.1571914984
  - # 2
    frequency:    0.6355651962
  - # 3
    frequency:    1.0879353023
  - # 4
    frequency:    4.0923782452
  - # 5
    frequency:    4.1782232565
  - # 6
    frequency:    6.6007174402
  - # 7
    frequency:   10.7295420342
  - # 8
    frequency:   10.7678881723
  - # 9
    frequency:   14.5813700149
  - # 10
    frequency:   14.6037110435
  - # 11
    frequency:   15.3496065276
  - # 12
    frequency:   17.0281703691
  - # 13
    frequency:   27.1517969930
  - # 14
    frequency:   32.8222903211
  - # 15
    frequency:   32.8541044002

- q-position: [    0.0505051,    0.0000000,    0.0000000 ]
  distance:    0.0178932
  band:
  - # 1
    frequency:    0.1929295809
  - # 2
    frequency:    0.7059932990
  - # 3
    frequency:    1.2075031382
  - # 4
    frequency:    4.0989297720
  - # 5
    frequency:    4.2039201036
  - # 6
    frequency:    6.5941561772
  - # 7
    frequency:   10.7309969584
  - # 8
    frequency:   10.7779480544
  - # 9
    frequency:   14.5760467782
  - # 10
    frequency:   14.6034162615
  - # 11
    frequency:   15.3406439059
  - # 12
    frequency:   17.0140034044
  - # 13
    frequency:   27.1476580867
  - # 14
    frequency:   32.8245906125
  - # 15
    frequency:   32.8636547467

- q-position: [    0.0555556,    0.0000000,    0.0000000 ]
  distance:    0.0196825
  band:
  - # 1
    frequency:    0.2319567850
  - # 2
    frequency:    0.7763605229
  - # 3
    frequency:    1.3266512600
  - # 4
    frequency:    4.1061692039
  - # 5
    frequency:    4.2319172845
  - # 6
    frequency:    6.5869100038
  - # 7
    frequency:   10.7326165822
  - # 8
    frequency:   10.7889121707
  - # 9
    frequency:   14.5702455957
  - # 10
    frequency:   14.6030843634
  - # 11
    frequency:   15.3307372974
  - # 12
    frequency:   16.9985994788
  - # 13
    frequency:   27.1431797030
  - # 14
    frequency:   32.8270656464
  - # 15
    frequency:   32.8740542604

- q-position: [    0.0606061,    0.0000000,    0.0000000 ]
  distance:    0.0214718
  band:
  - # 1
    frequency:    0.2741489741
  - # 2
    frequency:    0.8466602257
  - # 3
    frequency:    1.4453351707
  - # 4
    frequency:    4.1140947979
  - # 5
    frequency:    4.2621117718
  - # 6
    frequency:    6.5789823543
  - # 7
    frequency:   10.7344046651
  - # 8
    frequency:   10.8007380941
  - # 9
    frequency:   14.5639881729
  - # 10
    frequency:   14.6027135844
  - # 11
    frequency:   15.3198894549
  - # 12
    frequency:   16.9820304497
  - # 13
    frequency:   27.1383879949
  - # 14
    frequency:   32.8296959316
  - # 15
    frequency:   32.8852599212

- q-position: [    0.0656566,    0.0000000,    0.0000000 ]
  distance:    0.0232611
  band:
  - # 1
    frequency:    0.3193769879
  - # 2
    frequency:    0.9168855113
  - # 3
    frequency:    1.5635095710
  - # 4
    frequency:    4.1227041365
  - # 5
    frequency:    4.2943977912
  - # 6
    frequency:    6.5703778338
  - # 7
    frequency:   10.7363654463
  - # 8
    frequency:   10.8133811363
  - # 9
    frequency:   14.5572970078
  - # 10
    frequency:   14.6023020157
  - # 11
    frequency:   15.3081046367
  - # 12
    frequency:   16.9643729641
  - # 13
    frequency:   27.1333104192
  - # 14
    frequency:   32.8324604640
  - # 15
    frequency:   32.8972262956

- q-position: [    0.0707071,    0.0000000,    0.0000000 ]
  distance:    0.0250504
  band:
  - # 1
    frequency:    0.3675076921
  - # 2
    frequency:    0.9870291684
  - # 3
    frequency:    1.6811282489
  - # 4
    frequency:    4.1319940332
  - # 5
    frequency:    4.3286679109
  - # 6
    frequency:    6.5611024679
  - # 7
    frequency:   10.7385036666
  - # 8
    frequency:   10.8267947650
  - # 9
    frequency:   14.5501951334
  - # 10
    frequency:   14.6018476080
  - # 11
    frequency:   15.2953888630
  - # 12
    frequency:   16.9457079337
  - # 13
    frequency:   27.1279754719
  - # 14
    frequency:   32.8353368178
  - # 15
    frequency:   32.9099059170

- q-position: [    0.0757576,    0.0000000,    0.0000000 ]
  distance:    0.0268398
  band:
  - # 1
    frequency:    0.4184049077
  - # 2
    frequency:    1.0570836034
  - # 3
    frequency:    1.7981439619
  - # 4
    frequency:    4.1419604448
  - # 5
    frequency:    4.3648139972
  - # 6
    frequency:    6.5511639842
  - # 7
    frequency:   10.7408245878
  - # 8
    frequency:   10.8409310303
  - # 9
    frequency:   14.5427058691
  - # 10
    frequency:   14.6013481744
  - # 11
    frequency:   15.2817501650
  - # 12
    frequency:   16.9261199798
  - # 13
    frequency:   27.1224124228
  - # 14
    frequency:   32.8383012438
  - # 15
    frequency:   32.9232496695

- q-position: [    0.0808081,    0.0000000,    0.0000000 ]
  distance:    0.0286291
  band:
  - # 1
    frequency:    0.4719302150
  - # 2
    frequency:    1.1270407674
  - # 3
    frequency:    1.9145083090
  - # 4
    frequency:    4.1525983951
  - # 5
    frequency:    4.4027280232
  - # 6
    frequency:    6.5405721287
  - # 7
    frequency:   10.7433340085
  - # 8
    frequency:   10.8557409985
  - # 9
    frequency:   14.5348525858
  - # 10
    frequency:   14.6008013929
  - # 11
    frequency:   15.2671988225
  - # 12
    frequency:   16.9056968517
  - # 13
    frequency:   27.1166510520
  - # 14
    frequency:   32.8413287749
  - # 15
    frequency:   32.9372071704

- q-position: [    0.0858586,    0.0000000,    0.0000000 ]
  distance:    0.0304184
  band:
  - # 1
    frequency:    0.5279436358
  - # 2
    frequency:    1.1968920783
  - # 3
    frequency:    2.0301715953
  - # 4
    frequency:    4.1639019097
  - # 5
    frequency:    4.4423027283
  - # 6
    frequency:    6.5293390216
  - # 7
    frequency:   10.7460382756
  - # 8
    frequency:   10.8711751862
  - # 9
    frequency:   14.5266584881
  - # 10
    frequency:   14.6002048079
  - # 11
    frequency:   15.2517475869
  - # 12
    frequency:   16.8845288226
  - # 13
    frequency:   27.1107213928
  - # 14
    frequency:   32.8443933365
  - # 15
    frequency:   32.9517271467

- q-position: [    0.0909091,    0.0000000,    0.0000000 ]
  distance:    0.0322077
  band:
  - # 1
    frequency:    0.5863042019
  - # 2
    frequency:    1.2666283394
  - # 3
    frequency:    2.1450826891
  - # 4
    frequency:    4.1758639666
  - # 5
    frequency:    4.4834321239
  - # 6
    frequency:    6.5174795591
  - # 7
    frequency:   10.7489442913
  - # 8
    frequency:   10.8871839929
  - # 9
    frequency:   14.5181464160
  - # 10
    frequency:   14.5995558312
  - # 11
    frequency:   15.2354118851
  - # 12
    frequency:   16.8627080675
  - # 13
    frequency:   27.1046534832
  - # 14
    frequency:   32.8474678647
  - # 15
    frequency:   32.9667578022

- q-position: [    0.0959596,    0.0000000,    0.0000000 ]
  distance:    0.0339970
  band:
  - # 1
    frequency:    0.6468704182
  - # 2
    frequency:    1.3362396562
  - # 3
    frequency:    2.2591888725
  - # 4
    frequency:    4.1884764609
  - # 5
    frequency:    4.5260118438
  - # 6
    frequency:    6.5050118676
  - # 7
    frequency:   10.7520595138
  - # 8
    frequency:   10.9037181278
  - # 9
    frequency:   14.5093386689
  - # 10
    frequency:   14.5988517419
  - # 11
    frequency:   15.2182100009
  - # 12
    frequency:   16.8403280279
  - # 13
    frequency:   27.0984771288
  - # 14
    frequency:   32.8505244283
  - # 15
    frequency:   32.9822471695

- q-position: [    0.1010101,    0.0000000,    0.0000000 ]
  distance:    0.0357863
  band:
  - # 1
    frequency:    0.7095006356
  - # 2
    frequency:    1.4057153519
  - # 3
    frequency:    2.3724356902
  - # 4
    frequency:    4.2017301867
  - # 5
    frequency:    4.5699393356
  - # 6
    frequency:    6.4919578216
  - # 7
    frequency:   10.7553919512
  - # 8
    frequency:   10.9207290262
  - # 9
    frequency:   14.5002568542
  - # 10
    frequency:   14.5980896864
  - # 11
    frequency:   15.2001632323
  - # 12
    frequency:   16.8174827696
  - # 13
    frequency:   27.0922216797
  - # 14
    frequency:   32.8535343565
  - # 15
    frequency:   32.9981434465

- q-position: [    0.1060606,    0.0000000,    0.0000000 ]
  distance:    0.0375757
  band:
  - # 1
    frequency:    0.7740533447
  - # 2
    frequency:    1.4750438845
  - # 3
    frequency:    2.4847667966
  - # 4
    frequency:    4.2156148357
  - # 5
    frequency:    4.6151138872
  - # 6
    frequency:    6.4783436384
  - # 7
    frequency:   10.7589501492
  - # 8
    frequency:   10.9381692546
  - # 9
    frequency:   14.4909217605
  - # 10
    frequency:   14.5972666776
  - # 11
    frequency:   15.1812960189
  - # 12
    frequency:   16.7942663372
  - # 13
    frequency:   27.0859158230
  - # 14
    frequency:   32.8564683715
  - # 15
    frequency:   33.0143953117

- q-position: [    0.1111111,    0.0000000,    0.0000000 ]
  distance:    0.0393650
  band:
  - # 1
    frequency:    0.8403874038
  - # 2
    frequency:    1.5442127665
  - # 3
    frequency:    2.5961238091
  - # 4
    frequency:    4.2301190123
  - # 5
    frequency:    4.6614364743
  - # 6
    frequency:    6.4642005677
  - # 7
    frequency:   10.7627431706
  - # 8
    frequency:   10.9559928996
  - # 9
    frequency:   14.4813532574
  - # 10
    frequency:   14.5963795942
  - # 11
    frequency:   15.1616360396
  - # 12
    frequency:   16.7707721140
  - # 13
    frequency:   27.0795873935
  - # 14
    frequency:   32.8592967238
  - # 15
    frequency:   33.0309522181

- q-position: [    0.1161616,    0.0000000,    0.0000000 ]
  distance:    0.0411543
  band:
  - # 1
    frequency:    0.9083622146
  - # 2
    frequency:    1.6132084892
  - # 3
    frequency:    2.7064461702
  - # 4
    frequency:    4.2452302650
  - # 5
    frequency:    4.7088094116
  - # 6
    frequency:    6.4495656999
  - # 7
    frequency:   10.7667805664
  - # 8
    frequency:   10.9741559387
  - # 9
    frequency:   14.4715702212
  - # 10
    frequency:   14.5954251796
  - # 11
    frequency:   15.1412142753
  - # 12
    frequency:   16.7470921913
  - # 13
    frequency:   27.0732632021
  - # 14
    frequency:   32.8619893321
  - # 15
    frequency:   33.0477646628

- q-position: [    0.1212121,    0.0000000,    0.0000000 ]
  distance:    0.0429436
  band:
  - # 1
    frequency:    0.9778378541
  - # 2
    frequency:    1.6820164543
  - # 3
    frequency:    2.8156710273
  - # 4
    frequency:    4.2609351325
  - # 5
    frequency:    4.7571357746
  - # 6
    frequency:    6.4344829260
  - # 7
    frequency:   10.7710723394
  - # 8
    frequency:   10.9926165907
  - # 9
    frequency:   14.4615904880
  - # 10
    frequency:   14.5944000425
  - # 11
    frequency:   15.1200650351
  - # 12
    frequency:   16.7233167555
  - # 13
    frequency:   27.0669688845
  - # 14
    frequency:   32.8645159254
  - # 15
    frequency:   33.0647844312

- q-position: [    0.1262626,    0.0000000,    0.0000000 ]
  distance:    0.0447329
  band:
  - # 1
    frequency:    1.0486751749
  - # 2
    frequency:    1.7506209123
  - # 3
    frequency:    2.9237331381
  - # 4
    frequency:    4.2772192032
  - # 5
    frequency:    4.8063185510
  - # 6
    frequency:    6.4190040913
  - # 7
    frequency:   10.7756288984
  - # 8
    frequency:   11.0113356435
  - # 9
    frequency:   14.4514308323
  - # 10
    frequency:   14.5933006564
  - # 11
    frequency:   15.0982259411
  - # 12
    frequency:   16.6995334991
  - # 13
    frequency:   27.0607287705
  - # 14
    frequency:   32.8668461868
  - # 15
    frequency:   33.0819648157

- q-position: [    0.1313131,    0.0000000,    0.0000000 ]
  distance:    0.0465222
  band:
  - # 1
    frequency:    1.1207358795
  - # 2
    frequency:    1.8190049124
  - # 3
    frequency:    3.0305648096
  - # 4
    frequency:    4.2940671869
  - # 5
    frequency:    4.8562594597
  - # 6
    frequency:    6.4031904024
  - # 7
    frequency:   10.7804610045
  - # 8
    frequency:   11.0302767560
  - # 9
    frequency:   14.4411069729
  - # 10
    frequency:   14.5921233619
  - # 11
    frequency:   15.0757378713
  - # 12
    frequency:   16.6758270620
  - # 13
    frequency:   27.0545657733
  - # 14
    frequency:   32.8689498993
  - # 15
    frequency:   33.0992608061

- q-position: [    0.1363636,    0.0000000,    0.0000000 ]
  distance:    0.0483116
  band:
  - # 1
    frequency:    1.1938825771
  - # 2
    frequency:    1.8871502633
  - # 3
    frequency:    3.1360958849
  - # 4
    frequency:    4.3114629948
  - # 5
    frequency:    4.9068573554
  - # 6
    frequency:    6.3871141639
  - # 7
    frequency:   10.7855797083
  - # 8
    frequency:   11.0494067330
  - # 9
    frequency:   14.4306336047
  - # 10
    frequency:   14.5908643696
  - # 11
    frequency:   15.0526448540
  - # 12
    frequency:   16.6522785112
  - # 13
    frequency:   27.0485013002
  - # 14
    frequency:   32.8707970921
  - # 15
    frequency:   33.1166292550

- q-position: [    0.1414141,    0.0000000,    0.0000000 ]
  distance:    0.0501009
  band:
  - # 1
    frequency:    1.2679788259
  - # 2
    frequency:    1.9550375066
  - # 3
    frequency:    3.2402537857
  - # 4
    frequency:    4.3293898276
  - # 5
    frequency:    4.9580061085
  - # 6
    frequency:    6.3708609499
  - # 7
    frequency:   10.7909962788
  - # 8
    frequency:   11.0686957712
  - # 9
    frequency:   14.4200244582
  - # 10
    frequency:   14.5895197650
  - # 11
    frequency:   15.0289939137
  - # 12
    frequency:   16.6289648633
  - # 13
    frequency:   27.0425551834
  - # 14
    frequency:   32.8723581868
  - # 15
    frequency:   33.1340290148

- q-position: [    0.1464646,    0.0000000,    0.0000000 ]
  distance:    0.0518902
  band:
  - # 1
    frequency:    1.3428891657
  - # 2
    frequency:    2.0226459054
  - # 3
    frequency:    3.3429636267
  - # 4
    frequency:    4.3478302671
  - # 5
    frequency:    5.0095918127
  - # 6
    frequency:    6.3545323495
  - # 7
    frequency:   10.7967221247
  - # 8
    frequency:   11.0881176717
  - # 9
    frequency:   14.4092923853
  - # 10
    frequency:   14.5880855158
  - # 11
    frequency:   15.0048348627
  - # 12
    frequency:   16.6059586569
  - # 13
    frequency:   27.0367456317
  - # 14
    frequency:   32.8736041427
  - # 15
    frequency:   33.1514210502

- q-position: [    0.1515152,    0.0000000,    0.0000000 ]
  distance:    0.0536795
  band:
  - # 1
    frequency:    1.4184791427
  - # 2
    frequency:    2.0899534470
  - # 3
    frequency:    3.4441484123
  - # 4
    frequency:    4.3667663700
  - # 5
    frequency:    5.0614891301
  - # 6
    frequency:    6.3382494681
  - # 7
    frequency:   10.8027687073
  - # 8
    frequency:   11.1076500210
  - # 9
    frequency:   14.3984494734
  - # 10
    frequency:   14.5865574816
  - # 11
    frequency:   14.9802200379
  - # 12
    frequency:   16.5833275799
  - # 13
    frequency:   27.0310892010
  - # 14
    frequency:   32.8745066014
  - # 15
    frequency:   33.1687685234

- q-position: [    0.1565657,    0.0000000,    0.0000000 ]
  distance:    0.0554688
  band:
  - # 1
    frequency:    1.4946153278
  - # 2
    frequency:    2.1569368616
  - # 3
    frequency:    3.5437293276
  - # 4
    frequency:    4.3861797606
  - # 5
    frequency:    5.1135565274
  - # 6
    frequency:    6.3221574243
  - # 7
    frequency:   10.8091474474
  - # 8
    frequency:   11.1272743333
  - # 9
    frequency:   14.3875071889
  - # 10
    frequency:   14.5849314268
  - # 11
    frequency:   14.9552039787
  - # 12
    frequency:   16.5611341544
  - # 13
    frequency:   27.0256007842
  - # 14
    frequency:   32.8750380278
  - # 15
    frequency:   33.1860368572

- q-position: [    0.1616162,    0.0000000,    0.0000000 ]
  distance:    0.0572581
  band:
  - # 1
    frequency:    1.5711653289
  - # 2
    frequency:    2.2235716575
  - # 3
    frequency:    3.6416261337
  - # 4
    frequency:    4.4060517200
  - # 5
    frequency:    5.1656300998
  - # 6
    frequency:    6.3064311389
  - # 7
    frequency:   10.8158696245
  - # 8
    frequency:   11.1469761568
  - # 9
    frequency:   14.3764765501
  - # 10
    frequency:   14.5832030358
  - # 11
    frequency:   14.9298430458
  - # 12
    frequency:   16.5394354838
  - # 13
    frequency:   27.0202936189
  - # 14
    frequency:   32.8751718501
  - # 15
    frequency:   33.2031937727

- q-position: [    0.1666667,    0.0000000,    0.0000000 ]
  distance:    0.0590475
  band:
  - # 1
    frequency:    1.6479977972
  - # 2
    frequency:    2.2898321720
  - # 3
    frequency:    3.7377576721
  - # 4
    frequency:    4.4263632695
  - # 5
    frequency:    5.2175156292
  - # 6
    frequency:    6.2912827700
  - # 7
    frequency:   10.8229462721
  - # 8
    frequency:   11.1667451379
  - # 9
    frequency:   14.3653683323
  - # 10
    frequency:   14.5813679332
  - # 11
    frequency:   14.9041949799
  - # 12
    frequency:   16.5182830618
  - # 13
    frequency:   27.0151793119
  - # 14
    frequency:   32.8748825942
  - # 15
    frequency:   33.2202093070

- q-position: [    0.1717172,    0.0000000,    0.0000000 ]
  distance:    0.0608368
  band:
  - # 1
    frequency:    1.7249824267
  - # 2
    frequency:    2.3556916379
  - # 3
    frequency:    3.8320424787
  - # 4
    frequency:    4.4470952459
  - # 5
    frequency:    5.2689785139
  - # 6
    frequency:    6.2769711568
  - # 7
    frequency:   10.8303880666
  - # 8
    frequency:   11.1865750434
  - # 9
    frequency:   14.3541933035
  - # 10
    frequency:   14.5794217058
  - # 11
    frequency:   14.8783184020
  - # 12
    frequency:   16.4977226450
  - # 13
    frequency:   27.0102678788
  - # 14
    frequency:   32.8741460158
  - # 15
    frequency:   33.2370558095

- q-position: [    0.1767677,    0.0000000,    0.0000000 ]
  distance:    0.0626261
  band:
  - # 1
    frequency:    1.8019899467
  - # 2
    frequency:    2.4211222665
  - # 3
    frequency:    3.9243994982
  - # 4
    frequency:    4.4682283671
  - # 5
    frequency:    5.3197313239
  - # 6
    frequency:    6.2638135345
  - # 7
    frequency:   10.8382052143
  - # 8
    frequency:   11.2064637387
  - # 9
    frequency:   14.3429624936
  - # 10
    frequency:   14.5773599293
  - # 11
    frequency:   14.8522722572
  - # 12
    frequency:   16.4777941868
  - # 13
    frequency:   27.0055677988
  - # 14
    frequency:   32.8729392258
  - # 15
    frequency:   33.2537079200

- q-position: [    0.1818182,    0.0000000,    0.0000000 ]
  distance:    0.0644154
  band:
  - # 1
    frequency:    1.8788921055
  - # 2
    frequency:    2.4860953441
  - # 3
    frequency:    4.0147488819
  - # 4
    frequency:    4.4897432859
  - # 5
    frequency:    5.3694191273
  - # 6
    frequency:    6.2521993924
  - # 7
    frequency:   10.8464073344
  - # 8
    frequency:   11.2264131194
  - # 9
    frequency:   14.3316874932
  - # 10
    frequency:   14.5751781988
  - # 11
    frequency:   14.8261152086
  - # 12
    frequency:   16.4585318304
  - # 13
    frequency:   27.0010860810
  - # 14
    frequency:   32.8712408112
  - # 15
    frequency:   33.2701425301

- q-position: [    0.1868687,    0.0000000,    0.0000000 ]
  distance:    0.0662047
  band:
  - # 1
    frequency:    1.9555616459
  - # 2
    frequency:    2.5505813423
  - # 3
    frequency:    4.1030128377
  - # 4
    frequency:    4.5116206313
  - # 5
    frequency:    5.4176036981
  - # 6
    frequency:    6.2426054005
  - # 7
    frequency:   10.8550033413
  - # 8
    frequency:   11.2464289964
  - # 9
    frequency:   14.3203807806
  - # 10
    frequency:   14.5728721622
  - # 11
    frequency:   14.7999049877
  - # 12
    frequency:   16.4399639569
  - # 13
    frequency:   26.9968283428
  - # 14
    frequency:   32.8690309498
  - # 15
    frequency:   33.2863387287

- q-position: [    0.1919192,    0.0000000,    0.0000000 ]
  distance:    0.0679940
  band:
  - # 1
    frequency:    2.0318722708
  - # 2
    frequency:    2.6145500405
  - # 3
    frequency:    4.1891164878
  - # 4
    frequency:    4.5338410369
  - # 5
    frequency:    5.4637497046
  - # 6
    frequency:    6.2356083521
  - # 7
    frequency:   10.8640013267
  - # 8
    frequency:   11.2665209318
  - # 9
    frequency:   14.3090560702
  - # 10
    frequency:   14.5704375578
  - # 11
    frequency:   14.7736977144
  - # 12
    frequency:   16.4221132830
  - # 13
    frequency:   26.9927988973
  - # 14
    frequency:   32.8662915179
  - # 15
    frequency:   33.3022777347

- q-position: [    0.1969697,    0.0000000,    0.0000000 ]
  distance:    0.0697834
  band:
  - # 1
    frequency:    2.1076986010
  - # 2
    frequency:    2.6779706586
  - # 3
    frequency:    4.2729886760
  - # 4
    frequency:    4.5563851545
  - # 5
    frequency:    5.5072194325
  - # 6
    frequency:    6.2318896275
  - # 7
    frequency:   10.8734084420
  - # 8
    frequency:   11.2867020279
  - # 9
    frequency:   14.2977286749
  - # 10
    frequency:   14.5678702550
  - # 11
    frequency:   14.7475471997
  - # 12
    frequency:   16.4049970039
  - # 13
    frequency:   26.9890008490
  - # 14
    frequency:   32.8630061908
  - # 15
    frequency:   33.3179428179

- q-position: [    0.2020202,    0.0000000,    0.0000000 ]
  distance:    0.0715727
  band:
  - # 1
    frequency:    2.1829161237
  - # 2
    frequency:    2.7408119987
  - # 3
    frequency:    4.3545626523
  - # 4
    frequency:    4.5792336555
  - # 5
    frequency:    5.5472873318
  - # 6
    frequency:    6.2322199653
  - # 7
    frequency:   10.8832307839
  - # 8
    frequency:   11.3069886674
  - # 9
    frequency:   14.2864158690
  - # 10
    frequency:   14.5651662979
  - # 11
    frequency:   14.7215042498
  - # 12
    frequency:   16.3886269726
  - # 13
    frequency:   26.9854361948
  - # 14
    frequency:   32.8591605363
  - # 15
    frequency:   33.3333192102

- q-position: [    0.2070707,    0.0000000,    0.0000000 ]
  distance:    0.0733620
  band:
  - # 1
    frequency:    2.2574011371
  - # 2
    frequency:    2.8030425936
  - # 3
    frequency:    4.4337765485
  - # 4
    frequency:    4.6023672176
  - # 5
    frequency:    5.5831892402
  - # 6
    frequency:    6.2374097732
  - # 7
    frequency:   10.8934732826
  - # 8
    frequency:   11.3274002074
  - # 9
    frequency:   14.2751372351
  - # 10
    frequency:   14.5623219519
  - # 11
    frequency:   14.6956159965
  - # 12
    frequency:   16.3730099108
  - # 13
    frequency:   26.9821059302
  - # 14
    frequency:   32.8547420989
  - # 15
    frequency:   33.3483940084

- q-position: [    0.2121212,    0.0000000,    0.0000000 ]
  distance:    0.0751513
  band:
  - # 1
    frequency:    2.3310306911
  - # 2