nqpoint: 300    
npath: 3      
segment_nqpoint:
- 100
- 100
- 100
labels:
- [ 'G', 'M' ]
- [ 'M', 'K' ]
- [ 'K', 'G' ]
reciprocal_lattice:
- [   0.29113190,   0.16808508,   0.00000000 ] # a*
- [   0.00000000,   0.33617016,   0.00000000 ] # b*
- [   0.00000000,   0.00000000,   0.04038724 ] # c*
natom: 6      
lattice:
- [     3.434869270242160,     0.000000000000000,     0.000000000000000 ] # a
- [    -1.717434635121080,     2.974684046707060,     0.000000000000000 ] # b
- [     0.000000000000000,     0.000000000000000,    24.760294459542980 ] # c
points:
- symbol: C # 1
  coordinates: [  0.000000000000000,  0.000000000000000,  0.481086143382541 ]
  mass: 12.010700
- symbol: C # 2
  coordinates: [  0.333332985432215,  0.666666983183674,  0.588093108896166 ]
  mass: 12.010700
- symbol: Cl # 3
  coordinates: [  0.666666984744047,  0.333332985985145,  0.363485176426537 ]
  mass: 35.453000
- symbol: N # 4
  coordinates: [  0.333332985432215,  0.666666983183674,  0.636514823573462 ]
  mass: 14.006700
- symbol: Sc # 5
  coordinates: [  0.333332985432215,  0.666666983183674,  0.431114093720846 ]
  mass: 44.955912
- symbol: Sc # 6
  coordinates: [  0.666666984744047,  0.333332985985145,  0.531015342640744 ]
  mass: 44.955912

phonon:
- q-position: [    0.0000000,    0.0000000,    0.0000000 ]
  distance:    0.0000000
  band:
  - # 1
    frequency:   -2.6703834103
  - # 2
    frequency:   -2.6703834103
  - # 3
    frequency:   -0.0000074740
  - # 4
    frequency:   -0.0000002799
  - # 5
    frequency:    0.0000058596
  - # 6
    frequency:    4.1426732402
  - # 7
    frequency:    4.1426732402
  - # 8
    frequency:    5.8755497470
  - # 9
    frequency:    5.9562048224
  - # 10
    frequency:    5.9562048224
  - # 11
    frequency:    7.7260307685
  - # 12
    frequency:    7.7260307685
  - # 13
    frequency:    8.8655596708
  - # 14
    frequency:   11.5123257065
  - # 15
    frequency:   11.5123257065
  - # 16
    frequency:   11.7514302702
  - # 17
    frequency:   18.1169492337
  - # 18
    frequency:   62.7346967175

- q-position: [    0.0050505,    0.0000000,    0.0000000 ]
  distance:    0.0016978
  band:
  - # 1
    frequency:   -2.6703255769
  - # 2
    frequency:   -2.6701628753
  - # 3
    frequency:    0.0020605657
  - # 4
    frequency:    0.0741699498
  - # 5
    frequency:    0.1248098457
  - # 6
    frequency:    4.1428068336
  - # 7
    frequency:    4.1441140633
  - # 8
    frequency:    5.8728768993
  - # 9
    frequency:    5.9561549512
  - # 10
    frequency:    5.9601275266
  - # 11
    frequency:    7.7259458001
  - # 12
    frequency:    7.7273206183
  - # 13
    frequency:    8.8655598179
  - # 14
    frequency:   11.5119968587
  - # 15
    frequency:   11.5160789312
  - # 16
    frequency:   11.7522634274
  - # 17
    frequency:   18.1155251169
  - # 18
    frequency:   62.7346191633

- q-position: [    0.0101010,    0.0000000,    0.0000000 ]
  distance:    0.0033957
  band:
  - # 1
    frequency:   -2.6701530548
  - # 2
    frequency:   -2.6695057460
  - # 3
    frequency:    0.0082326735
  - # 4
    frequency:    0.1483296799
  - # 5
    frequency:    0.2496170111
  - # 6
    frequency:    4.1432078496
  - # 7
    frequency:    4.1484248963
  - # 8
    frequency:    5.8660543084
  - # 9
    frequency:    5.9560056081
  - # 10
    frequency:    5.9706704420
  - # 11
    frequency:    7.7256912400
  - # 12
    frequency:    7.7311707944
  - # 13
    frequency:    8.8655607900
  - # 14
    frequency:   11.5110115668
  - # 15
    frequency:   11.5268887182
  - # 16
    frequency:   11.7552025506
  - # 17
    frequency:   18.1112551351
  - # 18
    frequency:   62.7343866587

- q-position: [    0.0151515,    0.0000000,    0.0000000 ]
  distance:    0.0050935
  band:
  - # 1
    frequency:   -2.6698687497
  - # 2
    frequency:   -2.6684252045
  - # 3
    frequency:    0.0184841205
  - # 4
    frequency:    0.2224686738
  - # 5
    frequency:    0.3744170510
  - # 6
    frequency:    4.1438769940
  - # 7
    frequency:    4.1555711756
  - # 8
    frequency:    5.8571346821
  - # 9
    frequency:    5.9557576023
  - # 10
    frequency:    5.9856951037
  - # 11
    frequency:    7.7252681223
  - # 12
    frequency:    7.7375237114
  - # 13
    frequency:    8.8655641814
  - # 14
    frequency:   11.5093735813
  - # 15
    frequency:   11.5432592389
  - # 16
    frequency:   11.7617117660
  - # 17
    frequency:   18.1041463913
  - # 18
    frequency:   62.7339996770

- q-position: [    0.0202020,    0.0000000,    0.0000000 ]
  distance:    0.0067913
  band:
  - # 1
    frequency:   -2.6694774072
  - # 2
    frequency:   -2.6669424280
  - # 3
    frequency:    0.0327625394
  - # 4
    frequency:    0.2965758323
  - # 5
    frequency:    0.4992021089
  - # 6
    frequency:    4.1448154391
  - # 7
    frequency:    4.1654964211
  - # 8
    frequency:    5.8474861124
  - # 9
    frequency:    5.9554122765
  - # 10
    frequency:    6.0036968806
  - # 11
    frequency:    7.7246781663
  - # 12
    frequency:    7.7462851852
  - # 13
    frequency:    8.8655726573
  - # 14
    frequency:   11.5070891371
  - # 15
    frequency:   11.5623032541
  - # 16
    frequency:   11.7746222624
  - # 17
    frequency:   18.0942107136
  - # 18
    frequency:   62.7334590058

- q-position: [    0.0252525,    0.0000000,    0.0000000 ]
  distance:    0.0084891
  band:
  - # 1
    frequency:   -2.6689854729
  - # 2
    frequency:   -2.6650854741
  - # 3
    frequency:    0.0509960443
  - # 4
    frequency:    0.3706392103
  - # 5
    frequency:    0.6239594898
  - # 6
    frequency:    4.1460248172
  - # 7
    frequency:    4.1781238369
  - # 8
    frequency:    5.8377824318
  - # 9
    frequency:    5.9549714977
  - # 10
    frequency:    6.0238235142
  - # 11
    frequency:    7.7239237710
  - # 12
    frequency:    7.7573271446
  - # 13
    frequency:    8.8655899663
  - # 14
    frequency:   11.5041669309
  - # 15
    frequency:   11.5797547294
  - # 16
    frequency:   11.7981152142
  - # 17
    frequency:   18.0814646412
  - # 18
    frequency:   62.7327657444

- q-position: [    0.0303030,    0.0000000,    0.0000000 ]
  distance:    0.0101870
  band:
  - # 1
    frequency:   -2.6684009041
  - # 2
    frequency:   -2.6628878601
  - # 3
    frequency:    0.0730945758
  - # 4
    frequency:    0.4446457862
  - # 5
    frequency:    0.7486705290
  - # 6
    frequency:    4.1475072112
  - # 7
    frequency:    4.1933583897
  - # 8
    frequency:    5.8283190540
  - # 9
    frequency:    5.9544376449
  - # 10
    frequency:    6.0455704537
  - # 11
    frequency:    7.7230080060
  - # 12
    frequency:    7.7704914452
  - # 13
    frequency:    8.8656209607
  - # 14
    frequency:   11.5006180887
  - # 15
    frequency:   11.5914376644
  - # 16
    frequency:   11.8362473878
  - # 17
    frequency:   18.0659294046
  - # 18
    frequency:   62.7319213004

- q-position: [    0.0353535,    0.0000000,    0.0000000 ]
  distance:    0.0118848
  band:
  - # 1
    frequency:   -2.6677329417
  - # 2
    frequency:   -2.6603869504
  - # 3
    frequency:    0.0989515246
  - # 4
    frequency:    0.5185812715
  - # 5
    frequency:    0.8733097963
  - # 6
    frequency:    4.1492651443
  - # 7
    frequency:    4.2110892254
  - # 8
    frequency:    5.8192093048
  - # 9
    frequency:    5.9538135937
  - # 10
    frequency:    6.0685969187
  - # 11
    frequency:    7.7219346016
  - # 12
    frequency:    7.7855947334
  - # 13
    frequency:    8.8656716255
  - # 14
    frequency:   11.4964561230
  - # 15
    frequency:   11.5955441276
  - # 16
    frequency:   11.8906670433
  - # 17
    frequency:   18.0476309027
  - # 18
    frequency:   62.7309273857

- q-position: [    0.0404040,    0.0000000,    0.0000000 ]
  distance:    0.0135826
  band:
  - # 1
    frequency:   -2.6669918524
  - # 2
    frequency:   -2.6576222709
  - # 3
    frequency:    0.1284455633
  - # 4
    frequency:    0.5924299663
  - # 5
    frequency:    0.9978446405
  - # 6
    frequency:    4.1513015660
  - # 7
    frequency:    4.2311922800
  - # 8
    frequency:    5.8104807542
  - # 9
    frequency:    5.9531026992
  - # 10
    frequency:    6.0926420786
  - # 11
    frequency:    7.7207079350
  - # 12
    frequency:    7.8024342268
  - # 13
    frequency:    8.8657491188
  - # 14
    frequency:   11.4916968822
  - # 15
    frequency:   11.5927568265
  - # 16
    frequency:   11.9604854712
  - # 17
    frequency:   18.0265996770
  - # 18
    frequency:   62.7297860112

- q-position: [    0.0454545,    0.0000000,    0.0000000 ]
  distance:    0.0152805
  band:
  - # 1
    frequency:   -2.6661886504
  - # 2
    frequency:   -2.6546338587
  - # 3
    frequency:    0.1614426184
  - # 4
    frequency:    0.6661746656
  - # 5
    frequency:    1.1222350456
  - # 6
    frequency:    4.1536198369
  - # 7
    frequency:    4.2535329444
  - # 8
    frequency:    5.8021219641
  - # 9
    frequency:    5.9523087760
  - # 10
    frequency:    6.1174899328
  - # 11
    frequency:    7.7193330153
  - # 12
    frequency:    7.8207941732
  - # 13
    frequency:    8.8658618256
  - # 14
    frequency:   11.4863584877
  - # 15
    frequency:   11.5845698342
  - # 16
    frequency:   12.0439512022
  - # 17
    frequency:   18.0028708844
  - # 18
    frequency:   62.7284994811

- q-position: [    0.0505051,    0.0000000,    0.0000000 ]
  distance:    0.0169783
  band:
  - # 1
    frequency:   -2.6653348094
  - # 2
    frequency:   -2.6514607345
  - # 3
    frequency:    0.1977979162
  - # 4
    frequency:    0.7397966164
  - # 5
    frequency:    1.2464337466
  - # 6
    frequency:    4.1562237121
  - # 7
    frequency:    4.2779686606
  - # 8
    frequency:    5.7941060182
  - # 9
    frequency:    5.9514360777
  - # 10
    frequency:    6.1429557337
  - # 11
    frequency:    7.7178154657
  - # 12
    frequency:    7.8404526576
  - # 13
    frequency:    8.8660194274
  - # 14
    frequency:   11.4804612633
  - # 15
    frequency:   11.5722387045
  - # 16
    frequency:   12.1394962384
  - # 17
    frequency:   17.9764842727
  - # 18
    frequency:   62.7270703855

- q-position: [    0.0555556,    0.0000000,    0.0000000 ]
  distance:    0.0186761
  band:
  - # 1
    frequency:   -2.6644419766
  - # 2
    frequency:   -2.6481395627
  - # 3
    frequency:    0.2373580425
  - # 4
    frequency:    0.8132755260
  - # 5
    frequency:    1.3703865373
  - # 6
    frequency:    4.1591173221
  - # 7
    frequency:    4.3043513516
  - # 8
    frequency:    5.7864027667
  - # 9
    frequency:    5.9504892754
  - # 10
    frequency:    6.1688815036
  - # 11
    frequency:    7.7161615041
  - # 12
    frequency:    7.8611883615
  - # 13
    frequency:    8.8662329893
  - # 14
    frequency:   11.4740276527
  - # 15
    frequency:   11.5566088719
  - # 16
    frequency:   12.2459058448
  - # 17
    frequency:   17.9474841596
  - # 18
    frequency:   62.7255015934

- q-position: [    0.0606061,    0.0000000,    0.0000000 ]
  distance:    0.0203739
  band:
  - # 1
    frequency:   -2.6635216954
  - # 2
    frequency:   -2.6447035340
  - # 3
    frequency:    0.2799629662
  - # 4
    frequency:    0.8865896167
  - # 5
    frequency:    1.4940327009
  - # 6
    frequency:    4.1623051531
  - # 7
    frequency:    4.3325296163
  - # 8
    frequency:    5.7789852640
  - # 9
    frequency:    5.9494734363
  - # 10
    frequency:    6.1951349460
  - # 11
    frequency:    7.7143779200
  - # 12
    frequency:    7.8827868636
  - # 13
    frequency:    8.8665150668
  - # 14
    frequency:   11.4670821276
  - # 15
    frequency:   11.5382219066
  - # 16
    frequency:   12.3622125724
  - # 17
    frequency:   17.9159194210
  - # 18
    frequency:   62.7237962437

- q-position: [    0.0656566,    0.0000000,    0.0000000 ]
  distance:    0.0220718
  band:
  - # 1
    frequency:   -2.6625851487
  - # 2
    frequency:   -2.6411814858
  - # 3
    frequency:    0.3254479878
  - # 4
    frequency:    0.9597157245
  - # 5
    frequency:    1.6173054994
  - # 6
    frequency:    4.1657920265
  - # 7
    frequency:    4.3623506425
  - # 8
    frequency:    5.7718330655
  - # 9
    frequency:    5.9483940031
  - # 10
    frequency:    6.2216091294
  - # 11
    frequency:    7.7124720513
  - # 12
    frequency:    7.9050461128
  - # 13
    frequency:    8.8668798342
  - # 14
    frequency:   11.4596510853
  - # 15
    frequency:   11.5174300153
  - # 16
    frequency:   12.4875841578
  - # 17
    frequency:   17.8818434940
  - # 18
    frequency:   62.7219577359

- q-position: [    0.0707071,    0.0000000,    0.0000000 ]
  distance:    0.0237696
  band:
  - # 1
    frequency:   -2.6616429262
  - # 2
    frequency:   -2.6375972581
  - # 3
    frequency:    0.3736455835
  - # 4
    frequency:    1.0326294324
  - # 5
    frequency:    1.7401326654
  - # 6
    frequency:    4.1695830769
  - # 7
    frequency:    4.3936618205
  - # 8
    frequency:    5.7649337686
  - # 9
    frequency:    5.9472567749
  - # 10
    frequency:    6.2482218162
  - # 11
    frequency:    7.7104517566
  - # 12
    frequency:    7.9277807882
  - # 13
    frequency:    8.8673432348
  - # 14
    frequency:   11.4517627351
  - # 15
    frequency:   11.4944721291
  - # 16
    frequency:   12.6212517942
  - # 17
    frequency:   17.8453144005
  - # 18
    frequency:   62.7199897205

- q-position: [    0.0757576,    0.0000000,    0.0000000 ]
  distance:    0.0254674
  band:
  - # 1
    frequency:   -2.6607048236
  - # 2
    frequency:   -2.6339692692
  - # 3
    frequency:    0.4243871237
  - # 4
    frequency:    1.1053052344
  - # 5
    frequency:    1.8624368606
  - # 6
    frequency:    4.1736837305
  - # 7
    frequency:    4.4263120527
  - # 8
    frequency:    5.7582835612
  - # 9
    frequency:    5.9460678899
  - # 10
    frequency:    6.2749140600
  - # 11
    frequency:    7.7083253875
  - # 12
    frequency:    7.9508253812
  - # 13
    frequency:    8.8679231558
  - # 14
    frequency:   11.4434469752
  - # 15
    frequency:   11.4695193441
  - # 16
    frequency:   12.7624706786
  - # 17
    frequency:   17.8063948029
  - # 18
    frequency:   62.7178960876

- q-position: [    0.0808081,    0.0000000,    0.0000000 ]
  distance:    0.0271653
  band:
  - # 1
    frequency:   -2.6597796756
  - # 2
    frequency:   -2.6303102913
  - # 3
    frequency:    0.4775044555
  - # 4
    frequency:    1.1777167196
  - # 5
    frequency:    1.9841360729
  - # 6
    frequency:    4.1780996826
  - # 7
    frequency:    4.4601527731
  - # 8
    frequency:    5.7518872182
  - # 9
    frequency:    5.9448338108
  - # 10
    frequency:    6.3016480777
  - # 11
    frequency:    7.7061017569
  - # 12
    frequency:    7.9740359588
  - # 13
    frequency:    8.8686396278
  - # 14
    frequency:   11.4347352588
  - # 15
    frequency:   11.4427015814
  - # 16
    frequency:   12.9105005351
  - # 17
    frequency:   17.7651521041
  - # 18
    frequency:   62.7156809560

- q-position: [    0.0858586,    0.0000000,    0.0000000 ]
  distance:    0.0288631
  band:
  - # 1
    frequency:   -2.6588752240
  - # 2
    frequency:   -2.6266274043
  - # 3
    frequency:    0.5328313381
  - # 4
    frequency:    1.2498367707
  - # 5
    frequency:    2.1051439431
  - # 6
    frequency:    4.1828368756
  - # 7
    frequency:    4.4950386982
  - # 8
    frequency:    5.7457578090
  - # 9
    frequency:    5.9435613143
  - # 10
    frequency:    6.3284045756
  - # 11
    frequency:    7.7037901060
  - # 12
    frequency:    7.9972906811
  - # 13
    frequency:    8.8695150485
  - # 14
    frequency:   11.4141234207
  - # 15
    frequency:   11.4256604501
  - # 16
    frequency:   13.0645976653
  - # 17
    frequency:   17.7216586110
  - # 18
    frequency:   62.7133486609

- q-position: [    0.0909091,    0.0000000,    0.0000000 ]
  distance:    0.0305609
  band:
  - # 1
    frequency:   -2.6579980230
  - # 2
    frequency:   -2.6229221063
  - # 3
    frequency:    0.5902047282
  - # 4
    frequency:    1.3216377681
  - # 5
    frequency:    2.2253700181
  - # 6
    frequency:    4.1879014773
  - # 7
    frequency:    4.5308283348
  - # 8
    frequency:    5.7399162741
  - # 9
    frequency:    5.9422574825
  - # 10
    frequency:    6.3551797659
  - # 11
    frequency:    7.7014000689
  - # 12
    frequency:    8.0204892290
  - # 13
    frequency:    8.8705744329
  - # 14
    frequency:   11.3838737263
  - # 15
    frequency:   11.4162566706
  - # 16
    frequency:   13.2240134207
  - # 17
    frequency:   17.6759917873
  - # 18
    frequency:   62.7109037413

- q-position: [    0.0959596,    0.0000000,    0.0000000 ]
  distance:    0.0322588
  band:
  - # 1
    frequency:   -2.6571533774
  - # 2
    frequency:   -2.6191905603
  - # 3
    frequency:    0.6494659113
  - # 4
    frequency:    1.3930917935
  - # 5
    frequency:    2.3447199390
  - # 6
    frequency:    4.1932998593
  - # 7
    frequency:    4.5673842793
  - # 8
    frequency:    5.7343909667
  - # 9
    frequency:    5.9409297000
  - # 10
    frequency:    6.3819822946
  - # 11
    frequency:    7.6989416347
  - # 12
    frequency:    8.0435513523
  - # 13
    frequency:    8.8718456858
  - # 14
    frequency:   11.3520316540
  - # 15
    frequency:   11.4065591360
  - # 16
    frequency:   13.3879960549
  - # 17
    frequency:   17.6282346319
  - # 18
    frequency:   62.7083509268

- q-position: [    0.1010101,    0.0000000,    0.0000000 ]
  distance:    0.0339566
  band:
  - # 1
    frequency:   -2.6563453142
  - # 2
    frequency:   -2.6154239581
  - # 3
    frequency:    0.7104614769
  - # 4
    frequency:    1.4641708273
  - # 5
    frequency:    2.4630955724
  - # 6
    frequency:    4.1990385765
  - # 7
    frequency:    4.6045733367
  - # 8
    frequency:    5.7292172172
  - # 9
    frequency:    5.9395856539
  - # 10
    frequency:    6.4088302632
  - # 11
    frequency:    7.6964251074
  - # 12
    frequency:    8.0664147655
  - # 13
    frequency:    8.8733598975
  - # 14
    frequency:   11.3186705043
  - # 15
    frequency:   11.3966039848
  - # 16
    frequency:   13.5557941059
  - # 17
    frequency:   17.5784762368
  - # 18
    frequency:   62.7056951237

- q-position: [    0.1060606,    0.0000000,    0.0000000 ]
  distance:    0.0356544
  band:
  - # 1
    frequency:   -2.6555765828
  - # 2
    frequency:   -2.6116089839
  - # 3
    frequency:    0.7730441355
  - # 4
    frequency:    1.5348469337
  - # 5
    frequency:    2.5803951008
  - # 6
    frequency:    4.2051243472
  - # 7
    frequency:    4.6422664952
  - # 8
    frequency:    5.7244369516
  - # 9
    frequency:    5.9382333386
  - # 10
    frequency:    6.4357484680
  - # 11
    frequency:    7.6938610638
  - # 12
    frequency:    8.0890326106
  - # 13
    frequency:    8.8751516558
  - # 14
    frequency:   11.2838602609
  - # 15
    frequency:   11.3864280984
  - # 16
    frequency:   13.7266601455
  - # 17
    frequency:   17.5268126019
  - # 18
    frequency:   62.7029414014

- q-position: [    0.1111111,    0.0000000,    0.0000000 ]
  distance:    0.0373522
  band:
  - # 1
    frequency:   -2.6548486796
  - # 2
    frequency:   -2.6077283597
  - # 3
    frequency:    0.8370733767
  - # 4
    frequency:    1.6050924307
  - # 5
    frequency:    2.6965130816
  - # 6
    frequency:    4.2115640340
  - # 7
    frequency:    4.6803387882
  - # 8
    frequency:    5.7200983793
  - # 9
    frequency:    5.9368810639
  - # 10
    frequency:    6.4627659339
  - # 11
    frequency:    7.6912603080
  - # 12
    frequency:    8.1113706818
  - # 13
    frequency:    8.8772593701
  - # 14
    frequency:   11.2476693088
  - # 15
    frequency:   11.3760689150
  - # 16
    frequency:   13.8998541326
  - # 17
    frequency:   17.4733478253
  - # 18
    frequency:   62.7000949770

- q-position: [    0.1161616,    0.0000000,    0.0000000 ]
  distance:    0.0390501
  band:
  - # 1
    frequency:   -2.6541618956
  - # 2
    frequency:   -2.6037614522
  - # 3
    frequency:    0.9024159700
  - # 4
    frequency:    1.6748800420
  - # 5
    frequency:    2.8113404884
  - # 6
    frequency:    4.2183646252
  - # 7
    frequency:    4.7186690794
  - # 8
    frequency:    5.7162557549
  - # 9
    frequency:    5.9355374673
  - # 10
    frequency:    6.4899137758
  - # 11
    frequency:    7.6886338250
  - # 12
    frequency:    8.1334045710
  - # 13
    frequency:    8.8797255940
  - # 14
    frequency:   11.2101656331
  - # 15
    frequency:   11.3655642372
  - # 16
    frequency:   14.0746458187
  - # 17
    frequency:   17.4181958477
  - # 18
    frequency:   62.6971612012

- q-position: [    0.1212121,    0.0000000,    0.0000000 ]
  distance:    0.0407479
  band:
  - # 1
    frequency:   -2.6535153795
  - # 2
    frequency:   -2.5996849235
  - # 3
    frequency:    0.9689463109
  - # 4
    frequency:    1.7441830279
  - # 5
    frequency:    2.9247647424
  - # 6
    frequency:    4.2255332180
  - # 7
    frequency:    4.7571398081
  - # 8
    frequency:    5.7129692030
  - # 9
    frequency:    5.9342115291
  - # 10
    frequency:    6.5172233886
  - # 11
    frequency:    7.6859927306
  - # 12
    frequency:    8.1551168583
  - # 13
    frequency:    8.8825973337
  - # 14
    frequency:   11.1714176824
  - # 15
    frequency:   11.3549520349
  - # 16
    frequency:   14.2503157326
  - # 17
    frequency:   17.3614830345
  - # 18
    frequency:   62.6941455426

- q-position: [    0.1262626,    0.0000000,    0.0000000 ]
  distance:    0.0424457
  band:
  - # 1
    frequency:   -2.6529072160
  - # 2
    frequency:   -2.5954734042
  - # 3
    frequency:    1.0365466189
  - # 4
    frequency:    1.8129752964
  - # 5
    frequency:    3.0366697401
  - # 6
    frequency:    4.2330770011
  - # 7
    frequency:    4.7956367395
  - # 8
    frequency:    5.7103045915
  - # 9
    frequency:    5.9329125891
  - # 10
    frequency:    6.5447249477
  - # 11
    frequency:    7.6833482197
  - # 12
    frequency:    8.1764944413
  - # 13
    frequency:    8.8859263163
  - # 14
    frequency:   11.1314950164
  - # 15
    frequency:   11.3442702457
  - # 16
    frequency:   14.4261542137
  - # 17
    frequency:   17.3033520501
  - # 18
    frequency:   62.6910535723

- q-position: [    0.1313131,    0.0000000,    0.0000000 ]
  distance:    0.0441436
  band:
  - # 1
    frequency:   -2.6523345121
  - # 2
    frequency:   -2.5911001703
  - # 3
    frequency:    1.1051069960
  - # 4
    frequency:    1.8812314915
  - # 5
    frequency:    3.1469358804
  - # 6
    frequency:    4.2410032384
  - # 7
    frequency:    4.8340487686
  - # 8
    frequency:    5.7083334198
  - # 9
    frequency:    5.9316503659
  - # 10
    frequency:    6.5724461901
  - # 11
    frequency:    7.6807115123
  - # 12
    frequency:    8.1975260689
  - # 13
    frequency:    8.8897691869
  - # 14
    frequency:   11.0904688189
  - # 15
    frequency:   11.3335565730
  - # 16
    frequency:   14.6014577404
  - # 17
    frequency:   17.2439677780
  - # 18
    frequency:   62.6878909486

- q-position: [    0.1363636,    0.0000000,    0.0000000 ]
  distance:    0.0458414
  band:
  - # 1
    frequency:   -2.6517934923
  - # 2
    frequency:   -2.5865378045
  - # 3
    frequency:    1.1745253582
  - # 4
    frequency:    1.9489270614
  - # 5
    frequency:    3.2554400902
  - # 6
    frequency:    4.2493192525
  - # 7
    frequency:    4.8722678433
  - # 8
    frequency:    5.7071326786
  - # 9
    frequency:    5.9304349750
  - # 10
    frequency:    6.6004114399
  - # 11
    frequency:    7.6780937971
  - # 12
    frequency:    8.2182001367
  - # 13
    frequency:    8.8941875919
  - # 14
    frequency:   11.0484123276
  - # 15
    frequency:   11.3228482850
  - # 16
    frequency:   14.7755213050
  - # 17
    frequency:   17.1835265766
  - # 18
    frequency:   62.6846634005

- q-position: [    0.1414141,    0.0000000,    0.0000000 ]
  distance:    0.0475392
  band:
  - # 1
    frequency:   -2.6512795957
  - # 2
    frequency:   -2.5817588257
  - # 3
    frequency:    1.2447072547
  - # 4
    frequency:    2.0160383069
  - # 5
    frequency:    3.3620558463
  - # 6
    frequency:    4.2580324084
  - # 7
    frequency:    4.9101890823
  - # 8
    frequency:    5.7067846184
  - # 9
    frequency:    5.9292769471
  - # 10
    frequency:    6.6286408447
  - # 11
    frequency:    7.6755061736
  - # 12
    frequency:    8.2385027879
  - # 13
    frequency:    8.8992480888
  - # 14
    frequency:   11.0054012246
  - # 15
    frequency:   11.3121820150
  - # 16
    frequency:   14.9476246234
  - # 17
    frequency:   17.1222711514
  - # 18
    frequency:   62.6813767126

- q-position: [    0.1464646,    0.0000000,    0.0000000 ]
  distance:    0.0492370
  band:
  - # 1
    frequency:   -2.6507875764
  - # 2
    frequency:   -2.5767362722
  - # 3
    frequency:    1.3155655911
  - # 4
    frequency:    2.0825424108
  - # 5
    frequency:    3.4666531864
  - # 6
    frequency:    4.2671500954
  - # 7
    frequency:    4.9477111861
  - # 8
    frequency:    5.7073763411
  - # 9
    frequency:    5.9281872429
  - # 10
    frequency:    6.6571497889
  - # 11
    frequency:    7.6729595921
  - # 12
    frequency:    8.2584163695
  - # 13
    frequency:    8.9050218125
  - # 14
    frequency:   10.9615140179
  - # 15
    frequency:   11.3015935659
  - # 16
    frequency:   15.1170080595
  - # 17
    frequency:   17.0605152406
  - # 18
    frequency:   62.6780367088

- q-position: [    0.1515152,    0.0000000,    0.0000000 ]
  distance:    0.0509349
  band:
  - # 1
    frequency:   -2.6503116025
  - # 2
    frequency:   -2.5714442274
  - # 3
    frequency:    1.3870202743
  - # 4
    frequency:    2.1484174504
  - # 5
    frequency:    3.5690987055
  - # 6
    frequency:    4.2766797090
  - # 7
    frequency:    4.9847372545
  - # 8
    frequency:    5.7089991088
  - # 9
    frequency:    5.9271772646
  - # 10
    frequency:    6.6859484591
  - # 11
    frequency:    7.6704647927
  - # 12
    frequency:    8.2779182958
  - # 13
    frequency:    8.9115838093
  - # 14
    frequency:   10.9168324414
  - # 15
    frequency:   11.2911177205
  - # 16
    frequency:   15.2828303073
  - # 17
    frequency:   16.9986861501
  - # 18
    frequency:   62.6746492363

- q-position: [    0.1565657,    0.0000000,    0.0000000 ]
  distance:    0.0526327
  band:
  - # 1
    frequency:   -2.6498453540
  - # 2
    frequency:   -2.5658582803
  - # 3
    frequency:    1.4589977981
  - # 4
    frequency:    2.2136423954
  - # 5
    frequency:    3.6692555287
  - # 6
    frequency:    4.2866286290
  - # 7
    frequency:    5.0211761416
  - # 8
    frequency:    5.7117472416
  - # 9
    frequency:    5.9262588613
  - # 10
    frequency:    6.7150415382
  - # 11
    frequency:    7.6680322430
  - # 12
    frequency:    8.2969803799
  - # 13
    frequency:    8.9190119405
  - # 14
    frequency:   10.8714419021
  - # 15
    frequency:   11.2807880592
  - # 16
    frequency:   15.4440918356
  - # 17
    frequency:   16.9374012078
  - # 18
    frequency:   62.6712201503

- q-position: [    0.1616162,    0.0000000,    0.0000000 ]
  distance:    0.0543305
  band:
  - # 1
    frequency:   -2.6493821172
  - # 2
    frequency:   -2.5599559160
  - # 3
    frequency:    1.5314307857
  - # 4
    frequency:    2.2781970922
  - # 5
    frequency:    3.7669832615
  - # 6
    frequency:    4.2970041969
  - # 7
    frequency:    5.0569444832
  - # 8
    frequency:    5.7157164625
  - # 9
    frequency:    5.9254443278
  - # 10
    frequency:    6.7444280132
  - # 11
    frequency:    7.6656720749
  - # 12
    frequency:    8.3155686939
  - # 13
    frequency:    8.9273852489
  - # 14
    frequency:   10.8254319992
  - # 15
    frequency:   11.2706367880
  - # 16
    frequency:   15.5994907435
  - # 17
    frequency:   16.8776115579
  - # 18
    frequency:   62.6677552975

- q-position: [    0.1666667,    0.0000000,    0.0000000 ]
  distance:    0.0560284
  band:
  - # 1
    frequency:   -2.6489148762
  - # 2
    frequency:   -2.5537168347
  - # 3
    frequency:    1.6042575060
  - # 4
    frequency:    2.3420622376
  - # 5
    frequency:    3.8621379234
  - # 6
    frequency:    4.3078136877
  - # 7
    frequency:    5.0919695094
  - # 8
    frequency:    5.7210015570
  - # 9
    frequency:    5.9247463942
  - # 10
    frequency:    6.7741010858
  - # 11
    frequency:    7.6633940224
  - # 12
    frequency:    8.3336440115
  - # 13
    frequency:    8.9367816892
  - # 14
    frequency:   10.7788971499
  - # 15
    frequency:   11.2606945775
  - # 16
    frequency:   15.7471398935
  - # 17
    frequency:   16.8208844848
  - # 18
    frequency:   62.6642605017

- q-position: [    0.1717172,    0.0000000,    0.0000000 ]
  distance:    0.0577262
  band:
  - # 1
    frequency:   -2.6484363991
  - # 2
    frequency:   -2.5471231992
  - # 3
    frequency:    1.6774213791
  - # 4
    frequency:    2.4052193437
  - # 5
    frequency:    3.9545718869
  - # 6
    frequency:    4.3190642788
  - # 7
    frequency:    5.1261926984
  - # 8
    frequency:    5.7276932536
  - # 9
    frequency:    5.9241782053
  - # 10
    frequency:    6.8040481797
  - # 11
    frequency:    7.6612073586
  - # 12
    frequency:    8.3511628626
  - # 13
    frequency:    8.9472751441
  - # 14
    frequency:   10.7319373555
  - # 15
    frequency:   11.2509904150
  - # 16
    frequency:   15.8839984841
  - # 17
    frequency:   16.7699711590
  - # 18
    frequency:   62.6607415475

- q-position: [    0.1767677,    0.0000000,    0.0000000 ]
  distance:    0.0594240
  band:
  - # 1
    frequency:   -2.6479393203
  - # 2
    frequency:   -2.5401598153
  - # 3
    frequency:    1.7508704824
  - # 4
    frequency:    2.4676506957
  - # 5
    frequency:    4.0441338713
  - # 6
    frequency:    4.3307630123
  - # 7
    frequency:    5.1595742052
  - # 8
    frequency:    5.7358743178
  - # 9
    frequency:    5.9237532894
  - # 10
    frequency:    6.8342510405
  - # 11
    frequency:    7.6591208348
  - # 12
    frequency:    8.3680791855
  - # 13
    frequency:    8.9589316852
  - # 14