nqpoint: 300    
npath: 3      
segment_nqpoint:
- 100
- 100
- 100
labels:
- [ 'G', 'M' ]
- [ 'M', 'K' ]
- [ 'K', 'G' ]
reciprocal_lattice:
- [   0.31014671,   0.17906329,   0.00000000 ] # a*
- [   0.00000000,   0.35812657,   0.00000000 ] # b*
- [   0.00000000,   0.00000000,   0.04221936 ] # c*
natom: 6      
lattice:
- [     3.224280539928608,     0.000000000000000,     0.000000000000000 ] # a
- [    -1.612140269964304,     2.792308856496514,     0.000000000000000 ] # b
- [     0.000000000000000,     0.000000000000000,    23.685818360737109 ] # c
points:
- symbol: H # 1
  coordinates: [  0.333332985432215,  0.666666983183674,  0.620025795058917 ]
  mass: 1.007940
- symbol: H # 2
  coordinates: [  0.666666984744047,  0.333332985985145,  0.379974204941084 ]
  mass: 1.007940
- symbol: N # 3
  coordinates: [  0.000000000000000,  0.000000000000000,  0.524865247117846 ]
  mass: 14.006700
- symbol: O # 4
  coordinates: [  0.666666984744047,  0.333332985985145,  0.421564318352309 ]
  mass: 15.999400
- symbol: Sc # 5
  coordinates: [  0.333332985432215,  0.666666983183674,  0.473741308859881 ]
  mass: 44.955912
- symbol: Sc # 6
  coordinates: [  0.666666984744047,  0.333332985985145,  0.577682828389780 ]
  mass: 44.955912

phonon:
- q-position: [    0.0000000,    0.0000000,    0.0000000 ]
  distance:    0.0000000
  band:
  - # 1
    frequency:   -0.0000233163
  - # 2
    frequency:   -0.0000001227
  - # 3
    frequency:    0.0000223710
  - # 4
    frequency:    5.4470367994
  - # 5
    frequency:    5.4470367994
  - # 6
    frequency:    8.5193905219
  - # 7
    frequency:    8.9259021345
  - # 8
    frequency:    8.9259021346
  - # 9
    frequency:   11.0936069080
  - # 10
    frequency:   11.0936069081
  - # 11
    frequency:   13.4919378195
  - # 12
    frequency:   14.0759451741
  - # 13
    frequency:   14.2708681775
  - # 14
    frequency:   14.2708681776
  - # 15
    frequency:   27.5498525094
  - # 16
    frequency:   27.5498525095
  - # 17
    frequency:   28.0336192080
  - # 18
    frequency:  112.9247040047

- q-position: [    0.0050505,    0.0000000,    0.0000000 ]
  distance:    0.0018087
  band:
  - # 1
    frequency:    0.0019794252
  - # 2
    frequency:    0.1282511392
  - # 3
    frequency:    0.1328733725
  - # 4
    frequency:    5.4467751636
  - # 5
    frequency:    5.4483719675
  - # 6
    frequency:    8.5178873161
  - # 7
    frequency:    8.9258231579
  - # 8
    frequency:    8.9270195452
  - # 9
    frequency:   11.0935440327
  - # 10
    frequency:   11.0950838842
  - # 11
    frequency:   13.4906865680
  - # 12
    frequency:   14.0747976832
  - # 13
    frequency:   14.2706911352
  - # 14
    frequency:   14.2713017270
  - # 15
    frequency:   27.5481328678
  - # 16
    frequency:   27.5497634380
  - # 17
    frequency:   28.0345405421
  - # 18
    frequency:  112.9232690282

- q-position: [    0.0101010,    0.0000000,    0.0000000 ]
  distance:    0.0036174
  band:
  - # 1
    frequency:    0.0079127417
  - # 2
    frequency:    0.2563856974
  - # 3
    frequency:    0.2657253598
  - # 4
    frequency:    5.4459938935
  - # 5
    frequency:    5.4523717102
  - # 6
    frequency:    8.5134267126
  - # 7
    frequency:    8.9255867660
  - # 8
    frequency:    8.9303232708
  - # 9
    frequency:   11.0933627094
  - # 10
    frequency:   11.0995096956
  - # 11
    frequency:   13.4869401855
  - # 12
    frequency:   14.0713932234
  - # 13
    frequency:   14.2701590075
  - # 14
    frequency:   14.2725595600
  - # 15
    frequency:   27.5430196097
  - # 16
    frequency:   27.5494957082
  - # 17
    frequency:   28.0372627806
  - # 18
    frequency:  112.9189700165

- q-position: [    0.0151515,    0.0000000,    0.0000000 ]
  distance:    0.0054262
  band:
  - # 1
    frequency:    0.0177852010
  - # 2
    frequency:    0.3842873024
  - # 3
    frequency:    0.3985341658
  - # 4
    frequency:    5.4447038989
  - # 5
    frequency:    5.4590187962
  - # 6
    frequency:    8.5061472637
  - # 7
    frequency:    8.9251945601
  - # 8
    frequency:    8.9356762991
  - # 9
    frequency:   11.0930847367
  - # 10
    frequency:   11.1068690122
  - # 11
    frequency:   13.4807206856
  - # 12
    frequency:   14.0658362421
  - # 13
    frequency:   14.2692688109
  - # 14
    frequency:   14.2745230038
  - # 15
    frequency:   27.5346429733
  - # 16
    frequency:   27.5490477752
  - # 17
    frequency:   28.0416673710
  - # 18
    frequency:  112.9118247019

- q-position: [    0.0202020,    0.0000000,    0.0000000 ]
  distance:    0.0072349
  band:
  - # 1
    frequency:    0.0315724073
  - # 2
    frequency:    0.5118399938
  - # 3
    frequency:    0.5312771859
  - # 4
    frequency:    5.4429233533
  - # 5
    frequency:    5.4682846803
  - # 6
    frequency:    8.4962549207
  - # 7
    frequency:    8.9246491657
  - # 8
    frequency:    8.9428753001
  - # 9
    frequency:   11.0927460806
  - # 10
    frequency:   11.1171363555
  - # 11
    frequency:   13.4720644165
  - # 12
    frequency:   14.0582735033
  - # 13
    frequency:   14.2680156334
  - # 14
    frequency:   14.2770221942
  - # 15
    frequency:   27.5231997764
  - # 16
    frequency:   27.5484170706
  - # 17
    frequency:   28.0475768949
  - # 18
    frequency:  112.9018625670

- q-position: [    0.0252525,    0.0000000,    0.0000000 ]
  distance:    0.0090436
  band:
  - # 1
    frequency:    0.0492406092
  - # 2
    frequency:    0.6389284362
  - # 3
    frequency:    0.6639306073
  - # 4
    frequency:    5.4406776775
  - # 5
    frequency:    5.4801297549
  - # 6
    frequency:    8.4839950970
  - # 7
    frequency:    8.9239541677
  - # 8
    frequency:    8.9516786433
  - # 9
    frequency:   11.0923963299
  - # 10
    frequency:   11.1302762059
  - # 11
    frequency:   13.4610215513
  - # 12
    frequency:   14.0488657600
  - # 13
    frequency:   14.2663927238
  - # 14
    frequency:   14.2798653127
  - # 15
    frequency:   27.5089297682
  - # 16
    frequency:   27.5476000113
  - # 17
    frequency:   28.0547785997
  - # 18
    frequency:  112.8891247378

- q-position: [    0.0303030,    0.0000000,    0.0000000 ]
  distance:    0.0108523
  band:
  - # 1
    frequency:    0.0707470790
  - # 2
    frequency:    0.7654381380
  - # 3
    frequency:    0.7964690215
  - # 4
    frequency:    5.4379995078
  - # 5
    frequency:    5.4945036810
  - # 6
    frequency:    8.4696268190
  - # 7
    frequency:    8.9231140224
  - # 8
    frequency:    8.9618323524
  - # 9
    frequency:   11.0920979391
  - # 10
    frequency:   11.1462431541
  - # 11
    frequency:   13.4476553867
  - # 12
    frequency:   14.0377642579
  - # 13
    frequency:   14.2643916143
  - # 14
    frequency:   14.2828633464
  - # 15
    frequency:   27.4920923418
  - # 16
    frequency:   27.5465920132
  - # 17
    frequency:   28.0630475254
  - # 18
    frequency:  112.8736638344

- q-position: [    0.0353535,    0.0000000,    0.0000000 ]
  distance:    0.0126610
  band:
  - # 1
    frequency:    0.0960405683
  - # 2
    frequency:    0.8912556766
  - # 3
    frequency:    0.9288650490
  - # 4
    frequency:    5.4349286444
  - # 5
    frequency:    5.5113457838
  - # 6
    frequency:    8.4534036693
  - # 7
    frequency:    8.9221339460
  - # 8
    frequency:    8.9730892894
  - # 9
    frequency:   11.0919252639
  - # 10
    frequency:   11.1649820962
  - # 11
    frequency:   13.4320414713
  - # 12
    frequency:   14.0250960374
  - # 13
    frequency:   14.2620022744
  - # 14
    frequency:   14.2858463799
  - # 15
    frequency:   27.4729477357
  - # 16
    frequency:   27.5453875088
  - # 17
    frequency:   28.0721650972
  - # 18
    frequency:  112.8555437801

- q-position: [    0.0404040,    0.0000000,    0.0000000 ]
  distance:    0.0144698
  band:
  - # 1
    frequency:    0.1250618204
  - # 2
    frequency:    1.0162689359
  - # 3
    frequency:    1.0610889776
  - # 4
    frequency:    5.4315119704
  - # 5
    frequency:    5.5305854897
  - # 6
    frequency:    8.4355625599
  - # 7
    frequency:    8.9210197832
  - # 8
    frequency:    8.9852205232
  - # 9
    frequency:   11.0919633951
  - # 10
    frequency:   11.1864284734
  - # 11
    frequency:   13.4142666028
  - # 12
    frequency:   14.0109576122
  - # 13
    frequency:   14.2592132914
  - # 14
    frequency:   14.2886718061
  - # 15
    frequency:   27.4517442799
  - # 16
    frequency:   27.5439799705
  - # 17
    frequency:   28.0819316287
  - # 18
    frequency:  112.8348395683

- q-position: [    0.0454545,    0.0000000,    0.0000000 ]
  distance:    0.0162785
  band:
  - # 1
    frequency:    0.1577441154
  - # 2
    frequency:    1.1403673543
  - # 3
    frequency:    1.1931084157
  - # 4
    frequency:    5.4278033322
  - # 5
    frequency:    5.5521427839
  - # 6
    frequency:    8.4163190371
  - # 7
    frequency:    8.9197778572
  - # 8
    frequency:    8.9980201762
  - # 9
    frequency:   11.0923067973
  - # 10
    frequency:   11.2105085556
  - # 11
    frequency:   13.3944277461
  - # 12
    frequency:   13.9954146713
  - # 13
    frequency:   14.2560120759
  - # 14
    frequency:   14.2912267526
  - # 15
    frequency:   27.4287112804
  - # 16
    frequency:   27.5423619388
  - # 17
    frequency:   28.0921731451
  - # 18
    frequency:  112.8116369890

- q-position: [    0.0505051,    0.0000000,    0.0000000 ]
  distance:    0.0180872
  band:
  - # 1
    frequency:    0.1940138268
  - # 2
    frequency:    1.2634421891
  - # 3
    frequency:    1.3248879621
  - # 4
    frequency:    5.4238633714
  - # 5
    frequency:    5.5759286659
  - # 6
    frequency:    8.3958670189
  - # 7
    frequency:    8.9184148052
  - # 8
    frequency:    9.0113058408
  - # 9
    frequency:   11.0930577598
  - # 10
    frequency:   11.2371397697
  - # 11
    frequency:   13.3726309372
  - # 12
    frequency:   13.9785053774
  - # 13
    frequency:   14.2523850866
  - # 14
    frequency:   14.2934270929
  - # 15
    frequency:   27.4040561928
  - # 16
    frequency:   27.5405250565
  - # 17
    frequency:   28.1027438756
  - # 18
    frequency:  112.7860323145

- q-position: [    0.0555556,    0.0000000,    0.0000000 ]
  distance:    0.0198959
  band:
  - # 1
    frequency:    0.2337909686
  - # 2
    frequency:    1.3853867964
  - # 3
    frequency:    1.4563888895
  - # 4
    frequency:    5.4197592966
  - # 5
    frequency:    5.6018455815
  - # 6
    frequency:    8.3743810371
  - # 7
    frequency:    8.9169374012
  - # 8
    frequency:    9.0249164897
  - # 9
    frequency:   11.0943246663
  - # 10
    frequency:   11.2662310712
  - # 11
    frequency:   13.3489902382
  - # 12
    frequency:   13.9602454888
  - # 13
    frequency:   14.2483180706
  - # 14
    frequency:   14.2952147451
  - # 15
    frequency:   27.3779645944
  - # 16
    frequency:   27.5384601108
  - # 17
    frequency:   28.1135259073
  - # 18
    frequency:  112.7581319459

- q-position: [    0.0606061,    0.0000000,    0.0000000 ]
  distance:    0.0217046
  band:
  - # 1
    frequency:    0.2769897109
  - # 2
    frequency:    1.5060969306
  - # 3
    frequency:    1.5875688426
  - # 4
    frequency:    5.4155645855
  - # 5
    frequency:    5.6297878136
  - # 6
    frequency:    8.3520195869
  - # 7
    frequency:    8.9153523712
  - # 8
    frequency:    9.0387092723
  - # 9
    frequency:   11.0962200891
  - # 10
    frequency:   11.2976833568
  - # 11
    frequency:   13.3236268040
  - # 12
    frequency:   13.9406342375
  - # 13
    frequency:   14.2437963149
  - # 14
    frequency:   14.2965542717
  - # 15
    frequency:   27.3506017213
  - # 16
    frequency:   27.5361570812
  - # 17
    frequency:   28.1244272385
  - # 18
    frequency:  112.7280520204

- q-position: [    0.0656566,    0.0000000,    0.0000000 ]
  distance:    0.0235134
  band:
  - # 1
    frequency:    0.3235188498
  - # 2
    frequency:    1.6254710639
  - # 3
    frequency:    1.7183815468
  - # 4
    frequency:    5.4113586057
  - # 5
    frequency:    5.6596418139
  - # 6
    frequency:    8.3289287171
  - # 7
    frequency:    8.9136662045
  - # 8
    frequency:    9.0525560635
  - # 9
    frequency:   11.0988587120
  - # 10
    frequency:   11.3313899182
  - # 11
    frequency:   13.2966681056
  - # 12
    frequency:   13.9196603917
  - # 13
    frequency:   14.2388049028
  - # 14
    frequency:   14.2974293025
  - # 15
    frequency:   27.3221147060
  - # 16
    frequency:   27.5336051962
  - # 17
    frequency:   28.1353790943
  - # 18
    frequency:  112.6959179817

- q-position: [    0.0707071,    0.0000000,    0.0000000 ]
  distance:    0.0253221
  band:
  - # 1
    frequency:    0.3732822173
  - # 2
    frequency:    1.7434107291
  - # 3
    frequency:    1.8487765241
  - # 4
    frequency:    5.4072261450
  - # 5
    frequency:    5.6912864676
  - # 6
    frequency:    8.3052453908
  - # 7
    frequency:    8.9118849639
  - # 8
    frequency:    9.0663402352
  - # 9
    frequency:   11.1023550871
  - # 10
    frequency:   11.3672369317
  - # 11
    frequency:   13.2682473388
  - # 12
    frequency:   13.8973082358
  - # 13
    frequency:   14.2333289718
  - # 14
    frequency:   14.2978390250
  - # 15
    frequency:   27.2926349846
  - # 16
    frequency:   27.5307929984
  - # 17
    frequency:   28.1463330440
  - # 18
    frequency:  112.6618641134

- q-position: [    0.0757576,    0.0000000,    0.0000000 ]
  distance:    0.0271308
  band:
  - # 1
    frequency:    0.4261790211
  - # 2
    frequency:    1.8598208855
  - # 3
    frequency:    1.9786988125
  - # 4
    frequency:    5.4032568427
  - # 5
    frequency:    5.7245932807
  - # 6
    frequency:    8.2811004064
  - # 7
    frequency:    8.9100141022
  - # 8
    frequency:    9.0799538646
  - # 9
    frequency:   11.1068212239
  - # 10
    frequency:   11.4051039822
  - # 11
    frequency:   13.2385030239
  - # 12
    frequency:   13.8735633510
  - # 13
    frequency:   14.2273539669
  - # 14
    frequency:   14.2977948511
  - # 15
    frequency:   27.2622805770
  - # 16
    frequency:   27.5277084180
  - # 17
    frequency:   28.1572582148
  - # 18
    frequency:  112.6260330369

- q-position: [    0.0808081,    0.0000000,    0.0000000 ]
  distance:    0.0289395
  band:
  - # 1
    frequency:    0.4821041088
  - # 2
    frequency:    1.9746103098
  - # 3
    frequency:    2.1080886808
  - # 4
    frequency:    5.3995445144
  - # 5
    frequency:    5.7594264923
  - # 6
    frequency:    8.2566208143
  - # 7
    frequency:    8.9080582868
  - # 8
    frequency:    9.0932954502
  - # 9
    frequency:   11.1123640123
  - # 10
    frequency:   11.4448646156
  - # 11
    frequency:   13.2075787821
  - # 12
    frequency:   13.8484181577
  - # 13
    frequency:   14.2208658855
  - # 14
    frequency:   14.2973173132
  - # 15
    frequency:   27.2311581064
  - # 16
    frequency:   27.5243388556
  - # 17
    frequency:   28.1681387432
  - # 18
    frequency:  112.5885751759

- q-position: [    0.0858586,    0.0000000,    0.0000000 ]
  distance:    0.0307482
  band:
  - # 1
    frequency:    0.5409481539
  - # 2
    frequency:    2.0876920117
  - # 3
    frequency:    2.2368813338
  - # 4
    frequency:    5.3961863670
  - # 5
    frequency:    5.7956431142
  - # 6
    frequency:    8.2319318434
  - # 7
    frequency:    8.9060212389
  - # 8
    frequency:    9.1062681308
  - # 9
    frequency:   11.1190824755
  - # 10
    frequency:   11.4863869164
  - # 11
    frequency:   13.1756232574
  - # 12
    frequency:   13.8218772125
  - # 13
    frequency:   14.2138515083
  - # 14
    frequency:   14.2964332308
  - # 15
    frequency:   27.1993645126
  - # 16
    frequency:   27.5206712741
  - # 17
    frequency:   28.1789715113
  - # 18
    frequency:  112.5496481884

- q-position: [    0.0909091,    0.0000000,    0.0000000 ]
  distance:    0.0325570
  band:
  - # 1
    frequency:    0.6025977644
  - # 2
    frequency:    2.1989836728
  - # 3
    frequency:    2.3650065981
  - # 4
    frequency:    5.3932820998
  - # 5
    frequency:    5.8330929093
  - # 6
    frequency:    8.2071583842
  - # 7
    frequency:    8.9039055915
  - # 8
    frequency:    9.1187783709
  - # 9
    frequency:   11.1270648485
  - # 10
    frequency:   11.5295341043
  - # 11
    frequency:   13.1427901335
  - # 12
    frequency:   13.7939622675
  - # 13
    frequency:   14.2062986142
  - # 14
    frequency:   14.2951731809
  - # 15
    frequency:   27.1669884691
  - # 16
    frequency:   27.5166923001
  - # 17
    frequency:   28.1897641653
  - # 18
    frequency:  112.5094163674

- q-position: [    0.0959596,    0.0000000,    0.0000000 ]
  distance:    0.0343657
  band:
  - # 1
    frequency:    0.6669355166
  - # 2
    frequency:    2.3084081078
  - # 3
    frequency:    2.4923885791
  - # 4
    frequency:    5.3909328943
  - # 5
    frequency:    5.8716183293
  - # 6
    frequency:    8.1824260857
  - # 7
    frequency:    8.9017127712
  - # 8
    frequency:    9.1307350701
  - # 9
    frequency:   11.1363854791
  - # 10
    frequency:   11.5741651434
  - # 11
    frequency:   13.1092381821
  - # 12
    frequency:   13.7647171179
  - # 13
    frequency:   14.1981961734
  - # 14
    frequency:   14.2935693091
  - # 15
    frequency:   27.1341115312
  - # 16
    frequency:   27.5123883343
  - # 17
    frequency:   28.2005333907
  - # 18
    frequency:  112.4680500135

- q-position: [    0.1010101,    0.0000000,    0.0000000 ]
  distance:    0.0361744
  band:
  - # 1
    frequency:    0.7338399216
  - # 2
    frequency:    2.4158937423
  - # 3
    frequency:    2.6189452785
  - # 4
    frequency:    5.3892402962
  - # 5
    frequency:    5.9110544361
  - # 6
    frequency:    8.1578621184
  - # 7
    frequency:    8.8994429068
  - # 8
    frequency:    9.1420490532
  - # 9
    frequency:   11.1471015484
  - # 10
    frequency:   11.6201353588
  - # 11
    frequency:   13.0751312632
  - # 12
    frequency:   13.7342122758
  - # 13
    frequency:   14.1895345184
  - # 14
    frequency:   14.2916535061
  - # 15
    frequency:   27.1008090593
  - # 16
    frequency:   27.5077456698
  - # 17
    frequency:   28.2113034088
  - # 18
    frequency:  112.4257247798

- q-position: [    0.1060606,    0.0000000,    0.0000000 ]
  distance:    0.0379831
  band:
  - # 1
    frequency:    0.8031853299
  - # 2
    frequency:    2.5213751014
  - # 3
    frequency:    2.7445881594
  - # 4
    frequency:    5.3883050003
  - # 5
    frequency:    5.9512288457
  - # 6
    frequency:    8.1335956467
  - # 7
    frequency:    8.8970947716
  - # 8
    frequency:    9.1526329083
  - # 9
    frequency:   11.1592496169
  - # 10
    frequency:   11.6672970536
  - # 11
    frequency:   13.0406381819
  - # 12
    frequency:   13.7025495303
  - # 13
    frequency:   14.1803054892
  - # 14
    frequency:   14.2894559634
  - # 15
    frequency:   27.0671509557
  - # 16
    frequency:   27.5027506197
  - # 17
    frequency:   28.2221046583
  - # 18
    frequency:  112.3826209918

- q-position: [    0.1111111,    0.0000000,    0.0000000 ]
  distance:    0.0397918
  band:
  - # 1
    frequency:    0.8748417841
  - # 2
    frequency:    2.6247933015
  - # 3
    frequency:    2.8692216464
  - # 4
    frequency:    5.3882255500
  - # 5
    frequency:    5.9919617439
  - # 6
    frequency:    8.1097580400
  - # 7
    frequency:    8.8946657601
  - # 8
    frequency:    9.1624011490
  - # 9
    frequency:   11.1728420113
  - # 10
    frequency:   11.7155001191
  - # 11
    frequency:   13.0059322854
  - # 12
    frequency:   13.6698664730
  - # 13
    frequency:   14.1705025529
  - # 14
    frequency:   14.2870041060
  - # 15
    frequency:   27.0332022548
  - # 16
    frequency:   27.4973896507
  - # 17
    frequency:   28.2329726307
  - # 18
    frequency:  112.3389229446

- q-position: [    0.1161616,    0.0000000,    0.0000000 ]
  distance:    0.0416006
  band:
  - # 1
    frequency:    0.9486748294
  - # 2
    frequency:    2.7260965307
  - # 3
    frequency:    2.9927425447
  - # 4
    frequency:    5.3890969727
  - # 5
    frequency:    6.0330660354
  - # 6
    frequency:    8.0864828306
  - # 7
    frequency:    8.8921519035
  - # 8
    frequency:    9.1712706841
  - # 9
    frequency:   11.1878630909
  - # 10
    frequency:   11.7645926318
  - # 11
    frequency:   12.9711906623
  - # 12
    frequency:   13.6363410868
  - # 13
    frequency:   14.1601208983
  - # 14
    frequency:   14.2843218830
  - # 15
    frequency:   26.9990235983
  - # 16
    frequency:   27.4916495241
  - # 17
    frequency:   28.2439468316
  - # 18
    frequency:  112.2948181800

- q-position: [    0.1212121,    0.0000000,    0.0000000 ]
  distance:    0.0434093
  band:
  - # 1
    frequency:    1.0245452905
  - # 2
    frequency:    2.8252405047
  - # 3
    frequency:    3.1150393632
  - # 4
    frequency:    5.3910093759
  - # 5
    frequency:    6.0743477092
  - # 6
    frequency:    8.0639054135
  - # 7
    frequency:    8.8895479276
  - # 8
    frequency:    9.1791615854
  - # 9
    frequency:   11.2042654616
  - # 10
    frequency:   11.8144214293
  - # 11
    frequency:   12.9365927749
  - # 12
    frequency:   13.6021964982
  - # 13
    frequency:   14.1491575053
  - # 14
    frequency:   14.2814293820
  - # 15
    frequency:   26.9646716258
  - # 16
    frequency:   27.4855174407
  - # 17
    frequency:   28.2550698440
  - # 18
    frequency:  112.2504967444

- q-position: [    0.1262626,    0.0000000,    0.0000000 ]
  distance:    0.0452180
  band:
  - # 1
    frequency:    1.1023090259
  - # 2
    frequency:    2.9221888766
  - # 3
    frequency:    3.2359915259
  - # 4
    frequency:    5.3940465340
  - # 5
    frequency:    6.1156065175
  - # 6
    frequency:    8.0421624543
  - # 7
    frequency:    8.8868473521
  - # 8
    frequency:    9.1859981513
  - # 9
    frequency:   11.2219662608
  - # 10
    frequency:   11.8648326586
  - # 11
    frequency:   12.9023183340
  - # 12
    frequency:   13.5677059851
  - # 13
    frequency:   14.1376111941
  - # 14
    frequency:   14.2783427224
  - # 15
    frequency:   26.9301993027
  - # 16
    frequency:   27.4789811900
  - # 17
    frequency:   28.2663864776
  - # 18
    frequency:  112.2061504325

- q-position: [    0.1313131,    0.0000000,    0.0000000 ]
  distance:    0.0470267
  band:
  - # 1
    frequency:    1.1818166679
  - # 2
    frequency:    3.0169135802
  - # 3
    frequency:    3.3554684526
  - # 4
    frequency:    5.3982845051
  - # 5
    frequency:    6.1566370914
  - # 6
    frequency:    8.0213909556
  - # 7
    frequency:    8.8840426347
  - # 8
    frequency:    9.1917102615
  - # 9
    frequency:   11.2408437001
  - # 10
    frequency:   11.9156722885
  - # 11
    frequency:   12.8685442013
  - # 12
    frequency:   13.5331982780
  - # 13
    frequency:   14.1254826568
  - # 14
    frequency:   14.2750741769
  - # 15
    frequency:   26.8956562037
  - # 16
    frequency:   27.4720293020
  - # 17
    frequency:   28.2779429895
  - # 18
    frequency:  112.1619720176

- q-position: [    0.1363636,    0.0000000,    0.0000000 ]
  distance:    0.0488354
  band:
  - # 1
    frequency:    1.2629133583
  - # 2
    frequency:    3.1093950771
  - # 3
    frequency:    3.4733284967
  - # 4
    frequency:    5.4037903180
  - # 5
    frequency:    6.1972306344
  - # 6
    frequency:    8.0017269048
  - # 7
    frequency:    8.8811253578
  - # 8
    frequency:    9.1962350234
  - # 9
    frequency:   11.2607341566
  - # 10
    frequency:   11.9667865781
  - # 11
    frequency:   12.8354401195
  - # 12
    frequency:   13.4990630934
  - # 13
    frequency:   14.1127744787
  - # 14
    frequency:   14.2716324686
  - # 15
    frequency:   26.8610887686
  - # 16
    frequency:   27.4646511979
  - # 17
    frequency:   28.2897863670
  - # 18
    frequency:  112.1181544718

- q-position: [    0.1414141,    0.0000000,    0.0000000 ]
  distance:    0.0506442
  band:
  - # 1
    frequency:    1.3454384860
  - # 2
    frequency:    3.1996224824
  - # 3
    frequency:    3.5894177233
  - # 4
    frequency:    5.4106207792
  - # 5
    frequency:    6.2371773537
  - # 6
    frequency:    7.9833034109
  - # 7
    frequency:    8.8780864578
  - # 8
    frequency:    9.1995187018
  - # 9
    frequency:   11.2814302207
  - # 10
    frequency:   12.0180224943
  - # 11
    frequency:   12.8031631344
  - # 12
    frequency:   13.4657566423
  - # 13
    frequency:   14.0994911557
  - # 14
    frequency:   14.2680231934
  - # 15
    frequency:   26.8265405388
  - # 16
    frequency:   27.4568373413
  - # 17
    frequency:   28.3019636646
  - # 18
    frequency:  112.0748901802

- q-position: [    0.1464646,    0.0000000,    0.0000000 ]
  distance:    0.0524529
  band:
  - # 1
    frequency:    1.4292254350
  - # 2
    frequency:    3.2875935349
  - # 3
    frequency:    3.7035685220
  - # 4
    frequency:    5.4188214459
  - # 5
    frequency:    6.2762697967
  - # 6
    frequency:    7.9662482263
  - # 7
    frequency:    8.8749164938
  - # 8
    frequency:    9.2015189203
  - # 9
    frequency:   11.3026802503
  - # 10
    frequency:   12.0692280671
  - # 11
    frequency:   12.7718507453
  - # 12
    frequency:   13.4338065456
  - # 13
    frequency:   14.0856391188
  - # 14
    frequency:   14.2642493219
  - # 15
    frequency:   26.7920523848
  - # 16
    frequency:   27.4485793845
  - # 17
    frequency:   28.3145213927
  - # 18
    frequency:  112.0323701500

- q-position: [    0.1515152,    0.0000000,    0.0000000 ]
  distance:    0.0542616
  band:
  - # 1
    frequency:    1.5141013469
  - # 2
    frequency:    3.3733143862
  - # 3
    frequency:    3.8155980533
  - # 4
    frequency:    5.4284258184
  - # 5
    frequency:    6.3143072523
  - # 6
    frequency:    7.9506805558
  - # 7
    frequency:    8.8716059517
  - # 8
    frequency:    9.2022071084
  - # 9
    frequency:   11.3241901249
  - # 10
    frequency:   12.1202526761
  - # 11
    frequency:   12.7416131496
  - # 12
    frequency:   13.4038151163
  - # 13
    frequency:   14.0712267759
  - # 14
    frequency:   14.2603117427
  - # 15
    frequency:   26.7576627286
  - # 16
    frequency:   27.4398703104
  - # 17
    frequency:   28.3275049539
  - # 18
    frequency:  111.9907832200

- q-position: [    0.1565657,    0.0000000,    0.0000000 ]
  distance:    0.0560703
  band:
  - # 1
    frequency:    1.5998869043
  - # 2
    frequency:    3.4567991789
  - # 3
    frequency:    3.9253065450
  - # 4
    frequency:    5.4394547965
  - # 5
    frequency:    6.3511013371
  - # 6
    frequency:    7.9367070839
  - # 7
    frequency:    8.8681455796
  - # 8
    frequency:    9.2015711541
  - # 9
    frequency:   11.3456279793
  - # 10
    frequency:   12.1709472558
  - # 11
    frequency:   12.7125254785
  - # 12
    frequency:   13.3764593416
  - # 13
    frequency:   14.0562645857
  - # 14
    frequency:   14.2562098155
  - # 15
    frequency:   26.7234077653
  - # 16
    frequency:   27.4307045671
  - # 17
    frequency:   28.3409581272
  - # 18
    frequency:  111.9503152721

- q-position: [    0.1616162,    0.0000000,    0.0000000 ]
  distance:    0.0578790
  band:
  - # 1
    frequency:    1.6863961368
  - # 2
    frequency:    3.5380693968
  - # 3
    frequency:    4.0324754764
  - # 4
    frequency:    5.4519164419
  - # 5
    frequency:    6.3864828113
  - # 6
    frequency:    7.9244172146
  - # 7
    frequency:    8.8645267474
  - # 8
    frequency:    9.1996181982
  - # 9
    frequency:   11.3666326869
  - # 10
    frequency:   12.2211644090
  - # 11
    frequency:   12.6846216232
  - # 12
    frequency:   13.3524852160
  - # 13
    frequency:   14.0407651787
  - # 14
    frequency:   14.2519419113
  - # 15
    frequency:   26.6893216838
  - # 16
    frequency:   27.4210781932
  - # 17
    frequency:   28.3549225986
  - # 18
    frequency:  111.9111484492

- q-position: [    0.1666667,    0.0000000,    0.0000000 ]
  distance:    0.0596878
  band:
  - # 1
    frequency:    1.7734362536
  - # 2
    frequency:    3.6171529737
  - # 3
    frequency:    4.1368657259
  - # 4
    frequency:    5.4658060771
  - # 5
    frequency:    6.4203095438
  - # 6
    frequency:    7.9138776219
  - # 7
    frequency:    8.8607418239
  - # 8
    frequency:    9.1963774815
  - # 9
    frequency:   11.3868266385
  - # 10
    frequency:   12.2707584155
  - # 11
    frequency:   12.6578919599
  - # 12
    frequency:   13.3326935911
  - # 13
    frequency:   14.0247435438
  - # 14
    frequency:   14.2475059232
  - # 15
    frequency:   26.6554368874
  - # 16
    frequency:   27.4109889318
  - # 17
    frequency:   28.3694375410
  - # 18
    frequency:  111.8734603818

- q-position: [    0.1717172,    0.0000000,    0.0000000 ]
  distance:    0.0614965
  band:
  - # 1
    frequency:    1.8608075034
  - # 2
    frequency:    3.6940831650
  - # 3
    frequency:    4.2382158085
  - # 4
    frequency:    5.4811067382
  - # 5
    frequency:    6.4524753630
  - # 6
    frequency:    7.9051263481
  - # 7
    frequency:    8.8567845615
  - # 8
    frequency:    9.1919031213
  - # 9
    frequency:   11.4058328666
  - # 10
    frequency:   12.3195851229
  - # 11
    frequency:   12.6322875894
  - # 12
    frequency:   13.3179149046
  - # 13
    frequency:   14.0082173006
  - # 14
    frequency:   14.2428997388
  - # 15
    frequency:   26.6217842127
  - # 16
    frequency:   27.4004363325
  - # 17
    frequency:   28.3845392425
  - # 18
    frequency:  111.8374234284

- q-position: [    0.1767677,    0.0000000,    0.0000000 ]
  distance:    0.0633052
  band:
  - # 1
    frequency:    1.9483030649
  - # 2
    frequency:    3.7688971959
  - # 3
    frequency:    4.3362404062
  - # 4
    frequency:    5.4977899814
  - # 5
    frequency:    6.4829193048
  - # 6
    frequency:    7.8981668612
  - # 7
    frequency:    8.8526504808
  - # 8
    frequency:    9.1862766599
  - # 9
    frequency:   11.4232957640
  - # 10
    frequency:   12.3675017036
  - # 11
    frequency:   12.6077330627
  - # 12
    frequency:   13.3089716083
  - # 13
    frequency:   13.9912070794
  - # 14