nqpoint: 300    
npath: 3      
segment_nqpoint:
- 100
- 100
- 100
labels:
- [ 'G', 'M' ]
- [ 'M', 'K' ]
- [ 'K', 'G' ]
reciprocal_lattice:
- [   0.27351513,   0.15791404,   0.00000000 ] # a*
- [   0.00000000,   0.31582807,   0.00000000 ] # b*
- [   0.00000000,   0.00000000,   0.04030774 ] # c*
natom: 6      
lattice:
- [     3.656104841495767,     0.000000000000000,     0.000000000000000 ] # a
- [    -1.828052420747884,     3.166279671649022,     0.000000000000000 ] # b
- [     0.000000000000000,     0.000000000000000,    24.809128863819506 ] # c
points:
- symbol: Cl # 1
  coordinates: [  0.666666984744047,  0.333332985985145,  0.362769690520056 ]
  mass: 35.453000
- symbol: N # 2
  coordinates: [  0.000000000000000,  0.000000000000000,  0.479253577229140 ]
  mass: 14.006700
- symbol: N # 3
  coordinates: [  0.333332985432214,  0.666666983183674,  0.582903851545438 ]
  mass: 14.006700
- symbol: O # 4
  coordinates: [  0.333332985432214,  0.666666983183674,  0.637230309479944 ]
  mass: 15.999400
- symbol: Y # 5
  coordinates: [  0.333332985432214,  0.666666983183674,  0.434891385561271 ]
  mass: 88.905850
- symbol: Y # 6
  coordinates: [  0.666666984744047,  0.333332985985145,  0.548320966588939 ]
  mass: 88.905850

phonon:
- q-position: [    0.0000000,    0.0000000,    0.0000000 ]
  distance:    0.0000000
  band:
  - # 1
    frequency:   -5.7468454056
  - # 2
    frequency:   -5.7468454056
  - # 3
    frequency:   -0.0000185738
  - # 4
    frequency:   -0.0000002164
  - # 5
    frequency:    0.0000192663
  - # 6
    frequency:    1.8864826032
  - # 7
    frequency:    1.8864826034
  - # 8
    frequency:    4.1897470785
  - # 9
    frequency:    4.7424355842
  - # 10
    frequency:    4.7424355842
  - # 11
    frequency:    4.9704442394
  - # 12
    frequency:    8.3369266672
  - # 13
    frequency:    9.5048655455
  - # 14
    frequency:    9.5048655456
  - # 15
    frequency:   11.6538307266
  - # 16
    frequency:   11.6538307266
  - # 17
    frequency:   13.4854083306
  - # 18
    frequency:   36.6578699085

- q-position: [    0.0050505,    0.0000000,    0.0000000 ]
  distance:    0.0015951
  band:
  - # 1
    frequency:   -5.7464384235
  - # 2
    frequency:   -5.7457587762
  - # 3
    frequency:    0.0010573395
  - # 4
    frequency:    0.0360781427
  - # 5
    frequency:    0.0740718270
  - # 6
    frequency:    1.8871063429
  - # 7
    frequency:    1.8883544450
  - # 8
    frequency:    4.1897373859
  - # 9
    frequency:    4.7393770785
  - # 10
    frequency:    4.7424737749
  - # 11
    frequency:    4.9733165848
  - # 12
    frequency:    8.3360331821
  - # 13
    frequency:    9.5047038773
  - # 14
    frequency:    9.5085199879
  - # 15
    frequency:   11.6536429736
  - # 16
    frequency:   11.6537438227
  - # 17
    frequency:   13.4851229154
  - # 18
    frequency:   36.6572205568

- q-position: [    0.0101010,    0.0000000,    0.0000000 ]
  distance:    0.0031902
  band:
  - # 1
    frequency:   -5.7452176575
  - # 2
    frequency:   -5.7425015834
  - # 3
    frequency:    0.0042190205
  - # 4
    frequency:    0.0721336651
  - # 5
    frequency:    0.1480110624
  - # 6
    frequency:    1.8889769781
  - # 7
    frequency:    1.8939516724
  - # 8
    frequency:    4.1897122736
  - # 9
    frequency:    4.7306516761
  - # 10
    frequency:    4.7425883164
  - # 11
    frequency:    4.9814997119
  - # 12
    frequency:    8.3333752005
  - # 13
    frequency:    9.5042192739
  - # 14
    frequency:    9.5194367809
  - # 15
    frequency:   11.6530816206
  - # 16
    frequency:   11.6534832867
  - # 17
    frequency:   13.4842692006
  - # 18
    frequency:   36.6552735136

- q-position: [    0.0151515,    0.0000000,    0.0000000 ]
  distance:    0.0047853
  band:
  - # 1
    frequency:   -5.7431836521
  - # 2
    frequency:   -5.7370819080
  - # 3
    frequency:    0.0094397886
  - # 4
    frequency:    0.1081442899
  - # 5
    frequency:    0.2216836133
  - # 6
    frequency:    1.8920927378
  - # 7
    frequency:    1.9032204701
  - # 8
    frequency:    4.1896834629
  - # 9
    frequency:    4.7173464581
  - # 10
    frequency:    4.7427791168
  - # 11
    frequency:    4.9939547986
  - # 12
    frequency:    8.3290173603
  - # 13
    frequency:    9.5034129369
  - # 14
    frequency:    9.5374794866
  - # 15
    frequency:   11.6521525112
  - # 16
    frequency:   11.6530496489
  - # 17
    frequency:   13.4828547509
  - # 18
    frequency:   36.6520318122

- q-position: [    0.0202020,    0.0000000,    0.0000000 ]
  distance:    0.0063804
  band:
  - # 1
    frequency:   -5.7403373276
  - # 2
    frequency:   -5.7295131988
  - # 3
    frequency:    0.0166491361
  - # 4
    frequency:    0.1440884396
  - # 5
    frequency:    0.2949524276
  - # 6
    frequency:    1.8964506046
  - # 7
    frequency:    1.9160746324
  - # 8
    frequency:    4.1896698849
  - # 9
    frequency:    4.7006951121
  - # 10
    frequency:    4.7430460215
  - # 11
    frequency:    5.0095274379
  - # 12
    frequency:    8.3230587970
  - # 13
    frequency:    9.5022868628
  - # 14
    frequency:    9.5624305379
  - # 15
    frequency:   11.6508658086
  - # 16
    frequency:   11.6524437996
  - # 17
    frequency:   13.4808920832
  - # 18
    frequency:   36.6475005008

- q-position: [    0.0252525,    0.0000000,    0.0000000 ]
  distance:    0.0079755
  band:
  - # 1
    frequency:   -5.7366799984
  - # 2
    frequency:   -5.7198142441
  - # 3
    frequency:    0.0257531210
  - # 4
    frequency:    0.1799455626
  - # 5
    frequency:    0.3676761580
  - # 6
    frequency:    1.9020462209
  - # 7
    frequency:    1.9324004361
  - # 8
    frequency:    4.1896967049
  - # 9
    frequency:    4.6817690386
  - # 10
    frequency:    4.7433888114
  - # 11
    frequency:    5.0272549578
  - # 12
    frequency:    8.3156223703
  - # 13
    frequency:    9.5008438331
  - # 14
    frequency:    9.5940037482
  - # 15
    frequency:   11.6492366534
  - # 16
    frequency:   11.6516670007
  - # 17
    frequency:   13.4783985297
  - # 18
    frequency:   36.6416866302

- q-position: [    0.0303030,    0.0000000,    0.0000000 ]
  distance:    0.0095705
  band:
  - # 1
    frequency:   -5.7322133997
  - # 2
    frequency:   -5.7080091316
  - # 3
    frequency:    0.0366384875
  - # 4
    frequency:    0.2156964457
  - # 5
    frequency:    0.4397080079
  - # 6
    frequency:    1.9088737635
  - # 7
    frequency:    1.9520628111
  - # 8
    frequency:    4.1897938125
  - # 9
    frequency:    4.6614033916
  - # 10
    frequency:    4.7438072002
  - # 11
    frequency:    5.0464384724
  - # 12
    frequency:    8.3068429977
  - # 13
    frequency:    9.4990874011
  - # 14
    frequency:    9.6318581812
  - # 15
    frequency:   11.6472861284
  - # 16
    frequency:   11.6507208999
  - # 17
    frequency:   13.4753960489
  - # 18
    frequency:   36.6345992380

- q-position: [    0.0353535,    0.0000000,    0.0000000 ]
  distance:    0.0111656
  band:
  - # 1
    frequency:   -5.7269397205
  - # 2
    frequency:   -5.6941271957
  - # 3
    frequency:    0.0491771731
  - # 4
    frequency:    0.2513235006
  - # 5
    frequency:    0.5108948463
  - # 6
    frequency:    1.9169257940
  - # 7
    frequency:    1.9749122768
  - # 8
    frequency:    4.1899936321
  - # 9
    frequency:    4.6402349460
  - # 10
    frequency:    4.7443008317
  - # 11
    frequency:    5.0666030549
  - # 12
    frequency:    8.2968570502
  - # 13
    frequency:    9.4970218744
  - # 14
    frequency:    9.6756112210
  - # 15
    frequency:   11.6450425804
  - # 16
    frequency:   11.6496075496
  - # 17
    frequency:   13.4719109832
  - # 18
    frequency:   36.6262493276

- q-position: [    0.0404040,    0.0000000,    0.0000000 ]
  distance:    0.0127607
  band:
  - # 1
    frequency:   -5.7208616433
  - # 2
    frequency:   -5.6782029534
  - # 3
    frequency:    0.0632308133
  - # 4
    frequency:    0.2868110185
  - # 5
    frequency:    0.5810766974
  - # 6
    frequency:    1.9261930929
  - # 7
    frequency:    2.0007920981
  - # 8
    frequency:    4.1903280616
  - # 9
    frequency:    4.6187622040
  - # 10
    frequency:    4.7448692760
  - # 11
    frequency:    5.0874359592
  - # 12
    frequency:    8.2857940636
  - # 13
    frequency:    9.4946522936
  - # 14
    frequency:    9.7248493384
  - # 15
    frequency:   11.6425433682
  - # 16
    frequency:   11.6483294291
  - # 17
    frequency:   13.4679737670
  - # 18
    frequency:   36.6166498434

- q-position: [    0.0454545,    0.0000000,    0.0000000 ]
  distance:    0.0143558
  band:
  - # 1
    frequency:   -5.7139823909
  - # 2
    frequency:   -5.6602760275
  - # 3
    frequency:    0.0786549235
  - # 4
    frequency:    0.3221453865
  - # 5
    frequency:    0.6500867338
  - # 6
    frequency:    1.9366644860
  - # 7
    frequency:    2.0295451486
  - # 8
    frequency:    4.1908243115
  - # 9
    frequency:    4.5973960249
  - # 10
    frequency:    4.7455120263
  - # 11
    frequency:    5.1087349860
  - # 12
    frequency:    8.2737712372
  - # 13
    frequency:    9.4919844073
  - # 14
    frequency:    9.7791358134
  - # 15
    frequency:   11.6398371336
  - # 16
    frequency:   11.6468894701
  - # 17
    frequency:   13.4636185870
  - # 18
    frequency:   36.6058156405

- q-position: [    0.0505051,    0.0000000,    0.0000000 ]
  distance:    0.0159509
  band:
  - # 1
    frequency:   -5.7063057785
  - # 2
    frequency:   -5.6403910567
  - # 3
    frequency:    0.0953025384
  - # 4
    frequency:    0.3573152609
  - # 5
    frequency:    0.7177519188
  - # 6
    frequency:    1.9483266729
  - # 7
    frequency:    2.0610200350
  - # 8
    frequency:    4.1914994046
  - # 9
    frequency:    4.5764963885
  - # 10
    frequency:    4.7462284948
  - # 11
    frequency:    5.1303717690
  - # 12
    frequency:    8.2608905636
  - # 13
    frequency:    9.4890246427
  - # 14
    frequency:    9.8380152667
  - # 15
    frequency:   11.6369867242
  - # 16
    frequency:   11.6452910858
  - # 17
    frequency:   13.4588829972
  - # 18
    frequency:   36.5937634511

- q-position: [    0.0555556,    0.0000000,    0.0000000 ]
  distance:    0.0175460
  band:
  - # 1
    frequency:   -5.6978362720
  - # 2
    frequency:   -5.6185975931
  - # 3
    frequency:    0.1130271903
  - # 4
    frequency:    0.3923116919
  - # 5
    frequency:    0.7838944600
  - # 6
    frequency:    1.9611640667
  - # 7
    frequency:    2.0950761134
  - # 8
    frequency:    4.1923531475
  - # 9
    frequency:    4.5563985663
  - # 10
    frequency:    4.7470180099
  - # 11
    frequency:    5.1522670320
  - # 12
    frequency:    8.2472380807
  - # 13
    frequency:    9.4857800720
  - # 14
    frequency:    9.9010151910
  - # 15
    frequency:   11.6340729430
  - # 16
    frequency:   11.6435382016
  - # 17
    frequency:   13.4538074951
  - # 18
    frequency:   36.5805118466

- q-position: [    0.0606061,    0.0000000,    0.0000000 ]
  distance:    0.0191411
  band:
  - # 1
    frequency:   -5.6885790507
  - # 2
    frequency:   -5.5949499861
  - # 3
    frequency:    0.1316852074
  - # 4
    frequency:    0.4271281953
  - # 5
    frequency:    0.8483342320
  - # 6
    frequency:    1.9751586549
  - # 7
    frequency:    2.1315871108
  - # 8
    frequency:    4.1933595707
  - # 9
    frequency:    4.5374325275
  - # 10
    frequency:    4.7478798130
  - # 11
    frequency:    5.1743741179
  - # 12
    frequency:    8.2328846187
  - # 13
    frequency:    9.4822583758
  - # 14
    frequency:    9.9676447604
  - # 15
    frequency:   11.6311993530
  - # 16
    frequency:   11.6416352889
  - # 17
    frequency:   13.4484350620
  - # 18
    frequency:   36.5660811945

- q-position: [    0.0656566,    0.0000000,    0.0000000 ]
  distance:    0.0207362
  band:
  - # 1
    frequency:   -5.6785400745
  - # 2
    frequency:   -5.5695072526
  - # 3
    frequency:    0.1511373821
  - # 4
    frequency:    0.4617607704
  - # 5
    frequency:    0.9108922961
  - # 6
    frequency:    1.9902898896
  - # 7
    frequency:    2.1704431471
  - # 8
    frequency:    4.1944572770
  - # 9
    frequency:    4.5199380763
  - # 10
    frequency:    4.7488130564
  - # 11
    frequency:    5.1966679680
  - # 12
    frequency:    8.2178874529
  - # 13
    frequency:    9.4784678012
  - # 14
    frequency:   10.0373911175
  - # 15
    frequency:   11.6284984316
  - # 16
    frequency:   11.6395874001
  - # 17
    frequency:   13.4428106757
  - # 18
    frequency:   36.5504936132

- q-position: [    0.0707071,    0.0000000,    0.0000000 ]
  distance:    0.0223313
  band:
  - # 1
    frequency:   -5.6677261547
  - # 2
    frequency:   -5.5423329339
  - # 3
    frequency:    0.1712501136
  - # 4
    frequency:    0.4962078589
  - # 5
    frequency:    0.9713955839
  - # 6
    frequency:    2.0065346133
  - # 7
    frequency:    2.2115510430
  - # 8
    frequency:    4.1955400133
  - # 9
    frequency:    4.5042764000
  - # 10
    frequency:    4.7498168019
  - # 11
    frequency:    5.2191376674
  - # 12
    frequency:    8.2022923963
  - # 13
    frequency:    9.4744171169
  - # 14
    frequency:   10.1097131780
  - # 15
    frequency:   11.6261394404
  - # 16
    frequency:   11.6374002050
  - # 17
    frequency:   13.4369808028
  - # 18
    frequency:   36.5337729211

- q-position: [    0.0757576,    0.0000000,    0.0000000 ]
  distance:    0.0239264
  band:
  - # 1
    frequency:   -5.6561450279
  - # 2
    frequency:   -5.5134949388
  - # 3
    frequency:    0.1918961569
  - # 4
    frequency:    0.5304702487
  - # 5
    frequency:    1.0296827031
  - # 6
    frequency:    2.0238670281
  - # 7
    frequency:    2.2548329135
  - # 8
    frequency:    4.1964502345
  - # 9
    frequency:    4.4908365827
  - # 10
    frequency:    4.7508900207
  - # 11
    frequency:    5.2417813460
  - # 12
    frequency:    8.1861359994
  - # 13
    frequency:    9.4701155637
  - # 14
    frequency:   10.1840328194
  - # 15
    frequency:   11.6243384371
  - # 16
    frequency:   11.6350800279
  - # 17
    frequency:   13.4309928802
  - # 18
    frequency:   36.5159445832

- q-position: [    0.0808081,    0.0000000,    0.0000000 ]
  distance:    0.0255215
  band:
  - # 1
    frequency:   -5.6438054312
  - # 2
    frequency:   -5.4830653725
  - # 3
    frequency:    0.2129551224
  - # 4
    frequency:    0.5645509215
  - # 5
    frequency:    1.0856106746
  - # 6
    frequency:    2.0422587090
  - # 7
    frequency:    2.3002231783
  - # 8
    frequency:    4.1969802771
  - # 9
    frequency:    4.4800333502
  - # 10
    frequency:    4.7520315947
  - # 11
    frequency:    5.2646026596
  - # 12
    frequency:    8.1694476483
  - # 13
    frequency:    9.4655728016
  - # 14
    frequency:   10.2597232166
  - # 15
    frequency:   11.6233708581
  - # 16
    frequency:   11.6326338846
  - # 17
    frequency:   13.4248947966
  - # 18
    frequency:   36.4970356541

- q-position: [    0.0858586,    0.0000000,    0.0000000 ]
  distance:    0.0271166
  band:
  - # 1
    frequency:   -5.6307171790
  - # 2
    frequency:   -5.4511203529
  - # 3
    frequency:    0.2343138687
  - # 4
    frequency:    0.5984548482
  - # 5
    frequency:    1.1390622353
  - # 6
    frequency:    2.0616786653
  - # 7
    frequency:    2.3476642777
  - # 8
    frequency:    4.1968869504
  - # 9
    frequency:    4.4722908581
  - # 10
    frequency:    4.7532403189
  - # 11
    frequency:    5.2876083555
  - # 12
    frequency:    8.1522514460
  - # 13
    frequency:    9.4607988532
  - # 14
    frequency:   10.3360941538
  - # 15
    frequency:   11.6235869560
  - # 16
    frequency:   11.6300695187
  - # 17
    frequency:   13.4187343844
  - # 18
    frequency:   36.4770747171

- q-position: [    0.0909091,    0.0000000,    0.0000000 ]
  distance:    0.0287116
  band:
  - # 1
    frequency:   -5.6168912394
  - # 2
    frequency:   -5.4177398138
  - # 3
    frequency:    0.2558669244
  - # 4
    frequency:    0.6321887372
  - # 5
    frequency:    1.1899531682
  - # 6
    frequency:    2.0820934490
  - # 7
    frequency:    2.3971015349
  - # 8
    frequency:    4.1959235196
  - # 9
    frequency:    4.4680089862
  - # 10
    frequency:    4.7545149059
  - # 11
    frequency:    5.3108065910
  - # 12
    frequency:    8.1345678306
  - # 13
    frequency:    9.4558040432
  - # 14
    frequency:   10.4123745794
  - # 15
    frequency:   11.6254298828
  - # 16
    frequency:   11.6273954376
  - # 17
    frequency:   13.4125589379
  - # 18
    frequency:   36.4560918205

- q-position: [    0.0959596,    0.0000000,    0.0000000 ]
  distance:    0.0303067
  band:
  - # 1
    frequency:   -5.6023398094
  - # 2
    frequency:   -5.3830072950
  - # 3
    frequency:    0.2775170563
  - # 4
    frequency:    0.6657607417
  - # 5
    frequency:    1.2382389861
  - # 6
    frequency:    2.1034673069
  - # 7
    frequency:    2.4484777249
  - # 8
    frequency:    4.1938858640
  - # 9
    frequency:    4.4675156886
  - # 10
    frequency:    4.7558539918
  - # 11
    frequency:    5.3342057837
  - # 12
    frequency:    8.1164149231
  - # 13
    frequency:    9.4505989353
  - # 14
    frequency:   10.4876938037
  - # 15
    frequency:   11.6246209455
  - # 16
    frequency:   11.6294550410
  - # 17
    frequency:   13.4064147694
  - # 18
    frequency:   36.4341184110

- q-position: [    0.1010101,    0.0000000,    0.0000000 ]
  distance:    0.0319018
  band:
  - # 1
    frequency:   -5.5870763880
  - # 2
    frequency:   -5.3470097215
  - # 3
    frequency:    0.2991760865
  - # 4
    frequency:    0.6991801322
  - # 5
    frequency:    1.2839202527
  - # 6
    frequency:    2.1257623727
  - # 7
    frequency:    2.5017279604
  - # 8
    frequency:    4.1906587758
  - # 9
    frequency:    4.4710196718
  - # 10
    frequency:    4.7572561440
  - # 11
    frequency:    5.3578138413
  - # 12
    frequency:    8.0978096256
  - # 13
    frequency:    9.4451942660
  - # 14
    frequency:   10.5610650890
  - # 15
    frequency:   11.6217561749
  - # 16
    frequency:   11.6363469558
  - # 17
    frequency:   13.4003468197
  - # 18
    frequency:   36.4111872643

- q-position: [    0.1060606,    0.0000000,    0.0000000 ]
  distance:    0.0334969
  band:
  - # 1
    frequency:   -5.5711158456
  - # 2
    frequency:   -5.3098371720
  - # 3
    frequency:    0.3207660323
  - # 4
    frequency:    0.7324569438
  - # 5
    frequency:    1.3270458880
  - # 6
    frequency:    2.1489388939
  - # 7
    frequency:    2.5567754534
  - # 8
    frequency:    4.1862426091
  - # 9
    frequency:    4.4785833559
  - # 10
    frequency:    4.7587198713
  - # 11
    frequency:    5.3816376616
  - # 12
    frequency:    8.0787684989
  - # 13
    frequency:    9.4396008753
  - # 14
    frequency:   10.6313794275
  - # 15
    frequency:   11.6188121142
  - # 16
    frequency:   11.6469258597
  - # 17
    frequency:   13.3943983389
  - # 18
    frequency:   36.3873324129

- q-position: [    0.1111111,    0.0000000,    0.0000000 ]
  distance:    0.0350920
  band:
  - # 1
    frequency:   -5.5544744888
  - # 2
    frequency:   -5.2715826367
  - # 3
    frequency:    0.3422206157
  - # 4
    frequency:    0.7656016058
  - # 5
    frequency:    1.3677139908
  - # 6
    frequency:    2.1729554858
  - # 7
    frequency:    2.6135285684
  - # 8
    frequency:    4.1807483187
  - # 9
    frequency:    4.4901281770
  - # 10
    frequency:    4.7602436348
  - # 11
    frequency:    5.4056828233
  - # 12
    frequency:    8.0593084570
  - # 13
    frequency:    9.4338296365
  - # 14
    frequency:   10.6974228144
  - # 15
    frequency:   11.6158006320
  - # 16
    frequency:   11.6621306681
  - # 17
    frequency:   13.3886106552
  - # 18
    frequency:   36.3625890718

- q-position: [    0.1161616,    0.0000000,    0.0000000 ]
  distance:    0.0366871
  band:
  - # 1
    frequency:   -5.5371701181
  - # 2
    frequency:   -5.2323417669
  - # 3
    frequency:    0.3634871521
  - # 4
    frequency:    0.7986245618
  - # 5
    frequency:    1.4060699747
  - # 6
    frequency:    2.1977694055
  - # 7
    frequency:    2.6718793613
  - # 8
    frequency:    4.1743661202
  - # 9
    frequency:    4.5054670336
  - # 10
    frequency:    4.7618258616
  - # 11
    frequency:    5.4299534118
  - # 12
    frequency:    8.0394473108
  - # 13
    frequency:    9.4278913832
  - # 14
    frequency:   10.7579346231
  - # 15
    frequency:   11.6127344961
  - # 16
    frequency:   11.6829607182
  - # 17
    frequency:   13.3830230495
  - # 18
    frequency:   36.3369935621

- q-position: [    0.1212121,    0.0000000,    0.0000000 ]
  distance:    0.0382822
  band:
  - # 1
    frequency:   -5.5192220791
  - # 2
    frequency:   -5.1922126171
  - # 3
    frequency:    0.3845287806
  - # 4
    frequency:    0.8315358892
  - # 5
    frequency:    1.4423021135
  - # 6
    frequency:    2.2233368380
  - # 7
    frequency:    2.7317035613
  - # 8
    frequency:    4.1673248079
  - # 9
    frequency:    4.5243468154
  - # 10
    frequency:    4.7634649591
  - # 11
    frequency:    5.4544519350
  - # 12
    frequency:    8.0192041939
  - # 13
    frequency:    9.4217968367
  - # 14
    frequency:   10.8117208949
  - # 15
    frequency:   11.6096273883
  - # 16
    frequency:   11.7103624388
  - # 17
    frequency:   13.3776727568
  - # 18
    frequency:   36.3105832320

- q-position: [    0.1262626,    0.0000000,    0.0000000 ]
  distance:    0.0398773
  band:
  - # 1
    frequency:   -5.5006513038
  - # 2
    frequency:   -5.1512953793
  - # 3
    frequency:    0.4053269440
  - # 4
    frequency:    0.8643449252
  - # 5
    frequency:    1.4766348611
  - # 6
    frequency:    2.2496131870
  - # 7
    frequency:    2.7928617424
  - # 8
    frequency:    4.1598573822
  - # 9
    frequency:    4.5464852995
  - # 10
    frequency:    4.7651593316
  - # 11
    frequency:    5.4791792966
  - # 12
    frequency:    7.9985998970
  - # 13
    frequency:    9.4155565316
  - # 14
    frequency:   10.8578156165
  - # 15
    frequency:   11.6064939116
  - # 16
    frequency:   11.7450678528
  - # 17
    frequency:   13.3725951174
  - # 18
    frequency:   36.2833963772

- q-position: [    0.1313131,    0.0000000,    0.0000000 ]
  distance:    0.0414724
  band:
  - # 1
    frequency:   -5.4814803418
  - # 2
    frequency:   -5.1096921120
  - # 3
    frequency:    0.4258839658
  - # 4
    frequency:    0.8970599063
  - # 5
    frequency:    1.5093205067
  - # 6
    frequency:    2.2765533629
  - # 7
    frequency:    2.8552012900
  - # 8
    frequency:    4.1521797569
  - # 9
    frequency:    4.5715955489
  - # 10
    frequency:    4.7669073972
  - # 11
    frequency:    5.5041348016
  - # 12
    frequency:    7.9776571347
  - # 13
    frequency:    9.4091807437
  - # 14
    frequency:   10.8956466514
  - # 15
    frequency:   11.6033495920
  - # 16
    frequency:   11.7874282207
  - # 17
    frequency:   13.3678239061
  - # 18
    frequency:   36.2554721589

- q-position: [    0.1363636,    0.0000000,    0.0000000 ]
  distance:    0.0430675
  band:
  - # 1
    frequency:   -5.4617333792
  - # 2
    frequency:   -5.0675064628
  - # 3
    frequency:    0.4462255066
  - # 4
    frequency:    0.9296876259
  - # 5
    frequency:    1.5406298282
  - # 6
    frequency:    2.3041120618
  - # 7
    frequency:    2.9185587122
  - # 8
    frequency:    4.1444817298
  - # 9
    frequency:    4.5993985340
  - # 10
    frequency:    4.7687076058
  - # 11
    frequency:    5.5293161722
  - # 12
    frequency:    7.9564007619
  - # 13
    frequency:    9.4026794179
  - # 14
    frequency:   10.9251363789
  - # 15
    frequency:   11.6002108719
  - # 16
    frequency:   11.8373127369
  - # 17
    frequency:   13.3633918730
  - # 18
    frequency:   36.2268505211

- q-position: [    0.1414141,    0.0000000,    0.0000000 ]
  distance:    0.0446626
  band:
  - # 1
    frequency:   -5.4414362447
  - # 2
    frequency:   -5.0248433855
  - # 3
    frequency:    0.4664026259
  - # 4
    frequency:    0.9622331161
  - # 5
    frequency:    1.5708424172
  - # 6
    frequency:    2.3322440298
  - # 7
    frequency:    2.9827618490
  - # 8
    frequency:    4.1369263177
  - # 9
    frequency:    4.6296277901
  - # 10
    frequency:    4.7705584578
  - # 11
    frequency:    5.5547195596
  - # 12
    frequency:    7.9348579570
  - # 13
    frequency:    9.3960620989
  - # 14
    frequency:   10.9466854806
  - # 15
    frequency:   11.5970950959
  - # 16
    frequency:   11.8941237974
  - # 17
    frequency:   13.3593315416
  - # 18
    frequency:   36.1975721063

- q-position: [    0.1464646,    0.0000000,    0.0000000 ]
  distance:    0.0462576
  band:
  - # 1
    frequency:   -5.4206164007
  - # 2
    frequency:   -4.9818088512
  - # 3
    frequency:    0.4864931340
  - # 4
    frequency:    0.9946993561
  - # 5
    frequency:    1.6002372951
  - # 6
    frequency:    2.3609043086
  - # 7
    frequency:    3.0476315866
  - # 8
    frequency:    4.1296536952
  - # 9
    frequency:    4.6620298369
  - # 10
    frequency:    4.7724585226
  - # 11
    frequency:    5.5803395362
  - # 12
    frequency:    7.9130583820
  - # 13
    frequency:    9.3893378653
  - # 14
    frequency:   10.9610493355
  - # 15
    frequency:   11.5940204873
  - # 16
    frequency:   11.9569193182
  - # 17
    frequency:   13.3556763240
  - # 18
    frequency:   36.1676781709

- q-position: [    0.1515152,    0.0000000,    0.0000000 ]
  distance:    0.0478527
  band:
  - # 1
    frequency:   -5.3993029185
  - # 2
    frequency:   -4.9385095520
  - # 3
    frequency:    0.5066019100
  - # 4
    frequency:    1.0270870095
  - # 5
    frequency:    1.6290843353
  - # 6
    frequency:    2.3900484583
  - # 7
    frequency:    3.1129827288
  - # 8
    frequency:    4.1227872451
  - # 9
    frequency:    4.6963628754
  - # 10
    frequency:    4.7744064562
  - # 11
    frequency:    5.6061690566
  - # 12
    frequency:    7.8910343297
  - # 13
    frequency:    9.3825152675
  - # 14
    frequency:   10.9691688794
  - # 15
    frequency:   11.5910061150
  - # 16
    frequency:   12.0245801693
  - # 17
    frequency:   13.3524620358
  - # 18
    frequency:   36.1372105000

- q-position: [    0.1565657,    0.0000000,    0.0000000 ]
  distance:    0.0494478
  band:
  - # 1
    frequency:   -5.3775264367
  - # 2
    frequency:   -4.8950525954
  - # 3
    frequency:    0.5268598935
  - # 4
    frequency:    1.0593941934
  - # 5
    frequency:    1.6576368862
  - # 6
    frequency:    2.4196327563
  - # 7
    frequency:    3.1786237030
  - # 8
    frequency:    4.1164404891
  - # 9
    frequency:    4.7323951321
  - # 10
    frequency:    4.7764010193
  - # 11
    frequency:    5.6321993771
  - # 12
    frequency:    7.8688208646
  - # 13
    frequency:    9.3756022712
  - # 14
    frequency:   10.9720209978
  - # 15
    frequency:   11.5880718508
  - # 16
    frequency:   12.0959575396
  - # 17
    frequency:   13.3497289276
  - # 18
    frequency:   36.1062113215

- q-position: [    0.1616162,    0.0000000,    0.0000000 ]
  distance:    0.0510429
  band:
  - # 1
    frequency:   -5.3553191018
  - # 2
    frequency:   -4.8515451887
  - # 3
    frequency:    0.5474215398
  - # 4
    frequency:    1.0916162779
  - # 5
    frequency:    1.6861258541
  - # 6
    frequency:    2.4496143692
  - # 7
    frequency:    3.2443547330
  - # 8
    frequency:    4.1107245759
  - # 9
    frequency:    4.7699034485
  - # 10
    frequency:    4.7784410924
  - # 11
    frequency:    5.6584199233
  - # 12
    frequency:    7.8464559635
  - # 13
    frequency:    9.3686062069
  - # 14
    frequency:   10.9705206750
  - # 15
    frequency:   11.5852383155
  - # 16
    frequency:   12.1699678521
  - # 17
    frequency:   13.3475243943
  - # 18
    frequency:   36.0747232204

- q-position: [    0.1666667,    0.0000000,    0.0000000 ]
  distance:    0.0526380
  band:
  - # 1
    frequency:   -5.3327144895
  - # 2
    frequency:   -4.8080943083
  - # 3
    frequency:    0.5684606586
  - # 4
    frequency:    1.1237457180
  - # 5
    frequency:    1.7147553807
  - # 6
    frequency:    2.4799514993
  - # 7
    frequency:    3.3099639794
  - # 8
    frequency:    4.1057566414
  - # 9
    frequency:    4.7805256905
  - # 10
    frequency:    4.8086723000
  - # 11
    frequency:    5.6848180986
  - # 12
    frequency:    7.8239806582
  - # 13
    frequency:    9.3615337274
  - # 14
    frequency:   10.9654743017
  - # 15
    frequency:   11.5825268139
  - # 16
    frequency:   12.2456355962
  - # 17
    frequency:   13.3459065932
  - # 18
    frequency:   36.0427890528

- q-position: [    0.1717172,    0.0000000,    0.0000000 ]
  distance:    0.0542331
  band:
  - # 1
    frequency:   -5.3097475079
  - # 2
    frequency:   -4.7648063528
  - # 3
    frequency:    0.5901647291
  - # 4
    frequency:    1.1557719173
  - # 5
    frequency:    1.7437001234
  - # 6
    frequency:    2.5106035050
  - # 7
    frequency:    3.3752208792
  - # 8
    frequency:    4.1016698694
  - # 9
    frequency:    4.7826539744
  - # 10
    frequency:    4.8484932371
  - # 11
    frequency:    5.7113790243
  - # 12
    frequency:    7.8014391830
  - # 13
    frequency:    9.3543907725
  - # 14
    frequency:   10.9575684762
  - # 15
    frequency:   11.5799592583
  - # 16
    frequency:   12.3220994276
  - # 17
    frequency:   13.3449492886
  - # 18
    frequency:   36.0104518609

- q-position: [    0.1767677,    0.0000000,    0.0000000 ]
  distance:    0.0558282
  band:
  - # 1
    frequency:   -5.2864542804
  - # 2
    frequency:   -4.7217867751
  - # 3
    frequency:    0.6127279622
  - # 4
    frequency:    1.1876811224
  - # 5
    frequency:    1.7731040455
  - # 6
    frequency:    2.5415309954
  - # 7
    frequency:    3.4398654586
  - # 8
    frequency:    4.0986266369
  - # 9
    frequency:    4.7848252603
  - # 10
    frequency:    4.8891646725
  - # 11
    frequency:    5.7380852060
  - # 12
    frequency:    7.7788791287
  - # 13
    frequency:    9.3471825445
  - # 14