nqpoint: 300    
npath: 3      
segment_nqpoint:
- 100
- 100
- 100
labels:
- [ 'G', 'M' ]
- [ 'M', 'K' ]
- [ 'K', 'G' ]
reciprocal_lattice:
- [   0.29702462,   0.17148725,   0.00000000 ] # a*
- [   0.00000000,   0.34297449,   0.00000000 ] # b*
- [   0.00000000,   0.00000000,   0.03820768 ] # c*
natom: 7      
lattice:
- [     3.366724249103977,     0.000000000000000,     0.000000000000000 ] # a
- [    -1.683362124551989,     2.915668727248113,     0.000000000000000 ] # b
- [     0.000000000000000,     0.000000000000000,    26.172750742337115 ] # c
points:
- symbol: C # 1
  coordinates: [  0.333332985432215,  0.666666983183674,  0.596781107956577 ]
  mass: 12.010700
- symbol: Cl # 2
  coordinates: [  0.666666984744047,  0.333332985985145,  0.343869090742593 ]
  mass: 35.453000
- symbol: N # 3
  coordinates: [  0.000000000000000,  0.000000000000000,  0.453385940372931 ]
  mass: 14.006700
- symbol: N # 4
  coordinates: [  0.333332985432215,  0.666666983183674,  0.548943746412971 ]
  mass: 14.006700
- symbol: S # 5
  coordinates: [  0.333332985432215,  0.666666983183674,  0.656130909257407 ]
  mass: 32.065000
- symbol: Sc # 6
  coordinates: [  0.333332985432215,  0.666666983183674,  0.408580295151598 ]
  mass: 44.955912
- symbol: Sc # 7
  coordinates: [  0.666666984744047,  0.333332985985145,  0.500549520687311 ]
  mass: 44.955912

phonon:
- q-position: [    0.0000000,    0.0000000,    0.0000000 ]
  distance:    0.0000000
  band:
  - # 1
    frequency:   -0.0000029682
  - # 2
    frequency:   -0.0000010779
  - # 3
    frequency:    0.0000029031
  - # 4
    frequency:    0.5249767212
  - # 5
    frequency:    0.5249767212
  - # 6
    frequency:    3.9499853789
  - # 7
    frequency:    3.9499853789
  - # 8
    frequency:    5.1434534758
  - # 9
    frequency:    6.5074835764
  - # 10
    frequency:    6.5074835764
  - # 11
    frequency:    7.5101869987
  - # 12
    frequency:    7.5101869987
  - # 13
    frequency:    8.2813370893
  - # 14
    frequency:   11.2952870578
  - # 15
    frequency:   12.4522054427
  - # 16
    frequency:   12.4522054427
  - # 17
    frequency:   13.4221394691
  - # 18
    frequency:   13.9353114231
  - # 19
    frequency:   13.9353114231
  - # 20
    frequency:   26.9749279781
  - # 21
    frequency:   57.4972394499

- q-position: [    0.0050505,    0.0000000,    0.0000000 ]
  distance:    0.0017322
  band:
  - # 1
    frequency:   -0.0707262266
  - # 2
    frequency:    0.0786557630
  - # 3
    frequency:    0.1529781730
  - # 4
    frequency:    0.5280790137
  - # 5
    frequency:    0.5347456480
  - # 6
    frequency:    3.9504085964
  - # 7
    frequency:    3.9517221269
  - # 8
    frequency:    5.1432668814
  - # 9
    frequency:    6.5076005332
  - # 10
    frequency:    6.5081439703
  - # 11
    frequency:    7.5105003025
  - # 12
    frequency:    7.5106152526
  - # 13
    frequency:    8.2808388436
  - # 14
    frequency:   11.2934364176
  - # 15
    frequency:   12.4523977603
  - # 16
    frequency:   12.4530311777
  - # 17
    frequency:   13.4210435400
  - # 18
    frequency:   13.9352907334
  - # 19
    frequency:   13.9354584568
  - # 20
    frequency:   26.9746869489
  - # 21
    frequency:   57.4965041363

- q-position: [    0.0101010,    0.0000000,    0.0000000 ]
  distance:    0.0034644
  band:
  - # 1
    frequency:   -0.0710715060
  - # 2
    frequency:    0.1566518332
  - # 3
    frequency:    0.2785719066
  - # 4
    frequency:    0.5374521847
  - # 5
    frequency:    0.5639291373
  - # 6
    frequency:    3.9516784621
  - # 7
    frequency:    3.9569089229
  - # 8
    frequency:    5.1427138483
  - # 9
    frequency:    6.5079516179
  - # 10
    frequency:    6.5101173921
  - # 11
    frequency:    7.5114370861
  - # 12
    frequency:    7.5118969156
  - # 13
    frequency:    8.2793496297
  - # 14
    frequency:   11.2879061472
  - # 15
    frequency:   12.4529714913
  - # 16
    frequency:   12.4554825606
  - # 17
    frequency:   13.4177639356
  - # 18
    frequency:   13.9352292538
  - # 19
    frequency:   13.9358992151
  - # 20
    frequency:   26.9739652853
  - # 21
    frequency:   57.4942991704

- q-position: [    0.0151515,    0.0000000,    0.0000000 ]
  distance:    0.0051966
  band:
  - # 1
    frequency:   -0.0576783710
  - # 2
    frequency:    0.2331913804
  - # 3
    frequency:    0.4018813129
  - # 4
    frequency:    0.5533378251
  - # 5
    frequency:    0.6131314555
  - # 6
    frequency:    3.9537956090
  - # 7
    frequency:    3.9654759196
  - # 8
    frequency:    5.1418146786
  - # 9
    frequency:    6.5085374637
  - # 10
    frequency:    6.5133806832
  - # 11
    frequency:    7.5129879320
  - # 12
    frequency:    7.5140227276
  - # 13
    frequency:    8.2768860430
  - # 14
    frequency:   11.2787597980
  - # 15
    frequency:   12.4539169966
  - # 16
    frequency:   12.4594836025
  - # 17
    frequency:   13.4123250633
  - # 18
    frequency:   13.9351287487
  - # 19
    frequency:   13.9366327583
  - # 20
    frequency:   26.9727672448
  - # 21
    frequency:   57.4906274758

- q-position: [    0.0202020,    0.0000000,    0.0000000 ]
  distance:    0.0069288
  band:
  - # 1
    frequency:    0.0092448906
  - # 2
    frequency:    0.3071838029
  - # 3
    frequency:    0.5144636935
  - # 4
    frequency:    0.5762724428
  - # 5
    frequency:    0.6855695584
  - # 6
    frequency:    3.9567610732
  - # 7
    frequency:    3.9773083196
  - # 8
    frequency:    5.1406033820
  - # 9
    frequency:    6.5093590960
  - # 10
    frequency:    6.5178956471
  - # 11
    frequency:    7.5151370319
  - # 12
    frequency:    7.5169773715
  - # 13
    frequency:    8.2734758272
  - # 14
    frequency:   11.2660988539
  - # 15
    frequency:   12.4552182962
  - # 16
    frequency:   12.4649123500
  - # 17
    frequency:   13.4047671446
  - # 18
    frequency:   13.9349921449
  - # 19
    frequency:   13.9376578029
  - # 20
    frequency:   26.9710998769
  - # 21
    frequency:   57.4854939213

- q-position: [    0.0252525,    0.0000000,    0.0000000 ]
  distance:    0.0086610
  band:
  - # 1
    frequency:    0.0743694846
  - # 2
    frequency:    0.3771098609
  - # 3
    frequency:    0.6072184617
  - # 4
    frequency:    0.6100497433
  - # 5
    frequency:    0.7839066405
  - # 6
    frequency:    3.9605762653
  - # 7
    frequency:    3.9922486541
  - # 8
    frequency:    5.1391279433
  - # 9
    frequency:    6.5104178872
  - # 10
    frequency:    6.5236096407
  - # 11
    frequency:    7.5178620233
  - # 12
    frequency:    7.5207396453
  - # 13
    frequency:    8.2691579927
  - # 14
    frequency:   11.2500568141
  - # 15
    frequency:   12.4568531975
  - # 16
    frequency:   12.4716071889
  - # 17
    frequency:   13.3951455785
  - # 18
    frequency:   13.9348235112
  - # 19
    frequency:   13.9389730936
  - # 20
    frequency:   26.9689729545
  - # 21
    frequency:   57.4789053156

- q-position: [    0.0303030,    0.0000000,    0.0000000 ]
  distance:    0.0103932
  band:
  - # 1
    frequency:    0.1158486399
  - # 2
    frequency:    0.4411439671
  - # 3
    frequency:    0.6474532645
  - # 4
    frequency:    0.6924943270
  - # 5
    frequency:    0.9016789587
  - # 6
    frequency:    3.9652429284
  - # 7
    frequency:    4.0100997098
  - # 8
    frequency:    5.1374507073
  - # 9
    frequency:    6.5117154947
  - # 10
    frequency:    6.5304563843
  - # 11
    frequency:    7.5211337748
  - # 12
    frequency:    7.5252826973
  - # 13
    frequency:    8.2639829678
  - # 14
    frequency:   11.2307921753
  - # 15
    frequency:   12.4587934752
  - # 16
    frequency:   12.4793743949
  - # 17
    frequency:   13.3835301349
  - # 18
    frequency:   13.9346280290
  - # 19
    frequency:   13.9405778365
  - # 20
    frequency:   26.9663988792
  - # 21
    frequency:   57.4708703991

- q-position: [    0.0353535,    0.0000000,    0.0000000 ]
  distance:    0.0121254
  band:
  - # 1
    frequency:    0.1555317937
  - # 2
    frequency:    0.4979404596
  - # 3
    frequency:    0.6977978068
  - # 4
    frequency:    0.7696756188
  - # 5
    frequency:    1.0290807054
  - # 6
    frequency:    3.9707630838
  - # 7
    frequency:    4.0306278868
  - # 8
    frequency:    5.1356488863
  - # 9
    frequency:    6.5132537832
  - # 10
    frequency:    6.5383569720
  - # 11
    frequency:    7.5249161329
  - # 12
    frequency:    7.5305743199
  - # 13
    frequency:    8.2580127629
  - # 14
    frequency:   11.2084811857
  - # 15
    frequency:   12.4610051033
  - # 16
    frequency:   12.4879960551
  - # 17
    frequency:   13.3700040401
  - # 18
    frequency:   13.9344119555
  - # 19
    frequency:   13.9424721289
  - # 20
    frequency:   26.9633925621
  - # 21
    frequency:   57.4613998339

- q-position: [    0.0404040,    0.0000000,    0.0000000 ]
  distance:    0.0138576
  band:
  - # 1
    frequency:    0.1956888432
  - # 2
    frequency:    0.5477405876
  - # 3
    frequency:    0.7575218913
  - # 4
    frequency:    0.8458117417
  - # 5
    frequency:    1.1604520208
  - # 6
    frequency:    3.9771389624
  - # 7
    frequency:    4.0535667695
  - # 8
    frequency:    5.1338151807
  - # 9
    frequency:    6.5150347310
  - # 10
    frequency:    6.5472210631
  - # 11
    frequency:    7.5291656562
  - # 12
    frequency:    7.5365772948
  - # 13
    frequency:    8.2513211237
  - # 14
    frequency:   11.1833110971
  - # 15
    frequency:   12.4634485390
  - # 16
    frequency:   12.4972376233
  - # 17
    frequency:   13.3546630065
  - # 18
    frequency:   13.9341825773
  - # 19
    frequency:   13.9446573292
  - # 20
    frequency:   26.9599712814
  - # 21
    frequency:   57.4505061915

- q-position: [    0.0454545,    0.0000000,    0.0000000 ]
  distance:    0.0155897
  band:
  - # 1
    frequency:    0.2370813910
  - # 2
    frequency:    0.5923076933
  - # 3
    frequency:    0.8244164328
  - # 4
    frequency:    0.9223739852
  - # 5
    frequency:    1.2932266818
  - # 6
    frequency:    3.9843729208
  - # 7
    frequency:    4.0786207230
  - # 8
    frequency:    5.1320584857
  - # 9
    frequency:    6.5170603229
  - # 10
    frequency:    6.5569482343
  - # 11
    frequency:    7.5338313657
  - # 12
    frequency:    7.5432497835
  - # 13
    frequency:    8.2439936355
  - # 14
    frequency:   11.1554744048
  - # 15
    frequency:   12.4660790594
  - # 16
    frequency:   12.5068546101
  - # 17
    frequency:   13.3376142434
  - # 18
    frequency:   13.9339481569
  - # 19
    frequency:   13.9471363284
  - # 20
    frequency:   26.9561545196
  - # 21
    frequency:   57.4382039382

- q-position: [    0.0505051,    0.0000000,    0.0000000 ]
  distance:    0.0173219
  band:
  - # 1
    frequency:    0.2800312031
  - # 2
    frequency:    0.6336951137
  - # 3
    frequency:    0.8960283319
  - # 4
    frequency:    0.9997484062
  - # 5
    frequency:    1.4261709948
  - # 6
    frequency:    3.9924673416
  - # 7
    frequency:    4.1054683918
  - # 8
    frequency:    5.1305046166
  - # 9
    frequency:    6.5193324304
  - # 10
    frequency:    6.5674294695
  - # 11
    frequency:    7.5388545605
  - # 12
    frequency:    7.5505457559
  - # 13
    frequency:    8.2361277337
  - # 14
    frequency:   11.1251643090
  - # 15
    frequency:   12.4688471495
  - # 16
    frequency:   12.5165981641
  - # 17
    frequency:   13.3189754679
  - # 18
    frequency:   13.9337178689
  - # 19
    frequency:   13.9499137018
  - # 20
    frequency:   26.9519637824
  - # 21
    frequency:   57.4245094182

- q-position: [    0.0555556,    0.0000000,    0.0000000 ]
  distance:    0.0190541
  band:
  - # 1
    frequency:    0.3246744341
  - # 2
    frequency:    0.6734201918
  - # 3
    frequency:    0.9704857004
  - # 4
    frequency:    1.0779428898
  - # 5
    frequency:    1.5586065025
  - # 6
    frequency:    4.0014245184
  - # 7
    frequency:    4.1337660741
  - # 8
    frequency:    5.1292969365
  - # 9
    frequency:    6.5218526798
  - # 10
    frequency:    6.5785487681
  - # 11
    frequency:    7.5441687556
  - # 12
    frequency:    7.5584154485
  - # 13
    frequency:    8.2278325539
  - # 14
    frequency:   11.0925714210
  - # 15
    frequency:   12.4716989422
  - # 16
    frequency:   12.5262195057
  - # 17
    frequency:   13.2988739172
  - # 18
    frequency:   13.9335017284
  - # 19
    frequency:   13.9529957389
  - # 20
    frequency:   26.9474224013
  - # 21
    frequency:   57.4094408343

- q-position: [    0.0606061,    0.0000000,    0.0000000 ]
  distance:    0.0207863
  band:
  - # 1
    frequency:    0.3710502785
  - # 2
    frequency:    0.7123931575
  - # 3
    frequency:    1.0465659795
  - # 4
    frequency:    1.1568422543
  - # 5
    frequency:    1.6901056006
  - # 6
    frequency:    4.0112465227
  - # 7
    frequency:    4.1631510655
  - # 8
    frequency:    5.1285966900
  - # 9
    frequency:    6.5246223110
  - # 10
    frequency:    6.5901848507
  - # 11
    frequency:    7.5496998226
  - # 12
    frequency:    7.5668058462
  - # 13
    frequency:    8.2192285430
  - # 14
    frequency:   11.0578815916
  - # 15
    frequency:   12.4745767082
  - # 16
    frequency:   12.5354733238
  - # 17
    frequency:   13.2774453530
  - # 18
    frequency:   13.9333105095
  - # 19
    frequency:   13.9563903615
  - # 20
    frequency:   26.9425553231
  - # 21
    frequency:   57.3930182263

- q-position: [    0.0656566,    0.0000000,    0.0000000 ]
  distance:    0.0225185
  band:
  - # 1
    frequency:    0.4191406895
  - # 2
    frequency:    0.7511066955
  - # 3
    frequency:    1.1235022190
  - # 4
    frequency:    1.2363001062
  - # 5
    frequency:    1.8203650126
  - # 6
    frequency:    4.0219350565
  - # 7
    frequency:    4.1932452171
  - # 8
    frequency:    5.1285827478
  - # 9
    frequency:    6.5276420272
  - # 10
    frequency:    6.6022129448
  - # 11
    frequency:    7.5553664271
  - # 12
    frequency:    7.5756611799
  - # 13
    frequency:    8.2104467323
  - # 14
    frequency:   11.0212746642
  - # 15
    frequency:   12.4774193941
  - # 16
    frequency:   12.5441203147
  - # 17
    frequency:   13.2548330433
  - # 18
    frequency:   13.9331556547
  - # 19
    frequency:   13.9601069518
  - # 20
    frequency:   26.9373888895
  - # 21
    frequency:   57.3752634478

- q-position: [    0.0707071,    0.0000000,    0.0000000 ]
  distance:    0.0242507
  band:
  - # 1
    frequency:    0.4688919048
  - # 2
    frequency:    0.7898083500
  - # 3
    frequency:    1.2008061288
  - # 4
    frequency:    1.3161717680
  - # 5
    frequency:    1.9491482286
  - # 6
    frequency:    4.0334912882
  - # 7
    frequency:    4.2236591119
  - # 8
    frequency:    5.1294503471
  - # 9
    frequency:    6.5309118381
  - # 10
    frequency:    6.6145066355
  - # 11
    frequency:    7.5610808761
  - # 12
    frequency:    7.5849234344
  - # 13
    frequency:    8.2016275559
  - # 14
    frequency:   10.9829239312
  - # 15
    frequency:   12.4801632066
  - # 16
    frequency:   12.5519290670
  - # 17
    frequency:   13.2311867052
  - # 18
    frequency:   13.9330491737
  - # 19
    frequency:   13.9641561110
  - # 20
    frequency:   26.9319506082
  - # 21
    frequency:   57.3562001392

- q-position: [    0.0757576,    0.0000000,    0.0000000 ]
  distance:    0.0259829
  band:
  - # 1
    frequency:    0.5202278040
  - # 2
    frequency:    0.8286092846
  - # 3
    frequency:    1.2781548643
  - # 4
    frequency:    1.3963251575
  - # 5
    frequency:    2.0762568353
  - # 6
    frequency:    4.0459156756
  - # 7
    frequency:    4.2539974282
  - # 8
    frequency:    5.1314082938
  - # 9
    frequency:    6.5344308980
  - # 10
    frequency:    6.6269397682
  - # 11
    frequency:    7.5667504936
  - # 12
    frequency:    7.5945328601
  - # 13
    frequency:    8.1929190912
  - # 14
    frequency:   10.9429960858
  - # 15
    frequency:   12.4827422389
  - # 16
    frequency:   12.5586774784
  - # 17
    frequency:   13.2066614002
  - # 18
    frequency:   13.9330035325
  - # 19
    frequency:   13.9685493751
  - # 20
    frequency:   26.9262689200
  - # 21
    frequency:   57.3358536997

- q-position: [    0.0808081,    0.0000000,    0.0000000 ]
  distance:    0.0277151
  band:
  - # 1
    frequency:    0.5730589166
  - # 2
    frequency:    0.8675461708
  - # 3
    frequency:    1.3553250222
  - # 4
    frequency:    1.4766432614
  - # 5
    frequency:    2.2015148971
  - # 6
    frequency:    4.0592077771
  - # 7
    frequency:    4.2838661646
  - # 8
    frequency:    5.1346740098
  - # 9
    frequency:    6.5381973418
  - # 10
    frequency:    6.6393883945
  - # 11
    frequency:    7.5722796374
  - # 12
    frequency:    7.6044284856
  - # 13
    frequency:    8.1844745995
  - # 14
    frequency:   10.9016514907
  - # 15
    frequency:   12.4850891348
  - # 16
    frequency:   12.5641538574
  - # 17
    frequency:   13.1814163785
  - # 18
    frequency:   13.9330315318
  - # 19
    frequency:   13.9732989058
  - # 20
    frequency:   26.9203729637
  - # 21
    frequency:   57.3142512556

- q-position: [    0.0858586,    0.0000000,    0.0000000 ]
  distance:    0.0294473
  band:
  - # 1
    frequency:    0.6272887646
  - # 2
    frequency:    0.9066154823
  - # 3
    frequency:    1.4321546860
  - # 4
    frequency:    1.5570234822
  - # 5
    frequency:    2.3247595778
  - # 6
    frequency:    4.0733660544
  - # 7
    frequency:    4.3128824099
  - # 8
    frequency:    5.1394658360
  - # 9
    frequency:    6.5422081206
  - # 10
    frequency:    6.6517327546
  - # 11
    frequency:    7.5775724394
  - # 12
    frequency:    7.6145486250
  - # 13
    frequency:    8.1764492776
  - # 14
    frequency:   10.8590446248
  - # 15
    frequency:   12.4871357861
  - # 16
    frequency:   12.5681578208
  - # 17
    frequency:   13.1556138822
  - # 18
    frequency:   13.9331461738
  - # 19
    frequency:   13.9784171772
  - # 20
    frequency:   26.9142923415
  - # 21
    frequency:   57.2914216274

- q-position: [    0.0909091,    0.0000000,    0.0000000 ]
  distance:    0.0311795
  band:
  - # 1
    frequency:    0.6828183913
  - # 2
    frequency:    0.9457924874
  - # 3
    frequency:    1.5085212504
  - # 4
    frequency:    1.6373759642
  - # 5
    frequency:    2.4458348306
  - # 6
    frequency:    4.0883876700
  - # 7
    frequency:    4.3406871322
  - # 8
    frequency:    5.1459922279
  - # 9
    frequency:    6.5464588411
  - # 10
    frequency:    6.6638592947
  - # 11
    frequency:    7.5825362811
  - # 12
    frequency:    7.6248313794
  - # 13
    frequency:    8.1689961898
  - # 14
    frequency:   10.8153246017
  - # 15
    frequency:   12.4888140555
  - # 16
    frequency:   12.5705010578
  - # 17
    frequency:   13.1294179262
  - # 18
    frequency:   13.9333605200
  - # 19
    frequency:   13.9839166684
  - # 20
    frequency:   26.9080568875
  - # 21
    frequency:   57.2673952930

- q-position: [    0.0959596,    0.0000000,    0.0000000 ]
  distance:    0.0329117
  band:
  - # 1
    frequency:    0.7395495768
  - # 2
    frequency:    0.9850418348
  - # 3
    frequency:    1.5843281067
  - # 4
    frequency:    1.7176217309
  - # 5
    frequency:    2.5645865467
  - # 6
    frequency:    4.1042682837
  - # 7
    frequency:    4.3669609854
  - # 8
    frequency:    5.1544379856
  - # 9
    frequency:    6.5509436120
  - # 10
    frequency:    6.6756627167
  - # 11
    frequency:    7.5870859152
  - # 12
    frequency:    7.6352151285
  - # 13
    frequency:    8.1622614593
  - # 14
    frequency:   10.7706356868
  - # 15
    frequency:   12.4900565188
  - # 16
    frequency:   12.5710080005
  - # 17
    frequency:   13.1029930864
  - # 18
    frequency:   13.9336875367
  - # 19
    frequency:   13.9898095724
  - # 20
    frequency:   26.9016964416
  - # 21
    frequency:   57.2422043486

- q-position: [    0.1010101,    0.0000000,    0.0000000 ]
  distance:    0.0346439
  band:
  - # 1
    frequency:    0.7973870650
  - # 2
    frequency:    1.0243234797
  - # 3
    frequency:    1.6594963961
  - # 4
    frequency:    1.7976909503
  - # 5
    frequency:    2.6808582665
  - # 6
    frequency:    4.1210018533
  - # 7
    frequency:    4.3914423524
  - # 8
    frequency:    5.1649484562
  - # 9
    frequency:    6.5556549009
  - # 10
    frequency:    6.6870480590
  - # 11
    frequency:    7.5911479954
  - # 12
    frequency:    7.6456390114
  - # 13
    frequency:    8.1563789361
  - # 14
    frequency:   10.7251177638
  - # 15
    frequency:   12.4907972178
  - # 16
    frequency:   12.5695164119
  - # 17
    frequency:   13.0765033310
  - # 18
    frequency:   13.9341399322
  - # 19
    frequency:   13.9961075273
  - # 20
    frequency:   26.8952406309
  - # 21
    frequency:   57.2158824678

- q-position: [    0.1060606,    0.0000000,    0.0000000 ]
  distance:    0.0363761
  band:
  - # 1
    frequency:    0.8562400341
  - # 2
    frequency:    1.0635959936
  - # 3
    frequency:    1.7339597359
  - # 4
    frequency:    1.8775214257
  - # 5
    frequency:    2.7944868936
  - # 6
    frequency:    4.1385804419
  - # 7
    frequency:    4.4139459371
  - # 8
    frequency:    5.1776135852
  - # 9
    frequency:    6.5605834083
  - # 10
    frequency:    6.6979327996
  - # 11
    frequency:    7.5946656177
  - # 12
    frequency:    7.6560433950
  - # 13
    frequency:    8.1514647273
  - # 14
    frequency:   10.6789067183
  - # 15
    frequency:   12.4909724139
  - # 16
    frequency:   12.5658778965
  - # 17
    frequency:   13.0501109303
  - # 18
    frequency:   13.9347299850
  - # 19
    frequency:   14.0028213702
  - # 20
    frequency:   26.8887186607
  - # 21
    frequency:   57.1884648560

- q-position: [    0.1111111,    0.0000000,    0.0000000 ]
  distance:    0.0381083
  band:
  - # 1
    frequency:    0.9160229854
  - # 2
    frequency:    1.1028183849
  - # 3
    frequency:    1.8076607396
  - # 4
    frequency:    1.9570573225
  - # 5
    frequency:    2.9052980137
  - # 6
    frequency:    4.1569940400
  - # 7
    frequency:    4.4343794981
  - # 8
    frequency:    5.1924544338
  - # 9
    frequency:    6.5657179611
  - # 10
    frequency:    6.7082489658
  - # 11
    frequency:    7.5976023359
  - # 12
    frequency:    7.6663703289
  - # 13
    frequency:    8.1476121206
  - # 14
    frequency:   10.6321347201
  - # 15
    frequency:   12.4905213329
  - # 16
    frequency:   12.5599583374
  - # 17
    frequency:   13.0239754653
  - # 18
    frequency:   13.9354693654
  - # 19
    frequency:   14.0099609146
  - # 20
    frequency:   26.8821591156
  - # 21
    frequency:   57.1599882034

- q-position: [    0.1161616,    0.0000000,    0.0000000 ]
  distance:    0.0398405
  band:
  - # 1
    frequency:    0.9766561835
  - # 2
    frequency:    1.1419510638
  - # 3
    frequency:    1.8805486518
  - # 4
    frequency:    2.0362481078
  - # 5
    frequency:    3.0131004958
  - # 6
    frequency:    4.1762304025
  - # 7
    frequency:    4.4527562149
  - # 8
    frequency:    5.2094149092
  - # 9
    frequency:    6.5710454326
  - # 10
    frequency:    6.7179452121
  - # 11
    frequency:    7.5999450451
  - # 12
    frequency:    7.6765639848
  - # 13
    frequency:    8.1448875123
  - # 14
    frequency:   10.5849303971
  - # 15
    frequency:   12.4893868896
  - # 16
    frequency:   12.5516382885
  - # 17
    frequency:   12.9982529327
  - # 18
    frequency:   13.9363689527
  - # 19
    frequency:   14.0175347502
  - # 20
    frequency:   26.8755897738
  - # 21
    frequency:   57.1304906339

- q-position: [    0.1212121,    0.0000000,    0.0000000 ]
  distance:    0.0415727
  band:
  - # 1
    frequency:    1.0380657549
  - # 2
    frequency:    1.1809563158
  - # 3
    frequency:    1.9525776979
  - # 4
    frequency:    2.1150476712
  - # 5
    frequency:    3.1176801079
  - # 6
    frequency:    4.1962749075
  - # 7
    frequency:    4.4692009433
  - # 8
    frequency:    5.2283606963
  - # 9
    frequency:    6.5765506942
  - # 10
    frequency:    6.7269888090
  - # 11
    frequency:    7.6017051810
  - # 12
    frequency:    7.6865710802
  - # 13
    frequency:    8.1433279222
  - # 14
    frequency:   10.5374188976
  - # 15
    frequency:   12.4875163809
  - # 16
    frequency:   12.5408133842
  - # 17
    frequency:   12.9730948999
  - # 18
    frequency:   13.9374386510
  - # 19
    frequency:   14.0255500618
  - # 20
    frequency:   26.8690374343
  - # 21
    frequency:   57.1000116514

- q-position: [    0.1262626,    0.0000000,    0.0000000 ]
  distance:    0.0433049
  band:
  - # 1
    frequency:    1.1001835288
  - # 2
    frequency:    1.2197984917
  - # 3
    frequency:    2.0237059104
  - # 4
    frequency:    2.1934135941
  - # 5
    frequency:    3.2187919443
  - # 6
    frequency:    4.2171104377
  - # 7
    frequency:    4.4839500852
  - # 8
    frequency:    5.2490858770
  - # 9
    frequency:    6.5822166021
  - # 10
    frequency:    6.7353674503
  - # 11
    frequency:    7.6029178736
  - # 12
    frequency:    7.6963412830
  - # 13
    frequency:    8.1429405023
  - # 14
    frequency:   10.4897218445
  - # 15
    frequency:   12.4848621352
  - # 16
    frequency:   12.5273948720
  - # 17
    frequency:   12.9486476202
  - # 18
    frequency:   13.9386872070
  - # 19
    frequency:   14.0340124641
  - # 20
    frequency:   26.8625277577
  - # 21
    frequency:   57.0685920826

- q-position: [    0.1313131,    0.0000000,    0.0000000 ]
  distance:    0.0450371
  band:
  - # 1
    frequency:    1.1629466878
  - # 2
    frequency:    1.2584440385
  - # 3
    frequency:    2.0938942857
  - # 4
    frequency:    2.2713065391
  - # 5
    frequency:    3.3161516131
  - # 6
    frequency:    4.2387172868
  - # 7
    frequency:    4.4973463723
  - # 8
    frequency:    5.2713260320
  - # 9
    frequency:    6.5880240269
  - # 10
    frequency:    6.7430907567
  - # 11
    frequency:    7.6036390032
  - # 12
    frequency:    7.7058275953
  - # 13
    frequency:    8.1437041710
  - # 14
    frequency:   10.4419571898
  - # 15
    frequency:   12.4813821073
  - # 16
    frequency:   12.5113104002
  - # 17
    frequency:   12.9250509866
  - # 18
    frequency:   13.9401220341
  - # 19
    frequency:   14.0429258524
  - # 20
    frequency:   26.8560851232
  - # 21
    frequency:   57.0362740160

- q-position: [    0.1363636,    0.0000000,    0.0000000 ]
  distance:    0.0467692
  band:
  - # 1
    frequency:    1.2262972821
  - # 2
    frequency:    1.2968614431
  - # 3
    frequency:    2.1631061849
  - # 4
    frequency:    2.3486897333
  - # 5
    frequency:    3.4094254626
  - # 6
    frequency:    4.2610730913
  - # 7
    frequency:    4.5098307595
  - # 8
    frequency:    5.2947754009
  - # 9
    frequency:    6.5939519273
  - # 10
    frequency:    6.7501913220
  - # 11
    frequency:    7.6039404555
  - # 12
    frequency:    7.7149867124
  - # 13
    frequency:    8.1455731726
  - # 14
    frequency:   10.3942389792
  - # 15
    frequency:   12.4770404053
  - # 16
    frequency:   12.4925051808
  - # 17
    frequency:   12.9024372098
  - # 18
    frequency:   13.9417490468
  - # 19
    frequency:   14.0522922653
  - # 20
    frequency:   26.8497324993
  - # 21
    frequency:   57.0031007381

- q-position: [    0.1414141,    0.0000000,    0.0000000 ]
  distance:    0.0485014
  band:
  - # 1
    frequency:    1.2901816515
  - # 2
    frequency:    1.3350211332
  - # 3
    frequency:    2.2313069269
  - # 4
    frequency:    2.4255285283
  - # 5
    frequency:    3.4982208019
  - # 6
    frequency:    4.2841527870
  - # 7
    frequency:    4.5219333040
  - # 8
    frequency:    5.3191053450
  - # 9
    frequency:    6.5999774729
  - # 10
    frequency:    6.7567251264
  - # 11
    frequency:    7.6039041736
  - # 12
    frequency:    7.7237793534
  - # 13
    frequency:    8.1484820828
  - # 14
    frequency:   10.3466770433
  - # 15
    frequency:   12.4709435761
  - # 16
    frequency:   12.4718077402
  - # 17
    frequency:   12.8809291728
  - # 18
    frequency:   13.9435725094
  - # 19
    frequency:   14.0621117615
  - # 20
    frequency:   26.8434913312
  - # 21
    frequency:   56.9691166653

- q-position: [    0.1464646,    0.0000000,    0.0000000 ]
  distance:    0.0502336
  band:
  - # 1
    frequency:    1.3545497882
  - # 2
    frequency:    1.3728953583
  - # 3
    frequency:    2.2984635429
  - # 4
    frequency:    2.5017900161
  - # 5
    frequency:    3.5820783099
  - # 6
    frequency:    4.3079285885
  - # 7
    frequency:    4.5342631846
  - # 8
    frequency:    5.3439818371
  - # 9
    frequency:    6.6060762192
  - # 10
    frequency:    6.7627711356
  - # 11
    frequency:    7.6036157801
  - # 12
    frequency:    7.7321705576
  - # 13
    frequency:    8.1523516020
  - # 14
    frequency:   10.2993766327
  - # 15
    frequency:   12.4466110356
  - # 16
    frequency:   12.4656617885
  - # 17
    frequency:   12.8606385324
  - # 18
    frequency:   13.9455949048
  - # 19
    frequency:   14.0723823097
  - # 20
    frequency:   26.8373814426
  - # 21
    frequency:   56.9343672727

- q-position: [    0.1515152,    0.0000000,    0.0000000 ]
  distance:    0.0519658
  band:
  - # 1
    frequency:    1.4104580680
  - # 2
    frequency:    1.4193546685
  - # 3
    frequency:    2.3645446772
  - # 4
    frequency:    2.5774426902
  - # 5
    frequency:    3.6604708462
  - # 6
    frequency:    4.3323699903
  - # 7
    frequency:    4.5474950942
  - # 8
    frequency:    5.3690806160
  - # 9
    frequency:    6.6122223338
  - # 10
    frequency:    6.7684299244
  - # 11
    frequency:    7.6031585582
  - # 12
    frequency:    7.7401299419
  - # 13
    frequency:    8.1570944553
  - # 14
    frequency:   10.2524380179
  - # 15
    frequency:   12.4195161694
  - # 16
    frequency:   12.4585874573
  - # 17
    frequency:   12.8416637675
  - # 18
    frequency:   13.9478168262
  - # 19
    frequency:   14.0830996954
  - # 20
    frequency:   26.8314209539
  - # 21