nqpoint: 300    
npath: 3      
segment_nqpoint:
- 100
- 100
- 100
labels:
- [ 'G', 'M' ]
- [ 'M', 'K' ]
- [ 'K', 'G' ]
reciprocal_lattice:
- [   0.29702462,   0.17148725,   0.00000000 ] # a*
- [   0.00000000,   0.34297449,   0.00000000 ] # b*
- [   0.00000000,   0.00000000,   0.03820768 ] # c*
natom: 7      
lattice:
- [     3.366724249103977,     0.000000000000000,     0.000000000000000 ] # a
- [    -1.683362124551989,     2.915668727248113,     0.000000000000000 ] # b
- [     0.000000000000000,     0.000000000000000,    26.172750742337115 ] # c
points:
- symbol: C # 1
  coordinates: [  0.333332985432215,  0.666666983183674,  0.596781107956577 ]
  mass: 12.010700
- symbol: Cl # 2
  coordinates: [  0.666666984744047,  0.333332985985145,  0.343869090742593 ]
  mass: 35.453000
- symbol: N # 3
  coordinates: [  0.000000000000000,  0.000000000000000,  0.453385940372931 ]
  mass: 14.006700
- symbol: N # 4
  coordinates: [  0.333332985432215,  0.666666983183674,  0.548943746412971 ]
  mass: 14.006700
- symbol: S # 5
  coordinates: [  0.333332985432215,  0.666666983183674,  0.656130909257407 ]
  mass: 32.065000
- symbol: Sc # 6
  coordinates: [  0.333332985432215,  0.666666983183674,  0.408580295151598 ]
  mass: 44.955912
- symbol: Sc # 7
  coordinates: [  0.666666984744047,  0.333332985985145,  0.500549520687311 ]
  mass: 44.955912

phonon:
- q-position: [    0.0000000,    0.0000000,    0.0000000 ]
  distance:    0.0000000
  band:
  - # 1
    frequency:   -0.0000217370
  - # 2
    frequency:    0.0000002842
  - # 3
    frequency:    0.0000192998
  - # 4
    frequency:    0.5507049440
  - # 5
    frequency:    0.5507049444
  - # 6
    frequency:    3.9816561884
  - # 7
    frequency:    3.9816561885
  - # 8
    frequency:    5.1917978848
  - # 9
    frequency:    6.6640410420
  - # 10
    frequency:    6.6640410420
  - # 11
    frequency:    7.8987352363
  - # 12
    frequency:    7.8987352363
  - # 13
    frequency:    8.2153404758
  - # 14
    frequency:   10.9678845779
  - # 15
    frequency:   12.9469900429
  - # 16
    frequency:   12.9741744799
  - # 17
    frequency:   12.9741744799
  - # 18
    frequency:   13.8996640436
  - # 19
    frequency:   13.8996640437
  - # 20
    frequency:   26.9153945238
  - # 21
    frequency:   57.5109849298

- q-position: [    0.0050505,    0.0000000,    0.0000000 ]
  distance:    0.0017322
  band:
  - # 1
    frequency:   -0.0884836924
  - # 2
    frequency:   -0.0880877544
  - # 3
    frequency:    0.0027595357
  - # 4
    frequency:    0.5681431555
  - # 5
    frequency:    0.5721930407
  - # 6
    frequency:    3.9815595066
  - # 7
    frequency:    3.9826161837
  - # 8
    frequency:    5.1916284506
  - # 9
    frequency:    6.6638449970
  - # 10
    frequency:    6.6640190536
  - # 11
    frequency:    7.8981172073
  - # 12
    frequency:    7.8987057002
  - # 13
    frequency:    8.2155749630
  - # 14
    frequency:   10.9670517967
  - # 15
    frequency:   12.9459023812
  - # 16
    frequency:   12.9738481463
  - # 17
    frequency:   12.9740559990
  - # 18
    frequency:   13.8998340807
  - # 19
    frequency:   13.9000946286
  - # 20
    frequency:   26.9153103779
  - # 21
    frequency:   57.5102109654

- q-position: [    0.0101010,    0.0000000,    0.0000000 ]
  distance:    0.0034644
  band:
  - # 1
    frequency:   -0.1618603659
  - # 2
    frequency:   -0.1544193068
  - # 3
    frequency:    0.0107886452
  - # 4
    frequency:    0.6133179167
  - # 5
    frequency:    0.6265322835
  - # 6
    frequency:    3.9812715333
  - # 7
    frequency:    3.9854875285
  - # 8
    frequency:    5.1911236440
  - # 9
    frequency:    6.6632579940
  - # 10
    frequency:    6.6639529420
  - # 11
    frequency:    7.8962728032
  - # 12
    frequency:    7.8986183765
  - # 13
    frequency:    8.2162717295
  - # 14
    frequency:   10.9645533399
  - # 15
    frequency:   12.9426790736
  - # 16
    frequency:   12.9728688779
  - # 17
    frequency:   12.9736653849
  - # 18
    frequency:   13.9003435381
  - # 19
    frequency:   13.9013845884
  - # 20
    frequency:   26.9150581254
  - # 21
    frequency:   57.5078903219

- q-position: [    0.0151515,    0.0000000,    0.0000000 ]
  distance:    0.0051966
  band:
  - # 1
    frequency:   -0.2160201943
  - # 2
    frequency:   -0.1927818284
  - # 3
    frequency:    0.0255334473
  - # 4
    frequency:    0.6744075385
  - # 5
    frequency:    0.6981106751
  - # 6
    frequency:    3.9807985237
  - # 7
    frequency:    3.9902444193
  - # 8
    frequency:    5.1902939627
  - # 9
    frequency:    6.6622834460
  - # 10
    frequency:    6.6638422021
  - # 11
    frequency:    7.8932304979
  - # 12
    frequency:    7.8984770678
  - # 13
    frequency:    8.2174113224
  - # 14
    frequency:   10.9603889220
  - # 15
    frequency:   12.9374083184
  - # 16
    frequency:   12.9712358748
  - # 17
    frequency:   12.9729278727
  - # 18
    frequency:   13.9011904607
  - # 19
    frequency:   13.9035285665
  - # 20
    frequency:   26.9146383209
  - # 21
    frequency:   57.5040267460

- q-position: [    0.0202020,    0.0000000,    0.0000000 ]
  distance:    0.0069288
  band:
  - # 1
    frequency:   -0.2528749294
  - # 2
    frequency:   -0.2039452310
  - # 3
    frequency:    0.0492986162
  - # 4
    frequency:    0.7438411610
  - # 5
    frequency:    0.7778529128
  - # 6
    frequency:    3.9801510290
  - # 7
    frequency:    3.9968442435
  - # 8
    frequency:    5.1891569338
  - # 9
    frequency:    6.6609270938
  - # 10
    frequency:    6.6636857812
  - # 11
    frequency:    7.8890359451
  - # 12
    frequency:    7.8982879432
  - # 13
    frequency:    8.2189633180
  - # 14
    frequency:   10.9545582491
  - # 15
    frequency:   12.9301743140
  - # 16
    frequency:   12.9689478146
  - # 17
    frequency:   12.9717813682
  - # 18
    frequency:   13.9023716069
  - # 19
    frequency:   13.9065177300
  - # 20
    frequency:   26.9140518842
  - # 21
    frequency:   57.4986264714

- q-position: [    0.0252525,    0.0000000,    0.0000000 ]
  distance:    0.0086610
  band:
  - # 1
    frequency:   -0.2750174273
  - # 2
    frequency:   -0.1896152912
  - # 3
    frequency:    0.0880928219
  - # 4
    frequency:    0.8178553348
  - # 5
    frequency:    0.8615922180
  - # 6
    frequency:    3.9793440816
  - # 7
    frequency:    4.0052281509
  - # 8
    frequency:    5.1877371536
  - # 9
    frequency:    6.6591970798
  - # 10
    frequency:    6.6634817797
  - # 11
    frequency:    7.8837496197
  - # 12
    frequency:    7.8980592918
  - # 13
    frequency:    8.2208889565
  - # 14
    frequency:   10.9470612856
  - # 15
    frequency:   12.9210321022
  - # 16
    frequency:   12.9660028685
  - # 17
    frequency:   12.9702011925
  - # 18
    frequency:   13.9038824750
  - # 19
    frequency:   13.9103399059
  - # 20
    frequency:   26.9133000946
  - # 21
    frequency:   57.4916982034

- q-position: [    0.0303030,    0.0000000,    0.0000000 ]
  distance:    0.0103932
  band:
  - # 1
    frequency:   -0.2842479156
  - # 2
    frequency:   -0.1581186065
  - # 3
    frequency:    0.1526068740
  - # 4
    frequency:    0.8945876599
  - # 5
    frequency:    0.9474002098
  - # 6
    frequency:    3.9783974494
  - # 7
    frequency:    4.0153218202
  - # 8
    frequency:    5.1860663308
  - # 9
    frequency:    6.6571040384
  - # 10
    frequency:    6.6632270695
  - # 11
    frequency:    7.8774440983
  - # 12
    frequency:    7.8978011906
  - # 13
    frequency:    8.2231442196
  - # 14
    frequency:   10.9378986166
  - # 15
    frequency:   12.9100091856
  - # 16
    frequency:   12.9623987241
  - # 17
    frequency:   12.9681979118
  - # 18
    frequency:   13.9057173385
  - # 19
    frequency:   13.9149797596
  - # 20
    frequency:   26.9123845819
  - # 21
    frequency:   57.4832530963

- q-position: [    0.0353535,    0.0000000,    0.0000000 ]
  distance:    0.0121254
  band:
  - # 1
    frequency:   -0.2813853897
  - # 2
    frequency:   -0.1289853096
  - # 3
    frequency:    0.2410706181
  - # 4
    frequency:    0.9730353793
  - # 5
    frequency:    1.0343196006
  - # 6
    frequency:    3.9773359500
  - # 7
    frequency:    4.0270363901
  - # 8
    frequency:    5.1841833184
  - # 9
    frequency:    6.6546611938
  - # 10
    frequency:    6.6629168626
  - # 11
    frequency:    7.8702013512
  - # 12
    frequency:    7.8975250996
  - # 13
    frequency:    8.2256829512
  - # 14
    frequency:   10.9270718948
  - # 15
    frequency:   12.8971157622
  - # 16
    frequency:   12.9581326164
  - # 17
    frequency:   12.9658064360
  - # 18
    frequency:   13.9078692896
  - # 19
    frequency:   13.9204190067
  - # 20
    frequency:   26.9113073162
  - # 21
    frequency:   57.4733047257

- q-position: [    0.0404040,    0.0000000,    0.0000000 ]
  distance:    0.0138576
  band:
  - # 1
    frequency:   -0.2661469421
  - # 2
    frequency:   -0.1054103842
  - # 3
    frequency:    0.3367119046
  - # 4
    frequency:    1.0525934482
  - # 5
    frequency:    1.1218376699
  - # 6
    frequency:    3.9761898177
  - # 7
    frequency:    4.0402695254
  - # 8
    frequency:    5.1821341183
  - # 9
    frequency:    6.6518844501
  - # 10
    frequency:    6.6625442742
  - # 11
    frequency:    7.8621103272
  - # 12
    frequency:    7.8972433978
  - # 13
    frequency:    8.2284597013
  - # 14
    frequency:   10.9145843572
  - # 15
    frequency:   12.8823538202
  - # 16
    frequency:   12.9532013666
  - # 17
    frequency:   12.9630761693
  - # 18
    frequency:   13.9103302911
  - # 19
    frequency:   13.9266366473
  - # 20
    frequency:   26.9100705950
  - # 21
    frequency:   57.4618690541

- q-position: [    0.0454545,    0.0000000,    0.0000000 ]
  distance:    0.0155897
  band:
  - # 1
    frequency:   -0.2365689098
  - # 2
    frequency:   -0.0761481081
  - # 3
    frequency:    0.4326428120
  - # 4
    frequency:    1.1328510951
  - # 5
    frequency:    1.2096600649
  - # 6
    frequency:    3.9749951104
  - # 7
    frequency:    4.0549065886
  - # 8
    frequency:    5.1799718370
  - # 9
    frequency:    6.6487924608
  - # 10
    frequency:    6.6620999296
  - # 11
    frequency:    7.8532649852
  - # 12
    frequency:    7.8969688792
  - # 13
    frequency:    8.2314321004
  - # 14
    frequency:   10.9004413956
  - # 15
    frequency:   12.8657230917
  - # 16
    frequency:   12.9476014288
  - # 17
    frequency:   12.9600642463
  - # 18
    frequency:   13.9130912343
  - # 19
    frequency:   13.9336092109
  - # 20
    frequency:   26.9086770298
  - # 21
    frequency:   57.4489643905

- q-position: [    0.0505051,    0.0000000,    0.0000000 ]
  distance:    0.0173219
  band:
  - # 1
    frequency:   -0.1866221435
  - # 2
    frequency:    0.0279384196
  - # 3
    frequency:    0.5279306636
  - # 4
    frequency:    1.2134986331
  - # 5
    frequency:    1.2976068253
  - # 6
    frequency:    3.9737941417
  - # 7
    frequency:    4.0708218959
  - # 8
    frequency:    5.1777565658
  - # 9
    frequency:    6.6454066617
  - # 10
    frequency:    6.6615716700
  - # 11
    frequency:    7.8437628010
  - # 12
    frequency:    7.8967142263
  - # 13
    frequency:    8.2345626866
  - # 14
    frequency:   10.8846511611
  - # 15
    frequency:   12.8472245156
  - # 16
    frequency:   12.9413289469
  - # 17
    frequency:   12.9568312350
  - # 18
    frequency:   13.9161420030
  - # 19
    frequency:   13.9413110045
  - # 20
    frequency:   26.9071295300
  - # 21
    frequency:   57.4346113446

- q-position: [    0.0555556,    0.0000000,    0.0000000 ]
  distance:    0.0190541
  band:
  - # 1
    frequency:   -0.0877493420
  - # 2
    frequency:    0.0975240121
  - # 3
    frequency:    0.6226550752
  - # 4
    frequency:    1.2942827725
  - # 5
    frequency:    1.3855611299
  - # 6
    frequency:    3.9726359186
  - # 7
    frequency:    4.0878800439
  - # 8
    frequency:    5.1755551551
  - # 9
    frequency:    6.6417512528
  - # 10
    frequency:    6.6609444150
  - # 11
    frequency:    7.8337036882
  - # 12
    frequency:    7.8964914806
  - # 13
    frequency:    8.2378201957
  - # 14
    frequency:   10.8672251816
  - # 15
    frequency:   12.8268621751
  - # 16
    frequency:   12.9343798201
  - # 17
    frequency:   12.9534383754
  - # 18
    frequency:   13.9194715407
  - # 19
    frequency:   13.9497143541
  - # 20
    frequency:   26.9054312873
  - # 21
    frequency:   57.4188327755

- q-position: [    0.0606061,    0.0000000,    0.0000000 ]
  distance:    0.0207863
  band:
  - # 1
    frequency:    0.1451937498
  - # 2
    frequency:    0.1585676532
  - # 3
    frequency:    0.7169678908
  - # 4
    frequency:    1.3749842828
  - # 5
    frequency:    1.4734423257
  - # 6
    frequency:    3.9715765627
  - # 7
    frequency:    4.1059373107
  - # 8
    frequency:    5.1734408461
  - # 9
    frequency:    6.6378531162
  - # 10
    frequency:    6.6602002418
  - # 11
    frequency:    7.8231892105
  - # 12
    frequency:    7.8963115307
  - # 13
    frequency:    8.2411803819
  - # 14
    frequency:   10.8481789712
  - # 15
    frequency:   12.8046443958
  - # 16
    frequency:   12.9267497781
  - # 17
    frequency:   12.9499456957
  - # 18
    frequency:   13.9230679222
  - # 19
    frequency:   13.9587898351
  - # 20
    frequency:   26.9035857583
  - # 21
    frequency:   57.4016537340

- q-position: [    0.0656566,    0.0000000,    0.0000000 ]
  distance:    0.0225185
  band:
  - # 1
    frequency:    0.1900416357
  - # 2
    frequency:    0.2518722699
  - # 3
    frequency:    0.8109728505
  - # 4
    frequency:    1.4554064324
  - # 5
    frequency:    1.5611908392
  - # 6
    frequency:    3.9706796873
  - # 7
    frequency:    4.1248431459
  - # 8
    frequency:    5.1714927189
  - # 9
    frequency:    6.6337416583
  - # 10
    frequency:    6.6593187358
  - # 11
    frequency:    7.8123219482
  - # 12
    frequency:    7.8961836338
  - # 13
    frequency:    8.2446264552
  - # 14
    frequency:   10.8275326086
  - # 15
    frequency:   12.7805844136
  - # 16
    frequency:   12.9184344665
  - # 17
    frequency:   12.9464106284
  - # 18
    frequency:   13.9269184267
  - # 19
    frequency:   13.9685064876
  - # 20
    frequency:   26.9015966477
  - # 21
    frequency:   57.3831014010

- q-position: [    0.0707071,    0.0000000,    0.0000000 ]
  distance:    0.0242507
  band:
  - # 1
    frequency:    0.2349877709
  - # 2
    frequency:    0.3270170782
  - # 3
    frequency:    0.9047260949
  - # 4
    frequency:    1.5353688420
  - # 5
    frequency:    1.6487592084
  - # 6
    frequency:    3.9700166980
  - # 7
    frequency:    4.1444417842
  - # 8
    frequency:    5.1697949089
  - # 9
    frequency:    6.6294485697
  - # 10
    frequency:    6.6582776648
  - # 11
    frequency:    7.8012048768
  - # 12
    frequency:    7.8961149907
  - # 13
    frequency:    8.2481492238
  - # 14
    frequency:   10.8053112640
  - # 15
    frequency:   12.7547008274
  - # 16
    frequency:   12.9094295405
  - # 17
    frequency:   12.9428869326
  - # 18
    frequency:   13.9310096119
  - # 19
    frequency:   13.9788320149
  - # 20
    frequency:   26.8994678908
  - # 21
    frequency:   57.3632050198

- q-position: [    0.0757576,    0.0000000,    0.0000000 ]
  distance:    0.0259829
  band:
  - # 1
    frequency:    0.2810544045
  - # 2
    frequency:    0.3942263710
  - # 3
    frequency:    0.9982493123
  - # 4
    frequency:    1.6147041706
  - # 5
    frequency:    1.7361064028
  - # 6
    frequency:    3.9696669801
  - # 7
    frequency:    4.1645740312
  - # 8
    frequency:    5.1684355427
  - # 9
    frequency:    6.6250074982
  - # 10
    frequency:    6.6570540148
  - # 11
    frequency:    7.7899406418
  - # 12
    frequency:    7.8961103852
  - # 13
    frequency:    8.2517470164
  - # 14
    frequency:   10.7815456550
  - # 15
    frequency:   12.7270179477
  - # 16
    frequency:   12.8997307684
  - # 17
    frequency:   12.9394238343
  - # 18
    frequency:   13.9353273897
  - # 19
    frequency:   13.9897329659
  - # 20
    frequency:   26.8972036371
  - # 21
    frequency:   57.3419958245

- q-position: [    0.0808081,    0.0000000,    0.0000000 ]
  distance:    0.0277151
  band:
  - # 1
    frequency:    0.3286841183
  - # 2
    frequency:    0.4567798358
  - # 3
    frequency:    1.0915402173
  - # 4
    frequency:    1.6932563507
  - # 5
    frequency:    1.8231939596
  - # 6
    frequency:    3.9697179308
  - # 7
    frequency:    4.1850792825
  - # 8
    frequency:    5.1675053411
  - # 9
    frequency:    6.6204536357
  - # 10
    frequency:    6.6556254103
  - # 11
    frequency:    7.7786306387
  - # 12
    frequency:    7.8961719021
  - # 13
    frequency:    8.2554254426
  - # 14
    frequency:   10.7562724148
  - # 15
    frequency:   12.6975660929
  - # 16
    frequency:   12.8893341421
  - # 17
    frequency:   12.9360653472
  - # 18
    frequency:   13.9398571003
  - # 19
    frequency:   14.0011749018
  - # 20
    frequency:   26.8948082338
  - # 21
    frequency:   57.3195069631

- q-position: [    0.0858586,    0.0000000,    0.0000000 ]
  distance:    0.0294473
  band:
  - # 1
    frequency:    0.3780816333
  - # 2
    frequency:    0.5161787607
  - # 3
    frequency:    1.1845795471
  - # 4
    frequency:    1.7708797296
  - # 5
    frequency:    1.9099831375
  - # 6
    frequency:    3.9702647918
  - # 7
    frequency:    4.2057978439
  - # 8
    frequency:    5.1670958435
  - # 9
    frequency:    6.6158232236
  - # 10
    frequency:    6.6539719206
  - # 11
    frequency:    7.7673738445
  - # 12
    frequency:    7.8962987294
  - # 13
    frequency:    8.2591970331
  - # 14
    frequency:   10.7295343598
  - # 15
    frequency:   12.6663818531
  - # 16
    frequency:   12.8782359950
  - # 17
    frequency:   12.9328497617
  - # 18
    frequency:   13.9445835870
  - # 19
    frequency:   14.0131225503
  - # 20
    frequency:   26.8922862108
  - # 21
    frequency:   57.2957734170

- q-position: [    0.0909091,    0.0000000,    0.0000000 ]
  distance:    0.0311795
  band:
  - # 1
    frequency:    0.4293370242
  - # 2
    frequency:    0.5732413482
  - # 3
    frequency:    1.2773356224
  - # 4
    frequency:    1.8474387891
  - # 5
    frequency:    1.9964326347
  - # 6
    frequency:    3.9714102325
  - # 7
    frequency:    4.2265736182
  - # 8
    frequency:    5.1672972237
  - # 9
    frequency:    6.6111529867
  - # 10
    frequency:    6.6520782223
  - # 11
    frequency:    7.7562653849
  - # 12
    frequency:    7.8964870513
  - # 13
    frequency:    8.2630807825
  - # 14
    frequency:   10.7013806483
  - # 15
    frequency:   12.6335083338
  - # 16
    frequency:   12.8664331255
  - # 17
    frequency:   12.9298092971
  - # 18
    frequency:   13.9494912695
  - # 19
    frequency:   14.0255399496
  - # 20
    frequency:   26.8896422664
  - # 21
    frequency:   57.2708319160

- q-position: [    0.0959596,    0.0000000,    0.0000000 ]
  distance:    0.0329117
  band:
  - # 1
    frequency:    0.4824790850
  - # 2
    frequency:    0.6284642453
  - # 3
    frequency:    1.3697673910
  - # 4
    frequency:    1.9228082845
  - # 5
    frequency:    2.0824966046
  - # 6
    frequency:    3.9732636375
  - # 7
    frequency:    4.2472572060
  - # 8
    frequency:    5.1681956892
  - # 9
    frequency:    6.6064795092
  - # 10
    frequency:    6.6499360566
  - # 11
    frequency:    7.7453948629
  - # 12
    frequency:    7.8967300320
  - # 13
    frequency:    8.2671016086
  - # 14
    frequency:   10.6718668251
  - # 15
    frequency:   12.5989953780
  - # 16
    frequency:   12.8539229235
  - # 17
    frequency:   12.9269699144
  - # 18
    frequency:   13.9545642163
  - # 19
    frequency:   14.0383905848
  - # 20
    frequency:   26.8868812545
  - # 21
    frequency:   57.2447208503

- q-position: [    0.1010101,    0.0000000,    0.0000000 ]
  distance:    0.0346439
  band:
  - # 1
    frequency:    0.5375013696
  - # 2
    frequency:    0.6821719871
  - # 3
    frequency:    1.4618265623
  - # 4
    frequency:    1.9968737231
  - # 5
    frequency:    2.1681228114
  - # 6
    frequency:    3.9759400494
  - # 7
    frequency:    4.2677094360
  - # 8
    frequency:    5.1698705008
  - # 9
    frequency:    6.6018385689
  - # 10
    frequency:    6.6475468810
  - # 11
    frequency:    7.7348445143
  - # 12
    frequency:    7.8970178884
  - # 13
    frequency:    8.2712897296
  - # 14
    frequency:   10.6410547511
  - # 15
    frequency:   12.5628997695
  - # 16
    frequency:   12.8407034998
  - # 17
    frequency:   12.9243512808
  - # 18
    frequency:   13.9597862155
  - # 19
    frequency:   14.0516375192
  - # 20
    frequency:   26.8840081732
  - # 21
    frequency:   57.2174801782

- q-position: [    0.1060606,    0.0000000,    0.0000000 ]
  distance:    0.0363761
  band:
  - # 1
    frequency:    0.5943759960
  - # 2
    frequency:    0.7345882163
  - # 3
    frequency:    1.5534592019
  - # 4
    frequency:    2.0695321455
  - # 5
    frequency:    2.2532508304
  - # 6
    frequency:    3.9795587313
  - # 7
    frequency:    4.2878052912
  - # 8
    frequency:    5.1723907057
  - # 9
    frequency:    6.5972644500
  - # 10
    frequency:    6.6449245765
  - # 11
    frequency:    7.7246872938
  - # 12
    frequency:    7.8973380462
  - # 13
    frequency:    8.2756799551
  - # 14
    frequency:   10.6090124238
  - # 15
    frequency:   12.5252854137
  - # 16
    frequency:   12.8267738153
  - # 17
    frequency:   12.9219668776
  - # 18
    frequency:   13.9651408450
  - # 19
    frequency:   14.0652435242
  - # 20
    frequency:   26.8810281544
  - # 21
    frequency:   57.1891513316

- q-position: [    0.1111111,    0.0000000,    0.0000000 ]
  distance:    0.0381083
  band:
  - # 1
    frequency:    0.6530614065
  - # 2
    frequency:    0.7858731897
  - # 3
    frequency:    1.6446070098
  - # 4
    frequency:    2.1406931844
  - # 5
    frequency:    2.3378102430
  - # 6
    frequency:    3.9842413191
  - # 7
    frequency:    4.3074381277
  - # 8
    frequency:    5.1758117469
  - # 9
    frequency:    6.5927892564
  - # 10
    frequency:    6.6420980350
  - # 11
    frequency:    7.7149850277
  - # 12
    frequency:    7.8976753735
  - # 13
    frequency:    8.2803108833
  - # 14
    frequency:   10.5758136935
  - # 15
    frequency:   12.4862234976
  - # 16
    frequency:   12.8121338080
  - # 17
    frequency:   12.9198242360
  - # 18
    frequency:   13.9706115416
  - # 19
    frequency:   14.0791712070
  - # 20
    frequency:   26.8779464552
  - # 21
    frequency:   57.1597771183

- q-position: [    0.1161616,    0.0000000,    0.0000000 ]
  distance:    0.0398405
  band:
  - # 1
    frequency:    0.7135069055
  - # 2
    frequency:    0.8361450673
  - # 3
    frequency:    1.7352084090
  - # 4
    frequency:    2.2102803734
  - # 5
    frequency:    2.4217188080
  - # 6
    frequency:    3.9901095598
  - # 7
    frequency:    4.3265240120
  - # 8
    frequency:    5.1801721893
  - # 9
    frequency:    6.5884422458
  - # 10
    frequency:    6.6391134290
  - # 11
    frequency:    7.7057867874
  - # 12
    frequency:    7.8980124798
  - # 13
    frequency:    8.2852239954
  - # 14
    frequency:   10.5415378865
  - # 15
    frequency:   12.4457926258
  - # 16
    frequency:   12.7967845160
  - # 17
    frequency:   12.9179252839
  - # 18
    frequency:   13.9761816683
  - # 19
    frequency:   14.0933831395
  - # 20
    frequency:   26.8747684510
  - # 21
    frequency:   57.1294016220

- q-position: [    0.1212121,    0.0000000,    0.0000000 ]
  distance:    0.0415727
  band:
  - # 1
    frequency:    0.7756553784
  - # 2
    frequency:    0.8854927243
  - # 3
    frequency:    1.8251995161
  - # 4
    frequency:    2.2782326619
  - # 5
    frequency:    2.5048806212
  - # 6
    frequency:    3.9972826531
  - # 7
    frequency:    4.3450059241
  - # 8
    frequency:    5.1854908719
  - # 9
    frequency:    6.5842492079
  - # 10
    frequency:    6.6360359471
  - # 11
    frequency:    7.6971276449
  - # 12
    frequency:    7.8983300726
  - # 13
    frequency:    8.2904626399
  - # 14
    frequency:   10.5062693469
  - # 15
    frequency:   12.4040789324
  - # 16
    frequency:   12.7807281948
  - # 17
    frequency:   12.9162667840
  - # 18
    frequency:   13.9818345819
  - # 19
    frequency:   14.1078419886
  - # 20
    frequency:   26.8714996287
  - # 21
    frequency:   57.0980700999

- q-position: [    0.1262626,    0.0000000,    0.0000000 ]
  distance:    0.0433049
  band:
  - # 1
    frequency:    0.8394449295
  - # 2
    frequency:    0.9339838371
  - # 3
    frequency:    1.9145150247
  - # 4
    frequency:    2.3445060668
  - # 5
    frequency:    2.5871843023
  - # 6
    frequency:    4.0058742540
  - # 7
    frequency:    4.3628575219
  - # 8
    frequency:    5.1917648392
  - # 9
    frequency:    6.5802319063
  - # 10
    frequency:    6.6329507866
  - # 11
    frequency:    7.6890279566
  - # 12
    frequency:    7.8986073566
  - # 13
    frequency:    8.2960709046
  - # 14
    frequency:   10.4700969090
  - # 15
    frequency:   12.3611761680
  - # 16
    frequency:   12.7639684253
  - # 17
    frequency:   12.9148408438
  - # 18
    frequency:   13.9875536988
  - # 19
    frequency:   14.1225106471
  - # 20
    frequency:   26.8681455827
  - # 21
    frequency:   57.0658288790

- q-position: [    0.1313131,    0.0000000,    0.0000000 ]
  distance:    0.0450371
  band:
  - # 1
    frequency:    0.9048098568
  - # 2
    frequency:    0.9816701921
  - # 3
    frequency:    2.0030890076
  - # 4
    frequency:    2.4090753594
  - # 5
    frequency:    2.6685012825
  - # 6
    frequency:    4.0159892294
  - # 7
    frequency:    4.3800861339
  - # 8
    frequency:    5.1989684110
  - # 9
    frequency:    6.5764076026
  - # 10
    frequency:    6.6299632194
  - # 11
    frequency:    7.6814932895
  - # 12
    frequency:    7.8988224660
  - # 13
    frequency:    8.3020923809
  - # 14
    frequency:   10.4331133146
  - # 15
    frequency:   12.3171857600
  - # 16
    frequency:   12.7465102127
  - # 17
    frequency:   12.9136354754
  - # 18
    frequency:   13.9933225607
  - # 19
    frequency:   14.1373523667
  - # 20
    frequency:   26.8647120099
  - # 21
    frequency:   57.0327252508

- q-position: [    0.1363636,    0.0000000,    0.0000000 ]
  distance:    0.0467692
  band:
  - # 1
    frequency:    0.9716812050
  - # 2
    frequency:    1.0285912929
  - # 3
    frequency:    2.0908556267
  - # 4
    frequency:    2.4719356490
  - # 5
    frequency:    2.7486843058
  - # 6
    frequency:    4.0277203124
  - # 7
    frequency:    4.3967346592
  - # 8
    frequency:    5.2070536962
  - # 9
    frequency:    6.5727886786
  - # 10
    frequency:    6.6271975867
  - # 11
    frequency:    7.6745150582
  - # 12
    frequency:    7.8989529158
  - # 13
    frequency:    8.3085688339
  - # 14
    frequency:   10.3954145866
  - # 15
    frequency:   12.2722168441
  - # 16
    frequency:   12.7283600724
  - # 17
    frequency:   12.9126351873
  - # 18
    frequency:   13.9991248990
  - # 19
    frequency:   14.1523308903
  - # 20
    frequency:   26.8612047073
  - # 21
    frequency:   56.9988073641

- q-position: [    0.1414141,    0.0000000,    0.0000000 ]
  distance:    0.0485014
  band:
  - # 1
    frequency:    1.0399870457
  - # 2
    frequency:    1.0747768885
  - # 3
    frequency:    2.1777497274
  - # 4
    frequency:    2.5331036943
  - # 5
    frequency:    2.8275663062
  - # 6
    frequency:    4.0411448326
  - # 7
    frequency:    4.4128821004
  - # 8
    frequency:    5.2159527560
  - # 9
    frequency:    6.5693823697
  - # 10
    frequency:    6.6247951440
  - # 11
    frequency:    7.6680718782
  - # 12
    frequency:    7.8989760606
  - # 13
    frequency:    8.3155388036
  - # 14
    frequency:   10.3570993718
  - # 15
    frequency:   12.2263862655
  - # 16
    frequency:   12.7095261034
  - # 17
    frequency:   12.9118215897
  - # 18
    frequency:   14.0049446995
  - # 19
    frequency:   14.1674105846
  - # 20
    frequency:   26.8576295684
  - # 21
    frequency:   56.9641241188

- q-position: [    0.1464646,    0.0000000,    0.0000000 ]
  distance:    0.0502336
  band:
  - # 1
    frequency:    1.1096525777
  - # 2
    frequency:    1.1202488001
  - # 3
    frequency:    2.2637072857
  - # 4
    frequency:    2.5926187474
  - # 5
    frequency:    2.9049598822
  - # 6
    frequency:    4.0563217383
  - # 7
    frequency:    4.4286425200
  - # 8
    frequency:    5.2255814722
  - # 9
    frequency:    6.5661906184
  - # 10
    frequency:    6.6229107489
  - # 11
    frequency:    7.6621315843
  - # 12
    frequency:    7.8988695490
  - # 13
    frequency:    8.3230361732
  - # 14
    frequency:   10.3182682625
  - # 15
    frequency:   12.1798185448
  - # 16
    frequency:   12.6900180459
  - # 17
    frequency:   12.9111739971
  - # 18
    frequency:   14.0107662648
  - # 19
    frequency:   14.1825565706
  - # 20
    frequency:   26.8539925807
  - # 21
    frequency:   56.9287250570

- q-position: [    0.1515152,    0.0000000,    0.0000000 ]
  distance:    0.0519658
  band:
  - # 1
    frequency:    1.1650222850
  - # 2
    frequency:    1.1806001065
  - # 3
    frequency:    2.3486656726
  - # 4
    frequency:    2.6505427318
  - # 5
    frequency:    2.9806576691
  - # 6
    frequency:    4.0732891389
  - # 7
    frequency:    4.4441622695
  - # 8
    frequency:    5.2358450086
  - # 9
    frequency:    6.5632100547
  - # 10
    frequency:    6.6217084663
  - # 11
    frequency:    7.6566538015
  - # 12
    frequency:    7.8986117621
  - # 13
    frequency:    8.3310887517
  - # 14
    frequency:   10.2790231069
  - # 15
    frequency:   12.1326458063
  - # 16
    frequency:   12.6698473234
  - # 17
    frequency:   12.9106700153
  - # 18
    frequency:   14.0165742769
  - # 19
    frequency:   14.1977348508
  - # 20
    frequency:   26.8502998227
  - # 21