nqpoint: 300    
npath: 3      
segment_nqpoint:
- 100
- 100
- 100
labels:
- [ 'G', 'M' ]
- [ 'M', 'K' ]
- [ 'K', 'G' ]
reciprocal_lattice:
- [   0.30541949,   0.17633403,   0.00000000 ] # a*
- [   0.00000000,   0.35266805,   0.00000000 ] # b*
- [   0.00000000,   0.00000000,   0.04183837 ] # c*
natom: 6      
lattice:
- [     3.274185235509708,     0.000000000000000,     0.000000000000000 ] # a
- [    -1.637092617754854,     2.835527590636965,     0.000000000000000 ] # b
- [     0.000000000000000,     0.000000000000000,    23.901503200551552 ] # c
points:
- symbol: C # 1
  coordinates: [  0.000000000000000,  0.000000000000000,  0.522242065977855 ]
  mass: 12.010700
- symbol: H # 2
  coordinates: [  0.666666984744047,  0.333332985985145,  0.376545354678459 ]
  mass: 1.007940
- symbol: O # 3
  coordinates: [  0.333332985432215,  0.666666983183674,  0.623454645321541 ]
  mass: 15.999400
- symbol: O # 4
  coordinates: [  0.666666984744047,  0.333332985985145,  0.417722312849410 ]
  mass: 15.999400
- symbol: Sc # 5
  coordinates: [  0.333332985432215,  0.666666983183674,  0.470132576463709 ]
  mass: 44.955912
- symbol: Sc # 6
  coordinates: [  0.666666984744047,  0.333332985985145,  0.592836486475770 ]
  mass: 44.955912

phonon:
- q-position: [    0.0000000,    0.0000000,    0.0000000 ]
  distance:    0.0000000
  band:
  - # 1
    frequency:   -0.0000298612
  - # 2
    frequency:   -0.0000004347
  - # 3
    frequency:    0.0000212120
  - # 4
    frequency:    3.0813532855
  - # 5
    frequency:    3.0813532857
  - # 6
    frequency:    6.2471068949
  - # 7
    frequency:    7.5385864895
  - # 8
    frequency:    7.5385864895
  - # 9
    frequency:   10.2361540837
  - # 10
    frequency:   10.2361540838
  - # 11
    frequency:   11.6093367248
  - # 12
    frequency:   11.6093367248
  - # 13
    frequency:   13.6078922750
  - # 14
    frequency:   13.7332284334
  - # 15
    frequency:   13.7332284334
  - # 16
    frequency:   14.6759410010
  - # 17
    frequency:   17.7831833918
  - # 18
    frequency:  114.4243414086

- q-position: [    0.0050505,    0.0000000,    0.0000000 ]
  distance:    0.0017812
  band:
  - # 1
    frequency:   -0.0685272107
  - # 2
    frequency:    0.0025375588
  - # 3
    frequency:    0.1035528251
  - # 4
    frequency:    3.0818446088
  - # 5
    frequency:    3.0845635059
  - # 6
    frequency:    6.2448734379
  - # 7
    frequency:    7.5387505084
  - # 8
    frequency:    7.5392585884
  - # 9
    frequency:   10.2360649289
  - # 10
    frequency:   10.2375372531
  - # 11
    frequency:   11.6082853621
  - # 12
    frequency:   11.6094608415
  - # 13
    frequency:   13.6099403996
  - # 14
    frequency:   13.7326174288
  - # 15
    frequency:   13.7330569417
  - # 16
    frequency:   14.6766904383
  - # 17
    frequency:   17.7827473295
  - # 18
    frequency:  114.4242935804

- q-position: [    0.0101010,    0.0000000,    0.0000000 ]
  distance:    0.0035623
  band:
  - # 1
    frequency:   -0.1368664479
  - # 2
    frequency:    0.0100781857
  - # 3
    frequency:    0.2070977355
  - # 4
    frequency:    3.0833186636
  - # 5
    frequency:    3.0941624845
  - # 6
    frequency:    6.2382018307
  - # 7
    frequency:    7.5392418911
  - # 8
    frequency:    7.5412665127
  - # 9
    frequency:   10.2357988131
  - # 10
    frequency:   10.2416564401
  - # 11
    frequency:   11.6051516572
  - # 12
    frequency:   11.6098335455
  - # 13
    frequency:   13.6160657791
  - # 14
    frequency:   13.7307873985
  - # 15
    frequency:   13.7325426568
  - # 16
    frequency:   14.6789433430
  - # 17
    frequency:   17.7814405882
  - # 18
    frequency:  114.4241503123

- q-position: [    0.0151515,    0.0000000,    0.0000000 ]
  distance:    0.0053435
  band:
  - # 1
    frequency:   -0.2048300391
  - # 2
    frequency:    0.0225466271
  - # 3
    frequency:    0.3106263641
  - # 4
    frequency:    3.0857757403
  - # 5
    frequency:    3.1100568397
  - # 6
    frequency:    6.2271771470
  - # 7
    frequency:    7.5400586241
  - # 8
    frequency:    7.5445857589
  - # 9
    frequency:   10.2353597776
  - # 10
    frequency:   10.2484215078
  - # 11
    frequency:   11.5999960282
  - # 12
    frequency:   11.6104558918
  - # 13
    frequency:   13.6262111523
  - # 14
    frequency:   13.7277482841
  - # 15
    frequency:   13.7316861503
  - # 16
    frequency:   14.6827133794
  - # 17
    frequency:   17.7792675035
  - # 18
    frequency:  114.4239122529

- q-position: [    0.0202020,    0.0000000,    0.0000000 ]
  distance:    0.0071246
  band:
  - # 1
    frequency:   -0.2722308899
  - # 2
    frequency:    0.0397995925
  - # 3
    frequency:    0.4141294666
  - # 4
    frequency:    3.0892164346
  - # 5
    frequency:    3.1320962812
  - # 6
    frequency:    6.2119372682
  - # 7
    frequency:    7.5411973820
  - # 8
    frequency:    7.5491774356
  - # 9
    frequency:   10.2347545389
  - # 10
    frequency:   10.2576849311
  - # 11
    frequency:   11.5929168144
  - # 12
    frequency:   11.6113296121
  - # 13
    frequency:   13.6402784280
  - # 14
    frequency:   13.7235216053
  - # 15
    frequency:   13.7304883758
  - # 16
    frequency:   14.6880229480
  - # 17
    frequency:   17.7762353018
  - # 18
    frequency:  114.4235804806

- q-position: [    0.0252525,    0.0000000,    0.0000000 ]
  distance:    0.0089058
  band:
  - # 1
    frequency:   -0.3388826944
  - # 2
    frequency:    0.0616468121
  - # 3
    frequency:    0.5175964866
  - # 4
    frequency:    3.0936418042
  - # 5
    frequency:    3.1600809504
  - # 6
    frequency:    6.1926675208
  - # 7
    frequency:    7.5426535711
  - # 8
    frequency:    7.5549908590
  - # 9
    frequency:   10.2339924598
  - # 10
    frequency:   10.2692456773
  - # 11
    frequency:   11.5840470043
  - # 12
    frequency:   11.6124570779
  - # 13
    frequency:   13.6581124452
  - # 14
    frequency:   13.7181598563
  - # 15
    frequency:   13.7289506712
  - # 16
    frequency:   14.6949026388
  - # 17
    frequency:   17.7723540984
  - # 18
    frequency:  114.4231564987

- q-position: [    0.0303030,    0.0000000,    0.0000000 ]
  distance:    0.0106869
  band:
  - # 1
    frequency:   -0.4046000632
  - # 2
    frequency:    0.0878599422
  - # 3
    frequency:    0.6210151394
  - # 4
    frequency:    3.0990535642
  - # 5
    frequency:    3.1937704829
  - # 6
    frequency:    6.1695940546
  - # 7
    frequency:    7.5444213905
  - # 8
    frequency:    7.5619666253
  - # 9
    frequency:   10.2330855103
  - # 10
    frequency:   10.2828543193
  - # 11
    frequency:   11.5735501273
  - # 12
    frequency:   11.6138412475
  - # 13
    frequency:   13.6793690403
  - # 14
    frequency:   13.7118823453
  - # 15
    frequency:   13.7270747611
  - # 16
    frequency:   14.7033904944
  - # 17
    frequency:   17.7676368973
  - # 18
    frequency:  114.4226422296

- q-position: [    0.0353535,    0.0000000,    0.0000000 ]
  distance:    0.0124681
  band:
  - # 1
    frequency:   -0.4691985445
  - # 2
    frequency:    0.1181822261
  - # 3
    frequency:    0.7243710118
  - # 4
    frequency:    3.1054543041
  - # 5
    frequency:    3.2328938786
  - # 6
    frequency:    6.1429766234
  - # 7
    frequency:    7.5464939070
  - # 8
    frequency:    7.5700397676
  - # 9
    frequency:   10.2320482162
  - # 10
    frequency:   10.2982191155
  - # 11
    frequency:   11.5616156683
  - # 12
    frequency:   11.6154856014
  - # 13
    frequency:   13.6989958373
  - # 14
    frequency:   13.7095986639
  - # 15
    frequency:   13.7248627598
  - # 16
    frequency:   14.7135311060
  - # 17
    frequency:   17.7620995884
  - # 18
    frequency:  114.4220400066

- q-position: [    0.0404040,    0.0000000,    0.0000000 ]
  distance:    0.0142492
  band:
  - # 1
    frequency:   -0.5324945279
  - # 2
    frequency:    0.1523380730
  - # 3
    frequency:    0.8276471776
  - # 4
    frequency:    3.1128477023
  - # 5
    frequency:    3.2771593148
  - # 6
    frequency:    6.1131013847
  - # 7
    frequency:    7.5488631441
  - # 8
    frequency:    7.5791426703
  - # 9
    frequency:   10.2308975977
  - # 10
    frequency:   10.3150127839
  - # 11
    frequency:   11.5484543357
  - # 12
    frequency:   11.6173940667
  - # 13
    frequency:   13.6935430469
  - # 14
    frequency:   13.7223171748
  - # 15
    frequency:   13.7346021131
  - # 16
    frequency:   14.7253745726
  - # 17
    frequency:   17.7557609446
  - # 18
    frequency:  114.4213525650

- q-position: [    0.0454545,    0.0000000,    0.0000000 ]
  distance:    0.0160304
  band:
  - # 1
    frequency:   -0.5943050178
  - # 2
    frequency:    0.1900418746
  - # 3
    frequency:    0.9308238300
  - # 4
    frequency:    3.1212387194
  - # 5
    frequency:    3.3262632113
  - # 6
    frequency:    6.0802742108
  - # 7
    frequency:    7.5515201820
  - # 8
    frequency:    7.5892075190
  - # 9
    frequency:   10.2296530972
  - # 10
    frequency:   10.3328797244
  - # 11
    frequency:   11.5342934354
  - # 12
    frequency:   11.6195709306
  - # 13
    frequency:   13.6837850175
  - # 14
    frequency:   13.7194409108
  - # 15
    frequency:   13.7659520251
  - # 16
    frequency:   14.7389753500
  - # 17
    frequency:   17.7486426167
  - # 18
    frequency:  114.4205830303

- q-position: [    0.0505051,    0.0000000,    0.0000000 ]
  distance:    0.0178115
  band:
  - # 1
    frequency:   -0.6544472773
  - # 2
    frequency:    0.2310055984
  - # 3
    frequency:    1.0338779266
  - # 4
    frequency:    3.1306337487
  - # 5
    frequency:    3.3798980733
  - # 6
    frequency:    6.0448148495
  - # 7
    frequency:    7.5544552660
  - # 8
    frequency:    7.6001681853
  - # 9
    frequency:   10.2283364963
  - # 10
    frequency:   10.3514434965
  - # 11
    frequency:   11.5193724941
  - # 12
    frequency:   11.6220207474
  - # 13
    frequency:   13.6727298449
  - # 14
    frequency:   13.7162372732
  - # 15
    frequency:   13.8004674514
  - # 16
    frequency:   14.7543910191
  - # 17
    frequency:   17.7407691262
  - # 18
    frequency:  114.4197349055

- q-position: [    0.0555556,    0.0000000,    0.0000000 ]
  distance:    0.0195927
  band:
  - # 1
    frequency:   -0.7127383370
  - # 2
    frequency:    0.2749449229
  - # 3
    frequency:    1.1367828424
  - # 4
    frequency:    3.1410407104
  - # 5
    frequency:    3.4377588621
  - # 6
    frequency:    6.0070521204
  - # 7
    frequency:    7.5576579227
  - # 8
    frequency:    7.6119615408
  - # 9
    frequency:   10.2269718241
  - # 10
    frequency:   10.3703144313
  - # 11
    frequency:   11.5039391492
  - # 12
    frequency:   11.6247482400
  - # 13
    frequency:   13.6605772070
  - # 14
    frequency:   13.7127099721
  - # 15
    frequency:   13.8377719318
  - # 16
    frequency:   14.7716809937
  - # 17
    frequency:   17.7321678558
  - # 18
    frequency:  114.4188120571

- q-position: [    0.0606061,    0.0000000,    0.0000000 ]
  distance:    0.0213738
  band:
  - # 1
    frequency:   -0.7689943732
  - # 2
    frequency:    0.3215838702
  - # 3
    frequency:    1.2395080244
  - # 4
    frequency:    3.1524690756
  - # 5
    frequency:    3.4995478331
  - # 6
    frequency:    5.9673202100
  - # 7
    frequency:    7.5611170790
  - # 8
    frequency:    7.6245282686
  - # 9
    frequency:   10.2255852555
  - # 10
    frequency:   10.3890973358
  - # 11
    frequency:   11.4882452139
  - # 12
    frequency:   11.6277581966
  - # 13
    frequency:   13.6474058938
  - # 14
    frequency:   13.7088631260
  - # 15
    frequency:   13.8776078598
  - # 16
    frequency:   14.7909051831
  - # 17
    frequency:   17.7228690362
  - # 18
    frequency:  114.4178186991

- q-position: [    0.0656566,    0.0000000,    0.0000000 ]
  distance:    0.0231550
  band:
  - # 1
    frequency:   -0.8230299532
  - # 2
    frequency:    0.3706580294
  - # 3
    frequency:    1.3420186372
  - # 4
    frequency:    3.1649298155
  - # 5
    frequency:    3.5649779171
  - # 6
    frequency:    5.9259560359
  - # 7
    frequency:    7.5648211835
  - # 8
    frequency:    7.6378132715
  - # 9
    frequency:   10.2242050014
  - # 10
    frequency:   10.4073993175
  - # 11
    frequency:   11.4725427322
  - # 12
    frequency:   11.6310553679
  - # 13
    frequency:   13.6332768139
  - # 14
    frequency:   13.7047012644
  - # 15
    frequency:   13.9197347360
  - # 16
    frequency:   14.8121226110
  - # 17
    frequency:   17.7129057283
  - # 18
    frequency:  114.4167593755

- q-position: [    0.0707071,    0.0000000,    0.0000000 ]
  distance:    0.0249361
  band:
  - # 1
    frequency:   -0.8746571461
  - # 2
    frequency:    0.4219165518
  - # 3
    frequency:    1.4442751887
  - # 4
    frequency:    3.1784352724
  - # 5
    frequency:    3.6337748033
  - # 6
    frequency:    5.8832976004
  - # 7
    frequency:    7.5687583262
  - # 8
    frequency:    7.6517657863
  - # 9
    frequency:   10.2228611910
  - # 10
    frequency:   10.4248378035
  - # 11
    frequency:   11.4570797935
  - # 12
    frequency:   11.6346443634
  - # 13
    frequency:   13.6182490719
  - # 14
    frequency:   13.7002293305
  - # 15
    frequency:   13.9639138505
  - # 16
    frequency:   14.8353899803
  - # 17
    frequency:   17.7023138016
  - # 18
    frequency:  114.4156389422

- q-position: [    0.0757576,    0.0000000,    0.0000000 ]
  distance:    0.0267173
  band:
  - # 1
    frequency:   -0.9236844910
  - # 2
    frequency:    0.4751231368
  - # 3
    frequency:    1.5462331222
  - # 4
    frequency:    3.1929989554
  - # 5
    frequency:    3.7056779182
  - # 6
    frequency:    5.8396832282
  - # 7
    frequency:    7.5729163548
  - # 8
    frequency:    7.6663393035
  - # 9
    frequency:   10.2215857475
  - # 10
    frequency:   10.4410488320
  - # 11
    frequency:   11.4420958796
  - # 12
    frequency:   11.6385295520
  - # 13
    frequency:   13.6023840310
  - # 14
    frequency:   13.6954526830
  - # 15
    frequency:   14.0099046629
  - # 16
    frequency:   14.8607601579
  - # 17
    frequency:   17.6911319050
  - # 18
    frequency:  114.4144625466

- q-position: [    0.0808081,    0.0000000,    0.0000000 ]
  distance:    0.0284984
  band:
  - # 1
    frequency:   -0.9699158073
  - # 2
    frequency:    0.5300562348
  - # 3
    frequency:    1.6478423578
  - # 4
    frequency:    3.2086352672
  - # 5
    frequency:    3.7804404929
  - # 6
    frequency:    5.7954515821
  - # 7
    frequency:    7.5772829855
  - # 8
    frequency:    7.6814913730
  - # 9
    frequency:   10.2204122577
  - # 10
    frequency:   10.4556956374
  - # 11
    frequency:   11.4278165957
  - # 12
    frequency:   11.6427149659
  - # 13
    frequency:   13.5857465582
  - # 14
    frequency:   13.6903770961
  - # 15
    frequency:   14.0574638894
  - # 16
    frequency:   14.8882805379
  - # 17
    frequency:   17.6794014317
  - # 18
    frequency:  114.4132356065

- q-position: [    0.0858586,    0.0000000,    0.0000000 ]
  distance:    0.0302796
  band:
  - # 1
    frequency:   -1.0131488220
  - # 2
    frequency:    0.5865086783
  - # 3
    frequency:    1.7490467672
  - # 4
    frequency:    3.2253591701
  - # 5
    frequency:    3.8578288816
  - # 6
    frequency:    5.7509423695
  - # 7
    frequency:    7.5818459042
  - # 8
    frequency:    7.6971833533
  - # 9
    frequency:   10.2193758362
  - # 10
    frequency:   10.4684774143
  - # 11
    frequency:   11.4144477924
  - # 12
    frequency:   11.6472042122
  - # 13
    frequency:   13.5684053686
  - # 14
    frequency:   13.6850087592
  - # 15
    frequency:   14.1063455913
  - # 16
    frequency:   14.9179912329
  - # 17
    frequency:   17.6671664756
  - # 18
    frequency:  114.4119637882

- q-position: [    0.0909091,    0.0000000,    0.0000000 ]
  distance:    0.0320607
  band:
  - # 1
    frequency:   -1.0531735772
  - # 2
    frequency:    0.6442869246
  - # 3
    frequency:    1.8497835646
  - # 4
    frequency:    3.2431858026
  - # 5
    frequency:    3.9376212497
  - # 6
    frequency:    5.7064976816
  - # 7
    frequency:    7.5865928596
  - # 8
    frequency:    7.7133801445
  - # 9
    frequency:   10.2185129866
  - # 10
    frequency:   10.4791379449
  - # 11
    frequency:   11.4021693195
  - # 12
    frequency:   11.6520003914
  - # 13
    frequency:   13.5504330091
  - # 14
    frequency:   13.6793542749
  - # 15
    frequency:   14.1563019216
  - # 16
    frequency:   14.9499230417
  - # 17
    frequency:   17.6544737772
  - # 18
    frequency:  114.4106529829

- q-position: [    0.0959596,    0.0000000,    0.0000000 ]
  distance:    0.0338419
  band:
  - # 1
    frequency:   -1.0897705593
  - # 2
    frequency:    0.7032100638
  - # 3
    frequency:    1.9499825940
  - # 4
    frequency:    3.2621300597
  - # 5
    frequency:    4.0196056820
  - # 6
    frequency:    5.6624639562
  - # 7
    frequency:    7.5915117428
  - # 8
    frequency:    7.7300499264
  - # 9
    frequency:   10.2178614583
  - # 10
    frequency:   10.4874735279
  - # 11
    frequency:   11.3911289210
  - # 12
    frequency:   11.6571060259
  - # 13
    frequency:   13.5319056676
  - # 14
    frequency:   13.6734206554
  - # 15
    frequency:   14.2070845015
  - # 16
    frequency:   14.9840951517
  - # 17
    frequency:   17.6413726587
  - # 18
    frequency:  114.4093092826

- q-position: [    0.1010101,    0.0000000,    0.0000000 ]
  distance:    0.0356230
  band:
  - # 1
    frequency:   -1.1227084755
  - # 2
    frequency:    0.7631087167
  - # 3
    frequency:    2.0495654995
  - # 4
    frequency:    3.2822061477
  - # 5
    frequency:    4.1035776751
  - # 6
    frequency:    5.6191946254
  - # 7
    frequency:    7.5965906553
  - # 8
    frequency:    7.7471639120
  - # 9
    frequency:   10.2174601021
  - # 10
    frequency:   10.4933394298
  - # 11
    frequency:   11.3814370279
  - # 12
    frequency:   11.6625229980
  - # 13
    frequency:   13.5129028858
  - # 14
    frequency:   13.6672153179
  - # 15
    frequency:   14.2584464473
  - # 16
    frequency:   15.0205125687
  - # 17
    frequency:   17.6279149458
  - # 18
    frequency:  114.4079389548

- q-position: [    0.1060606,    0.0000000,    0.0000000 ]
  distance:    0.0374042
  band:
  - # 1
    frequency:   -1.1517415651
  - # 2
    frequency:    0.8238239180
  - # 3
    frequency:    2.1484447664
  - # 4
    frequency:    3.3034271285
  - # 5
    frequency:    4.1893368466
  - # 6
    frequency:    5.5770536206
  - # 7
    frequency:    7.6018179625
  - # 8
    frequency:    7.7646961193
  - # 9
    frequency:   10.2173487243
  - # 10
    frequency:   10.4966539850
  - # 11
    frequency:   11.3731633250
  - # 12
    frequency:   11.6682524995
  - # 13
    frequency:   13.4935072110
  - # 14
    frequency:   13.6607460774
  - # 15
    frequency:   14.3101450262
  - # 16
    frequency:   15.0591633193
  - # 17
    frequency:   17.6141548740
  - # 18
    frequency:  114.4065484168

- q-position: [    0.1111111,    0.0000000,    0.0000000 ]
  distance:    0.0391853
  band:
  - # 1
    frequency:   -1.1766062961
  - # 2
    frequency:    0.8852060621
  - # 3
    frequency:    2.2465226319
  - # 4
    frequency:    3.3258044650
  - # 5
    frequency:    4.2766824898
  - # 6
    frequency:    5.5364200951
  - # 7
    frequency:    7.6071823332
  - # 8
    frequency:    7.7826231571
  - # 9
    frequency:   10.2175679393
  - # 10
    frequency:   10.4973995797
  - # 11
    frequency:   11.3663358812
  - # 12
    frequency:   11.6742949924
  - # 13
    frequency:   13.4738038088
  - # 14
    frequency:   13.6540211392
  - # 15
    frequency:   14.3619448316
  - # 16
    frequency:   15.1000155462
  - # 17
    frequency:   17.6001489762
  - # 18
    frequency:  114.4051442090

- q-position: [    0.1161616,    0.0000000,    0.0000000 ]
  distance:    0.0409665
  band:
  - # 1
    frequency:   -1.1970172327
  - # 2
    frequency:    0.9471139665
  - # 3
    frequency:    2.3436898729
  - # 4
    frequency:    3.3493475773
  - # 5
    frequency:    4.3654072354
  - # 6
    frequency:    5.4976950694
  - # 7
    frequency:    7.6126727652
  - # 8
    frequency:    7.8009240216
  - # 9
    frequency:   10.2181590227
  - # 10
    frequency:   10.4956200961
  - # 11
    frequency:   11.3609433119
  - # 12
    frequency:   11.6806501812
  - # 13
    frequency:   13.4538800470
  - # 14
    frequency:   13.6470490883
  - # 15
    frequency:   14.4136212654
  - # 16
    frequency:   15.1430146981
  - # 17
    frequency:   17.5859559506
  - # 18
    frequency:  114.4037329682

- q-position: [    0.1212121,    0.0000000,    0.0000000 ]
  distance:    0.0427476
  band:
  - # 1
    frequency:   -1.2126617719
  - # 2
    frequency:    1.0094140991
  - # 3
    frequency:    2.4398245053
  - # 4
    frequency:    3.3740634234
  - # 5
    frequency:    4.4552873871
  - # 6
    frequency:    5.4613113744
  - # 7
    frequency:    7.6182785961
  - # 8
    frequency:    7.8195798951
  - # 9
    frequency:   10.2191637649
  - # 10
    frequency:   10.4914149121
  - # 11
    frequency:   11.3569399375
  - # 12
    frequency:   11.6873169968
  - # 13
    frequency:   13.4338250598
  - # 14
    frequency:   13.6398388781
  - # 15
    frequency:   14.4649640228
  - # 16
    frequency:   15.1880810940
  - # 17
    frequency:   17.5716365033
  - # 18
    frequency:  114.4023213995

- q-position: [    0.1262626,    0.0000000,    0.0000000 ]
  distance:    0.0445288
  band:
  - # 1
    frequency:   -1.2231933143
  - # 2
    frequency:    1.0719799992
  - # 3
    frequency:    2.5347904524
  - # 4
    frequency:    3.3999561092
  - # 5
    frequency:    4.5460670871
  - # 6
    frequency:    5.4277496478
  - # 7
    frequency:    7.6239895023
  - # 8
    frequency:    7.8385739439
  - # 9
    frequency:   10.2206243239
  - # 10
    frequency:   10.4849300968
  - # 11
    frequency:   11.3542533703
  - # 12
    frequency:   11.6942935919
  - # 13
    frequency:   13.4137292982
  - # 14
    frequency:   13.6323998172
  - # 15
    frequency:   14.5157802184
  - # 16
    frequency:   15.2351081799
  - # 17
    frequency:   17.5572531637
  - # 18
    frequency:  114.4009162492

- q-position: [    0.1313131,    0.0000000,    0.0000000 ]
  distance:    0.0463099
  band:
  - # 1
    frequency:   -1.2282222242
  - # 2
    frequency:    1.1346919180
  - # 3
    frequency:    2.6284362881
  - # 4
    frequency:    3.4270265388
  - # 5
    frequency:    4.6374304093
  - # 6
    frequency:    5.3975661533
  - # 7
    frequency:    7.6297954846
  - # 8
    frequency:    7.8578911078
  - # 9
    frequency:   10.2225830796
  - # 10
    frequency:   10.4763478526
  - # 11
    frequency:   11.3527935534
  - # 12
    frequency:   11.7015773467
  - # 13
    frequency:   13.3936840689
  - # 14
    frequency:   13.6247415547
  - # 15
    frequency:   14.5658967935
  - # 16
    frequency:   15.2839617874
  - # 17
    frequency:   17.5428700662
  - # 18
    frequency:  114.3995242759

- q-position: [    0.1363636,    0.0000000,    0.0000000 ]
  distance:    0.0480911
  band:
  - # 1
    frequency:   -1.2273036093
  - # 2
    frequency:    1.1974366945
  - # 3
    frequency:    2.7205942126
  - # 4
    frequency:    3.4552721082
  - # 5
    frequency:    4.7289484652
  - # 6
    frequency:    5.3714451523
  - # 7
    frequency:    7.6356868449
  - # 8
    frequency:    7.8775178808
  - # 9
    frequency:   10.2250824875
  - # 10
    frequency:   10.4658754151
  - # 11
    frequency:   11.3524621217
  - # 12
    frequency:   11.7091648848
  - # 13
    frequency:   13.3737810672
  - # 14
    frequency:   13.6168740639
  - # 15
    frequency:   14.6151619197
  - # 16
    frequency:   15.3344806193
  - # 17
    frequency:   17.5285526953
  - # 18
    frequency:  114.3981522231

- q-position: [    0.1414141,    0.0000000,    0.0000000 ]
  distance:    0.0498723
  band:
  - # 1
    frequency:   -1.2199204067
  - # 2
    frequency:    1.2601078738
  - # 3
    frequency:    2.8110794949
  - # 4
    frequency:    3.4846864486
  - # 5
    frequency:    4.8199716536
  - # 6
    frequency:    5.3503054442
  - # 7
    frequency:    7.6416541528
  - # 8
    frequency:    7.8974420791
  - # 9
    frequency:   10.2281649324
  - # 10
    frequency:   10.4537345189
  - # 11
    frequency:   11.3531610521
  - # 12
    frequency:   11.7170520982
  - # 13
    frequency:   13.3541119052
  - # 14
    frequency:   13.6088076246
  - # 15
    frequency:   14.6634452459
  - # 16
    frequency:   15.3864780568
  - # 17
    frequency:   17.5143675870
  - # 18
    frequency:  114.3968067906

- q-position: [    0.1464646,    0.0000000,    0.0000000 ]
  distance:    0.0516534
  band:
  - # 1
    frequency:   -1.2054593379
  - # 2
    frequency:    1.3226060713
  - # 3
    frequency:    2.8996906974
  - # 4
    frequency:    3.5152592218
  - # 5
    frequency:    4.9093953298
  - # 6
    frequency:    5.3355324685
  - # 7
    frequency:    7.6476882064
  - # 8
    frequency:    7.9176525964
  - # 9
    frequency:   10.2318725811
  - # 10
    frequency:   10.4401522397
  - # 11
    frequency:   11.3547998617
  - # 12
    frequency:   11.7252341801
  - # 13
    frequency:   13.3347676374
  - # 14
    frequency:   13.6005528048
  - # 15
    frequency:   14.7106370079
  - # 16
    frequency:   15.4397452141
  - # 17
    frequency:   17.5003819805
  - # 18
    frequency:  114.3954946065

- q-position: [    0.1515152,    0.0000000,    0.0000000 ]
  distance:    0.0534346
  band:
  - # 1
    frequency:   -1.1831756501
  - # 2
    frequency:    1.3848395705
  - # 3
    frequency:    2.9862110920
  - # 4
    frequency:    3.5469759683
  - # 5
    frequency:    4.9951347510
  - # 6
    frequency:    5.3294997030
  - # 7
    frequency:    7.6537799882
  - # 8
    frequency:    7.9381391486
  - # 9
    frequency:   10.2362472340
  - # 10
    frequency:   10.4253536603
  - # 11
    frequency:   11.3573009723
  - # 12
    frequency:   11.7337056644
  - # 13
    frequency:   13.3158382878
  - # 14
    frequency:   13.5921204407
  - # 15
    frequency:   14.7566461756
  - # 16
    frequency:   15.4940550136
  - # 17
    frequency:   17.4866634133
  - # 18
    frequency:  114.3942221993

- q-position: [    0.1565657,    0.0000000,    0.0000000 ]
  distance:    0.0552157
  band:
  - # 1
    frequency:   -1.1521394625
  - # 2
    frequency:    1.4467251376
  - # 3
    frequency:    3.0704117440
  - # 4
    frequency:    3.5798180104
  - # 5
    frequency:    5.0730883427
  - # 6
    frequency:    5.3365998450
  - # 7
    frequency:    7.6599206187
  - # 8
    frequency:    7.9588920086
  - # 9
    frequency:   10.2413301742
  - # 10
    frequency:   10.4095564622
  - # 11
    frequency:   11.3606031851
  - # 12
    frequency:   11.7424604708
  - # 13
    frequency:   13.2974123792
  - # 14
    frequency:   13.5835216160
  - # 15
    frequency:   14.8013979322
  - # 16
    frequency:   15.5491669465
  - # 17
    frequency:   17.4732792525
  - # 18
    frequency:  114.3929959708

- q-position: [    0.1616162,    0.0000000,    0.0000000 ]
  distance:    0.0569969
  band:
  - # 1
    frequency:   -1.1111503601
  - # 2
    frequency:    1.5081890173
  - # 3
    frequency:    3.1520567671
  - # 4
    frequency:    3.6137624075
  - # 5
    frequency:    5.1365026235
  - # 6
    frequency:    5.3638719621
  - # 7
    frequency:    7.6661013101
  - # 8
    frequency:    7.9799017351
  - # 9
    frequency:   10.2471620130
  - # 10
    frequency:   10.3929673055
  - # 11
    frequency:   11.3646634510
  - # 12
    frequency:   11.7514919536
  - # 13
    frequency:   13.2795764683
  - # 14
    frequency:   13.5747676405
  - # 15
    frequency:   14.8448308278
  - # 16
    frequency:   15.6048321434
  - # 17
    frequency:   17.4602961535
  - # 18
    frequency:  114.3918221688

- q-position: [    0.1666667,    0.0000000,    0.0000000 ]
  distance:    0.0587780
  band:
  - # 1
    frequency:   -1.0585935588
  - # 2
    frequency:    1.5691680650
  - # 3
    frequency:    3.2309111695
  - # 4
    frequency:    3.6487819638
  - # 5
    frequency:    5.1807445396
  - # 6
    frequency:    5.4162184850
  - # 7
    frequency:    7.6723133218
  - # 8
    frequency:    8.0011588996
  - # 9
    frequency:   10.2537825326
  - # 10
    frequency:   10.3757797116
  - # 11
    frequency:   11.3694572461
  - # 12
    frequency:   11.7607929538
  - # 13
    frequency:   13.2624146898
  - # 14
    frequency:   13.5658700281
  - # 15
    frequency:   14.8868939325
  - # 16
    frequency:   15.6607984038
  - # 17
    frequency:   17.4477794401
  - # 18
    frequency:  114.3907068603

- q-position: [    0.1717172,    0.0000000,    0.0000000 ]
  distance:    0.0605592
  band:
  - # 1
    frequency:   -0.9921794110
  - # 2
    frequency:    1.6296109515
  - # 3
    frequency:    3.3067514790
  - # 4
    frequency:    3.6848452838
  - # 5
    frequency:    5.2108113989
  - # 6
    frequency:    5.4888817305
  - # 7
    frequency:    7.6785479207
  - # 8
    frequency:    8.0226538162
  - # 9
    frequency:   10.2612305230
  - # 10
    frequency:   10.3581731149
  - # 11
    frequency:   11.3749779079
  - # 12
    frequency:   11.7703558522
  - # 13
    frequency:   13.2460083124
  - # 14
    frequency:   13.5568404747
  - # 15
    frequency:   14.9275442511
  - # 16
    frequency:   15.7168149093
  - # 17
    frequency:   17.4357923967
  - # 18
    frequency:  114.3896559066

- q-position: [    0.1767677,    0.0000000,    0.0000000 ]
  distance:    0.0623403
  band:
  - # 1
    frequency:   -0.9084231887
  - # 2
    frequency:    1.6894793624
  - # 3
    frequency:    3.3793788931
  - # 4
    frequency:    3.7219168752
  - # 5
    frequency:    5.2357045518
  - # 6
    frequency:    5.5730541433
  - # 7
    frequency:    7.6847963471
  - # 8
    frequency:    8.0443762784
  - # 9
    frequency:   10.2695436141
  - # 10
    frequency:   10.3403127617
  - # 11
    frequency:   11.3812352654
  - # 12
    frequency:   11.7801726221
  - # 13
    frequency:   13.2304353097
  - # 14