nqpoint: 300    
npath: 3      
segment_nqpoint:
- 100
- 100
- 100
labels:
- [ 'G', 'M' ]
- [ 'M', 'K' ]
- [ 'K', 'G' ]
reciprocal_lattice:
- [   0.30476746,   0.17595758,   0.00000000 ] # a*
- [   0.00000000,   0.35191515,   0.00000000 ] # b*
- [   0.00000000,   0.00000000,   0.04436898 ] # c*
natom: 5      
lattice:
- [     3.281190146467241,     0.000000000000000,     0.000000000000000 ] # a
- [    -1.640595073233621,     2.841594021484636,     0.000000000000000 ] # b
- [     0.000000000000000,     0.000000000000000,    22.538268079578678 ] # c
points:
- symbol: F # 1
  coordinates: [  0.333332985432215,  0.666666983183674,  0.600679166286310 ]
  mass: 18.998403
- symbol: H # 2
  coordinates: [  0.666666984744047,  0.333332985985144,  0.399320833713690 ]
  mass: 1.007940
- symbol: N # 3
  coordinates: [  0.000000000000000,  0.000000000000000,  0.497805988623245 ]
  mass: 14.006700
- symbol: Sc # 4
  coordinates: [  0.333332985432215,  0.666666983183674,  0.441802930982995 ]
  mass: 44.955912
- symbol: Sc # 5
  coordinates: [  0.666666984744047,  0.333332985985144,  0.549383693007256 ]
  mass: 44.955912

phonon:
- q-position: [    0.0000000,    0.0000000,    0.0000000 ]
  distance:    0.0000000
  band:
  - # 1
    frequency:   -0.0000137414
  - # 2
    frequency:   -0.0000003401
  - # 3
    frequency:    0.0000109184
  - # 4
    frequency:    5.5075873696
  - # 5
    frequency:    5.5075873697
  - # 6
    frequency:    8.2360056952
  - # 7
    frequency:    8.2360056952
  - # 8
    frequency:    8.2670403444
  - # 9
    frequency:   12.4849316999
  - # 10
    frequency:   13.5170073016
  - # 11
    frequency:   13.5170073016
  - # 12
    frequency:   14.6401551696
  - # 13
    frequency:   27.1522881794
  - # 14
    frequency:   28.4161017928
  - # 15
    frequency:   28.4161017928

- q-position: [    0.0050505,    0.0000000,    0.0000000 ]
  distance:    0.0017773
  band:
  - # 1
    frequency:    0.0018730149
  - # 2
    frequency:    0.1149048308
  - # 3
    frequency:    0.1203058399
  - # 4
    frequency:    5.5073902643
  - # 5
    frequency:    5.5087487315
  - # 6
    frequency:    8.2327902423
  - # 7
    frequency:    8.2359648360
  - # 8
    frequency:    8.2699997404
  - # 9
    frequency:   12.4834135312
  - # 10
    frequency:   13.5166886030
  - # 11
    frequency:   13.5169645265
  - # 12
    frequency:   14.6399677068
  - # 13
    frequency:   27.1507518461
  - # 14
    frequency:   28.4157559033
  - # 15
    frequency:   28.4167544879

- q-position: [    0.0101010,    0.0000000,    0.0000000 ]
  distance:    0.0035547
  band:
  - # 1
    frequency:    0.0074545719
  - # 2
    frequency:    0.2296920058
  - # 3
    frequency:    0.2405878526
  - # 4
    frequency:    5.5068030090
  - # 5
    frequency:    5.5122264273
  - # 6
    frequency:    8.2252408560
  - # 7
    frequency:    8.2358420659
  - # 8
    frequency:    8.2767822896
  - # 9
    frequency:   12.4788646046
  - # 10
    frequency:   13.5157298182
  - # 11
    frequency:   13.5168353338
  - # 12
    frequency:   14.6394049629
  - # 13
    frequency:   27.1461590633
  - # 14
    frequency:   28.4147186056
  - # 15
    frequency:   28.4186997948

- q-position: [    0.0151515,    0.0000000,    0.0000000 ]
  distance:    0.0053320
  band:
  - # 1
    frequency:    0.0167456897
  - # 2
    frequency:    0.3442442293
  - # 3
    frequency:    0.3608217688
  - # 4
    frequency:    5.5058377589
  - # 5
    frequency:    5.5180013564
  - # 6
    frequency:    8.2157259896
  - # 7
    frequency:    8.2356368024
  - # 8
    frequency:    8.2850235023
  - # 9
    frequency:   12.4713016084
  - # 10
    frequency:   13.5141229550
  - # 11
    frequency:   13.5166171275
  - # 12
    frequency:   14.6384658905
  - # 13
    frequency:   27.1385577137
  - # 14
    frequency:   28.4129910114
  - # 15
    frequency:   28.4219001330

- q-position: [    0.0202020,    0.0000000,    0.0000000 ]
  distance:    0.0071094
  band:
  - # 1
    frequency:    0.0297293040
  - # 2
    frequency:    0.4584449261
  - # 3
    frequency:    0.4809824445
  - # 4
    frequency:    5.5045146810
  - # 5
    frequency:    5.5260419133
  - # 6
    frequency:    8.2051622241
  - # 7
    frequency:    8.2353480545
  - # 8
    frequency:    8.2938132846
  - # 9
    frequency:   12.4607521918
  - # 10
    frequency:   13.5118549350
  - # 11
    frequency:   13.5163056022
  - # 12
    frequency:   14.6371488062
  - # 13
    frequency:   27.1280251323
  - # 14
    frequency:   28.4105749740
  - # 15
    frequency:   28.4262952913

- q-position: [    0.0252525,    0.0000000,    0.0000000 ]
  distance:    0.0088867
  band:
  - # 1
    frequency:    0.0463816486
  - # 2
    frequency:    0.5721786043
  - # 3
    frequency:    0.6010434327
  - # 4
    frequency:    5.5028618164
  - # 5
    frequency:    5.5363043219
  - # 6
    frequency:    8.1938621067
  - # 7
    frequency:    8.2349743946
  - # 8
    frequency:    8.3028479222
  - # 9
    frequency:   12.4472547322
  - # 10
    frequency:   13.5089079453
  - # 11
    frequency:   13.5158947739
  - # 12
    frequency:   14.6354514807
  - # 13
    frequency:   27.1146647071
  - # 14
    frequency:   28.4074730882
  - # 15
    frequency:   28.4318057570

- q-position: [    0.0303030,    0.0000000,    0.0000000 ]
  distance:    0.0106641
  band:
  - # 1
    frequency:    0.0666724057
  - # 2
    frequency:    0.6853312215
  - # 3
    frequency:    0.7209765697
  - # 4
    frequency:    5.5009148860
  - # 5
    frequency:    5.5487330884
  - # 6
    frequency:    8.1819415415
  - # 7
    frequency:    8.2345139192
  - # 8
    frequency:    8.3120224489
  - # 9
    frequency:   12.4308580317
  - # 10
    frequency:   13.5052599092
  - # 11
    frequency:   13.5153770226
  - # 12
    frequency:   14.6333712594
  - # 13
    frequency:   27.0986016637
  - # 14
    frequency:   28.4036886907
  - # 15
    frequency:   28.4383368341

- q-position: [    0.0353535,    0.0000000,    0.0000000 ]
  distance:    0.0124414
  band:
  - # 1
    frequency:    0.0905648680
  - # 2
    frequency:    0.7977905546
  - # 3
    frequency:    0.8407515790
  - # 4
    frequency:    5.4987170381
  - # 5
    frequency:    5.5632615573
  - # 6
    frequency:    8.1694478467
  - # 7
    frequency:    8.2339642016
  - # 8
    frequency:    8.3213022890
  - # 9
    frequency:   12.4116209657
  - # 10
    frequency:   13.5008850568
  - # 11
    frequency:   13.5147431459
  - # 12
    frequency:   14.6309052063
  - # 13
    frequency:   27.0799784460
  - # 14
    frequency:   28.3992258606
  - # 15
    frequency:   28.4457831369

- q-position: [    0.0404040,    0.0000000,    0.0000000 ]
  distance:    0.0142188
  band:
  - # 1
    frequency:    0.1180161155
  - # 2
    frequency:    0.9094465755
  - # 3
    frequency:    0.9603356953
  - # 4
    frequency:    5.4963185357
  - # 5
    frequency:    5.5798125543
  - # 6
    frequency:    8.1564036248
  - # 7
    frequency:    8.2333222373
  - # 8
    frequency:    8.3306790349
  - # 9
    frequency:   12.3896121030
  - # 10
    frequency:   13.4957545762
  - # 11
    frequency:   13.5139824209
  - # 12
    frequency:   14.6280502665
  - # 13
    frequency:   27.0589500801
  - # 14
    frequency:   28.3940894202
  - # 15
    frequency:   28.4540330745

- q-position: [    0.0454545,    0.0000000,    0.0000000 ]
  distance:    0.0159961
  band:
  - # 1
    frequency:    0.1489771964
  - # 2
    frequency:    1.0201918316
  - # 3
    frequency:    1.0796933123
  - # 4
    frequency:    5.4937763830
  - # 5
    frequency:    5.5982990947
  - # 6
    frequency:    8.1428239501
  - # 7
    frequency:    8.2325843843
  - # 8
    frequency:    8.3401528646
  - # 9
    frequency:   12.3649093188
  - # 10
    frequency:   13.4898373271
  - # 11
    frequency:   13.5130826758
  - # 12
    frequency:   14.6248034371
  - # 13
    frequency:   27.0356798316
  - # 14
    frequency:   28.3882849365
  - # 15
    frequency:   28.4629730134

- q-position: [    0.0505051,    0.0000000,    0.0000000 ]
  distance:    0.0177735
  band:
  - # 1
    frequency:    0.1833933057
  - # 2
    frequency:    1.1299218344
  - # 3
    frequency:    1.1987856585
  - # 4
    frequency:    5.4911538883
  - # 5
    frequency:    5.6186251398
  - # 6
    frequency:    8.1287238697
  - # 7
    frequency:    8.2317463012
  - # 8
    frequency:    8.3497246120
  - # 9
    frequency:   12.3375994182
  - # 10
    frequency:   13.4831005981
  - # 11
    frequency:   13.5120303662
  - # 12
    frequency:   14.6211619420
  - # 13
    frequency:   27.0103353713
  - # 14
    frequency:   28.3818187230
  - # 15
    frequency:   28.4724909065

- q-position: [    0.0555556,    0.0000000,    0.0000000 ]
  distance:    0.0195508
  band:
  - # 1
    frequency:    0.2212039493
  - # 2
    frequency:    1.2385354550
  - # 3
    frequency:    1.3175705007
  - # 4
    frequency:    5.4885201604
  - # 5
    frequency:    5.6406863795
  - # 6
    frequency:    8.1141218971
  - # 7
    frequency:    8.2308028843
  - # 8
    frequency:    8.3593918228
  - # 9
    frequency:   12.3077777824
  - # 10
    frequency:   13.4755108954
  - # 11
    frequency:   13.5108106585
  - # 12
    frequency:   14.6171233997
  - # 13
    frequency:   26.9830855613
  - # 14
    frequency:   28.3746978421
  - # 15
    frequency:   28.4824792755

- q-position: [    0.0606061,    0.0000000,    0.0000000 ]
  distance:    0.0213282
  band:
  - # 1
    frequency:    0.2623430885
  - # 2
    frequency:    1.3459353275
  - # 3
    frequency:    1.4360018802
  - # 4
    frequency:    5.4859495390
  - # 5
    frequency:    5.6643710221
  - # 6
    frequency:    8.0990416454
  - # 7
    frequency:    8.2297482078
  - # 8
    frequency:    8.3691466592
  - # 9
    frequency:   12.2755480478
  - # 10
    frequency:   13.4670347522
  - # 11
    frequency:   13.5094075150
  - # 12
    frequency:   14.6126859791
  - # 13
    frequency:   26.9540978892
  - # 14
    frequency:   28.3669301082
  - # 15
    frequency:   28.4928375193

- q-position: [    0.0656566,    0.0000000,    0.0000000 ]
  distance:    0.0231055
  band:
  - # 1
    frequency:    0.3067392567
  - # 2
    frequency:    1.4520282605
  - # 3
    frequency:    1.5540298806
  - # 4
    frequency:    5.4835209564
  - # 5
    frequency:    5.6895605743
  - # 6
    frequency:    8.0835125104
  - # 7
    frequency:    8.2285754684
  - # 8
    frequency:    8.3789747565
  - # 9
    frequency:   12.2410218206
  - # 10
    frequency:   13.4576395493
  - # 11
    frequency:   13.5078037813
  - # 12
    frequency:   14.6078485367
  - # 13
    frequency:   26.9235365167
  - # 14
    frequency:   28.3585240924
  - # 15
    frequency:   28.5034735852

- q-position: [    0.0707071,    0.0000000,    0.0000000 ]
  distance:    0.0248829
  band:
  - # 1
    frequency:    0.3543156458
  - # 2
    frequency:    1.5567256568
  - # 3
    frequency:    1.6716004302
  - # 4
    frequency:    5.4813172303
  - # 5
    frequency:    5.7161305964
  - # 6
    frequency:    8.0675698305
  - # 7
    frequency:    8.2272769382
  - # 8
    frequency:    8.3888546172
  - # 9
    frequency:   12.2043184272
  - # 10
    frequency:   13.4472943431
  - # 11
    frequency:   13.5059812739
  - # 12
    frequency:   14.6026107288
  - # 13
    frequency:   26.8915608696
  - # 14
    frequency:   28.3494891269
  - # 15
    frequency:   28.5143050734

- q-position: [    0.0757576,    0.0000000,    0.0000000 ]
  distance:    0.0266602
  band:
  - # 1
    frequency:    0.4049901597
  - # 2
    frequency:    1.6599439393
  - # 3
    frequency:    1.7886551382
  - # 4
    frequency:    5.4794242881
  - # 5
    frequency:    5.7439514181
  - # 6
    frequency:    8.0512547419
  - # 7
    frequency:    8.2258439274
  - # 8
    frequency:    8.3987573360
  - # 9
    frequency:   12.1655646971
  - # 10
    frequency:   13.4359706962
  - # 11
    frequency:   13.5039208656
  - # 12
    frequency:   14.5969730959
  - # 13
    frequency:   26.8583246787
  - # 14
    frequency:   28.3398353115
  - # 15
    frequency:   28.5252598710

- q-position: [    0.0808081,    0.0000000,    0.0000000 ]
  distance:    0.0284376
  band:
  - # 1
    frequency:    0.4586754333
  - # 2
    frequency:    1.7616049826
  - # 3
    frequency:    1.9051311671
  - # 4
    frequency:    5.4779303251
  - # 5
    frequency:    5.7728888090
  - # 6
    frequency:    8.0346138546
  - # 7
    frequency:    8.2242667604
  - # 8
    frequency:    8.4086465443
  - # 9
    frequency:   12.1248947693
  - # 10
    frequency:   13.4236435051
  - # 11
    frequency:   13.5016025680
  - # 12
    frequency:   14.5909371173
  - # 13
    frequency:   26.8239753764
  - # 14
    frequency:   28.3295735204
  - # 15
    frequency:   28.5362764063

- q-position: [    0.0858586,    0.0000000,    0.0000000 ]
  distance:    0.0302149
  band:
  - # 1
    frequency:    0.5152788207
  - # 2
    frequency:    1.8616365459
  - # 3
    frequency:    2.0209611381
  - # 4
    frequency:    5.4769248990
  - # 5
    frequency:    5.8028045945
  - # 6
    frequency:    8.0176988210
  - # 7
    frequency:    8.2225347671
  - # 8
    frequency:    8.4184785129
  - # 9
    frequency:   12.0824499157
  - # 10
    frequency:   13.4102918223
  - # 11
    frequency:   13.4990056090
  - # 12
    frequency:   14.5845052338
  - # 13
    frequency:   26.7886537644
  - # 14
    frequency:   28.3187154106
  - # 15
    frequency:   28.5473036161

- q-position: [    0.0909091,    0.0000000,    0.0000000 ]
  distance:    0.0319923
  band:
  - # 1
    frequency:    0.5747023546
  - # 2
    frequency:    1.9599727060
  - # 3
    frequency:    2.1360730725
  - # 4
    frequency:    5.4764979667
  - # 5
    frequency:    5.8335572175
  - # 6
    frequency:    8.0005658436
  - # 7
    frequency:    8.2206362914
  - # 8
    frequency:    8.4282023787
  - # 9
    frequency:   12.0383783687
  - # 10
    frequency:   13.3958996662
  - # 11
    frequency:   13.4961085050
  - # 12
    frequency:   14.5776808401
  - # 13
    frequency:   26.7524938741
  - # 14
    frequency:   28.3072734310
  - # 15
    frequency:   28.5583007004

- q-position: [    0.0959596,    0.0000000,    0.0000000 ]
  distance:    0.0337696
  band:
  - # 1
    frequency:    0.6368426820
  - # 2
    frequency:    2.0565542820
  - # 3
    frequency:    2.2503903652
  - # 4
    frequency:    5.4767388704
  - # 5
    frequency:    5.8650022480
  - # 6
    frequency:    7.9832751509
  - # 7
    frequency:    8.2185587194
  - # 8
    frequency:    8.4377604755
  - # 9
    frequency:   11.9928351425
  - # 10
    frequency:   13.3804568117
  - # 11
    frequency:   13.4928891260
  - # 12
    frequency:   14.5704682486
  - # 13
    frequency:   26.7156229604
  - # 14
    frequency:   28.2952608324
  - # 15
    frequency:   28.5692367286

- q-position: [    0.1010101,    0.0000000,    0.0000000 ]
  distance:    0.0355470
  band:
  - # 1
    frequency:    0.7015909814
  - # 2
    frequency:    2.1513292474
  - # 3
    frequency:    2.3638317907
  - # 4
    frequency:    5.4777352836
  - # 5
    frequency:    5.8969928461
  - # 6
    frequency:    7.9658904590
  - # 7
    frequency:    8.2162885278
  - # 8
    frequency:    8.4470887602
  - # 9
    frequency:   11.9459818340
  - # 10
    frequency:   13.3639595527
  - # 11
    frequency:   13.4893247531
  - # 12
    frequency:   14.5628726291
  - # 13
    frequency:   26.6781615798
  - # 14
    frequency:   28.2826916782
  - # 15
    frequency:   28.5800901487

- q-position: [    0.1060606,    0.0000000,    0.0000000 ]
  distance:    0.0373243
  band:
  - # 1
    frequency:    0.7688328701
  - # 2
    frequency:    2.2442531201
  - # 3
    frequency:    2.4763115388
  - # 4
    frequency:    5.4795721293
  - # 5
    frequency:    5.9293801921
  - # 6
    frequency:    7.9484784258
  - # 7
    frequency:    8.2138113547
  - # 8
    frequency:    8.4561173325
  - # 9
    frequency:   11.8979863900
  - # 10
    frequency:   13.3464114257
  - # 11
    frequency:   13.4853921283
  - # 12
    frequency:   14.5548999268
  - # 13
    frequency:   26.6402237180
  - # 14
    frequency:   28.2695808557
  - # 15
    frequency:   28.5908482349

- q-position: [    0.1111111,    0.0000000,    0.0000000 ]
  distance:    0.0391017
  band:
  - # 1
    frequency:    0.8384483059
  - # 2
    frequency:    2.3352893191
  - # 3
    frequency:    2.5877392768
  - # 4
    frequency:    5.4823304865
  - # 5
    frequency:    5.9620139017
  - # 6
    frequency:    7.9311080991
  - # 7
    frequency:    8.2111120923
  - # 8
    frequency:    8.4647710487
  - # 9
    frequency:   11.8490228272
  - # 10
    frequency:   13.3278238838
  - # 11
    frequency:   13.4810674961
  - # 12
    frequency:   14.5465567655
  - # 13
    frequency:   26.6019169398
  - # 14
    frequency:   28.2559440879
  - # 15
    frequency:   28.6015065040

- q-position: [    0.1161616,    0.0000000,    0.0000000 ]
  distance:    0.0408790
  band:
  - # 1
    frequency:    0.9103114949
  - # 2
    frequency:    2.4244094778
  - # 3
    frequency:    2.6980202360
  - # 4
    frequency:    5.4860865034
  - # 5
    frequency:    5.9947424490
  - # 6
    frequency:    7.9138503528
  - # 7
    frequency:    8.2081750030
  - # 8
    frequency:    8.4729702357
  - # 9
    frequency:   11.7992708881
  - # 10
    frequency:   13.3082169054
  - # 11
    frequency:   13.4763266370
  - # 12
    frequency:   14.5378503411
  - # 13
    frequency:   26.5633425469
  - # 14
    frequency:   28.2417979452
  - # 15
    frequency:   28.6120681187

- q-position: [    0.1212121,    0.0000000,    0.0000000 ]
  distance:    0.0426564
  band:
  - # 1
    frequency:    0.9842908095
  - # 2
    frequency:    2.5115936988
  - # 3
    frequency:    2.8070553158
  - # 4
    frequency:    5.4909103393
  - # 5
    frequency:    6.0274136299
  - # 6
    frequency:    7.8967772963
  - # 7
    frequency:    8.2049838568
  - # 8
    frequency:    8.4806315115
  - # 9
    frequency:   11.7489156182
  - # 10
    frequency:   13.2876195271
  - # 11
    frequency:   13.4711448940
  - # 12
    frequency:   14.5287883099
  - # 13
    frequency:   26.5245957305
  - # 14
    frequency:   28.2271598561
  - # 15
    frequency:   28.6225432905

- q-position: [    0.1262626,    0.0000000,    0.0000000 ]
  distance:    0.0444337
  band:
  - # 1
    frequency:    1.0602487272
  - # 2
    frequency:    2.5968307357
  - # 3
    frequency:    2.9147412009
  - # 4
    frequency:    5.4968651575
  - # 5
    frequency:    6.0598751046
  - # 6
    frequency:    7.8799616387
  - # 7
    frequency:    8.2015220909
  - # 8
    frequency:    8.4876687203
  - # 9
    frequency:   11.6981468474
  - # 10
    frequency:   13.2660702841
  - # 11
    frequency:   13.4654971921
  - # 12
    frequency:   14.5193786787
  - # 13
    frequency:   26.4857657145
  - # 14
    frequency:   28.2120481182
  - # 15
    frequency:   28.6329486927

- q-position: [    0.1313131,    0.0000000,    0.0000000 ]
  distance:    0.0462111
  band:
  - # 1
    frequency:    1.1380417984
  - # 2
    frequency:    2.6801180874
  - # 3
    frequency:    3.0209704849
  - # 4
    frequency:    5.5040061955
  - # 5
    frequency:    6.0919750650
  - # 6
    frequency:    7.8634759803
  - # 7
    frequency:    8.1977729891
  - # 8
    frequency:    8.4939939906
  - # 9
    frequency:   11.6471585601
  - # 10
    frequency:   13.2436175450
  - # 11
    frequency:   13.4593580528
  - # 12
    frequency:   14.5096297000
  - # 13
    frequency:   26.4469358876
  - # 14
    frequency:   28.1964819066
  - # 15
    frequency:   28.6433068856

- q-position: [    0.1363636,    0.0000000,    0.0000000 ]
  distance:    0.0479884
  band:
  - # 1
    frequency:    1.2175206493
  - # 2
    frequency:    2.7614619890
  - # 3
    frequency:    3.1256317891
  - # 4
    frequency:    5.5123799377
  - # 5
    frequency:    6.1235630823
  - # 6
    frequency:    7.8473920000
  - # 7
    frequency:    8.1937198789
  - # 8
    frequency:    8.4995189239
  - # 9
    frequency:   11.5961481358
  - # 10
    frequency:   13.2203197286
  - # 11
    frequency:   13.4527016043
  - # 12
    frequency:   14.4995497768
  - # 13
    frequency:   26.4081839235
  - # 14
    frequency:   28.1804812818
  - # 15
    frequency:   28.6536457579

- q-position: [    0.1414141,    0.0000000,    0.0000000 ]
  distance:    0.0497658
  band:
  - # 1
    frequency:    1.2985300299
  - # 2
    frequency:    2.8408772853
  - # 3
    frequency:    3.2286098702
  - # 4
    frequency:    5.5220234168
  - # 5
    frequency:    6.1544911928
  - # 6
    frequency:    7.8317794992
  - # 7
    frequency:    8.1893463446
  - # 8
    frequency:    8.5041559190
  - # 9
    frequency:   11.5453154468
  - # 10
    frequency:   13.1962453893
  - # 11
    frequency:   13.4455015893
  - # 12
    frequency:   14.4891473802
  - # 13
    frequency:   26.3695818921
  - # 14
    frequency:   28.1640671937
  - # 15
    frequency:   28.6639979844

- q-position: [    0.1464646,    0.0000000,    0.0000000 ]
  distance:    0.0515431
  band:
  - # 1
    frequency:    1.3809089146
  - # 2
    frequency:    2.9183871768
  - # 3
    frequency:    3.3297857020
  - # 4
    frequency:    5.5329636651
  - # 5
    frequency:    6.1846152892
  - # 6
    frequency:    7.8167052650
  - # 7
    frequency:    8.1846364523
  - # 8
    frequency:    8.5078196352
  - # 9
    frequency:   11.4948617978
  - # 10
    frequency:   13.1714731614
  - # 11
    frequency:   13.4377313725
  - # 12
    frequency:   14.4784309820
  - # 13
    frequency:   26.3311963652
  - # 14
    frequency:   28.1472614839
  - # 15
    frequency:   28.6744004989

- q-position: [    0.1515152,    0.0000000,    0.0000000 ]
  distance:    0.0533205
  band:
  - # 1
    frequency:    1.4644906624
  - # 2
    frequency:    2.9940228278
  - # 3
    frequency:    3.4290365207
  - # 4
    frequency:    5.5452173391
  - # 5
    frequency:    6.2137968773
  - # 6
    frequency:    7.8022317115
  - # 7
    frequency:    8.1795749851
  - # 8
    frequency:    8.5104285918
  - # 9
    frequency:   11.4449887000
  - # 10
    frequency:   13.1460915522
  - # 11
    frequency:   13.4293639504
  - # 12
    frequency:   14.4674090027
  - # 13
    frequency:   26.2930885196
  - # 14
    frequency:   28.1300868835
  - # 15
    frequency:   28.6848939815

- q-position: [    0.1565657,    0.0000000,    0.0000000 ]
  distance:    0.0550978
  band:
  - # 1
    frequency:    1.5491032469
  - # 2
    frequency:    3.0678228365
  - # 3
    frequency:    3.5262358214
  - # 4
    frequency:    5.5587905288
  - # 5
    frequency:    6.2419052574
  - # 6
    frequency:    7.7884152686
  - # 7
    frequency:    8.1741476827
  - # 8
    frequency:    8.5119068954
  - # 9
    frequency:   11.3958964727
  - # 10
    frequency:   13.1201985768
  - # 11
    frequency:   13.4203719642
  - # 12
    frequency:   14.4560897761
  - # 13
    frequency:   26.2553142421
  - # 14
    frequency:   28.1125670066
  - # 15
    frequency:   28.6955223588

- q-position: [    0.1616162,    0.0000000,    0.0000000 ]
  distance:    0.0568752
  band:
  - # 1
    frequency:    1.6345695619
  - # 2
    frequency:    3.1398325662
  - # 3
    frequency:    3.6212532913
  - # 4
    frequency:    5.5736787643
  - # 5
    frequency:    6.2688201694
  - # 6
    frequency:    7.7753045005
  - # 7
    frequency:    8.1683414828
  - # 8
    frequency:    8.5121860780
  - # 9
    frequency:   11.3477826767
  - # 10
    frequency:   13.0939012308
  - # 11
    frequency:   13.4107277196
  - # 12
    frequency:   14.4444815292
  - # 13
    frequency:   26.2179242396
  - # 14
    frequency:   28.0947263390
  - # 15
    frequency:   28.7063323145

- q-position: [    0.1666667,    0.0000000,    0.0000000 ]
  distance:    0.0586525
  band:
  - # 1
    frequency:    1.7207078125
  - # 2
    frequency:    3.2101033488
  - # 3
    frequency:    3.7139546735
  - # 4
    frequency:    5.5898672182
  - # 5
    frequency:    6.2944349177
  - # 6
    frequency:    7.7629379565
  - # 7
    frequency:    8.1621447588
  - # 8
    frequency:    8.5112070178
  - # 9
    frequency:   11.3008403900
  - # 10
    frequency:   13.0673147967
  - # 11
    frequency:   13.4004032157
  - # 12
    frequency:   14.4325923770
  - # 13
    frequency:   26.1809641584
  - # 14
    frequency:   28.0765902215
  - # 15
    frequency:   28.7173728098

- q-position: [    0.1717172,    0.0000000,    0.0000000 ]
  distance:    0.0604299
  band:
  - # 1
    frequency:    1.8073320001
  - # 2
    frequency:    3.2786915757
  - # 3
    frequency:    3.8042015533
  - # 4
    frequency:    5.6073311009
  - # 5
    frequency:    6.3186599525
  - # 6
    frequency:    7.7513417927
  - # 7
    frequency:    8.1555475503
  - # 8
    frequency:    8.5089219052
  - # 9
    frequency:   11.2552563484
  - # 10
    frequency:   13.0405619848
  - # 11
    frequency:   13.3893701839
  - # 12
    frequency:   14.4204303302
  - # 13
    frequency:   26.1444747147
  - # 14
    frequency:   28.0581848262
  - # 15
    frequency:   28.7286946108

- q-position: [    0.1767677,    0.0000000,    0.0000000 ]
  distance:    0.0622072
  band:
  - # 1
    frequency:    1.8942525086
  - # 2
    frequency:    3.3456576974
  - # 3
    frequency:    3.8918510717
  - # 4
    frequency:    5.6260362326
  - # 5
    frequency:    6.3414268310
  - # 6
    frequency:    7.7405272401
  - # 7
    frequency:    8.1485417807
  - # 8
    frequency:    8.5052961993
  - # 9
    frequency:   11.2112089855
  - # 10
    frequency:   13.0137719113
  - # 11
    frequency:   13.3776001417
  - # 12
    frequency:   14.4080033149
  - # 13
    frequency:   26.1084918403
  - # 14
    frequency:   28.0395371264
  - # 15
    frequency:   28.7403498232

- q-position: [    0.1818182,    0.0000000,    0.0000000 ]
  distance:    0.0639846
  band:
  - # 1
    frequency:    1.9812768015
  - # 2
    frequency:    3.4110651604
  - # 3
    frequency:    3.9767555800
  - # 4
    frequency:    5.6459397719
  - # 5
    frequency:    6.3626924274
  - # 6
    frequency:    7.7304880422
  - # 7
    frequency:    8.1411214582
  - # 8
    frequency:    8.5003105118
  - # 9
    frequency:   11.1688664172
  - # 10
    frequency:   12.9870789198
  - # 11
    frequency:   13.3650644612
  - # 12
    frequency:   14.3953192017
  - # 13
    frequency:   26.0730468434
  - # 14
    frequency:   28.0206748592
  - # 15
    frequency:   28.7523914309

- q-position: [    0.1868687,    0.0000000,    0.0000000 ]
  distance:    0.0657619
  band:
  - # 1
    frequency:    2.0682102374
  - # 2
    frequency:    3.4749793129
  - # 3
    frequency:    4.0587622691
  - # 4
    frequency:    5.6669910740
  - # 5
    frequency:    6.3824431881
  - # 6
    frequency:    7.7211980310
  - # 7
    frequency:    8.1332828551
  - # 8
    frequency:    8.4939623392
  - # 9
    frequency:   11.1283844309
  - # 10
    frequency:   12.9606212546
  - # 11
    frequency:   13.3517344549
  - # 12
    frequency:   14.3823858436
  - # 13
    frequency:   26.0381665872
  - # 14
    frequency:   28.0016264800
  - # 15
    frequency:   28.7648728413

- q-position: [    0.1919192,    0.0000000,    0.0000000 ]
  distance:    0.0675393
  band:
  - # 1
    frequency:    2.1548570115
  - # 2
    frequency:    3.5374663154
  - # 3
    frequency:    4.1377128284
  - # 4
    frequency:    5.6891326443
  - # 5
    frequency:    6.4006991690
  - # 6
    frequency:    7.7126090478
  - # 7
    frequency:    8.1250246612
  - # 8
    frequency:    8.4862675536
  - # 9
    frequency:   11.0899045448
  - # 10
    frequency:   12.9345396001
  - # 11
    frequency:   13.3375814814
  - # 12
    frequency:   14.3692111205
  - # 13
    frequency:   26.0038736864
  - # 14
    frequency:   27.9824211087
  - # 15
    frequency:   28.7778474334

- q-position: [    0.1969697,    0.0000000,    0.0000000 ]
  distance:    0.0693166
  band:
  - # 1
    frequency:    2.2410212296
  - # 2
    frequency:    3.5985920907
  - # 3
    frequency:    4.2134432221
  - # 4
    frequency:    5.7123011547
  - # 5
    frequency:    6.4175175330
  - # 6
    frequency:    7.7046494387
  - # 7
    frequency:    8.1163481084
  - # 8
    frequency:    8.4772615600
  - # 9
    frequency:   11.0535522109
  - # 10
    frequency:   12.9089755007
  - # 11
    frequency:   13.3225770710
  - # 12
    frequency:   14.3558029899
  - # 13
    frequency:   25.9701867209
  - # 14
    frequency:   27.9630884678
  - # 15
    frequency:   28.7913681110

- q-position: [    0.2020202,    0.0000000,    0.0000000 ]
  distance:    0.0710940
  band:
  - # 1
    frequency:    2.3265081188
  - # 2
    frequency:    3.6584213494
  - # 3
    frequency:    4.2857837057
  - # 4
    frequency:    5.7364284840
  - # 5
    frequency:    6.4329951518
  - # 6
    frequency:    7.6972233516
  - # 7
    frequency:    8.1072570612
  - # 8
    frequency:    8.4670000180
  - # 9
    frequency:   11.0194352366
  - # 10
    frequency:   12.8840696839
  - # 11
    frequency:   13.3066930725
  - # 12
    frequency:   14.3421695419
  - # 13
    frequency:   25.9371204670
  - # 14
    frequency:   27.9436588114
  - # 15
    frequency:   28.8054868611

- q-position: [    0.2070707,    0.0000000,    0.0000000 ]
  distance:    0.0728713
  band:
  - # 1
    frequency:    2.4111253784
  - # 2
    frequency:    3.7170167214
  - # 3
    frequency:    4.3545592500
  - # 4
    frequency:    5.7614427489
  - # 5
    frequency:    6.4472699369
  - # 6
    frequency:    7.6902110379
  - # 7
    frequency:    8.0977580730
  - # 8
    frequency:    8.4555590366
  - # 9
    frequency:   10.9876424924
  - # 10
    frequency:   12.8599603078
  - # 11
    frequency:   13.2899018225
  - # 12
    frequency:   14.3283190584
  - # 13
    frequency:   25.9046861440
  - # 14
    frequency:   27.9241628453
  - # 15
    frequency:   28.8202543174

- q-position: [    0.2121212,    0.0000000,    0.0000000 ]
  distance:    0.0746487
  band:
  - # 1
    frequency:    2.4946846695
  - # 2