nqpoint: 300    
npath: 3      
segment_nqpoint:
- 100
- 100
- 100
labels:
- [ 'G', 'M' ]
- [ 'M', 'K' ]
- [ 'K', 'G' ]
reciprocal_lattice:
- [   0.30476746,   0.17595758,   0.00000000 ] # a*
- [   0.00000000,   0.35191515,   0.00000000 ] # b*
- [   0.00000000,   0.00000000,   0.04436898 ] # c*
natom: 5      
lattice:
- [     3.281190146467241,     0.000000000000000,     0.000000000000000 ] # a
- [    -1.640595073233621,     2.841594021484636,     0.000000000000000 ] # b
- [     0.000000000000000,     0.000000000000000,    22.538268079578678 ] # c
points:
- symbol: F # 1
  coordinates: [  0.333332985432215,  0.666666983183674,  0.600679166286310 ]
  mass: 18.998403
- symbol: H # 2
  coordinates: [  0.666666984744047,  0.333332985985144,  0.399320833713690 ]
  mass: 1.007940
- symbol: N # 3
  coordinates: [  0.000000000000000,  0.000000000000000,  0.497805988623245 ]
  mass: 14.006700
- symbol: Sc # 4
  coordinates: [  0.333332985432215,  0.666666983183674,  0.441802930982995 ]
  mass: 44.955912
- symbol: Sc # 5
  coordinates: [  0.666666984744047,  0.333332985985144,  0.549383693007256 ]
  mass: 44.955912

phonon:
- q-position: [    0.0000000,    0.0000000,    0.0000000 ]
  distance:    0.0000000
  band:
  - # 1
    frequency:   -0.0000014505
  - # 2
    frequency:   -0.0000004276
  - # 3
    frequency:    0.0000013248
  - # 4
    frequency:    5.2014357745
  - # 5
    frequency:    5.2014357745
  - # 6
    frequency:    7.5572173422
  - # 7
    frequency:    7.5572173422
  - # 8
    frequency:    8.3521386396
  - # 9
    frequency:   12.7402231029
  - # 10
    frequency:   13.3876541183
  - # 11
    frequency:   13.3876541183
  - # 12
    frequency:   14.9793188785
  - # 13
    frequency:   27.5130806231
  - # 14
    frequency:   27.9963483064
  - # 15
    frequency:   27.9963483064

- q-position: [    0.0050505,    0.0000000,    0.0000000 ]
  distance:    0.0017773
  band:
  - # 1
    frequency:   -0.2009641346
  - # 2
    frequency:    0.0907092690
  - # 3
    frequency:    0.2514525288
  - # 4
    frequency:    5.2015979117
  - # 5
    frequency:    5.2030979159
  - # 6
    frequency:    7.5577014176
  - # 7
    frequency:    7.5579698855
  - # 8
    frequency:    8.3516019725
  - # 9
    frequency:   12.7372836345
  - # 10
    frequency:   13.3875641168
  - # 11
    frequency:   13.3888530740
  - # 12
    frequency:   14.9783525104
  - # 13
    frequency:   27.5102708273
  - # 14
    frequency:   27.9965218795
  - # 15
    frequency:   27.9980393820

- q-position: [    0.0101010,    0.0000000,    0.0000000 ]
  distance:    0.0035547
  band:
  - # 1
    frequency:   -0.2539945488
  - # 2
    frequency:    0.1814023265
  - # 3
    frequency:    0.3947904846
  - # 4
    frequency:    5.2020864679
  - # 5
    frequency:    5.2080707200
  - # 6
    frequency:    7.5591497373
  - # 7
    frequency:    7.5602160497
  - # 8
    frequency:    8.3500007043
  - # 9
    frequency:   12.7285488031
  - # 10
    frequency:   13.3872942168
  - # 11
    frequency:   13.3923669282
  - # 12
    frequency:   14.9754593119
  - # 13
    frequency:   27.5019542202
  - # 14
    frequency:   27.9970401006
  - # 15
    frequency:   28.0030055463

- q-position: [    0.0151515,    0.0000000,    0.0000000 ]
  distance:    0.0053320
  band:
  - # 1
    frequency:   -0.2787356386
  - # 2
    frequency:    0.2720627839
  - # 3
    frequency:    0.5321125675
  - # 4
    frequency:    5.2029078573
  - # 5
    frequency:    5.2163136096
  - # 6
    frequency:    7.5615506284
  - # 7
    frequency:    7.5639213838
  - # 8
    frequency:    8.3473611068
  - # 9
    frequency:   12.7142547572
  - # 10
    frequency:   13.3868447215
  - # 11
    frequency:   13.3979612613
  - # 12
    frequency:   14.9706569630
  - # 13
    frequency:   27.4884417042
  - # 14
    frequency:   27.9978954957
  - # 15
    frequency:   28.0109530197

- q-position: [    0.0202020,    0.0000000,    0.0000000 ]
  distance:    0.0071094
  band:
  - # 1
    frequency:   -0.2889504882
  - # 2
    frequency:    0.3626739018
  - # 3
    frequency:    0.6697299915
  - # 4
    frequency:    5.2040727066
  - # 5
    frequency:    5.2277598819
  - # 6
    frequency:    7.5648847883
  - # 7
    frequency:    7.5690282874
  - # 8
    frequency:    8.3437272064
  - # 9
    frequency:   12.6947522545
  - # 10
    frequency:   13.3862161020
  - # 11
    frequency:   13.4052883531
  - # 12
    frequency:   14.9639748026
  - # 13
    frequency:   27.4701744417
  - # 14
    frequency:   27.9990756767
  - # 15
    frequency:   28.0214690770

- q-position: [    0.0252525,    0.0000000,    0.0000000 ]
  distance:    0.0088867
  band:
  - # 1
    frequency:   -0.2897800120
  - # 2
    frequency:    0.4532184278
  - # 3
    frequency:    0.8086719844
  - # 4
    frequency:    5.2055957573
  - # 5
    frequency:    5.2423180532
  - # 6
    frequency:    7.5691255097
  - # 7
    frequency:    7.5754557366
  - # 8
    frequency:    8.3391611434
  - # 9
    frequency:   12.6704588113
  - # 10
    frequency:   13.3854089480
  - # 11
    frequency:   13.4139352671
  - # 12
    frequency:   14.9554536347
  - # 13
    frequency:   27.4476467218
  - # 14
    frequency:   28.0005634441
  - # 15
    frequency:   28.0340990295

- q-position: [    0.0303030,    0.0000000,    0.0000000 ]
  distance:    0.0106641
  band:
  - # 1
    frequency:   -0.2831315251
  - # 2
    frequency:    0.5436784469
  - # 3
    frequency:    0.9487901538
  - # 4
    frequency:    5.2074957288
  - # 5
    frequency:    5.2598736527
  - # 6
    frequency:    7.5742389882
  - # 7
    frequency:    7.5830989036
  - # 8
    frequency:    8.3337436658
  - # 9
    frequency:   12.6418144798
  - # 10
    frequency:   13.3844239008
  - # 11
    frequency:   13.4234684043
  - # 12
    frequency:   14.9451454527
  - # 13
    frequency:   27.4213450945
  - # 14
    frequency:   28.0023369287
  - # 15
    frequency:   28.0484068794

- q-position: [    0.0353535,    0.0000000,    0.0000000 ]
  distance:    0.0124414
  band:
  - # 1
    frequency:   -0.2691689026
  - # 2
    frequency:    0.6340352498
  - # 3
    frequency:    1.0896872187
  - # 4
    frequency:    5.2097951385
  - # 5
    frequency:    5.2802913889
  - # 6
    frequency:    7.5801847048
  - # 7
    frequency:    7.5918286842
  - # 8
    frequency:    8.3275747390
  - # 9
    frequency:   12.6092492216
  - # 10
    frequency:   13.3832615722
  - # 11
    frequency:   13.4334665591
  - # 12
    frequency:   14.9331130758
  - # 13
    frequency:   27.3917129166
  - # 14
    frequency:   28.0043697721
  - # 15
    frequency:   28.0640105036

- q-position: [    0.0404040,    0.0000000,    0.0000000 ]
  distance:    0.0142188
  band:
  - # 1
    frequency:   -0.2466471932
  - # 2
    frequency:    0.7242692226
  - # 3
    frequency:    1.2309623922
  - # 4
    frequency:    5.2125200793
  - # 5
    frequency:    5.3034175986
  - # 6
    frequency:    7.5869158753
  - # 7
    frequency:    7.6014911727
  - # 8
    frequency:    8.3207742271
  - # 9
    frequency:   12.5731635763
  - # 10
    frequency:   13.3819224517
  - # 11
    frequency:   13.4435407812
  - # 12
    frequency:   14.9194296946
  - # 13
    frequency:   27.3591368120
  - # 14
    frequency:   28.0066313447
  - # 15
    frequency:   28.0805948630

- q-position: [    0.0454545,    0.0000000,    0.0000000 ]
  distance:    0.0159961
  band:
  - # 1
    frequency:   -0.2122997912
  - # 2
    frequency:    0.8143597597
  - # 3
    frequency:    1.3722680459
  - # 4
    frequency:    5.2156999515
  - # 5
    frequency:    5.3290828853
  - # 6
    frequency:    7.5943799567
  - # 7
    frequency:    7.6119071650
  - # 8
    frequency:    8.3134825582
  - # 9
    frequency:   12.5339203698
  - # 10
    frequency:   13.3804068062
  - # 11
    frequency:   13.4533433042
  - # 12
    frequency:   14.9041783166
  - # 13
    frequency:   27.3239470889
  - # 14
    frequency:   28.0090869976
  - # 15
    frequency:   28.0979111976

- q-position: [    0.0505051,    0.0000000,    0.0000000 ]
  distance:    0.0177735
  band:
  - # 1
    frequency:   -0.1573871025
  - # 2
    frequency:    0.9042852026
  - # 3
    frequency:    1.5133131059
  - # 4
    frequency:    5.2193671484
  - # 5
    frequency:    5.3571048557
  - # 6
    frequency:    7.6025191997
  - # 7
    frequency:    7.6228718372
  - # 8
    frequency:    8.3058612202
  - # 9
    frequency:   12.4918438952
  - # 10
    frequency:   13.3787145757
  - # 11
    frequency:   13.4625691089
  - # 12
    frequency:   14.8874511055
  - # 13
    frequency:   27.2864250035
  - # 14
    frequency:   28.0116983484
  - # 15
    frequency:   28.1157693178

- q-position: [    0.0555556,    0.0000000,    0.0000000 ]
  distance:    0.0195508
  band:
  - # 1
    frequency:    0.0235056715
  - # 2
    frequency:    0.9940228044
  - # 3
    frequency:    1.6538535112
  - # 4
    frequency:    5.2235566944
  - # 5
    frequency:    5.3872908680
  - # 6
    frequency:    7.6112712365
  - # 7
    frequency:    7.6341548496
  - # 8
    frequency:    8.2980928340
  - # 9
    frequency:   12.4472233288
  - # 10
    frequency:   13.3768452682
  - # 11
    frequency:   13.4709533650
  - # 12
    frequency:   14.8693486083
  - # 13
    frequency:   27.2468122357
  - # 14
    frequency:   28.0144235972
  - # 15
    frequency:   28.1340276276

- q-position: [    0.0606061,    0.0000000,    0.0000000 ]
  distance:    0.0213282
  band:
  - # 1
    frequency:    0.1773301659
  - # 2
    frequency:    1.0835487210
  - # 3
    frequency:    1.7936814957
  - # 4
    frequency:    5.2283058353
  - # 5
    frequency:    5.4194407189
  - # 6
    frequency:    7.6205696928
  - # 7
    frequency:    7.6455012599
  - # 8
    frequency:    8.2903804139
  - # 9
    frequency:   12.4003180490
  - # 10
    frequency:   13.3747978593
  - # 11
    frequency:   13.4782670838
  - # 12
    frequency:   14.8499788611
  - # 13
    frequency:   27.2053201286
  - # 14
    frequency:   28.0172178704
  - # 15
    frequency:   28.1525833305

- q-position: [    0.0656566,    0.0000000,    0.0000000 ]
  distance:    0.0231055
  band:
  - # 1
    frequency:    0.2617181881
  - # 2
    frequency:    1.1728380288
  - # 3
    frequency:    1.9326166414
  - # 4
    frequency:    5.2336535821
  - # 5
    frequency:    5.4533492056
  - # 6
    frequency:    7.6303448136
  - # 7
    frequency:    7.6566337952
  - # 8
    frequency:    8.2829452639
  - # 9
    frequency:   12.3513634198
  - # 10
    frequency:   13.3725706975
  - # 11
    frequency:   13.4843124220
  - # 12
    frequency:   14.8294563710
  - # 13
    frequency:   27.1621376534
  - # 14
    frequency:   28.0200335895
  - # 15
    frequency:   28.1713638577

- q-position: [    0.0707071,    0.0000000,    0.0000000 ]
  distance:    0.0248829
  band:
  - # 1
    frequency:    0.3351326700
  - # 2
    frequency:    1.2618647658
  - # 3
    frequency:    2.0704990236
  - # 4
    frequency:    5.2396402083
  - # 5
    frequency:    5.4888085145
  - # 6
    frequency:    7.6405240925
  - # 7
    frequency:    7.6672571890
  - # 8
    frequency:    8.2760228038
  - # 9
    frequency:   12.3005762641
  - # 10
    frequency:   13.3701614206
  - # 11
    frequency:   13.4889184074
  - # 12
    frequency:   14.8079009709
  - # 13
    frequency:   27.1174378209
  - # 14
    frequency:   28.0228208620
  - # 15
    frequency:   28.1903197994

- q-position: [    0.0757576,    0.0000000,    0.0000000 ]
  distance:    0.0266602
  band:
  - # 1
    frequency:    0.4043768136
  - # 2
    frequency:    1.3506019960
  - # 3
    frequency:    2.2071840947
  - # 4
    frequency:    5.2463067055
  - # 5
    frequency:    5.5256104000
  - # 6
    frequency:    7.6510328957
  - # 7
    frequency:    7.6770653731
  - # 8
    frequency:    8.2698555354
  - # 9
    frequency:   12.2481596761
  - # 10
    frequency:   13.3675668840
  - # 11
    frequency:   13.4919374314
  - # 12
    frequency:   14.7854365490
  - # 13
    frequency:   27.0713826168
  - # 14
    frequency:   28.0255278910
  - # 15
    frequency:   28.2094192676

- q-position: [    0.0808081,    0.0000000,    0.0000000 ]
  distance:    0.0284376
  band:
  - # 1
    frequency:    0.4719556351
  - # 2
    frequency:    1.4390218930
  - # 3
    frequency:    2.3425388659
  - # 4
    frequency:    5.2536942013
  - # 5
    frequency:    5.5635481298
  - # 6
    frequency:    7.6617950739
  - # 7
    frequency:    7.6857521918
  - # 8
    frequency:    8.2646824875
  - # 9
    frequency:   12.1943070612
  - # 10
    frequency:   13.3647831033
  - # 11
    frequency:   13.4932426033
  - # 12
    frequency:   14.7621896622
  - # 13
    frequency:   27.0241266627
  - # 14
    frequency:   28.0281014007
  - # 15
    frequency:   28.2286434880

- q-position: [    0.0858586,    0.0000000,    0.0000000 ]
  distance:    0.0302149
  band:
  - # 1
    frequency:    0.5390742480
  - # 2
    frequency:    1.5270958408
  - # 3
    frequency:    2.4764390195
  - # 4
    frequency:    5.2618433438
  - # 5
    frequency:    5.6024181808
  - # 6
    frequency:    7.6727335549
  - # 7
    frequency:    7.6930258453
  - # 8
    frequency:    8.2607249393
  - # 9
    frequency:   12.1392054191
  - # 10
    frequency:   13.3618052114
  - # 11
    frequency:   13.4927259301
  - # 12
    frequency:   14.7382880500
  - # 13
    frequency:   26.9758198359
  - # 14
    frequency:   28.0304870734
  - # 15
    frequency:   28.2479833949

- q-position: [    0.0909091,    0.0000000,    0.0000000 ]
  distance:    0.0319923
  band:
  - # 1
    frequency:    0.6063925672
  - # 2
    frequency:    1.6147945479
  - # 3
    frequency:    2.6087666749
  - # 4
    frequency:    5.2707936626
  - # 5
    frequency:    5.6420216803
  - # 6
    frequency:    7.6837709123
  - # 7
    frequency:    7.6986263736
  - # 8
    frequency:    8.2581691213
  - # 9
    frequency:   12.0830379374
  - # 10
    frequency:   13.3586274319
  - # 11
    frequency:   13.4902972183
  - # 12
    frequency:   14.7138590739
  - # 13
    frequency:   26.9266090582
  - # 14
    frequency:   28.0326299953
  - # 15
    frequency:   28.2674370219

- q-position: [    0.0959596,    0.0000000,    0.0000000 ]
  distance:    0.0337696
  band:
  - # 1
    frequency:    0.6742977316
  - # 2
    frequency:    1.7020881718
  - # 3
    frequency:    2.7394086119
  - # 4
    frequency:    5.2805829125
  - # 5
    frequency:    5.6821655918
  - # 6
    frequency:    7.6948299091
  - # 7
    frequency:    7.7023442686
  - # 8
    frequency:    8.2571478215
  - # 9
    frequency:   12.0259859807
  - # 10
    frequency:   13.3552430648
  - # 11
    frequency:   13.4858835681
  - # 12
    frequency:   14.6890281204
  - # 13
    frequency:   26.8766394338
  - # 14
    frequency:   28.0344751078
  - # 15
    frequency:   28.2870075140

- q-position: [    0.1010101,    0.0000000,    0.0000000 ]
  distance:    0.0355470
  band:
  - # 1
    frequency:    0.7430242205
  - # 2
    frequency:    1.7889464490
  - # 3
    frequency:    2.8682548117
  - # 4
    frequency:    5.2912464121
  - # 5
    frequency:    5.7226636485
  - # 6
    frequency:    7.7040371712
  - # 7
    frequency:    7.7058340115
  - # 8
    frequency:    8.2577239550
  - # 9
    frequency:   11.9682305596
  - # 10
    frequency:   13.3516444865
  - # 11
    frequency:   13.4794293183
  - # 12
    frequency:   14.6639170142
  - # 13
    frequency:   26.8260548799
  - # 14
    frequency:   28.0359676601
  - # 15
    frequency:   28.3067016223

- q-position: [    0.1060606,    0.0000000,    0.0000000 ]
  distance:    0.0373243
  band:
  - # 1
    frequency:    0.8127142077
  - # 2
    frequency:    1.8753388304
  - # 3
    frequency:    2.9951972228
  - # 4
    frequency:    5.3028163869
  - # 5
    frequency:    5.7633370420
  - # 6
    frequency:    7.7036411936
  - # 7
    frequency:    7.7167078756
  - # 8
    frequency:    8.2598795797
  - # 9
    frequency:   11.9099533522
  - # 10
    frequency:   13.3478231586
  - # 11
    frequency:   13.4708962989
  - # 12
    frequency:   14.6386425001
  - # 13
    frequency:   26.7749983673
  - # 14
    frequency:   28.0370536598
  - # 15
    frequency:   28.3265285707

- q-position: [    0.1111111,    0.0000000,    0.0000000 ]
  distance:    0.0391017
  band:
  - # 1
    frequency:    0.8834508032
  - # 2
    frequency:    1.9612346152
  - # 3
    frequency:    3.1201286824
  - # 4
    frequency:    5.3153213303
  - # 5
    frequency:    5.8040148753
  - # 6
    frequency:    7.7011742128
  - # 7
    frequency:    7.7273778071
  - # 8
    frequency:    8.2635130335
  - # 9
    frequency:   11.8513373402
  - # 10
    frequency:   13.3437696444
  - # 11
    frequency:   13.4602642555
  - # 12
    frequency:   14.6133148545
  - # 13
    frequency:   26.7236118614
  - # 14
    frequency:   28.0376803183
  - # 15
    frequency:   28.3464992095

- q-position: [    0.1161616,    0.0000000,    0.0000000 ]
  distance:    0.0408790
  band:
  - # 1
    frequency:    0.9552776235
  - # 2
    frequency:    2.0466030839
  - # 3
    frequency:    3.2429419527
  - # 4
    frequency:    5.3287853935
  - # 5
    frequency:    5.8445343891
  - # 6
    frequency:    7.6967303996
  - # 7
    frequency:    7.7377721946
  - # 8
    frequency:    8.2684449541
  - # 9
    frequency:   11.7925671072
  - # 10
    frequency:   13.3394736281
  - # 11
    frequency:   13.4475313159
  - # 12
    frequency:   14.5880366920
  - # 13
    frequency:   26.6720360371
  - # 14
    frequency:   28.0377964873
  - # 15
    frequency:   28.3666253915

- q-position: [    0.1212121,    0.0000000,    0.0000000 ]
  distance:    0.0426564
  band:
  - # 1
    frequency:    1.0282108840
  - # 2
    frequency:    2.1314136271
  - # 3
    frequency:    3.3635288387
  - # 4
    frequency:    5.3432278177
  - # 5
    frequency:    5.8847409741
  - # 6
    frequency:    7.6904674993
  - # 7
    frequency:    7.7478219220
  - # 8
    frequency:    8.2744316941
  - # 9
    frequency:   11.7338288399
  - # 10
    frequency:   13.3349239343
  - # 11
    frequency:   13.4327143875
  - # 12
    frequency:   14.5629020224
  - # 13
    frequency:   26.6204098247
  - # 14
    frequency:   28.0373530831
  - # 15
    frequency:   28.3869195175

- q-position: [    0.1262626,    0.0000000,    0.0000000 ]
  distance:    0.0444337
  band:
  - # 1
    frequency:    1.1022471287
  - # 2
    frequency:    2.2156358688
  - # 3
    frequency:    3.4817793699
  - # 4
    frequency:    5.3586624210
  - # 5
    frequency:    5.9244879825
  - # 6
    frequency:    7.6825899559
  - # 7
    frequency:    7.7574607609
  - # 8
    frequency:    8.2811830652
  - # 9
    frequency:   11.6753100607
  - # 10
    frequency:   13.3301085428
  - # 11
    frequency:   13.4158493929
  - # 12
    frequency:   14.5379956037
  - # 13
    frequency:   26.5688698339
  - # 14
    frequency:   28.0363034953
  - # 15
    frequency:   28.4073942147

- q-position: [    0.1313131,    0.0000000,    0.0000000 ]
  distance:    0.0462111
  band:
  - # 1
    frequency:    1.1773682815
  - # 2
    frequency:    2.2992397833
  - # 3
    frequency:    3.5975810319
  - # 4
    frequency:    5.3750971503
  - # 5
    frequency:    5.9636363554
  - # 6
    frequency:    7.6733313052
  - # 7
    frequency:    7.7666257468
  - # 8
    frequency:    8.2883810123
  - # 9
    frequency:   11.6171991160
  - # 10
    frequency:   13.3250145944
  - # 11
    frequency:   13.3969912772
  - # 12
    frequency:   14.5133926125
  - # 13
    frequency:   26.5175496930
  - # 14
    frequency:   28.0346039773
  - # 15
    frequency:   28.4280621157

- q-position: [    0.1363636,    0.0000000,    0.0000000 ]
  distance:    0.0479884
  band:
  - # 1
    frequency:    1.2535449800
  - # 2
    frequency:    2.3821958068
  - # 3
    frequency:    3.7108180390
  - # 4
    frequency:    5.3925337099
  - # 5
    frequency:    6.0020540887
  - # 6
    frequency:    7.6629385200
  - # 7
    frequency:    7.7752575428
  - # 8
    frequency:    8.2956965573
  - # 9
    frequency:   11.5596844392
  - # 10
    frequency:   13.3196283864
  - # 11
    frequency:   13.3762137505
  - # 12
    frequency:   14.4891586306
  - # 13
    frequency:   26.4665793349
  - # 14
    frequency:   28.0322140146
  - # 15
    frequency:   28.4489357163

- q-position: [    0.1414141,    0.0000000,    0.0000000 ]
  distance:    0.0497658
  band:
  - # 1
    frequency:    1.3307387753
  - # 2
    frequency:    2.4644749419
  - # 3
    frequency:    3.8213706414
  - # 4
    frequency:    5.4109672743
  - # 5
    frequency:    6.0396155659
  - # 6
    frequency:    7.6516597544
  - # 7
    frequency:    7.7833007922
  - # 8
    frequency:    8.3028035817
  - # 9
    frequency:   11.5029536066
  - # 10
    frequency:   13.3139353524
  - # 11
    frequency:   13.3536087565
  - # 12
    frequency:   14.4653499183
  - # 13
    frequency:   26.4160842553
  - # 14
    frequency:   28.0290966687
  - # 15
    frequency:   28.4700272924

- q-position: [    0.1464646,    0.0000000,    0.0000000 ]
  distance:    0.0515431
  band:
  - # 1
    frequency:    1.4089035583
  - # 2
    frequency:    2.5460488585
  - # 3
    frequency:    3.9291144604
  - # 4
    frequency:    5.4303862933
  - # 5
    frequency:    6.0762008000
  - # 6
    frequency:    7.6397357997
  - # 7
    frequency:    7.7907044627
  - # 8
    frequency:    8.3093891383
  - # 9
    frequency:   11.4471922035
  - # 10
    frequency:   13.3079200258
  - # 11
    frequency:   13.3292856856
  - # 12
    frequency:   14.4420139219
  - # 13
    frequency:   26.3661847645
  - # 14
    frequency:   28.0252188943
  - # 15
    frequency:   28.4913488629

- q-position: [    0.1515152,    0.0000000,    0.0000000 ]
  distance:    0.0533205
  band:
  - # 1
    frequency:    1.4879864539
  - # 2
    frequency:    2.6268899912
  - # 3
    frequency:    4.0339198428
  - # 4
    frequency:    5.4507723931
  - # 5
    frequency:    6.1116946396
  - # 6
    frequency:    7.6273948176
  - # 7
    frequency:    7.7974221820
  - # 8
    frequency:    8.3151607181
  - # 9
    frequency:   11.3925825192
  - # 10
    frequency:   13.3015659858
  - # 11
    frequency:   13.3033703689
  - # 12
    frequency:   14.4191899457
  - # 13
    frequency:   26.3169952512
  - # 14
    frequency:   28.0205518256
  - # 15
    frequency:   28.5129121867

- q-position: [    0.1565657,    0.0000000,    0.0000000 ]
  distance:    0.0550978
  band:
  - # 1
    frequency:    1.5679283401
  - # 2
    frequency:    2.7069716350
  - # 3
    frequency:    4.1356512240
  - # 4
    frequency:    5.4721003768
  - # 5
    frequency:    6.1459860172
  - # 6
    frequency:    7.6148495765
  - # 7
    frequency:    7.8034125635
  - # 8
    frequency:    8.3198512140
  - # 9
    frequency:   11.3393020954
  - # 10
    frequency:   13.2760038989
  - # 11
    frequency:   13.2948557858
  - # 12
    frequency:   14.3969099071
  - # 13
    frequency:   26.2686234740
  - # 14
    frequency:   28.0150710310
  - # 15
    frequency:   28.5347287843

- q-position: [    0.1616162,    0.0000000,    0.0000000 ]
  distance:    0.0568752
  band:
  - # 1
    frequency:    1.6486641043
  - # 2
    frequency:    2.7862680422
  - # 3
    frequency:    4.2341664815
  - # 4
    frequency:    5.4943383252
  - # 5
    frequency:    6.1789673415
  - # 6
    frequency:    7.6022963676
  - # 7
    frequency:    7.8086395224
  - # 8
    frequency:    8.3232223444
  - # 9
    frequency:   11.2875221564
  - # 10
    frequency:   13.2473413249
  - # 11
    frequency:   13.2877708653
  - # 12
    frequency:   14.3751991000
  - # 13
    frequency:   26.2211698938
  - # 14
    frequency:   28.0087567339
  - # 15
    frequency:   28.5568099781

- q-position: [    0.1666667,    0.0000000,    0.0000000 ]
  distance:    0.0586525
  band:
  - # 1
    frequency:    1.7301227145
  - # 2
    frequency:    2.8647545215
  - # 3
    frequency:    4.3293162559
  - # 4
    frequency:    5.5174477943
  - # 5
    frequency:    6.2105341695
  - # 6
    frequency:    7.5899148722
  - # 7
    frequency:    7.8130725756
  - # 8
    frequency:    8.3250671747
  - # 9
    frequency:   11.2374059581
  - # 10
    frequency:   13.2175502607
  - # 11
    frequency:   13.2802914482
  - # 12
    frequency:   14.3540768957
  - # 13
    frequency:   26.1747270568
  - # 14
    frequency:   28.0015939957
  - # 15
    frequency:   28.5791669436

- q-position: [    0.1717172,    0.0000000,    0.0000000 ]
  distance:    0.0604299
  band:
  - # 1
    frequency:    1.8122271621
  - # 2
    frequency:    2.9424075420
  - # 3
    frequency:    4.4209432092
  - # 4
    frequency:    5.5413841076
  - # 5
    frequency:    6.2405853243
  - # 6
    frequency:    7.5778683936
  - # 7
    frequency:    7.8166871226
  - # 8
    frequency:    8.3252121915
  - # 9
    frequency:   11.1891070982
  - # 10
    frequency:   13.1868094287
  - # 11
    frequency:   13.2723964315
  - # 12
    frequency:   14.3335573344
  - # 13
    frequency:   26.1293790413
  - # 14
    frequency:   27.9935728623
  - # 15
    frequency:   28.6018107669

- q-position: [    0.1767677,    0.0000000,    0.0000000 ]
  distance:    0.0622072
  band:
  - # 1
    frequency:    1.8948943171
  - # 2
    frequency:    3.0192048433
  - # 3
    frequency:    4.5088811832
  - # 4
    frequency:    5.5660967367
  - # 5
    frequency:    6.2690236610
  - # 6
    frequency:    7.5663039981
  - # 7
    frequency:    7.8194646996
  - # 8
    frequency:    8.3235192180
  - # 9
    frequency:   11.1427678398
  - # 10
    frequency:   13.1553071501
  - # 11
    frequency:   13.2640632693
  - # 12
    frequency:   14.3136495759
  - # 13
    frequency:   26.0852009718
  - # 14
    frequency:   27.9846884703
  - # 15
    frequency:   28.6247525049

- q-position: [    0.1818182,    0.0000000,    0.0000000 ]
  distance:    0.0639846
  band:
  - # 1
    frequency:    1.9780347260
  - # 2
    frequency:    3.0951255528
  - # 3
    frequency:    4.5929542181
  - # 4
    frequency:    5.5915297621
  - # 5
    frequency:    6.2957577072
  - # 6
    frequency:    7.5553522160
  - # 7
    frequency:    7.8213932003
  - # 8
    frequency:    8.3198873160
  - # 9
    frequency:   11.0985175033
  - # 10
    frequency:   13.1232397711
  - # 11
    frequency:   13.2552678583
  - # 12
    frequency:   14.2943582029
  - # 13
    frequency:   26.0422586109
  - # 14
    frequency:   27.9749411128
  - # 15
    frequency:   28.6480032426

- q-position: [    0.1868687,    0.0000000,    0.0000000 ]
  distance:    0.0657619
  band:
  - # 1
    frequency:    2.0615523757
  - # 2
    frequency:    3.1701503107
  - # 3
    frequency:    4.6729753967
  - # 4
    frequency:    5.6176224065
  - # 5
    frequency:    6.3207044073
  - # 6
    frequency:    7.5451260381
  - # 7
    frequency:    7.8224670539
  - # 8
    frequency:    8.3142547141
  - # 9
    frequency:   11.0564709867
  - # 10
    frequency:   13.0908100086
  - # 11
    frequency:   13.2459844324
  - # 12
    frequency:   14.2756833884
  - # 13
    frequency:   26.0006080328
  - # 14
    frequency:   27.9643362636
  - # 15
    frequency:   28.6715741450

- q-position: [    0.1919192,    0.0000000,    0.0000000 ]
  distance:    0.0675393
  band:
  - # 1
    frequency:    2.1453444378
  - # 2
    frequency:    3.2442614025
  - # 3
    frequency:    4.7487454956
  - # 4
    frequency:    5.6443096303
  - # 5
    frequency:    6.3437931763
  - # 6
    frequency:    7.5357190187
  - # 7
    frequency:    7.8226873519
  - # 8
    frequency:    8.3066007300
  - # 9
    frequency:   11.0167274735
  - # 10
    frequency:   13.0582251899
  - # 11
    frequency:   13.2361854733
  - # 12
    frequency:   14.2576209523
  - # 13
    frequency:   25.9602953821
  - # 14
    frequency:   27.9528845599
  - # 15
    frequency:   28.6954764993

- q-position: [    0.1969697,    0.0000000,    0.0000000 ]
  distance:    0.0693166
  band:
  - # 1
    frequency:    2.2293010070
  - # 2
    frequency:    3.3174428977
  - # 3
    frequency:    4.8200514650
  - # 4
    frequency:    5.6715227790
  - # 5
    frequency:    6.3649713815
  - # 6
    frequency:    7.5272023863
  - # 7
    frequency:    7.8220619132
  - # 8
    frequency:    8.2969475995
  - # 9
    frequency:   10.9793693787
  - # 10
    frequency:   13.0256953638
  - # 11
    frequency:   13.2258416463
  - # 12
    frequency:   14.2401623440
  - # 13
    frequency:   25.9213567234
  - # 14
    frequency:   27.9406017420
  - # 15
    frequency:   28.7197217447

- q-position: [    0.2020202,    0.0000000,    0.0000000 ]
  distance:    0.0710940
  band:
  - # 1
    frequency:    2.3133048399
  - # 2
    frequency:    3.3896807926
  - # 3
    frequency:    4.8866648299
  - # 4
    frequency:    5.6991902717
  - # 5
    frequency:    6.3842112238
  - # 6
    frequency:    7.5196211728
  - # 7
    frequency:    7.8206052798
  - # 8
    frequency:    8.2853620919
  - # 9
    frequency:   10.9444615769
  - # 10
    frequency:   12.9934312673
  - # 11
    frequency:   13.2149217684
  - # 12
    frequency:   14.2232945880
  - # 13
    frequency:   25.8838179806
  - # 14
    frequency:   27.9275085517
  - # 15
    frequency:   28.7443214863

- q-position: [    0.2070707,    0.0000000,    0.0000000 ]
  distance:    0.0728713
  band:
  - # 1
    frequency:    2.3972310986
  - # 2
    frequency:    3.4609631548
  - # 3
    frequency:    4.9483402148
  - # 4
    frequency:    5.7272383197
  - # 5
    frequency:    6.4015177529
  - # 6
    frequency:    7.5129895226
  - # 7
    frequency:    7.8183386326
  - # 8
    frequency:    8.2719567675
  - # 9
    frequency:   10.9120509384
  - # 10
    frequency:   12.9616421457
  - # 11
    frequency:   13.2033928187
  - # 12
    frequency:   14.2070002328
  - # 13
    frequency:   25.8476949707
  - # 14
    frequency:   27.9136305890
  - # 15
    frequency:   28.7692874901

- q-position: [    0.2121212,    0.0000000,    0.0000000 ]
  distance:    0.0746487
  band:
  - # 1
    frequency:    2.4809471018
  - # 2