nqpoint: 300    
npath: 3      
segment_nqpoint:
- 100
- 100
- 100
labels:
- [ 'G', 'M' ]
- [ 'M', 'K' ]
- [ 'K', 'G' ]
reciprocal_lattice:
- [   0.28334761,   0.16359082,   0.00000000 ] # a*
- [   0.00000000,   0.32718163,   0.00000000 ] # b*
- [   0.00000000,   0.00000000,   0.03887519 ] # c*
natom: 7      
lattice:
- [     3.529233975225471,     0.000000000000000,     0.000000000000000 ] # a
- [    -1.764616987612735,     3.056406278430863,     0.000000000000000 ] # b
- [     0.000000000000000,     0.000000000000000,    25.723347359221794 ] # c
points:
- symbol: C # 1
  coordinates: [  0.666666984744047,  0.333332985985145,  0.396080004723772 ]
  mass: 12.010700
- symbol: F # 2
  coordinates: [  0.333332985432215,  0.666666983183674,  0.650123295607035 ]
  mass: 18.998403
- symbol: N # 3
  coordinates: [  0.000000000000000,  0.000000000000000,  0.551960113354486 ]
  mass: 14.006700
- symbol: N # 4
  coordinates: [  0.666666984744047,  0.333332985985145,  0.349876704392965 ]
  mass: 14.006700
- symbol: O # 5
  coordinates: [  0.666666984744047,  0.333332985985145,  0.447942328787643 ]
  mass: 15.999400
- symbol: Y # 6
  coordinates: [  0.333332985432215,  0.666666983183674,  0.499831692964076 ]
  mass: 88.905850
- symbol: Y # 7
  coordinates: [  0.666666984744047,  0.333332985985145,  0.602726413130829 ]
  mass: 88.905850

phonon:
- q-position: [    0.0000000,    0.0000000,    0.0000000 ]
  distance:    0.0000000
  band:
  - # 1
    frequency:   -1.9720281441
  - # 2
    frequency:   -1.9720281440
  - # 3
    frequency:   -0.0000169075
  - # 4
    frequency:   -0.0000003590
  - # 5
    frequency:    0.0000148155
  - # 6
    frequency:    3.8364229353
  - # 7
    frequency:    3.8364229353
  - # 8
    frequency:    5.1749476138
  - # 9
    frequency:    6.4719013793
  - # 10
    frequency:    6.4719013794
  - # 11
    frequency:    6.9629938778
  - # 12
    frequency:    6.9629938778
  - # 13
    frequency:    8.1645012088
  - # 14
    frequency:   10.3401325761
  - # 15
    frequency:   11.8593015293
  - # 16
    frequency:   12.7250547268
  - # 17
    frequency:   12.7250547268
  - # 18
    frequency:   14.3525492024
  - # 19
    frequency:   14.3525492025
  - # 20
    frequency:   32.2084432348
  - # 21
    frequency:   67.9992068290

- q-position: [    0.0050505,    0.0000000,    0.0000000 ]
  distance:    0.0016524
  band:
  - # 1
    frequency:   -1.9752509363
  - # 2
    frequency:   -1.9745897430
  - # 3
    frequency:    0.0033881793
  - # 4
    frequency:    0.1224028876
  - # 5
    frequency:    0.1406851151
  - # 6
    frequency:    3.8358905520
  - # 7
    frequency:    3.8365201835
  - # 8
    frequency:    5.1748210659
  - # 9
    frequency:    6.4716396465
  - # 10
    frequency:    6.4720770655
  - # 11
    frequency:    6.9622659517
  - # 12
    frequency:    6.9631644307
  - # 13
    frequency:    8.1637578606
  - # 14
    frequency:   10.3392103040
  - # 15
    frequency:   11.8590004546
  - # 16
    frequency:   12.7239432885
  - # 17
    frequency:   12.7246515207
  - # 18
    frequency:   14.3525874992
  - # 19
    frequency:   14.3526852280
  - # 20
    frequency:   32.2078945187
  - # 21
    frequency:   67.9989121196

- q-position: [    0.0101010,    0.0000000,    0.0000000 ]
  distance:    0.0033049
  band:
  - # 1
    frequency:   -1.9846609840
  - # 2
    frequency:   -1.9821217321
  - # 3
    frequency:    0.0085280484
  - # 4
    frequency:    0.2437477774
  - # 5
    frequency:    0.2797275825
  - # 6
    frequency:    3.8342983752
  - # 7
    frequency:    3.8368115224
  - # 8
    frequency:    5.1744421245
  - # 9
    frequency:    6.4708551577
  - # 10
    frequency:    6.4726042431
  - # 11
    frequency:    6.9600811781
  - # 12
    frequency:    6.9636742025
  - # 13
    frequency:    8.1615296952
  - # 14
    frequency:   10.3364445346
  - # 15
    frequency:   11.8580960992
  - # 16
    frequency:   12.7206121849
  - # 17
    frequency:   12.7234411909
  - # 18
    frequency:   14.3527024046
  - # 19
    frequency:   14.3530928920
  - # 20
    frequency:   32.2062497720
  - # 21
    frequency:   67.9980286960

- q-position: [    0.0151515,    0.0000000,    0.0000000 ]
  distance:    0.0049573
  band:
  - # 1
    frequency:   -1.9995473710
  - # 2
    frequency:   -1.9941942549
  - # 3
    frequency:    0.0144319236
  - # 4
    frequency:    0.3631634252
  - # 5
    frequency:    0.4157027337
  - # 6
    frequency:    3.8316613133
  - # 7
    frequency:    3.8372957143
  - # 8
    frequency:    5.1738128797
  - # 9
    frequency:    6.4695500185
  - # 10
    frequency:    6.4734829560
  - # 11
    frequency:    6.9564368528
  - # 12
    frequency:    6.9645175766
  - # 13
    frequency:    8.1578223473
  - # 14
    frequency:   10.3318384472
  - # 15
    frequency:   11.8565850044
  - # 16
    frequency:   12.7150710917
  - # 17
    frequency:   12.7214216083
  - # 18
    frequency:   14.3528939632
  - # 19
    frequency:   14.3537709636
  - # 20
    frequency:   32.2035131948
  - # 21
    frequency:   67.9965586697

- q-position: [    0.0202020,    0.0000000,    0.0000000 ]
  distance:    0.0066097
  band:
  - # 1
    frequency:   -2.0189058511
  - # 2
    frequency:   -2.0101744812
  - # 3
    frequency:    0.0216441297
  - # 4
    frequency:    0.4799210166
  - # 5
    frequency:    0.5475439210
  - # 6
    frequency:    3.8280041789
  - # 7
    frequency:    3.8379706245
  - # 8
    frequency:    5.1729367576
  - # 9
    frequency:    6.4677276614
  - # 10
    frequency:    6.4747122165
  - # 11
    frequency:    6.9513294281
  - # 12
    frequency:    6.9656853386
  - # 13
    frequency:    8.1526451964
  - # 14
    frequency:   10.3253974687
  - # 15
    frequency:   11.8544611915
  - # 16
    frequency:   12.7073362757
  - # 17
    frequency:   12.7185892425
  - # 18
    frequency:   14.3531622487
  - # 19
    frequency:   14.3547174129
  - # 20
    frequency:   32.1996917730
  - # 21
    frequency:   67.9945055515

- q-position: [    0.0252525,    0.0000000,    0.0000000 ]
  distance:    0.0082622
  band:
  - # 1
    frequency:   -2.0416215690
  - # 2
    frequency:   -2.0293190498
  - # 3
    frequency:    0.0303968890
  - # 4
    frequency:    0.5935186260
  - # 5
    frequency:    0.6745759477
  - # 6
    frequency:    3.8233616343
  - # 7
    frequency:    3.8388331167
  - # 8
    frequency:    5.1718184354
  - # 9
    frequency:    6.4653927376
  - # 10
    frequency:    6.4762883567
  - # 11
    frequency:    6.9447560150
  - # 12
    frequency:    6.9671648874
  - # 13
    frequency:    8.1460113496
  - # 14
    frequency:   10.3171294592
  - # 15
    frequency:   11.8517158419
  - # 16
    frequency:   12.6974308093
  - # 17
    frequency:   12.7149391887
  - # 18
    frequency:   14.3535073608
  - # 19
    frequency:   14.3559294431
  - # 20
    frequency:   32.1947952572
  - # 21
    frequency:   67.9918742391

- q-position: [    0.0303030,    0.0000000,    0.0000000 ]
  distance:    0.0099146
  band:
  - # 1
    frequency:   -2.0666151542
  - # 2
    frequency:   -2.0508581298
  - # 3
    frequency:    0.0408160976
  - # 4
    frequency:    0.7036673543
  - # 5
    frequency:    0.7964659899
  - # 6
    frequency:    3.8177781152
  - # 7
    frequency:    3.8398789081
  - # 8
    frequency:    5.1704637243
  - # 9
    frequency:    6.4625509768
  - # 10
    frequency:    6.4782025939
  - # 11
    frequency:    6.9367166275
  - # 12
    frequency:    6.9689405173
  - # 13
    frequency:    8.1379376159
  - # 14
    frequency:   10.3070449622
  - # 15
    frequency:   11.8483368504
  - # 16
    frequency:   12.6853848805
  - # 17
    frequency:   12.7104652060
  - # 18
    frequency:   14.3539294233
  - # 19
    frequency:   14.3574035335
  - # 20
    frequency:   32.1888361324
  - # 21
    frequency:   67.9886709995

- q-position: [    0.0353535,    0.0000000,    0.0000000 ]
  distance:    0.0115670
  band:
  - # 1
    frequency:   -2.0929293324
  - # 2
    frequency:   -2.0740558521
  - # 3
    frequency:    0.0529730267
  - # 4
    frequency:    0.8102543473
  - # 5
    frequency:    0.9131368814
  - # 6
    frequency:    3.8113077276
  - # 7
    frequency:    3.8411023885
  - # 8
    frequency:    5.1688794226
  - # 9
    frequency:    6.4592090285
  - # 10
    frequency:    6.4804376484
  - # 11
    frequency:    6.9272173405
  - # 12
    frequency:    6.9709937551
  - # 13
    frequency:    8.1284444712
  - # 14
    frequency:   10.2951575083
  - # 15
    frequency:   11.8443082548
  - # 16
    frequency:   12.6712362066
  - # 17
    frequency:   12.7051597659
  - # 18
    frequency:   14.3544285791
  - # 19
    frequency:   14.3591354915
  - # 20
    frequency:   32.1818295799
  - # 21
    frequency:   67.9849034468

- q-position: [    0.0404040,    0.0000000,    0.0000000 ]
  distance:    0.0132195
  band:
  - # 1
    frequency:   -2.1197630743
  - # 2
    frequency:   -2.0982445001
  - # 3
    frequency:    0.0669085544
  - # 4
    frequency:    0.9132968322
  - # 5
    frequency:    1.0246789309
  - # 6
    frequency:    3.8040141168
  - # 7
    frequency:    3.8424964061
  - # 8
    frequency:    5.1670731394
  - # 9
    frequency:    6.4553742933
  - # 10
    frequency:    6.4829631609
  - # 11
    frequency:    6.9162746365
  - # 12
    frequency:    6.9733037403
  - # 13
    frequency:    8.1175560131
  - # 14
    frequency:   10.2814839602
  - # 15
    frequency:   11.8396095403
  - # 16
    frequency:   12.6550305620
  - # 17
    frequency:   12.6990141114
  - # 18
    frequency:   14.3550049851
  - # 19
    frequency:   14.3611205127
  - # 20
    frequency:   32.1737934307
  - # 21
    frequency:   67.9805805151

- q-position: [    0.0454545,    0.0000000,    0.0000000 ]
  distance:    0.0148719
  band:
  - # 1
    frequency:   -2.1464716392
  - # 2
    frequency:   -2.1228375307
  - # 3
    frequency:    0.0826452674
  - # 4
    frequency:    1.0128985995
  - # 5
    frequency:    1.1312783453
  - # 6
    frequency:    3.7959703036
  - # 7
    frequency:    3.8440520237
  - # 8
    frequency:    5.1650530922
  - # 9
    frequency:    6.4510547594
  - # 10
    frequency:    6.4857295057
  - # 11
    frequency:    6.9039213600
  - # 12
    frequency:    6.9758476309
  - # 13
    frequency:    8.1052999033
  - # 14
    frequency:   10.2660448859
  - # 15
    frequency:   11.8342148213
  - # 16
    frequency:   12.6368224336
  - # 17
    frequency:   12.6920183277
  - # 18
    frequency:   14.3556588040
  - # 19
    frequency:   14.3633532459
  - # 20
    frequency:   32.1647481105
  - # 21
    frequency:   67.9757124273

- q-position: [    0.0505051,    0.0000000,    0.0000000 ]
  distance:    0.0165243
  band:
  - # 1
    frequency:   -2.1725494778
  - # 2
    frequency:   -2.1473287671
  - # 3
    frequency:    0.1001934283
  - # 4
    frequency:    1.1092144718
  - # 5
    frequency:    1.2331663950
  - # 6
    frequency:    3.7872584804
  - # 7
    frequency:    3.8457582487
  - # 8
    frequency:    5.1628278797
  - # 9
    frequency:    6.4462588527
  - # 10
    frequency:    6.4886593941
  - # 11
    frequency:    6.8902149129
  - # 12
    frequency:    6.9786010216
  - # 13
    frequency:    8.0917072970
  - # 14
    frequency:   10.2488649445
  - # 15
    frequency:   11.8280918977
  - # 16
    frequency:   12.6166758178
  - # 17
    frequency:   12.6841614225
  - # 18
    frequency:   14.3563901961
  - # 19
    frequency:   14.3658278621
  - # 20
    frequency:   32.1547165767
  - # 21
    frequency:   67.9703106584

- q-position: [    0.0555556,    0.0000000,    0.0000000 ]
  distance:    0.0181768
  band:
  - # 1
    frequency:   -2.1976072916
  - # 2
    frequency:   -2.1712841867
  - # 3
    frequency:    0.1195538060
  - # 4
    frequency:    1.2024239748
  - # 5
    frequency:    1.3305865768
  - # 6
    frequency:    3.7779697615
  - # 7
    frequency:    3.8476017406
  - # 8
    frequency:    5.1604062291
  - # 9
    frequency:    6.4409953106
  - # 10
    frequency:    6.4916363768
  - # 11
    frequency:    6.8752486092
  - # 12
    frequency:    6.9815383606
  - # 13
    frequency:    8.0768127576
  - # 14
    frequency:   10.2299732703
  - # 15
    frequency:   11.8212011850
  - # 16
    frequency:   12.5946651720
  - # 17
    frequency:   12.6754314166
  - # 18
    frequency:   14.3571993065
  - # 19
    frequency:   14.3685381237
  - # 20
    frequency:   32.1437242470
  - # 21
    frequency:   67.9643878957

- q-position: [    0.0606061,    0.0000000,    0.0000000 ]
  distance:    0.0198292
  band:
  - # 1
    frequency:   -2.2213493193
  - # 2
    frequency:   -2.1943307602
  - # 3
    frequency:    0.1407189149
  - # 4
    frequency:    1.2927131766
  - # 5
    frequency:    1.4237750661
  - # 6
    frequency:    3.7682038747
  - # 7
    frequency:    3.8495664982
  - # 8
    frequency:    5.1577967209
  - # 9
    frequency:    6.4352730873
  - # 10
    frequency:    6.4944890212
  - # 11
    frequency:    6.8591674409
  - # 12
    frequency:    6.9846333534
  - # 13
    frequency:    8.0606541552
  - # 14
    frequency:   10.2094038392
  - # 15
    frequency:   11.8134945192
  - # 16
    frequency:   12.5708765328
  - # 17
    frequency:   12.6658154447
  - # 18
    frequency:   14.3580862520
  - # 19
    frequency:   14.3714774547
  - # 20
    frequency:   32.1317989207
  - # 21
    frequency:   67.9579579940

- q-position: [    0.0656566,    0.0000000,    0.0000000 ]
  distance:    0.0214816
  band:
  - # 1
    frequency:   -2.2435534580
  - # 2
    frequency:   -2.2161449776
  - # 3
    frequency:    0.1636734649
  - # 4
    frequency:    1.3802628957
  - # 5
    frequency:    1.5129501096
  - # 6
    frequency:    3.7580687807
  - # 7
    frequency:    3.8516335305
  - # 8
    frequency:    5.1550074884
  - # 9
    frequency:    6.4291012946
  - # 10
    frequency:    6.4969693158
  - # 11
    frequency:    6.8421897392
  - # 12
    frequency:    6.9878593453
  - # 13
    frequency:    8.0432725476
  - # 14
    frequency:   10.1871958041
  - # 15
    frequency:   11.8049138406
  - # 16
    frequency:   12.5454088033
  - # 17
    frequency:   12.6552998653
  - # 18
    frequency:   14.3590511047
  - # 19
    frequency:   14.3746390071
  - # 20
    frequency:   32.1189706919
  - # 21
    frequency:   67.9510359274

- q-position: [    0.0707071,    0.0000000,    0.0000000 ]
  distance:    0.0231341
  band:
  - # 1
    frequency:   -2.2640549320
  - # 2
    frequency:   -2.2364423849
  - # 3
    frequency:    0.1883944550
  - # 4
    frequency:    1.4652414906
  - # 5
    frequency:    1.5983070688
  - # 6
    frequency:    3.7476802033
  - # 7
    frequency:    3.8537805120
  - # 8
    frequency:    5.1520458927
  - # 9
    frequency:    6.4224891814
  - # 10
    frequency:    6.4987242127
  - # 11
    frequency:    6.8246358512
  - # 12
    frequency:    6.9911896747
  - # 13
    frequency:    8.0247120431
  - # 14
    frequency:   10.1633937857
  - # 15
    frequency:   11.7953897711
  - # 16
    frequency:   12.5183752032
  - # 17
    frequency:   12.6438703800
  - # 18
    frequency:   14.3600938724
  - # 19
    frequency:   14.3780157246
  - # 20
    frequency:   32.1052718551
  - # 21
    frequency:   67.9436377374

- q-position: [    0.0757576,    0.0000000,    0.0000000 ]
  distance:    0.0247865
  band:
  - # 1
    frequency:   -2.2827333349
  - # 2
    frequency:   -2.2549686574
  - # 3
    frequency:    0.2148511451
  - # 4
    frequency:    1.5478007595
  - # 5
    frequency:    1.6800168734
  - # 6
    frequency:    3.7371610473
  - # 7
    frequency:    3.8559814238
  - # 8
    frequency:    5.1489181694
  - # 9
    frequency:    6.4154461526
  - # 10
    frequency:    6.4992614592
  - # 11
    frequency:    6.8069627190
  - # 12
    frequency:    6.9945979927
  - # 13
    frequency:    8.0050196446
  - # 14
    frequency:   10.1380481067
  - # 15
    frequency:   11.7848401227
  - # 16
    frequency:   12.4899048476
  - # 17
    frequency:   12.6315121600
  - # 18
    frequency:   14.3612144779
  - # 19
    frequency:   14.3816004010
  - # 20
    frequency:   32.0907368041
  - # 21
    frequency:   67.9357804770

- q-position: [    0.0808081,    0.0000000,    0.0000000 ]
  distance:    0.0264389
  band:
  - # 1
    frequency:   -2.2995025444
  - # 2
    frequency:   -2.2714922933
  - # 3
    frequency:    0.2430050422
  - # 4
    frequency:    1.6280738488
  - # 5
    frequency:    1.7582264529
  - # 6
    frequency:    3.7266406766
  - # 7
    frequency:    3.8582061822
  - # 8
    frequency:    5.1456290445
  - # 9
    frequency:    6.4079818265
  - # 10
    frequency:    6.4979175299
  - # 11
    frequency:    6.7897965880
  - # 12
    frequency:    6.9980585462
  - # 13
    frequency:    7.9842450735
  - # 14
    frequency:   10.1112149601
  - # 15
    frequency:   11.7731684045
  - # 16
    frequency:   12.4601443863
  - # 17
    frequency:   12.6182099808
  - # 18
    frequency:   14.3624127350
  - # 19
    frequency:   14.3853857333
  - # 20
    frequency:   32.0754019232
  - # 21
    frequency:   67.9274821525

- q-position: [    0.0858586,    0.0000000,    0.0000000 ]
  distance:    0.0280914
  band:
  - # 1
    frequency:   -2.3143029471
  - # 2
    frequency:   -2.2857988055
  - # 3
    frequency:    0.2728099764
  - # 4
    frequency:    1.7061743887
  - # 5
    frequency:    1.8330602809
  - # 6
    frequency:    3.7162540199
  - # 7
    frequency:    3.8604202555
  - # 8
    frequency:    5.1421813142
  - # 9
    frequency:    6.4001061290
  - # 10
    frequency:    6.4938495352
  - # 11
    frequency:    6.7739420041
  - # 12
    frequency:    7.0015464217
  - # 13
    frequency:    7.9624405744
  - # 14
    frequency:   10.0829565023
  - # 15
    frequency:   11.7602624548
  - # 16
    frequency:   12.4292595757
  - # 17
    frequency:   12.6039483626
  - # 18
    frequency:   14.3636883230
  - # 19
    frequency:   14.3893643682
  - # 20
    frequency:   32.0593054720
  - # 21
    frequency:   67.9187616618

- q-position: [    0.0909091,    0.0000000,    0.0000000 ]
  distance:    0.0297438
  band:
  - # 1
    frequency:   -2.3270954668
  - # 2
    frequency:   -2.2976862095
  - # 3
    frequency:    0.3042123089
  - # 4
    frequency:    1.7821963198
  - # 5
    frequency:    1.9046225359
  - # 6
    frequency:    3.7061404664
  - # 7
    frequency:    3.8625842699
  - # 8
    frequency:    5.1385753841
  - # 9
    frequency:    6.3918294211
  - # 10
    frequency:    6.4860909809
  - # 11
    frequency:    6.7603272673
  - # 12
    frequency:    7.0050377503
  - # 13
    frequency:    7.9396606990
  - # 14
    frequency:   10.0533408660
  - # 15
    frequency:   11.7459934011
  - # 16
    frequency:   12.3974365749
  - # 17
    frequency:   12.5887117163
  - # 18
    frequency:   14.3650407592
  - # 19
    frequency:   14.3935289427
  - # 20
    frequency:   32.0424874638
  - # 21
    frequency:   67.9096387299

- q-position: [    0.0959596,    0.0000000,    0.0000000 ]
  distance:    0.0313962
  band:
  - # 1
    frequency:   -2.3378569747
  - # 2
    frequency:   -2.3069615911
  - # 3
    frequency:    0.3371512944
  - # 4
    frequency:    1.8562140470
  - # 5
    frequency:    1.9729996151
  - # 6
    frequency:    3.6964425082
  - # 7
    frequency:    3.8646536078
  - # 8
    frequency:    5.1348087562
  - # 9
    frequency:    6.3831626556
  - # 10
    frequency:    6.4737083681
  - # 11
    frequency:    6.7498493919
  - # 12
    frequency:    7.0085098737
  - # 13
    frequency:    7.9159620719
  - # 14
    frequency:   10.0224420854
  - # 15
    frequency:   11.7302152588
  - # 16
    frequency:   12.3648826468
  - # 17
    frequency:   12.5724844932
  - # 18
    frequency:   14.3664693708
  - # 19
    frequency:   14.3978721177
  - # 20
    frequency:   32.0249895376
  - # 21
    frequency:   67.9001338427

- q-position: [    0.1010101,    0.0000000,    0.0000000 ]
  distance:    0.0330486
  band:
  - # 1
    frequency:   -2.3465767509
  - # 2
    frequency:   -2.3134385556
  - # 3
    frequency:    0.3715596009
  - # 4
    frequency:    1.9282826744
  - # 5
    frequency:    2.0382628834
  - # 6
    frequency:    3.6873040858
  - # 7
    frequency:    3.8665780052
  - # 8
    frequency:    5.1308754581
  - # 9
    frequency:    6.3741175602
  - # 10
    frequency:    6.4560315527
  - # 11
    frequency:    6.7431456941
  - # 12
    frequency:    7.0119414717
  - # 13
    frequency:    7.8914031355
  - # 14
    frequency:    9.9903399332
  - # 15
    frequency:   11.7127655999
  - # 16
    frequency:   12.3318258218
  - # 17
    frequency:   12.5552513372
  - # 18
    frequency:   14.3679732658
  - # 19
    frequency:   14.4023866057
  - # 20
    frequency:   32.0068548249
  - # 21
    frequency:   67.8902681781

- q-position: [    0.1060606,    0.0000000,    0.0000000 ]
  distance:    0.0347011
  band:
  - # 1
    frequency:   -2.3532537444
  - # 2
    frequency:   -2.3169353871
  - # 3
    frequency:    0.4073639860
  - # 4
    frequency:    1.9984381482
  - # 5
    frequency:    2.1004716155
  - # 6
    frequency:    3.6788685945
  - # 7
    frequency:    3.8683011575
  - # 8
    frequency:    5.1267653963
  - # 9
    frequency:    6.3647068401
  - # 10
    frequency:    6.4328307152
  - # 11
    frequency:    6.7404192019
  - # 12
    frequency:    7.0153126538
  - # 13
    frequency:    7.8660438798
  - # 14
    frequency:    9.9571196634
  - # 15
    frequency:   11.6934678420
  - # 16
    frequency:   12.2985129630
  - # 17
    frequency:   12.5369972389
  - # 18
    frequency:   14.3695513047
  - # 19
    frequency:   14.4070651928
  - # 20
    frequency:   31.9881278107
  - # 21
    frequency:   67.8800635353

- q-position: [    0.1111111,    0.0000000,    0.0000000 ]
  distance:    0.0363535
  band:
  - # 1
    frequency:   -2.3578944406
  - # 2
    frequency:   -2.3172737787
  - # 3
    frequency:    0.4444861169
  - # 4
    frequency:    2.0666971803
  - # 5
    frequency:    2.1596761378
  - # 6
    frequency:    3.6712765186
  - # 7
    frequency:    3.8697603526
  - # 8
    frequency:    5.1224636223
  - # 9
    frequency:    6.3549443975
  - # 10
    frequency:    6.4043152829
  - # 11
    frequency:    6.7414425861
  - # 12
    frequency:    7.0186050153
  - # 13
    frequency:    7.8399455541
  - # 14
    frequency:    9.9228716615
  - # 15
    frequency:   11.6721357558
  - # 16
    frequency:   12.2652056223
  - # 17
    frequency:   12.5177076889
  - # 18
    frequency:   14.3712020726
  - # 19
    frequency:   14.4119007548
  - # 20
    frequency:   31.9688541897
  - # 21
    frequency:   67.8695422634

- q-position: [    0.1161616,    0.0000000,    0.0000000 ]
  distance:    0.0380059
  band:
  - # 1
    frequency:   -2.3605111943
  - # 2
    frequency:   -2.3142780191
  - # 3
    frequency:    0.4828435199
  - # 4
    frequency:    2.1330568456
  - # 5
    frequency:    2.2159211808
  - # 6
    frequency:    3.6646626763
  - # 7
    frequency:    3.8708861603
  - # 8
    frequency:    5.1179494888
  - # 9
    frequency:    6.3448455617
  - # 10
    frequency:    6.3709778712
  - # 11
    frequency:    6.7457175927
  - # 12
    frequency:    7.0218016607
  - # 13
    frequency:    7.8131703692
  - # 14
    frequency:    9.8876909990
  - # 15
    frequency:   11.6485806932
  - # 16
    frequency:   12.2321731687
  - # 17
    frequency:   12.4973688297
  - # 18
    frequency:   14.3729238530
  - # 19
    frequency:   14.4168862695
  - # 20
    frequency:   31.9490807181
  - # 21
    frequency:   67.8587271878

- q-position: [    0.1212121,    0.0000000,    0.0000000 ]
  distance:    0.0396584
  band:
  - # 1
    frequency:   -2.3611209249
  - # 2
    frequency:   -2.3077745504
  - # 3
    frequency:    0.5223506418
  - # 4
    frequency:    2.1974937529
  - # 5
    frequency:    2.2692494422
  - # 6
    frequency:    3.6591530923
  - # 7
    frequency:    3.8716022250
  - # 8
    frequency:    5.1131956772
  - # 9
    frequency:    6.3334137739
  - # 10
    frequency:    6.3344273245
  - # 11
    frequency:    6.7526594868
  - # 12
    frequency:    7.0248871963
  - # 13
    frequency:    7.7857811898
  - # 14
    frequency:    9.8516768928
  - # 15
    frequency:   11.6226217050
  - # 16
    frequency:   12.1996830107
  - # 17
    frequency:   12.4759676046
  - # 18
    frequency:   14.3747146053
  - # 19
    frequency:   14.4220148240
  - # 20
    frequency:   31.9288550619
  - # 21
    frequency:   67.8476415363

- q-position: [    0.1262626,    0.0000000,    0.0000000 ]
  distance:    0.0413108
  band:
  - # 1
    frequency:   -2.3597440959
  - # 2
    frequency:   -2.2975918271
  - # 3
    frequency:    0.5629200036
  - # 4
    frequency:    2.2599626813
  - # 5
    frequency:    2.3197053257
  - # 6
    frequency:    3.6548615542
  - # 7
    frequency:    3.8718252290
  - # 8
    frequency:    5.1081670728
  - # 9
    frequency:    6.2922060279
  - # 10
    frequency:    6.3237085752
  - # 11
    frequency:    6.7617165211
  - # 12
    frequency:    7.0278476943
  - # 13
    frequency:    7.7578412283
  - # 14
    frequency:    9.8149320715
  - # 15
    frequency:   11.5940980889
  - # 16
    frequency:   12.1679883556
  - # 17
    frequency:   12.4534919025
  - # 18
    frequency:   14.3765719438
  - # 19
    frequency:   14.4272796196
  - # 20
    frequency:   31.9082256406
  - # 21
    frequency:   67.8363088646

- q-position: [    0.1313131,    0.0000000,    0.0000000 ]
  distance:    0.0429632
  band:
  - # 1
    frequency:   -2.3564039259
  - # 2
    frequency:   -2.2835604358
  - # 3
    frequency:    0.6044634282
  - # 4
    frequency:    2.3203945589
  - # 5
    frequency:    2.3673387661
  - # 6
    frequency:    3.6518859691
  - # 7
    frequency:    3.8714651325
  - # 8
    frequency:    5.1028194691
  - # 9
    frequency:    6.2478827653
  - # 10
    frequency:    6.3127103300
  - # 11
    frequency:    6.7724177372
  - # 12
    frequency:    7.0306706313
  - # 13
    frequency:    7.7294137471
  - # 14
    frequency:    9.7775620486
  - # 15
    frequency:   11.5628830826
  - # 16
    frequency:   12.1373147820
  - # 17
    frequency:   12.4299306972
  - # 18
    frequency:   14.3784931223
  - # 19
    frequency:   14.4326739738
  - # 20
    frequency:   31.8872414697
  - # 21
    frequency:   67.8247529811

- q-position: [    0.1363636,    0.0000000,    0.0000000 ]
  distance:    0.0446157
  band:
  - # 1
    frequency:   -2.3511257884
  - # 2
    frequency:   -2.2655134454
  - # 3
    frequency:    0.6468933235
  - # 4
    frequency:    2.3786936282
  - # 5
    frequency:    2.4122089888
  - # 6
    frequency:    3.6503047025
  - # 7
    frequency:    3.8704258399
  - # 8
    frequency:    5.0970980928
  - # 9
    frequency:    6.2009178225
  - # 10
    frequency:    6.3014559480
  - # 11
    frequency:    6.7843781253
  - # 12
    frequency:    7.0333448037
  - # 13
    frequency:    7.7005617840
  - # 14
    frequency:    9.7396743076
  - # 15
    frequency:   11.5288966441
  - # 16
    frequency:   12.1078476712
  - # 17
    frequency:   12.4052741793
  - # 18
    frequency:   14.3804750232
  - # 19
    frequency:   14.4381913207
  - # 20
    frequency:   31.8659519992
  - # 21
    frequency:   67.8129978724

- q-position: [    0.1414141,    0.0000000,    0.0000000 ]
  distance:    0.0462681
  band:
  - # 1
    frequency:   -2.3439367748
  - # 2
    frequency:   -2.2432869879
  - # 3
    frequency:    0.6901240015
  - # 4
    frequency:    2.4347336136
  - # 5
    frequency:    2.4543879843
  - # 6
    frequency:    3.6501731477
  - # 7
    frequency:    3.8686065062
  - # 8
    frequency:    5.0909359635
  - # 9
    frequency:    6.1517488425
  - # 10
    frequency:    6.2899713275
  - # 11
    frequency:    6.7972868502
  - # 12
    frequency:    7.0358602226
  - # 13
    frequency:    7.6713479183
  - # 14
    frequency:    9.7013774026
  - # 15
    frequency:   11.4921149455
  - # 16
    frequency:   12.0797228626
  - # 17
    frequency:   12.3795138819
  - # 18
    frequency:   14.3825141507
  - # 19
    frequency:   14.4438252096
  - # 20
    frequency:   31.8444069515
  - # 21
    frequency:   67.8010676285

- q-position: [    0.1464646,    0.0000000,    0.0000000 ]
  distance:    0.0479205
  band:
  - # 1
    frequency:   -2.3348653982
  - # 2
    frequency:   -2.2167210909
  - # 3
    frequency:    0.7340730137
  - # 4
    frequency:    2.4883526580
  - # 5
    frequency:    2.4939634259
  - # 6
    frequency:    3.6515208285
  - # 7
    frequency:    3.8659037847
  - # 8
    frequency:    5.0842521473
  - # 9
    frequency:    6.1007991297
  - # 10
    frequency:    6.2782850759
  - # 11
    frequency:    6.8108921399
  - # 12
    frequency:    7.0382079918
  - # 13
    frequency:    7.6418341014
  - # 14
    frequency:    9.6627799853
  - # 15
    frequency:   11.4525746465
  - # 16
    frequency:   12.0530224621
  - # 17
    frequency:   12.3526427971
  - # 18
    frequency:   14.3846066318
  - # 19
    frequency:   14.4495693042
  - # 20
    frequency:   31.8226561581
  - # 21
    frequency:   67.7889863688

- q-position: [    0.1515152,    0.0000000,    0.0000000 ]
  distance:    0.0495730
  band:
  - # 1
    frequency:   -2.3239414249
  - # 2
    frequency:   -2.1856608201
  - # 3
    frequency:    0.7786624788
  - # 4
    frequency:    2.5310407321
  - # 5
    frequency:    2.5393467621
  - # 6
    frequency:    3.6543493595
  - # 7
    frequency:    3.8622154193
  - # 8
    frequency:    5.0769500465
  - # 9
    frequency:    6.0484977869
  - # 10
    frequency:    6.2664286435
  - # 11
    frequency:    6.8249880214
  - # 12
    frequency:    7.0403801717
  - # 13
    frequency:    7.6120815821
  - # 14
    frequency:    9.6239897664
  - # 15
    frequency:   11.4103711675
  - # 16
    frequency:   12.0277765760
  - # 17
    frequency:   12.3246554842
  - # 18
    frequency:   14.3867482217
  - # 19
    frequency:   14.4554173805
  - # 20
    frequency:   31.8007493953
  - # 21
    frequency:   67.7767781691
