nqpoint: 300    
npath: 3      
segment_nqpoint:
- 100
- 100
- 100
labels:
- [ 'G', 'M' ]
- [ 'M', 'K' ]
- [ 'K', 'G' ]
reciprocal_lattice:
- [   0.31909377,   0.18422887,   0.00000000 ] # a*
- [   0.00000000,   0.36845775,   0.00000000 ] # b*
- [   0.00000000,   0.00000000,   0.03932099 ] # c*
natom: 7      
lattice:
- [     3.133875046945051,     0.000000000000000,     0.000000000000000 ] # a
- [    -1.566937523472525,     2.714015402931945,     0.000000000000000 ] # b
- [     0.000000000000000,     0.000000000000000,    25.431708310376095 ] # c
points:
- symbol: C # 1
  coordinates: [  0.000000000000000,  0.000000000000000,  0.440574562319534 ]
  mass: 12.010700
- symbol: C # 2
  coordinates: [  0.333332985432215,  0.666666983183674,  0.585254544456906 ]
  mass: 12.010700
- symbol: N # 3
  coordinates: [  0.333332985432215,  0.666666983183674,  0.535705725353125 ]
  mass: 14.006700
- symbol: O # 4
  coordinates: [  0.666666984744047,  0.333332985985145,  0.353888928347295 ]
  mass: 15.999400
- symbol: S # 5
  coordinates: [  0.333332985432215,  0.666666983183674,  0.646111071652705 ]
  mass: 32.065000
- symbol: Ti # 6
  coordinates: [  0.333332985432215,  0.666666983183674,  0.388807449647877 ]
  mass: 47.867000
- symbol: Ti # 7
  coordinates: [  0.666666984744047,  0.333332985985145,  0.486138670800818 ]
  mass: 47.867000

phonon:
- q-position: [    0.0000000,    0.0000000,    0.0000000 ]
  distance:    0.0000000
  band:
  - # 1
    frequency:   -3.9345861281
  - # 2
    frequency:   -3.9345861280
  - # 3
    frequency:   -0.5032319835
  - # 4
    frequency:   -0.5032319831
  - # 5
    frequency:   -0.0000208443
  - # 6
    frequency:   -0.0000005437
  - # 7
    frequency:    0.0000189939
  - # 8
    frequency:    5.8268742066
  - # 9
    frequency:    5.8268742066
  - # 10
    frequency:    6.3032400343
  - # 11
    frequency:    8.1712872321
  - # 12
    frequency:    8.1712872321
  - # 13
    frequency:   10.4339543935
  - # 14
    frequency:   12.9804719866
  - # 15
    frequency:   12.9804719867
  - # 16
    frequency:   15.4009118783
  - # 17
    frequency:   15.4009118783
  - # 18
    frequency:   16.0680980666
  - # 19
    frequency:   19.8337141105
  - # 20
    frequency:   27.1197646295
  - # 21
    frequency:   55.7828464878

- q-position: [    0.0050505,    0.0000000,    0.0000000 ]
  distance:    0.0018609
  band:
  - # 1
    frequency:   -3.9334895018
  - # 2
    frequency:   -3.9286482982
  - # 3
    frequency:   -0.4971307258
  - # 4
    frequency:   -0.4888632534
  - # 5
    frequency:    0.0039937453
  - # 6
    frequency:    0.0685727605
  - # 7
    frequency:    0.1107122538
  - # 8
    frequency:    5.8274393581
  - # 9
    frequency:    5.8278227520
  - # 10
    frequency:    6.3035120935
  - # 11
    frequency:    8.1710068918
  - # 12
    frequency:    8.1714978273
  - # 13
    frequency:   10.4331358582
  - # 14
    frequency:   12.9807584368
  - # 15
    frequency:   12.9809759334
  - # 16
    frequency:   15.4005303833
  - # 17
    frequency:   15.4008304499
  - # 18
    frequency:   16.0671498176
  - # 19
    frequency:   19.8319625271
  - # 20
    frequency:   27.1195208812
  - # 21
    frequency:   55.7820268902

- q-position: [    0.0101010,    0.0000000,    0.0000000 ]
  distance:    0.0037218
  band:
  - # 1
    frequency:   -3.9302361212
  - # 2
    frequency:   -3.9108355985
  - # 3
    frequency:   -0.4783607221
  - # 4
    frequency:   -0.4432291660
  - # 5
    frequency:    0.0170595014
  - # 6
    frequency:    0.1376336889
  - # 7
    frequency:    0.2218123312
  - # 8
    frequency:    5.8291216156
  - # 9
    frequency:    5.8306759645
  - # 10
    frequency:    6.3043368080
  - # 11
    frequency:    8.1701667024
  - # 12
    frequency:    8.1721303591
  - # 13
    frequency:   10.4306825906
  - # 14
    frequency:   12.9816169414
  - # 15
    frequency:   12.9824870114
  - # 16
    frequency:   15.3993884712
  - # 17
    frequency:   15.4005846917
  - # 18
    frequency:   16.0643089802
  - # 19
    frequency:   19.8267158040
  - # 20
    frequency:   27.1187902592
  - # 21
    frequency:   55.7795695374

- q-position: [    0.0151515,    0.0000000,    0.0000000 ]
  distance:    0.0055827
  band:
  - # 1
    frequency:   -3.9249352180
  - # 2
    frequency:   -3.8811511724
  - # 3
    frequency:   -0.4453353894
  - # 4
    frequency:   -0.3562045616
  - # 5
    frequency:    0.0450504535
  - # 6
    frequency:    0.2077036873
  - # 7
    frequency:    0.3337239539
  - # 8
    frequency:    5.8318822458
  - # 9
    frequency:    5.8354565576
  - # 10
    frequency:    6.3057391253
  - # 11
    frequency:    8.1687691758
  - # 12
    frequency:    8.1731870756
  - # 13
    frequency:   10.4266016057
  - # 14
    frequency:   12.9830449671
  - # 15
    frequency:   12.9850029326
  - # 16
    frequency:   15.3974938407
  - # 17
    frequency:   15.4001701309
  - # 18
    frequency:   16.0595873527
  - # 19
    frequency:   19.8179980051
  - # 20
    frequency:   27.1175746298
  - # 21
    frequency:   55.7754787460

- q-position: [    0.0202020,    0.0000000,    0.0000000 ]
  distance:    0.0074436
  band:
  - # 1
    frequency:   -3.9177679099
  - # 2
    frequency:   -3.8396029703
  - # 3
    frequency:   -0.3945617696
  - # 4
    frequency:   -0.2036734630
  - # 5
    frequency:    0.1275177585
  - # 6
    frequency:    0.2793771285
  - # 7
    frequency:    0.4469475111
  - # 8
    frequency:    5.8356595363
  - # 9
    frequency:    5.8422023300
  - # 10
    frequency:    6.3077584189
  - # 11
    frequency:    8.1668185537
  - # 12
    frequency:    8.1746717587
  - # 13
    frequency:   10.4209045939
  - # 14
    frequency:   12.9850383083
  - # 15
    frequency:   12.9885198818
  - # 16
    frequency:   15.3948592561
  - # 17
    frequency:   15.3995791316
  - # 18
    frequency:   16.0530048304
  - # 19
    frequency:   19.8058491742
  - # 20
    frequency:   27.1158770980
  - # 21
    frequency:   55.7697616967

- q-position: [    0.0252525,    0.0000000,    0.0000000 ]
  distance:    0.0093045
  band:
  - # 1
    frequency:   -3.9089856019
  - # 2
    frequency:   -3.7862082846
  - # 3
    frequency:   -0.3179134718
  - # 4
    frequency:   -0.1038242140
  - # 5
    frequency:    0.3361900214
  - # 6
    frequency:    0.3533764092
  - # 7
    frequency:    0.5620983100
  - # 8
    frequency:    5.8403729984
  - # 9
    frequency:    5.8509660672
  - # 10
    frequency:    6.3104452121
  - # 11
    frequency:    8.1643208930
  - # 12
    frequency:    8.1765897702
  - # 13
    frequency:   10.4136079195
  - # 14
    frequency:   12.9875911109
  - # 15
    frequency:   12.9930325139
  - # 16
    frequency:   15.3915024480
  - # 17
    frequency:   15.3988006119
  - # 18
    frequency:   16.0445897634
  - # 19
    frequency:   19.7903252392
  - # 20
    frequency:   27.1137019993
  - # 21
    frequency:   55.7624284153

- q-position: [    0.0303030,    0.0000000,    0.0000000 ]
  distance:    0.0111654
  band:
  - # 1
    frequency:   -3.8989073809
  - # 2
    frequency:   -3.7210011084
  - # 3
    frequency:   -0.1868418983
  - # 4
    frequency:   -0.0749101575
  - # 5
    frequency:    0.4306145612
  - # 6
    frequency:    0.5120425195
  - # 7
    frequency:    0.6798953219
  - # 8
    frequency:    5.8459291005
  - # 9
    frequency:    5.8618153755
  - # 10
    frequency:    6.3138566905
  - # 11
    frequency:    8.1612841852
  - # 12
    frequency:    8.1789481079
  - # 13
    frequency:   10.4047326189
  - # 14
    frequency:   12.9906959062
  - # 15
    frequency:   12.9985339507
  - # 16
    frequency:   15.3874459741
  - # 17
    frequency:   15.3978196242
  - # 18
    frequency:   16.0343794742
  - # 19
    frequency:   19.7714978731
  - # 20
    frequency:   27.1110548880
  - # 21
    frequency:   55.7534917450

- q-position: [    0.0353535,    0.0000000,    0.0000000 ]
  distance:    0.0130263
  band:
  - # 1
    frequency:   -3.8879160961
  - # 2
    frequency:   -3.6440434989
  - # 3
    frequency:   -0.0339455160
  - # 4
    frequency:    0.2049072525
  - # 5
    frequency:    0.5122240851
  - # 6
    frequency:    0.6614609286
  - # 7
    frequency:    0.8009914585
  - # 8
    frequency:    5.8522283110
  - # 9
    frequency:    5.8748324183
  - # 10
    frequency:    6.3180511715
  - # 11
    frequency:    8.1577185132
  - # 12
    frequency:    8.1817554606
  - # 13
    frequency:   10.3943043996
  - # 14
    frequency:   12.9943436543
  - # 15
    frequency:   13.0050157760
  - # 16
    frequency:   15.3827170421
  - # 17
    frequency:   15.3966167770
  - # 18
    frequency:   16.0224209567
  - # 19
    frequency:   19.7494543085
  - # 20
    frequency:   27.1079425221
  - # 21
    frequency:   55.7429673111

- q-position: [    0.0404040,    0.0000000,    0.0000000 ]
  distance:    0.0148872
  band:
  - # 1
    frequency:   -3.8764528242
  - # 2
    frequency:   -3.5554427103
  - # 3
    frequency:    0.0721473564
  - # 4
    frequency:    0.3582974186
  - # 5
    frequency:    0.5994533195
  - # 6
    frequency:    0.7970424687
  - # 7
    frequency:    0.9256061641
  - # 8
    frequency:    5.8591731003
  - # 9
    frequency:    5.8901135128
  - # 10
    frequency:    6.3230818353
  - # 11
    frequency:    8.1536362474
  - # 12
    frequency:    8.1850222505
  - # 13
    frequency:   10.3823536397
  - # 14
    frequency:   12.9985237969
  - # 15
    frequency:   13.0124680317
  - # 16
    frequency:   15.3773472951
  - # 17
    frequency:   15.3951674642
  - # 18
    frequency:   16.0087717816
  - # 19
    frequency:   19.7242970977
  - # 20
    frequency:   27.1043728455
  - # 21
    frequency:   55.7308734789

- q-position: [    0.0454545,    0.0000000,    0.0000000 ]
  distance:    0.0167481
  band:
  - # 1
    frequency:   -3.8650094853
  - # 2
    frequency:   -3.4553765954
  - # 3
    frequency:    0.1208382996
  - # 4
    frequency:    0.4721190370
  - # 5
    frequency:    0.6933707515
  - # 6
    frequency:    0.9242657426
  - # 7
    frequency:    1.0532896861
  - # 8
    frequency:    5.8666763881
  - # 9
    frequency:    5.9077685278
  - # 10
    frequency:    6.3289901739
  - # 11
    frequency:    8.1490522842
  - # 12
    frequency:    8.1887606482
  - # 13
    frequency:   10.3689153901
  - # 14
    frequency:   13.0032243186
  - # 15
    frequency:   13.0208792119
  - # 16
    frequency:   15.3713725603
  - # 17
    frequency:   15.3934408637
  - # 18
    frequency:   15.9935012419
  - # 19
    frequency:   19.6961438153
  - # 20
    frequency:   27.1003549664
  - # 21
    frequency:   55.7172313030

- q-position: [    0.0505051,    0.0000000,    0.0000000 ]
  distance:    0.0186090
  band:
  - # 1
    frequency:   -3.8541195300
  - # 2
    frequency:   -3.3441305820
  - # 3
    frequency:    0.1672633060
  - # 4
    frequency:    0.5697943799
  - # 5
    frequency:    0.7946003152
  - # 6
    frequency:    1.0463431463
  - # 7
    frequency:    1.1831893286
  - # 8
    frequency:    5.8746697787
  - # 9
    frequency:    5.9279200101
  - # 10
    frequency:    6.3357997699
  - # 11
    frequency:    8.1439843306
  - # 12
    frequency:    8.1929845432
  - # 13
    frequency:   10.3540293793
  - # 14
    frequency:   13.0084318178
  - # 15
    frequency:   13.0302362579
  - # 16
    frequency:   15.3648325635
  - # 17
    frequency:   15.3913986552
  - # 18
    frequency:   15.9766917791
  - # 19
    frequency:   19.6651266934
  - # 20
    frequency:   27.0958991329
  - # 21
    frequency:   55.7020644705

- q-position: [    0.0555556,    0.0000000,    0.0000000 ]
  distance:    0.0204699
  band:
  - # 1
    frequency:   -3.8443468278
  - # 2
    frequency:   -3.2221500605
  - # 3
    frequency:    0.2150312998
  - # 4
    frequency:    0.6584748852
  - # 5
    frequency:    0.9034405820
  - # 6
    frequency:    1.1652924243
  - # 7
    frequency:    1.3144987570
  - # 8
    frequency:    5.8831108419
  - # 9
    frequency:    5.9507019417
  - # 10
    frequency:    6.3435111034
  - # 11
    frequency:    8.1384532424
  - # 12
    frequency:    8.1977094510
  - # 13
    frequency:   10.3377400226
  - # 14
    frequency:   13.0141315849
  - # 15
    frequency:   13.0405245524
  - # 16
    frequency:   15.3577706108
  - # 17
    frequency:   15.3889934044
  - # 18
    frequency:   15.9584407366
  - # 19
    frequency:   19.6313921830
  - # 20
    frequency:   27.0910167050
  - # 21
    frequency:   55.6853992363

- q-position: [    0.0606061,    0.0000000,    0.0000000 ]
  distance:    0.0223308
  band:
  - # 1
    frequency:   -3.8362731467
  - # 2
    frequency:   -3.0901113667
  - # 3
    frequency:    0.2651333786
  - # 4
    frequency:    0.7416631745
  - # 5
    frequency:    1.0202382325
  - # 6
    frequency:    1.2823092675
  - # 7
    frequency:    1.4466413308
  - # 8
    frequency:    5.8919887174
  - # 9
    frequency:    5.9762580106
  - # 10
    frequency:    6.3520980761
  - # 11
    frequency:    8.1324834214
  - # 12
    frequency:    8.2029523362
  - # 13
    frequency:   10.3200964376
  - # 14
    frequency:   13.0203076893
  - # 15
    frequency:   13.0517279133
  - # 16
    frequency:   15.3502332399
  - # 17
    frequency:   15.3861665542
  - # 18
    frequency:   15.9388624877
  - # 19
    frequency:   19.5951004332
  - # 20
    frequency:   27.0857201245
  - # 21
    frequency:   55.6672643522

- q-position: [    0.0656566,    0.0000000,    0.0000000 ]
  distance:    0.0241917
  band:
  - # 1
    frequency:   -3.8304848547
  - # 2
    frequency:   -2.9490107325
  - # 3
    frequency:    0.3179063470
  - # 4
    frequency:    0.8213015907
  - # 5
    frequency:    1.1455934417
  - # 6
    frequency:    1.3980553803
  - # 7
    frequency:    1.5792245013
  - # 8
    frequency:    5.9013274680
  - # 9
    frequency:    6.0047392551
  - # 10
    frequency:    6.3615067957
  - # 11
    frequency:    8.1261032838
  - # 12
    frequency:    8.2087313305
  - # 13
    frequency:   10.3011524668
  - # 14
    frequency:   13.0269430720
  - # 15
    frequency:   13.0638285876
  - # 16
    frequency:   15.3422698430
  - # 17
    frequency:   15.3828459776
  - # 18
    frequency:   15.9180909751
  - # 19
    frequency:   19.5564246810
  - # 20
    frequency:   27.0800228802
  - # 21
    frequency:   55.6476909888

- q-position: [    0.0707071,    0.0000000,    0.0000000 ]
  distance:    0.0260526
  band:
  - # 1
    frequency:   -3.8275596492
  - # 2
    frequency:   -2.8002602533
  - # 3
    frequency:    0.3734488529
  - # 4
    frequency:    0.8984787681
  - # 5
    frequency:    1.2802830372
  - # 6
    frequency:    1.5128743869
  - # 7
    frequency:    1.7119458287
  - # 8
    frequency:    5.9111868704
  - # 9
    frequency:    6.0363009188
  - # 10
    frequency:    6.3716569116
  - # 11
    frequency:    8.1193458127
  - # 12
    frequency:    8.2150653238
  - # 13
    frequency:   10.2809667107
  - # 14
    frequency:   13.0340196453
  - # 15
    frequency:   13.0768072438
  - # 16
    frequency:   15.3339322662
  - # 17
    frequency:   15.3789430731
  - # 18
    frequency:   15.8962826698
  - # 19
    frequency:   19.5155505421
  - # 20
    frequency:   27.0739394716
  - # 21
    frequency:   55.6267126520

- q-position: [    0.0757576,    0.0000000,    0.0000000 ]
  distance:    0.0279135
  band:
  - # 1
    frequency:   -3.8280541674
  - # 2
    frequency:   -2.6457595859
  - # 3
    frequency:    0.4317564189
  - # 4
    frequency:    0.9737971021
  - # 5
    frequency:    1.4250108787
  - # 6
    frequency:    1.6269289185
  - # 7
    frequency:    1.8445257731
  - # 8
    frequency:    5.9216606398
  - # 9
    frequency:    6.0710983426
  - # 10
    frequency:    6.3824454749
  - # 11
    frequency:    8.1122492127
  - # 12
    frequency:    8.2219734085
  - # 13
    frequency:   10.2596025733
  - # 14
    frequency:   13.0415183970
  - # 15
    frequency:   13.0906429641
  - # 16
    frequency:   15.3252743867
  - # 17
    frequency:   15.3743494572
  - # 18
    frequency:   15.8736198851
  - # 19
    frequency:   19.4726751984
  - # 20
    frequency:   27.0674853687
  - # 21
    frequency:   55.6043650921

- q-position: [    0.0808081,    0.0000000,    0.0000000 ]
  distance:    0.0297744
  band:
  - # 1
    frequency:   -3.8324932310
  - # 2
    frequency:   -2.4878839127
  - # 3
    frequency:    0.4927760504
  - # 4
    frequency:    1.0475852855
  - # 5
    frequency:    1.5800767428
  - # 6
    frequency:    1.7402808201
  - # 7
    frequency:    1.9766728965
  - # 8
    frequency:    5.9328723719
  - # 9
    frequency:    6.1092817197
  - # 10
    frequency:    6.3937530101
  - # 11
    frequency:    8.1048576929
  - # 12
    frequency:    8.2294741599
  - # 13
    frequency:   10.2371283230
  - # 14
    frequency:   13.0494194974
  - # 15
    frequency:   13.1053132345
  - # 16
    frequency:   15.3163516741
  - # 17
    frequency:   15.3689334421
  - # 18
    frequency:   15.8503142462
  - # 19
    frequency:   19.4280064737
  - # 20
    frequency:   27.0606769685
  - # 21
    frequency:   55.5806862083

- q-position: [    0.0858586,    0.0000000,    0.0000000 ]
  distance:    0.0316353
  band:
  - # 1
    frequency:   -3.8413612329
  - # 2
    frequency:   -2.3293118645
  - # 3
    frequency:    0.5564315235
  - # 4
    frequency:    1.1200198519
  - # 5
    frequency:    1.7450347678
  - # 6
    frequency:    1.8529368454
  - # 7
    frequency:    2.1080710737
  - # 8
    frequency:    5.9449696662
  - # 9
    frequency:    6.1509895622
  - # 10
    frequency:    6.4054512860
  - # 11
    frequency:    8.0972224083
  - # 12
    frequency:    8.2375847422
  - # 13
    frequency:   10.2136171731
  - # 14
    frequency:   13.0577024096
  - # 15
    frequency:   13.1207939334
  - # 16
    frequency:   15.3072207389
  - # 17
    frequency:   15.3625367269
  - # 18
    frequency:   15.8266098806
  - # 19
    frequency:   19.3817617952
  - # 20
    frequency:   27.0535315493
  - # 21
    frequency:   55.5557159478

- q-position: [    0.0909091,    0.0000000,    0.0000000 ]
  distance:    0.0334962
  band:
  - # 1
    frequency:   -3.8550958500
  - # 2
    frequency:   -2.1726513540
  - # 3
    frequency:    0.6226360832
  - # 4
    frequency:    1.1911932740
  - # 5
    frequency:    1.9184561421
  - # 6
    frequency:    1.9648745152
  - # 7
    frequency:    2.2383794030
  - # 8
    frequency:    5.9581169444
  - # 9
    frequency:    6.1963407830
  - # 10
    frequency:    6.4174122034
  - # 11
    frequency:    8.0894026077
  - # 12
    frequency:    8.2463198340
  - # 13
    frequency:   10.1891473871
  - # 14
    frequency:   13.0663459989
  - # 15
    frequency:   13.1370593182
  - # 16
    frequency:   15.2979388736
  - # 17
    frequency:   15.3549720990
  - # 18
    frequency:   15.8027855208
  - # 19
    frequency:   19.3341670352
  - # 20
    frequency:   27.0460672212
  - # 21
    frequency:   55.5294961988

- q-position: [    0.0959596,    0.0000000,    0.0000000 ]
  distance:    0.0353571
  band:
  - # 1
    frequency:   -3.8740839278
  - # 2
    frequency:   -2.0199298120
  - # 3
    frequency:    0.6912990182
  - # 4
    frequency:    1.2611516577
  - # 5
    frequency:    2.0760566359
  - # 6
    frequency:    2.0979377716
  - # 7
    frequency:    2.3672387179
  - # 8
    frequency:    5.9724873988
  - # 9
    frequency:    6.2454253873
  - # 10
    frequency:    6.4295172726
  - # 11
    frequency:    8.0814670447
  - # 12
    frequency:    8.2556903811
  - # 13
    frequency:   10.1638024126
  - # 14
    frequency:   13.0753286410
  - # 15
    frequency:   13.1540820092
  - # 16
    frequency:   15.2885635926
  - # 17
    frequency:   15.3460234455
  - # 18
    frequency:   15.7791542187
  - # 19
    frequency:   19.2854552361
  - # 20
    frequency:   27.0383028737
  - # 21
    frequency:   55.5020706800

- q-position: [    0.1010101,    0.0000000,    0.0000000 ]
  distance:    0.0372180
  band:
  - # 1
    frequency:   -3.8986591108
  - # 2
    frequency:   -1.8721346966
  - # 3
    frequency:    0.7623289567
  - # 4
    frequency:    1.3299154958
  - # 5
    frequency:    2.1864392779
  - # 6
    frequency:    2.2804145796
  - # 7
    frequency:    2.4942809832
  - # 8
    frequency:    5.9882543364
  - # 9
    frequency:    6.2982938996
  - # 10
    frequency:    6.4416672893
  - # 11
    frequency:    8.0734957344
  - # 12
    frequency:    8.2657021924
  - # 13
    frequency:   10.1376710524
  - # 14
    frequency:   13.0846283275
  - # 15
    frequency:   13.1718329709
  - # 16
    frequency:   15.2791521756
  - # 17
    frequency:   15.3354498894
  - # 18
    frequency:   15.7560588508
  - # 19
    frequency:   19.2358652153
  - # 20
    frequency:   27.0302581205
  - # 21
    frequency:   55.4734848250

- q-position: [    0.1060606,    0.0000000,    0.0000000 ]
  distance:    0.0390789
  band:
  - # 1
    frequency:   -3.9291006397
  - # 2
    frequency:   -1.7289886982
  - # 3
    frequency:    0.8356352786
  - # 4
    frequency:    1.3974910882
  - # 5
    frequency:    2.2959759570
  - # 6
    frequency:    2.4626610596
  - # 7
    frequency:    2.6191393917
  - # 8
    frequency:    6.0055819733
  - # 9
    frequency:    6.3549458174
  - # 10
    frequency:    6.4537920031
  - # 11
    frequency:    8.0655821631
  - # 12
    frequency:    8.2763544098
  - # 13
    frequency:   10.1108476790
  - # 14
    frequency:   13.0942227637
  - # 15
    frequency:   13.1902814901
  - # 16
    frequency:   15.2697612220
  - # 17
    frequency:   15.3229960994
  - # 18
    frequency:   15.7338613667
  - # 19
    frequency:   19.1856400590
  - # 20
    frequency:   27.0219532401
  - # 21
    frequency:   55.4437856633

- q-position: [    0.1111111,    0.0000000,    0.0000000 ]
  distance:    0.0409397
  band:
  - # 1
    frequency:   -3.9656327093
  - # 2
    frequency:   -1.5889880259
  - # 3
    frequency:    0.9111284078
  - # 4
    frequency:    1.4638768577
  - # 5
    frequency:    2.4046196100
  - # 6
    frequency:    2.6417636895
  - # 7
    frequency:    2.7414579728
  - # 8
    frequency:    6.0246155151
  - # 9
    frequency:    6.4153175469
  - # 10
    frequency:    6.4658597670
  - # 11
    frequency:    8.0578360976
  - # 12
    frequency:    8.2876378950
  - # 13
    frequency:   10.0834325025
  - # 14
    frequency:   13.1040894613
  - # 15
    frequency:   13.2093951522
  - # 16
    frequency:   15.2604462215
  - # 17
    frequency:   15.3084102309
  - # 18
    frequency:   15.7129243305
  - # 19
    frequency:   19.1350255074
  - # 20
    frequency:   27.0134091149
  - # 21
    frequency:   55.4130216974

- q-position: [    0.1161616,    0.0000000,    0.0000000 ]
  distance:    0.0428006
  band:
  - # 1
    frequency:   -4.0084238758
  - # 2
    frequency:   -1.4495571373
  - # 3
    frequency:    0.9887194436
  - # 4
    frequency:    1.5290668901
  - # 5
    frequency:    2.5123232978
  - # 6
    frequency:    2.8154055930
  - # 7
    frequency:    2.8609001848
  - # 8
    frequency:    6.0454701678
  - # 9
    frequency:    6.4778873430
  - # 10
    frequency:    6.4792704139
  - # 11
    frequency:    8.0503871875
  - # 12
    frequency:    8.2995335881
  - # 13
    frequency:   10.0555318983
  - # 14
    frequency:   13.1142058188
  - # 15
    frequency:   13.2291398149
  - # 16
    frequency:   15.2512611480
  - # 17
    frequency:   15.2914689925
  - # 18
    frequency:   15.6935852660
  - # 19
    frequency:   19.0842682441
  - # 20
    frequency:   27.0046471654
  - # 21
    frequency:   55.3812427769

- q-position: [    0.1212121,    0.0000000,    0.0000000 ]
  distance:    0.0446615
  band:
  - # 1
    frequency:   -4.0575861641
  - # 2
    frequency:   -1.3071005070
  - # 3
    frequency:    1.0683194289
  - # 4
    frequency:    1.5930529737
  - # 5
    frequency:    2.6190401731
  - # 6
    frequency:    2.9771563769
  - # 7
    frequency:    2.9819437018
  - # 8
    frequency:    6.0682185651
  - # 9
    frequency:    6.4899502041
  - # 10
    frequency:    6.5465793913
  - # 11
    frequency:    8.0433896160
  - # 12
    frequency:    8.3120109027
  - # 13
    frequency:   10.0272588049
  - # 14
    frequency:   13.1245491922
  - # 15
    frequency:   13.2494795800
  - # 16
    frequency:   15.2422580834
  - # 17
    frequency:   15.2720060753
  - # 18
    frequency:   15.6761275874
  - # 19
    frequency:   19.0336140993
  - # 20
    frequency:   26.9956892821
  - # 21
    frequency:   55.3484999704

- q-position: [    0.1262626,    0.0000000,    0.0000000 ]
  distance:    0.0465224
  band:
  - # 1
    frequency:   -4.1131737284
  - # 2
    frequency:   -1.1567069314
  - # 3
    frequency:    1.1498384566
  - # 4
    frequency:    1.6558258379
  - # 5
    frequency:    2.7247230149
  - # 6
    frequency:    3.0899502457
  - # 7
    frequency:    3.1403486119
  - # 8
    frequency:    6.0928760175
  - # 9
    frequency:    6.5021937945
  - # 10
    frequency:    6.6169230986
  - # 11
    frequency:    8.0370281242
  - # 12
    frequency:    8.3250262271
  - # 13
    frequency:    9.9987331967
  - # 14
    frequency:   13.1350969512
  - # 15
    frequency:   13.2703767660
  - # 16
    frequency:   15.2334868766
  - # 17
    frequency:   15.2499369900
  - # 18
    frequency:   15.6607550856
  - # 19
    frequency:   18.9833061848
  - # 20
    frequency:   26.9865577544
  - # 21
    frequency:   55.3148454345

- q-position: [    0.1313131,    0.0000000,    0.0000000 ]
  distance:    0.0483833
  band:
  - # 1
    frequency:   -4.1751811053
  - # 2
    frequency:   -0.9910583885
  - # 3
    frequency:    1.2331847478
  - # 4
    frequency:    1.7173759723
  - # 5
    frequency:    2.8293234784
  - # 6
    frequency:    3.1990445049
  - # 7
    frequency:    3.2900876900
  - # 8
    frequency:    6.1193830656
  - # 9
    frequency:    6.5148462014
  - # 10
    frequency:    6.6898753889
  - # 11
    frequency:    8.0315258059
  - # 12
    frequency:    8.3385216067
  - # 13
    frequency:    9.9700826322
  - # 14
    frequency:   13.1458265214
  - # 15
    frequency:   13.2917918801
  - # 16
    frequency:   15.2249948444
  - # 17
    frequency:   15.2252726329
  - # 18
    frequency:   15.6475776728
  - # 19
    frequency:   18.9335829765
  - # 20
    frequency:   26.9772751955
  - # 21
    frequency:   55.2803322818

- q-position: [    0.1363636,    0.0000000,    0.0000000 ]
  distance:    0.0502442
  band:
  - # 1
    frequency:   -4.2435412574
  - # 2
    frequency:   -0.7969868062
  - # 3
    frequency:    1.3182637839
  - # 4
    frequency:    1.7776942428
  - # 5
    frequency:    2.9327911143
  - # 6
    frequency:    3.3042459885
  - # 7
    frequency:    3.4310033063
  - # 8
    frequency:    6.1475852675
  - # 9
    frequency:    6.5282323380
  - # 10
    frequency:    6.7648984745
  - # 11
    frequency:    8.0271541025
  - # 12
    frequency:    8.3524236810
  - # 13
    frequency:    9.9414428709
  - # 14
    frequency:   13.1567154105
  - # 15
    frequency:   13.3136835937
  - # 16
    frequency:   15.1981171184
  - # 17
    frequency:   15.2168265187
  - # 18
    frequency:   15.6366128756
  - # 19
    frequency:   18.8846763663
  - # 20
    frequency:   26.9678644649
  - # 21
    frequency:   55.2450144468

- q-position: [    0.1414141,    0.0000000,    0.0000000 ]
  distance:    0.0521051
  band:
  - # 1
    frequency:   -4.3181237084
  - # 2
    frequency:   -0.5405446133
  - # 3
    frequency:    1.4049775365
  - # 4
    frequency:    1.8367724290
  - # 5
    frequency:    3.0350721380
  - # 6
    frequency:    3.4054103535
  - # 7
    frequency:    3.5632084968
  - # 8
    frequency:    6.1772114245
  - # 9
    frequency:    6.5427885795
  - # 10
    frequency:    6.8413371834
  - # 11
    frequency:    8.0242453589
  - # 12
    frequency:    8.3666429515
  - # 13
    frequency:    9.9129585390
  - # 14
    frequency:   13.1677412188
  - # 15
    frequency:   13.3360087225
  - # 16
    frequency:   15.1686511875
  - # 17
    frequency:   15.2090234447
  - # 18
    frequency:   15.6278017925
  - # 19
    frequency:   18.8368097073
  - # 20
    frequency:   26.9583485876
  - # 21
    frequency:   55.2089465517

- q-position: [    0.1464646,    0.0000000,    0.0000000 ]
  distance:    0.0539660
  band:
  - # 1
    frequency:   -4.3987331213
  - # 2
    frequency:    0.2247284492
  - # 3
    frequency:    1.4932238011
  - # 4
    frequency:    1.8946037666
  - # 5
    frequency:    3.1361078720
  - # 6
    frequency:    3.5024464785
  - # 7
    frequency:    3.6870047711
  - # 8
    frequency:    6.2078543229
  - # 9
    frequency:    6.5590740500
  - # 10
    frequency:    6.9184138333
  - # 11
    frequency:    8.0232079517
  - # 12
    frequency:    8.3810734569
  - # 13
    frequency:    9.8847838047
  - # 14
    frequency:   13.1788816331
  - # 15
    frequency:   13.3587222133
  - # 16
    frequency:   15.1371072909
  - # 17
    frequency:   15.2016240328
  - # 18
    frequency:   15.6210334464
  - # 19
    frequency:   18.7901958777
  - # 20
    frequency:   26.9487506706
  - # 21
    frequency:   55.1721837718

- q-position: [    0.1515152,    0.0000000,    0.0000000 ]
  distance:    0.0558269
  band:
  - # 1
    frequency:   -4.4851086690
  - # 2
    frequency:    0.6290565027
  - # 3
    frequency:    1.5828956228
  - # 4
    frequency:    1.9511835572
  - # 5
    frequency:    3.2358327218
  - # 6
    frequency:    3.5953206076
  - # 7
    frequency:    3.8028195131
  - # 8
    frequency:    6.2389633348
  - # 9
    frequency:    6.5777695963
  - # 10
    frequency:    6.9952237718
  - # 11
    frequency:    8.0245430565
  - # 12
    frequency:    8.3955929461
  - # 13
    frequency:    9.8570829978
  - # 14
    frequency:   13.1901144067
  - # 15
    frequency:   13.3817771399
  - # 16
    frequency:   15.1037436754
  - # 17
    frequency:   15.1946634671
  - # 18
    frequency:   15.6161702268
  - # 19
    frequency:   18.7450353919
  - # 20
    frequency:   26.9390938169
  - # 21
    frequency:   55.1347817006