nqpoint: 300    
npath: 3      
segment_nqpoint:
- 100
- 100
- 100
labels:
- [ 'G', 'M' ]
- [ 'M', 'K' ]
- [ 'K', 'G' ]
reciprocal_lattice:
- [   0.26721334,   0.15427570,   0.00000000 ] # a*
- [   0.00000000,   0.30855139,   0.00000000 ] # b*
- [   0.00000000,   0.00000000,   0.03443590 ] # c*
natom: 9      
lattice:
- [     3.742328064690266,     0.000000000000000,     0.000000000000000 ] # a
- [    -1.871164032345133,     3.240951173353361,     0.000000000000000 ] # b
- [     0.000000000000000,     0.000000000000000,    29.039459354992985 ] # c
points:
- symbol: C # 1
  coordinates: [  0.000000000000000,  0.000000000000000,  0.485102454376683 ]
  mass: 12.010700
- symbol: C # 2
  coordinates: [  0.333332985432215,  0.666666983183674,  0.649084067113349 ]
  mass: 12.010700
- symbol: C # 3
  coordinates: [  0.666666984744048,  0.333332985985145,  0.350906084932102 ]
  mass: 12.010700
- symbol: N # 4
  coordinates: [  0.333332985432215,  0.666666983183674,  0.690076874711080 ]
  mass: 14.006700
- symbol: N # 5
  coordinates: [  0.666666984744048,  0.333332985985145,  0.309923125288920 ]
  mass: 14.006700
- symbol: O # 6
  coordinates: [  0.666666984744048,  0.333332985985145,  0.396864044557708 ]
  mass: 15.999400
- symbol: S # 7
  coordinates: [  0.333332985432215,  0.666666983183674,  0.591431113799349 ]
  mass: 32.065000
- symbol: Y # 8
  coordinates: [  0.333332985432215,  0.666666983183674,  0.438664594005946 ]
  mass: 88.905850
- symbol: Y # 9
  coordinates: [  0.666666984744048,  0.333332985985145,  0.531314162427910 ]
  mass: 88.905850

phonon:
- q-position: [    0.0000000,    0.0000000,    0.0000000 ]
  distance:    0.0000000
  band:
  - # 1
    frequency:   -1.4981778755
  - # 2
    frequency:   -1.4981778754
  - # 3
    frequency:   -0.8071100041
  - # 4
    frequency:   -0.8071100040
  - # 5
    frequency:   -0.0000244716
  - # 6
    frequency:   -0.0000005851
  - # 7
    frequency:    0.0000240465
  - # 8
    frequency:    2.9316286720
  - # 9
    frequency:    2.9316286721
  - # 10
    frequency:    4.2616815655
  - # 11
    frequency:    4.6757268640
  - # 12
    frequency:    4.6757268641
  - # 13
    frequency:    5.0496936364
  - # 14
    frequency:    5.0496936365
  - # 15
    frequency:    6.5390446049
  - # 16
    frequency:    8.1499382288
  - # 17
    frequency:    9.0741523255
  - # 18
    frequency:    9.0741523257
  - # 19
    frequency:   10.3691582735
  - # 20
    frequency:   10.3691582736
  - # 21
    frequency:   13.9137125850
  - # 22
    frequency:   13.9137125851
  - # 23
    frequency:   15.5383342361
  - # 24
    frequency:   21.1124864361
  - # 25
    frequency:   31.9571964954
  - # 26
    frequency:   65.1606435505
  - # 27
    frequency:   67.5236023357

- q-position: [    0.0050505,    0.0000000,    0.0000000 ]
  distance:    0.0015583
  band:
  - # 1
    frequency:   -1.4981680959
  - # 2
    frequency:   -1.4972834725
  - # 3
    frequency:   -0.8069938499
  - # 4
    frequency:   -0.8055381891
  - # 5
    frequency:    0.0014214796
  - # 6
    frequency:    0.0483555178
  - # 7
    frequency:    0.0903005090
  - # 8
    frequency:    2.9317237973
  - # 9
    frequency:    2.9326476813
  - # 10
    frequency:    4.2608664054
  - # 11
    frequency:    4.6758229660
  - # 12
    frequency:    4.6777900392
  - # 13
    frequency:    5.0496571990
  - # 14
    frequency:    5.0521645676
  - # 15
    frequency:    6.5389277830
  - # 16
    frequency:    8.1485879832
  - # 17
    frequency:    9.0739606350
  - # 18
    frequency:    9.0795655932
  - # 19
    frequency:   10.3692007017
  - # 20
    frequency:   10.3694185656
  - # 21
    frequency:   13.9137359179
  - # 22
    frequency:   13.9137681505
  - # 23
    frequency:   15.5371759593
  - # 24
    frequency:   21.1124351269
  - # 25
    frequency:   31.9568177175
  - # 26
    frequency:   65.1605803245
  - # 27
    frequency:   67.5233885939

- q-position: [    0.0101010,    0.0000000,    0.0000000 ]
  distance:    0.0031167
  band:
  - # 1
    frequency:   -1.4981399902
  - # 2
    frequency:   -1.4946096336
  - # 3
    frequency:   -0.8066428801
  - # 4
    frequency:   -0.8008390784
  - # 5
    frequency:    0.0056843940
  - # 6
    frequency:    0.0966846786
  - # 7
    frequency:    0.1807959323
  - # 8
    frequency:    2.9320092200
  - # 9
    frequency:    2.9356952699
  - # 10
    frequency:    4.2584799976
  - # 11
    frequency:    4.6761106141
  - # 12
    frequency:    4.6838281969
  - # 13
    frequency:    5.0495484920
  - # 14
    frequency:    5.0595816623
  - # 15
    frequency:    6.5385775125
  - # 16
    frequency:    8.1445885625
  - # 17
    frequency:    9.0733860914
  - # 18
    frequency:    9.0957535316
  - # 19
    frequency:   10.3693279162
  - # 20
    frequency:   10.3702034395
  - # 21
    frequency:   13.9138059038
  - # 22
    frequency:   13.9139347262
  - # 23
    frequency:   15.5337033108
  - # 24
    frequency:   21.1122812920
  - # 25
    frequency:   31.9556822972
  - # 26
    frequency:   65.1603907406
  - # 27
    frequency:   67.5227478325

- q-position: [    0.0151515,    0.0000000,    0.0000000 ]
  distance:    0.0046750
  band:
  - # 1
    frequency:   -1.4980971950
  - # 2
    frequency:   -1.4901835666
  - # 3
    frequency:   -0.8060497970
  - # 4
    frequency:   -0.7930553450
  - # 5
    frequency:    0.0127614405
  - # 6
    frequency:    0.1449619071
  - # 7
    frequency:    0.2716533912
  - # 8
    frequency:    2.9324850790
  - # 9
    frequency:    2.9407434564
  - # 10
    frequency:    4.2546839230
  - # 11
    frequency:    4.6765878330
  - # 12
    frequency:    4.6934186818
  - # 13
    frequency:    5.0493693308
  - # 14
    frequency:    5.0719466324
  - # 15
    frequency:    6.5379943934
  - # 16
    frequency:    8.1380838130
  - # 17
    frequency:    9.0724302782
  - # 18
    frequency:    9.1225686212
  - # 19
    frequency:   10.3695397073
  - # 20
    frequency:   10.3715253748
  - # 21
    frequency:   13.9139225043
  - # 22
    frequency:   13.9142119471
  - # 23
    frequency:   15.5279228401
  - # 24
    frequency:   21.1120252090
  - # 25
    frequency:   31.9537929720
  - # 26
    frequency:   65.1600750814
  - # 27
    frequency:   67.5216814428

- q-position: [    0.0202020,    0.0000000,    0.0000000 ]
  distance:    0.0062334
  band:
  - # 1
    frequency:   -1.4980455687
  - # 2
    frequency:   -1.4840477232
  - # 3
    frequency:   -0.8052031449
  - # 4
    frequency:   -0.7822389742
  - # 5
    frequency:    0.0226115674
  - # 6
    frequency:    0.1931630759
  - # 7
    frequency:    0.3629911598
  - # 8
    frequency:    2.9331516013
  - # 9
    frequency:    2.9477466934
  - # 10
    frequency:    4.2497034790
  - # 11
    frequency:    4.6772513216
  - # 12
    frequency:    4.7059509919
  - # 13
    frequency:    5.0491227388
  - # 14
    frequency:    5.0892274416
  - # 15
    frequency:    6.5371794733
  - # 16
    frequency:    8.1292837042
  - # 17
    frequency:    9.0710958301
  - # 18
    frequency:    9.1597880070
  - # 19
    frequency:   10.3698357260
  - # 20
    frequency:   10.3734068842
  - # 21
    frequency:   13.9140856550
  - # 22
    frequency:   13.9145991969
  - # 23
    frequency:   15.5198454783
  - # 24
    frequency:   21.1116673400
  - # 25
    frequency:   31.9511542933
  - # 26
    frequency:   65.1596338173
  - # 27
    frequency:   67.5201917385

- q-position: [    0.0252525,    0.0000000,    0.0000000 ]
  distance:    0.0077917
  band:
  - # 1
    frequency:   -1.4979928991
  - # 2
    frequency:   -1.4762558427
  - # 3
    frequency:   -0.8040882416
  - # 4
    frequency:   -0.7684284527
  - # 5
    frequency:    0.0351785930
  - # 6
    frequency:    0.2412658977
  - # 7
    frequency:    0.4548685285
  - # 8
    frequency:    2.9340090948
  - # 9
    frequency:    2.9566433982
  - # 10
    frequency:    4.2437835458
  - # 11
    frequency:    4.6780964417
  - # 12
    frequency:    4.7207356512
  - # 13
    frequency:    5.0488129435
  - # 14
    frequency:    5.1113148576
  - # 15
    frequency:    6.5361343180
  - # 16
    frequency:    8.1184309149
  - # 17
    frequency:    9.0693864275
  - # 18
    frequency:    9.2071367486
  - # 19
    frequency:   10.3702154848
  - # 20
    frequency:   10.3758834633
  - # 21
    frequency:   13.9142952652
  - # 22
    frequency:   13.9150955942
  - # 23
    frequency:   15.5094865598
  - # 24
    frequency:   21.1112083294
  - # 25
    frequency:   31.9477726104
  - # 26
    frequency:   65.1590676051
  - # 27
    frequency:   67.5182819475

- q-position: [    0.0303030,    0.0000000,    0.0000000 ]
  distance:    0.0093500
  band:
  - # 1
    frequency:   -1.4979485172
  - # 2
    frequency:   -1.4668681175
  - # 3
    frequency:   -0.8026882611
  - # 4
    frequency:   -0.7516256740
  - # 5
    frequency:    0.0503924325
  - # 6
    frequency:    0.2892500309
  - # 7
    frequency:    0.5472868187
  - # 8
    frequency:    2.9350579387
  - # 9
    frequency:    2.9673579128
  - # 10
    frequency:    4.2371542345
  - # 11
    frequency:    4.6791172027
  - # 12
    frequency:    4.7371088495
  - # 13
    frequency:    5.0484453713
  - # 14
    frequency:    5.1379796065
  - # 15
    frequency:    6.5348611080
  - # 16
    frequency:    8.1057699940
  - # 17
    frequency:    9.0673067871
  - # 18
    frequency:    9.2643042544
  - # 19
    frequency:   10.3706783595
  - # 20
    frequency:   10.3790086039
  - # 21
    frequency:   13.9145512177
  - # 22
    frequency:   13.9156999742
  - # 23
    frequency:   15.4968658573
  - # 24
    frequency:   21.1106490030
  - # 25
    frequency:   31.9436560483
  - # 26
    frequency:   65.1583772867
  - # 27
    frequency:   67.5159562019

- q-position: [    0.0353535,    0.0000000,    0.0000000 ]
  distance:    0.0109084
  band:
  - # 1
    frequency:   -1.4979228409
  - # 2
    frequency:   -1.4559460473
  - # 3
    frequency:   -0.8009853199
  - # 4
    frequency:   -0.7317761032
  - # 5
    frequency:    0.0681705878
  - # 6
    frequency:    0.3370969113
  - # 7
    frequency:    0.6401984913
  - # 8
    frequency:    2.9362985714
  - # 9
    frequency:    2.9798027491
  - # 10
    frequency:    4.2300120891
  - # 11
    frequency:    4.6803062454
  - # 12
    frequency:    4.7545099866
  - # 13
    frequency:    5.0480266374
  - # 14
    frequency:    5.1688451491
  - # 15
    frequency:    6.5333627579
  - # 16
    frequency:    8.0915250393
  - # 17
    frequency:    9.0648626505
  - # 18
    frequency:    9.3309474012
  - # 19
    frequency:   10.3712235901
  - # 20
    frequency:   10.3828621343
  - # 21
    frequency:   13.9148533675
  - # 22
    frequency:   13.9164108629
  - # 23
    frequency:   15.4820076279
  - # 24
    frequency:   21.1099903643
  - # 25
    frequency:   31.9388144789
  - # 26
    frequency:   65.1575638873
  - # 27
    frequency:   67.5132195239

- q-position: [    0.0404040,    0.0000000,    0.0000000 ]
  distance:    0.0124667
  band:
  - # 1
    frequency:   -1.4979268694
  - # 2
    frequency:   -1.4435475293
  - # 3
    frequency:   -0.7989614445
  - # 4
    frequency:   -0.7087524053
  - # 5
    frequency:    0.0884198453
  - # 6
    frequency:    0.3847893773
  - # 7
    frequency:    0.7335199317
  - # 8
    frequency:    2.9377314762
  - # 9
    frequency:    2.9938809782
  - # 10
    frequency:    4.2225148189
  - # 11
    frequency:    4.6816548262
  - # 12
    frequency:    4.7725210121
  - # 13
    frequency:    5.0475645330
  - # 14
    frequency:    5.2033869351
  - # 15
    frequency:    6.5316430579
  - # 16
    frequency:    8.0758873648
  - # 17
    frequency:    9.0620607698
  - # 18
    frequency:    9.4066773569
  - # 19
    frequency:   10.3718502830
  - # 20
    frequency:   10.3875642628
  - # 21
    frequency:   13.9152015413
  - # 22
    frequency:   13.9172264451
  - # 23
    frequency:   15.4649406771
  - # 24
    frequency:   21.1092335924
  - # 25
    frequency:   31.9332594861
  - # 26
    frequency:   65.1566286127
  - # 27
    frequency:   67.5100778089

- q-position: [    0.0454545,    0.0000000,    0.0000000 ]
  distance:    0.0140251
  band:
  - # 1
    frequency:   -1.4979716584
  - # 2
    frequency:   -1.4297226251
  - # 3
    frequency:   -0.7965993450
  - # 4
    frequency:   -0.6823384907
  - # 5
    frequency:    0.1110381331
  - # 6
    frequency:    0.4323111848
  - # 7
    frequency:    0.8271441260
  - # 8
    frequency:    2.9393571650
  - # 9
    frequency:    3.0094886385
  - # 10
    frequency:    4.2147844599
  - # 11
    frequency:    4.6831528047
  - # 12
    frequency:    4.7908691891
  - # 13
    frequency:    5.0470680057
  - # 14
    frequency:    5.2409593340
  - # 15
    frequency:    6.5297068317
  - # 16
    frequency:    8.0590115716
  - # 17
    frequency:    9.0589088885
  - # 18
    frequency:    9.4910280510
  - # 19
    frequency:   10.3725574130
  - # 20
    frequency:   10.3932999407
  - # 21
    frequency:   13.9155955367
  - # 22
    frequency:   13.9181445223
  - # 23
    frequency:   15.4456984419
  - # 24
    frequency:   21.1083800379
  - # 25
    frequency:   31.9270043258
  - # 26
    frequency:   65.1555728469
  - # 27
    frequency:   67.5065378065

- q-position: [    0.0505051,    0.0000000,    0.0000000 ]
  distance:    0.0155834
  band:
  - # 1
    frequency:   -1.4980678000
  - # 2
    frequency:   -1.4145102766
  - # 3
    frequency:   -0.7938829635
  - # 4
    frequency:   -0.6522083460
  - # 5
    frequency:    0.1359164976
  - # 6
    frequency:    0.4796465040
  - # 7
    frequency:    0.9209510583
  - # 8
    frequency:    2.9411761602
  - # 9
    frequency:    3.0265170656
  - # 10
    frequency:    4.2069142483
  - # 11
    frequency:    4.6847886376
  - # 12
    frequency:    4.8094044701
  - # 13
    frequency:    5.0465471325
  - # 14
    frequency:    5.2808416966
  - # 15
    frequency:    6.5275601087
  - # 16
    frequency:    8.0410172680
  - # 17
    frequency:    9.0554157206
  - # 18
    frequency:    9.5834006884
  - # 19
    frequency:   10.3733438256
  - # 20
    frequency:   10.4003628913
  - # 21
    frequency:   13.9160351208
  - # 22
    frequency:   13.9191624621
  - # 23
    frequency:   15.4243190991
  - # 24
    frequency:   21.1074312188
  - # 25
    frequency:   31.9200638794
  - # 26
    frequency:   65.1543981488
  - # 27
    frequency:   67.5026070978

- q-position: [    0.0555556,    0.0000000,    0.0000000 ]
  distance:    0.0171417
  band:
  - # 1
    frequency:   -1.4982249315
  - # 2
    frequency:   -1.3979360499
  - # 3
    frequency:   -0.7907978048
  - # 4
    frequency:   -0.6178912428
  - # 5
    frequency:    0.1629411932
  - # 6
    frequency:    0.5267794739
  - # 7
    frequency:    1.0148151861
  - # 8
    frequency:    2.9431889753
  - # 9
    frequency:    3.0448550714
  - # 10
    frequency:    4.1989761372
  - # 11
    frequency:    4.6865493820
  - # 12
    frequency:    4.8280658236
  - # 13
    frequency:    5.0460130837
  - # 14
    frequency:    5.3222905898
  - # 15
    frequency:    6.5252103064
  - # 16
    frequency:    8.0219938290
  - # 17
    frequency:    9.0515909237
  - # 18
    frequency:    9.6829679879
  - # 19
    frequency:   10.3742082395
  - # 20
    frequency:   10.4092391344
  - # 21
    frequency:   13.9165200290
  - # 22
    frequency:   13.9202771336
  - # 23
    frequency:   15.4008457065
  - # 24
    frequency:   21.1063888161
  - # 25
    frequency:   31.9124546025
  - # 26
    frequency:   65.1531062484
  - # 27
    frequency:   67.4982940707

- q-position: [    0.0606061,    0.0000000,    0.0000000 ]
  distance:    0.0187001
  band:
  - # 1
    frequency:   -1.4984512945
  - # 2
    frequency:   -1.3800108182
  - # 3
    frequency:   -0.7873310769
  - # 4
    frequency:   -0.5787094056
  - # 5
    frequency:    0.1919959298
  - # 6
    frequency:    0.5736938661
  - # 7
    frequency:    1.1086102684
  - # 8
    frequency:    2.9453960946
  - # 9
    frequency:    3.0643909289
  - # 10
    frequency:    4.1910274232
  - # 11
    frequency:    4.6884207134
  - # 12
    frequency:    4.8468480355
  - # 13
    frequency:    5.0454780735
  - # 14
    frequency:    5.3645870187
  - # 15
    frequency:    6.5226664185
  - # 16
    frequency:    8.0020062749
  - # 17
    frequency:    9.0474450694
  - # 18
    frequency:    9.7884969202
  - # 19
    frequency:   10.3751492486
  - # 20
    frequency:   10.4207738416
  - # 21
    frequency:   13.9170499638
  - # 22
    frequency:   13.9214848287
  - # 23
    frequency:   15.3753263848
  - # 24
    frequency:   21.1052546686
  - # 25
    frequency:   31.9041944683
  - # 26
    frequency:   65.1516990435
  - # 27
    frequency:   67.4936078923

- q-position: [    0.0656566,    0.0000000,    0.0000000 ]
  distance:    0.0202584
  band:
  - # 1
    frequency:   -1.4987533583
  - # 2
    frequency:   -1.3607301722
  - # 3
    frequency:   -0.7834716833
  - # 4
    frequency:   -0.5336602401
  - # 5
    frequency:    0.2229644162
  - # 6
    frequency:    0.6203728795
  - # 7
    frequency:    1.2022121517
  - # 8
    frequency:    2.9477979520
  - # 9
    frequency:    3.0850141356
  - # 10
    frequency:    4.1831159739
  - # 11
    frequency:    4.6903869601
  - # 12
    frequency:    4.8657751567
  - # 13
    frequency:    5.0449552970
  - # 14
    frequency:    5.4070723546
  - # 15
    frequency:    6.5199392047
  - # 16
    frequency:    7.9811010907
  - # 17
    frequency:    9.0429896076
  - # 18
    frequency:    9.8979934518
  - # 19
    frequency:   10.3761653255
  - # 20
    frequency:   10.4365195866
  - # 21
    frequency:   13.9176245930
  - # 22
    frequency:   13.9227811644
  - # 23
    frequency:   15.3478145517
  - # 24
    frequency:   21.1040307668
  - # 25
    frequency:   31.8953029062
  - # 26
    frequency:   65.1501785948
  - # 27
    frequency:   67.4885584790

- q-position: [    0.0707071,    0.0000000,    0.0000000 ]
  distance:    0.0218168
  band:
  - # 1
    frequency:   -1.4991355210
  - # 2
    frequency:   -1.3400742862
  - # 3
    frequency:   -0.7792101076
  - # 4
    frequency:   -0.4811762398
  - # 5
    frequency:    0.2557335202
  - # 6
    frequency:    0.6667990679
  - # 7
    frequency:    1.2955001177
  - # 8
    frequency:    2.9503949102
  - # 9
    frequency:    3.1066169496
  - # 10
    frequency:    4.1752840784
  - # 11
    frequency:    4.6924311610
  - # 12
    frequency:    4.8848821319
  - # 13
    frequency:    5.0444588488
  - # 14
    frequency:    5.4491713585
  - # 15
    frequency:    6.5170413790
  - # 16
    frequency:    7.9593113841
  - # 17
    frequency:    9.0382368262
  - # 18
    frequency:   10.0079718716
  - # 19
    frequency:   10.3772548233
  - # 20
    frequency:   10.4594640598
  - # 21
    frequency:   13.9182435482
  - # 22
    frequency:   13.9241609605
  - # 23
    frequency:   15.3183692246
  - # 24
    frequency:   21.1027192477
  - # 25
    frequency:   31.8858007361
  - # 26
    frequency:   65.1485471214
  - # 27
    frequency:   67.4831564644

- q-position: [    0.0757576,    0.0000000,    0.0000000 ]
  distance:    0.0233751
  band:
  - # 1
    frequency:   -1.4995998916
  - # 2
    frequency:   -1.3180079587
  - # 3
    frequency:   -0.7745382262
  - # 4
    frequency:   -0.4185700782
  - # 5
    frequency:    0.2901977247
  - # 6
    frequency:    0.7129543848
  - # 7
    frequency:    1.3883572617
  - # 8
    frequency:    2.9531872395
  - # 9
    frequency:    3.1290956988
  - # 10
    frequency:    4.1675711597
  - # 11
    frequency:    4.6945351499
  - # 12
    frequency:    4.9042035351
  - # 13
    frequency:    5.0440036206
  - # 14
    frequency:    5.4904035859
  - # 15
    frequency:    6.5139877922
  - # 16
    frequency:    7.9366611577
  - # 17
    frequency:    9.0331998054
  - # 18
    frequency:   10.1121669023
  - # 19
    frequency:   10.3784159786
  - # 20
    frequency:   10.4953189683
  - # 21
    frequency:   13.9189064232
  - # 22
    frequency:   13.9256180877
  - # 23
    frequency:   15.2870554118
  - # 24
    frequency:   21.1013223877
  - # 25
    frequency:   31.8757100986
  - # 26
    frequency:   65.1468069961
  - # 27
    frequency:   67.4774131647

- q-position: [    0.0808081,    0.0000000,    0.0000000 ]
  distance:    0.0249334
  band:
  - # 1
    frequency:   -1.5001461540
  - # 2
    frequency:   -1.2944805697
  - # 3
    frequency:   -0.7694490788
  - # 4
    frequency:   -0.3404515503
  - # 5
    frequency:    0.3262663624
  - # 6
    frequency:    0.7588203227
  - # 7
    frequency:    1.4806702347
  - # 8
    frequency:    2.9561750979
  - # 9
    frequency:    3.1523518740
  - # 10
    frequency:    4.1600156360
  - # 11
    frequency:    4.6966796701
  - # 12
    frequency:    4.9237674734
  - # 13
    frequency:    5.0436051757
  - # 14
    frequency:    5.5303856582
  - # 15
    frequency:    6.5107956061
  - # 16
    frequency:    7.9131686862
  - # 17
    frequency:    9.0278923665
  - # 18
    frequency:   10.2008632954
  - # 19
    frequency:   10.3796469139
  - # 20
    frequency:   10.5531948483
  - # 21
    frequency:   13.9196127720
  - # 22
    frequency:   13.9271452768
  - # 23
    frequency:   15.2539446177
  - # 24
    frequency:   21.0998425957
  - # 25
    frequency:   31.8650543808
  - # 26
    frequency:   65.1449607398
  - # 27
    frequency:   67.4713405426

- q-position: [    0.0858586,    0.0000000,    0.0000000 ]
  distance:    0.0264918
  band:
  - # 1
    frequency:   -1.5007715110
  - # 2
    frequency:   -1.2694257359
  - # 3
    frequency:   -0.7639366167
  - # 4
    frequency:   -0.2319207542
  - # 5
    frequency:    0.3638770265
  - # 6
    frequency:    0.8043781183
  - # 7
    frequency:    1.5723285779
  - # 8
    frequency:    2.9593585122
  - # 9
    frequency:    3.1762930208
  - # 10
    frequency:    4.1526561862
  - # 11
    frequency:    4.6988445247
  - # 12
    frequency:    4.9435928273
  - # 13
    frequency:    5.0432795964
  - # 14
    frequency:    5.5688270443
  - # 15
    frequency:    6.5074844561
  - # 16
    frequency:    7.8888490923
  - # 17
    frequency:    9.0223290139
  - # 18
    frequency:   10.2657226806
  - # 19
    frequency:   10.3809456404
  - # 20
    frequency:   10.6407811551
  - # 21
    frequency:   13.9203621070
  - # 22
    frequency:   13.9287338766
  - # 23
    frequency:   15.2191154997
  - # 24
    frequency:   21.0982824062
  - # 25
    frequency:   31.8538581399
  - # 26
    frequency:   65.1430110159
  - # 27
    frequency:   67.4649511689

- q-position: [    0.0909091,    0.0000000,    0.0000000 ]
  distance:    0.0280501
  band:
  - # 1
    frequency:   -1.5014706988
  - # 2
    frequency:   -1.2427604749
  - # 3
    frequency:   -0.7579954444
  - # 4
    frequency:    0.1046580958
  - # 5
    frequency:    0.4030235050
  - # 6
    frequency:    0.8496089981
  - # 7
    frequency:    1.6632238012
  - # 8
    frequency:    2.9627373607
  - # 9
    frequency:    3.2008334451
  - # 10
    frequency:    4.1455326256
  - # 11
    frequency:    4.7010087641
  - # 12
    frequency:    4.9636884498
  - # 13
    frequency:    5.0430433033
  - # 14
    frequency:    5.6055216774
  - # 15
    frequency:    6.5040766004
  - # 16
    frequency:    7.8637162547
  - # 17
    frequency:    9.0165248720
  - # 18
    frequency:   10.3080813901
  - # 19
    frequency:   10.3823100602
  - # 20
    frequency:   10.7560569307
  - # 21
    frequency:   13.9211538968
  - # 22
    frequency:   13.9303735468
  - # 23
    frequency:   15.1826547225
  - # 24
    frequency:   21.0966444711
  - # 25
    frequency:   31.8421470221
  - # 26
    frequency:   65.1409606247
  - # 27
    frequency:   67.4582581827

- q-position: [    0.0959596,    0.0000000,    0.0000000 ]
  distance:    0.0296085
  band:
  - # 1
    frequency:   -1.5022360650
  - # 2
    frequency:   -1.2143837064
  - # 3
    frequency:   -0.7516205608
  - # 4
    frequency:    0.2792139717
  - # 5
    frequency:    0.4438201165
  - # 6
    frequency:    0.8944944396
  - # 7
    frequency:    1.7532483126
  - # 8
    frequency:    2.9663113579
  - # 9
    frequency:    3.2258947499
  - # 10
    frequency:    4.1386865440
  - # 11
    frequency:    4.7031509138
  - # 12
    frequency:    4.9840534095
  - # 13
    frequency:    5.0429128451
  - # 14
    frequency:    5.6403372691
  - # 15
    frequency:    6.5005970539
  - # 16
    frequency:    7.8377841851
  - # 17
    frequency:    9.0104956153
  - # 18
    frequency:   10.3357240729
  - # 19
    frequency:   10.3837379689
  - # 20
    frequency:   10.8905262814
  - # 21
    frequency:   13.9219875647
  - # 22
    frequency:   13.9320518635
  - # 23
    frequency:   15.1446580767
  - # 24
    frequency:   21.0949315523
  - # 25
    frequency:   31.8299476804
  - # 26
    frequency:   65.1388124967
  - # 27
    frequency:   67.4512752499

- q-position: [    0.1010101,    0.0000000,    0.0000000 ]
  distance:    0.0311668
  band:
  - # 1
    frequency:   -1.5030576974
  - # 2
    frequency:   -1.1841738999
  - # 3
    frequency:   -0.7448071065
  - # 4
    frequency:    0.3827879072
  - # 5
    frequency:    0.4866594312
  - # 6
    frequency:    0.9390164297
  - # 7
    frequency:    1.8422942689
  - # 8
    frequency:    2.9700800427
  - # 9
    frequency:    3.2514062172
  - # 10
    frequency:    4.1321618160
  - # 11
    frequency:    4.7052492414
  - # 12
    frequency:    5.0046777247
  - # 13
    frequency:    5.0429046592
  - # 14
    frequency:    5.6732037203
  - # 15
    frequency:    6.4970737047
  - # 16
    frequency:    7.8110679949
  - # 17
    frequency:    9.0042573930
  - # 18
    frequency:   10.3551285589
  - # 19
    frequency:   10.3852270577
  - # 20
    frequency:   11.0369823657
  - # 21
    frequency:   13.9228624861
  - # 22
    frequency:   13.9337538115
  - # 23
    frequency:   15.1052319478
  - # 24
    frequency:   21.0931465129
  - # 25
    frequency:   31.8172876889
  - # 26
    frequency:   65.1365696869
  - # 27
    frequency:   67.4440165204

- q-position: [    0.1060606,    0.0000000,    0.0000000 ]
  distance:    0.0327251
  band:
  - # 1
    frequency:   -1.5039235948
  - # 2
    frequency:   -1.1519856297
  - # 3
    frequency:   -0.7375501170
  - # 4
    frequency:    0.4637833786
  - # 5
    frequency:    0.5325561354
  - # 6
    frequency:    0.9831577050
  - # 7
    frequency:    1.9302523958
  - # 8
    frequency:    2.9740427677
  - # 9
    frequency:    3.2773050453
  - # 10
    frequency:    4.1260050630
  - # 11
    frequency:    4.7072820620
  - # 12
    frequency:    5.0255432813
  - # 13
    frequency:    5.0430348050
  - # 14
    frequency:    5.7041016153
  - # 15
    frequency:    6.4935374114
  - # 16
    frequency:    7.7835845553
  - # 17
    frequency:    8.9978267469
  - # 18
    frequency:   10.3699678462
  - # 19
    frequency:   10.3867749159
  - # 20
    frequency:   11.1910133388
  - # 21
    frequency:   13.9237779869
  - # 22
    frequency:   13.9354611240
  - # 23
    frequency:   15.0644952589
  - # 24
    frequency:   21.0912923090
  - # 25
    frequency:   31.8041954555
  - # 26
    frequency:   65.1342353674
  - # 27
    frequency:   67.4364965842

- q-position: [    0.1111111,    0.0000000,    0.0000000 ]
  distance:    0.0342835
  band:
  - # 1
    frequency:   -1.5048198666
  - # 2
    frequency:   -1.1176446836
  - # 3
    frequency:   -0.7298442815
  - # 4
    frequency:    0.5299213822
  - # 5
    frequency:    0.5832490110
  - # 6
    frequency:    1.0269019645
  - # 7
    frequency:    2.0170108131
  - # 8
    frequency:    2.9781986940
  - # 9
    frequency:    3.3035364450
  - # 10
    frequency:    4.1202661223
  - # 11
    frequency:    4.7092280771
  - # 12
    frequency:    5.0433186755
  - # 13
    frequency:    5.0466247760
  - # 14
    frequency:    5.7330514481
  - # 15
    frequency:    6.4900220794
  - # 16
    frequency:    7.7553529333
  - # 17
    frequency:    8.9912205243
  - # 18
    frequency:   10.3821689606
  - # 19
    frequency:   10.3883790331
  - # 20
    frequency:   11.3499499844
  - # 21
    frequency:   13.9247333412
  - # 22
    frequency:   13.9371514218
  - # 23
    frequency:   15.0225820521
  - # 24
    frequency:   21.0893719808
  - # 25
    frequency:   31.7907001332
  - # 26
    frequency:   65.1318128211
  - # 27
    frequency:   67.4287304264

- q-position: [    0.1161616,    0.0000000,    0.0000000 ]
  distance:    0.0358418
  band:
  - # 1
    frequency:   -1.5057309530
  - # 2
    frequency:   -1.0809411893
  - # 3
    frequency:   -0.7216837059
  - # 4
    frequency:    0.5848660320
  - # 5
    frequency:    0.6388581965
  - # 6
    frequency:    1.0702340486
  - # 7
    frequency:    2.1024538898
  - # 8
    frequency:    2.9825467876
  - # 9
    frequency:    3.3300535911
  - # 10
    frequency:    4.1149985680
  - # 11
    frequency:    4.7110667394
  - # 12
    frequency:    5.0437706929
  - # 13
    frequency:    5.0678906170
  - # 14
    frequency:    5.7601039540
  - # 15
    frequency:    6.4865647124
  - # 16
    frequency:    7.7263946673
  - # 17
    frequency:    8.9844557855
  - # 18
    frequency:   10.3900368015
  - # 19
    frequency:   10.3927674971
  - # 20
    frequency:   11.5120158324
  - # 21
    frequency:   13.9257277698
  - # 22
    frequency:   13.9387970852
  - # 23
    frequency:   14.9796449451
  - # 24
    frequency:   21.0873886437
  - # 25
    frequency:   31.7768315296
  - # 26
    frequency:   65.1293054345
  - # 27
    frequency:   67.4207333815

- q-position: [    0.1212121,    0.0000000,    0.0000000 ]
  distance:    0.0374002
  band:
  - # 1
    frequency:   -1.5066398560
  - # 2
    frequency:   -1.0416198952
  - # 3
    frequency:   -0.7130616768
  - # 4
    frequency:    0.6336424385
  - # 5
    frequency:    0.6962798144
  - # 6
    frequency:    1.1131400811
  - # 7
    frequency:    2.1864611564
  - # 8
    frequency:    2.9870858209
  - # 9
    frequency:    3.3568174103
  - # 10
    frequency:    4.1102603165