nqpoint: 300    
npath: 3      
segment_nqpoint:
- 100
- 100
- 100
labels:
- [ 'G', 'M' ]
- [ 'M', 'K' ]
- [ 'K', 'G' ]
reciprocal_lattice:
- [   0.28774599,   0.16613022,   0.00000000 ] # a*
- [   0.00000000,   0.33226045,   0.00000000 ] # b*
- [   0.00000000,   0.00000000,   0.04015095 ] # c*
natom: 6      
lattice:
- [     3.475287397116521,     0.000000000000000,     0.000000000000000 ] # a
- [    -1.737643698558260,     3.009687171355961,     0.000000000000000 ] # b
- [     0.000000000000000,     0.000000000000000,    24.906009310286976 ] # c
points:
- symbol: Br # 1
  coordinates: [  0.666666984744047,  0.333332985985144,  0.361358573662892 ]
  mass: 79.904000
- symbol: C # 2
  coordinates: [  0.000000000000000,  0.000000000000000,  0.484930213911286 ]
  mass: 12.010700
- symbol: C # 3
  coordinates: [  0.333332985432215,  0.666666983183674,  0.590487418410805 ]
  mass: 12.010700
- symbol: N # 4
  coordinates: [  0.333332985432215,  0.666666983183674,  0.638641426337109 ]
  mass: 14.006700
- symbol: Sc # 5
  coordinates: [  0.333332985432215,  0.666666983183674,  0.435838382494319 ]
  mass: 44.955912
- symbol: Sc # 6
  coordinates: [  0.666666984744047,  0.333332985985144,  0.534415870721763 ]
  mass: 44.955912

phonon:
- q-position: [    0.0000000,    0.0000000,    0.0000000 ]
  distance:    0.0000000
  band:
  - # 1
    frequency:   -3.0104435980
  - # 2
    frequency:   -3.0104435980
  - # 3
    frequency:   -0.0000007148
  - # 4
    frequency:    0.0000005987
  - # 5
    frequency:    0.0000007932
  - # 6
    frequency:    2.9739761436
  - # 7
    frequency:    2.9739761436
  - # 8
    frequency:    4.7837331826
  - # 9
    frequency:    5.3667212231
  - # 10
    frequency:    5.3667212231
  - # 11
    frequency:    7.2295749212
  - # 12
    frequency:    7.2295749212
  - # 13
    frequency:    8.0892897342
  - # 14
    frequency:   10.4459567367
  - # 15
    frequency:   10.4459567367
  - # 16
    frequency:   11.2613603163
  - # 17
    frequency:   17.6972552575
  - # 18
    frequency:   62.6223202556

- q-position: [    0.0050505,    0.0000000,    0.0000000 ]
  distance:    0.0016781
  band:
  - # 1
    frequency:   -3.0103310443
  - # 2
    frequency:   -3.0100901146
  - # 3
    frequency:   -0.0217415363
  - # 4
    frequency:    0.0692457276
  - # 5
    frequency:    0.1083516687
  - # 6
    frequency:    2.9744988394
  - # 7
    frequency:    2.9763072130
  - # 8
    frequency:    4.7829600750
  - # 9
    frequency:    5.3669588569
  - # 10
    frequency:    5.3691410624
  - # 11
    frequency:    7.2297181792
  - # 12
    frequency:    7.2320896630
  - # 13
    frequency:    8.0893127759
  - # 14
    frequency:   10.4465448258
  - # 15
    frequency:   10.4525362229
  - # 16
    frequency:   11.2609555518
  - # 17
    frequency:   17.6956002973
  - # 18
    frequency:   62.6222341510

- q-position: [    0.0101010,    0.0000000,    0.0000000 ]
  distance:    0.0033562
  band:
  - # 1
    frequency:   -3.0099941158
  - # 2
    frequency:   -3.0090348927
  - # 3
    frequency:   -0.0359061554
  - # 4
    frequency:    0.1384497152
  - # 5
    frequency:    0.2153758311
  - # 6
    frequency:    2.9760660090
  - # 7
    frequency:    2.9832674595
  - # 8
    frequency:    4.7806770612
  - # 9
    frequency:    5.3676699074
  - # 10
    frequency:    5.3763009657
  - # 11
    frequency:    7.2301464477
  - # 12
    frequency:    7.2395699106
  - # 13
    frequency:    8.0893829490
  - # 14
    frequency:   10.4483047199
  - # 15
    frequency:   10.4722109160
  - # 16
    frequency:   11.2598101489
  - # 17
    frequency:   17.6906394212
  - # 18
    frequency:   62.6219760933

- q-position: [    0.0151515,    0.0000000,    0.0000000 ]
  distance:    0.0050342
  band:
  - # 1
    frequency:   -3.0094349968
  - # 2
    frequency:   -3.0072933126
  - # 3
    frequency:   -0.0496580918
  - # 4
    frequency:    0.2075701793
  - # 5
    frequency:    0.3225485839
  - # 6
    frequency:    2.9786749100
  - # 7
    frequency:    2.9947603030
  - # 8
    frequency:    4.7769859195
  - # 9
    frequency:    5.3688488438
  - # 10
    frequency:    5.3879152741
  - # 11
    frequency:    7.2308552343
  - # 12
    frequency:    7.2518262133
  - # 13
    frequency:    8.0895034455
  - # 14
    frequency:   10.4512233363
  - # 15
    frequency:   10.5047671024
  - # 16
    frequency:   11.2581489270
  - # 17
    frequency:   17.6823846320
  - # 18
    frequency:   62.6215468494

- q-position: [    0.0202020,    0.0000000,    0.0000000 ]
  distance:    0.0067123
  band:
  - # 1
    frequency:   -3.0086572834
  - # 2
    frequency:   -3.0048900295
  - # 3
    frequency:   -0.0611559412
  - # 4
    frequency:    0.2765652533
  - # 5
    frequency:    0.4296015586
  - # 6
    frequency:    2.9823210038
  - # 7
    frequency:    3.0106321032
  - # 8
    frequency:    4.7720353187
  - # 9
    frequency:    5.3704865215
  - # 10
    frequency:    5.4035480636
  - # 11
    frequency:    7.2318371291
  - # 12
    frequency:    7.2685512312
  - # 13
    frequency:    8.0896797435
  - # 14
    frequency:   10.4552789929
  - # 15
    frequency:   10.5497657666
  - # 16
    frequency:   11.2564156397
  - # 17
    frequency:   17.6708558957
  - # 18
    frequency:   62.6209476930

- q-position: [    0.0252525,    0.0000000,    0.0000000 ]
  distance:    0.0083904
  band:
  - # 1
    frequency:   -3.0076659183
  - # 2
    frequency:   -3.0018576322
  - # 3
    frequency:   -0.0689677135
  - # 4
    frequency:    0.3453929551
  - # 5
    frequency:    0.5364270025
  - # 6
    frequency:    2.9869980048
  - # 7
    frequency:    3.0306819987
  - # 8
    frequency:    4.7659976049
  - # 9
    frequency:    5.3725702914
  - # 10
    frequency:    5.4226621801
  - # 11
    frequency:    7.2330819201
  - # 12
    frequency:    7.2893326822
  - # 13
    frequency:    8.0899198377
  - # 14
    frequency:   10.4604415904
  - # 15
    frequency:   10.6063844402
  - # 16
    frequency:   11.2554120458
  - # 17
    frequency:   17.6560810852
  - # 18
    frequency:   62.6201803975

- q-position: [    0.0303030,    0.0000000,    0.0000000 ]
  distance:    0.0100685
  band:
  - # 1
    frequency:   -3.0064671036
  - # 2
    frequency:   -2.9982349894
  - # 3
    frequency:   -0.0712876405
  - # 4
    frequency:    0.4140111656
  - # 5
    frequency:    0.6429436215
  - # 6
    frequency:    2.9926979465
  - # 7
    frequency:    3.0546736625
  - # 8
    frequency:    4.7590478567
  - # 9
    frequency:    5.3750841482
  - # 10
    frequency:    5.4446709642
  - # 11
    frequency:    7.2345767496
  - # 12
    frequency:    7.3136717167
  - # 13
    frequency:    8.0902345528
  - # 14
    frequency:   10.4666728680
  - # 15
    frequency:   10.6731053048
  - # 16
    frequency:   11.2565861758
  - # 17
    frequency:   17.6380959032
  - # 18
    frequency:   62.6192472273

- q-position: [    0.0353535,    0.0000000,    0.0000000 ]
  distance:    0.0117466
  band:
  - # 1
    frequency:   -3.0050681931
  - # 2
    frequency:   -2.9940654546
  - # 3
    frequency:   -0.0649537023
  - # 4
    frequency:    0.4823776201
  - # 5
    frequency:    0.7490762879
  - # 6
    frequency:    2.9994112643
  - # 7
    frequency:    3.0823475268
  - # 8
    frequency:    4.7513493267
  - # 9
    frequency:    5.3780089160
  - # 10
    frequency:    5.4689844814
  - # 11
    frequency:    7.2363063090
  - # 12
    frequency:    7.3410061832
  - # 13
    frequency:    8.0906379304
  - # 14
    frequency:   10.4739267286
  - # 15
    frequency:   10.7471044016
  - # 16
    frequency:   11.2626177814
  - # 17
    frequency:   17.6169437854
  - # 18
    frequency:   62.6181509251

- q-position: [    0.0404040,    0.0000000,    0.0000000 ]
  distance:    0.0134247
  band:
  - # 1
    frequency:   -3.0034775689
  - # 2
    frequency:   -2.9893950876
  - # 3
    frequency:   -0.0402749500
  - # 4
    frequency:    0.5504499156
  - # 5
    frequency:    0.8547507017
  - # 6
    frequency:    3.0071268935
  - # 7
    frequency:    3.1134322018
  - # 8
    frequency:    4.7430460666
  - # 9
    frequency:    5.3813224665
  - # 10
    frequency:    5.4950457478
  - # 11
    frequency:    7.2382530676
  - # 12
    frequency:    7.3707374024
  - # 13
    frequency:    8.0911476804
  - # 14
    frequency:   10.4821496343
  - # 15
    frequency:   10.8231557975
  - # 16
    frequency:   11.2784903122
  - # 17
    frequency:   17.5926757882
  - # 18
    frequency:   62.6168946978

- q-position: [    0.0454545,    0.0000000,    0.0000000 ]
  distance:    0.0151027
  band:
  - # 1
    frequency:   -3.0017045058
  - # 2
    frequency:   -2.9842710177
  - # 3
    frequency:    0.0573390760
  - # 4
    frequency:    0.6181855343
  - # 5
    frequency:    0.9598914777
  - # 6
    frequency:    3.0158323801
  - # 7
    frequency:    3.1476541783
  - # 8
    frequency:    4.7342613474
  - # 9
    frequency:    5.3849999654
  - # 10
    frequency:    5.5223555963
  - # 11
    frequency:    7.2403975293
  - # 12
    frequency:    7.4022582417
  - # 13
    frequency:    8.0917856921
  - # 14
    frequency:   10.4912810688
  - # 15
    frequency:   10.8924474492
  - # 16
    frequency:   11.3126557891
  - # 17
    frequency:   17.5653504642
  - # 18
    frequency:   62.6154821997

- q-position: [    0.0505051,    0.0000000,    0.0000000 ]
  distance:    0.0167808
  band:
  - # 1
    frequency:   -2.9997590276
  - # 2
    frequency:   -2.9787400333
  - # 3
    frequency:    0.1053971478
  - # 4
    frequency:    0.6855418849
  - # 5
    frequency:    1.0644213261
  - # 6
    frequency:    3.0255140022
  - # 7
    frequency:    3.1847453083
  - # 8
    frequency:    4.7250997514
  - # 9
    frequency:    5.3890141428
  - # 10
    frequency:    5.5504868546
  - # 11
    frequency:    7.2427185119
  - # 12
    frequency:    7.4349798133
  - # 13
    frequency:    8.0925785956
  - # 14
    frequency:   10.5012540639
  - # 15
    frequency:   10.9442643139
  - # 16
    frequency:   11.3753395448
  - # 17
    frequency:   17.5350337289
  - # 18
    frequency:   62.6139175133

- q-position: [    0.0555556,    0.0000000,    0.0000000 ]
  distance:    0.0184589
  band:
  - # 1
    frequency:   -2.9976517604
  - # 2
    frequency:   -2.9728474340
  - # 3
    frequency:    0.1498145575
  - # 4
    frequency:    0.7524763608
  - # 5
    frequency:    1.1682606928
  - # 6
    frequency:    3.0361569001
  - # 7
    frequency:    3.2244479395
  - # 8
    frequency:    4.7156510405
  - # 9
    frequency:    5.3933355811
  - # 10
    frequency:    5.5790895707
  - # 11
    frequency:    7.2451934435
  - # 12
    frequency:    7.4683541968
  - # 13
    frequency:    8.0935583702
  - # 14
    frequency:   10.5119957877
  - # 15
    frequency:   10.9732644800
  - # 16
    frequency:   11.4712605609
  - # 17
    frequency:   17.5017987270
  - # 18
    frequency:   62.6122051281

- q-position: [    0.0606061,    0.0000000,    0.0000000 ]
  distance:    0.0201370
  band:
  - # 1
    frequency:   -2.9953937850
  - # 2
    frequency:   -2.9666361514
  - # 3
    frequency:    0.1946640002
  - # 4
    frequency:    0.8189464150
  - # 5
    frequency:    1.2713276515
  - # 6
    frequency:    3.0477452124
  - # 7
    frequency:    3.2665178456
  - # 8
    frequency:    4.7059945021
  - # 9
    frequency:    5.3979330185
  - # 10
    frequency:    5.6078894533
  - # 11
    frequency:    7.2477986695
  - # 12
    frequency:    7.5018912276
  - # 13
    frequency:    8.0947629917
  - # 14
    frequency:   10.5234281880
  - # 15
    frequency:   10.9828849977
  - # 16
    frequency:   11.5962309624
  - # 17
    frequency:   17.4657257051
  - # 18
    frequency:   62.6103499173

- q-position: [    0.0656566,    0.0000000,    0.0000000 ]
  distance:    0.0218151
  band:
  - # 1
    frequency:   -2.9929964938
  - # 2
    frequency:   -2.9601461147
  - # 3
    frequency:    0.2409175159
  - # 4
    frequency:    0.8849096498
  - # 5
    frequency:    1.3735379646
  - # 6
    frequency:    3.0602622156
  - # 7
    frequency:    3.3107252568
  - # 8
    frequency:    4.6962030678
  - # 9
    frequency:    5.4027736595
  - # 10
    frequency:    5.6366817173
  - # 11
    frequency:    7.2505097641
  - # 12
    frequency:    7.5351684017
  - # 13
    frequency:    8.0962371061
  - # 14
    frequency:   10.5354686882
  - # 15
    frequency:   10.9794022163
  - # 16
    frequency:   11.7431088967
  - # 17
    frequency:   17.4269019036
  - # 18
    frequency:   62.6083571131

- q-position: [    0.0707071,    0.0000000,    0.0000000 ]
  distance:    0.0234932
  band:
  - # 1
    frequency:   -2.9904714550
  - # 2
    frequency:   -2.9534138257
  - # 3
    frequency:    0.2888708707
  - # 4
    frequency:    0.9503239199
  - # 5
    frequency:    1.4748052784
  - # 6
    frequency:    3.0736904655
  - # 7
    frequency:    3.3568543462
  - # 8
    frequency:    4.6863469294
  - # 9
    frequency:    5.4078234928
  - # 10
    frequency:    5.6653223049
  - # 11
    frequency:    7.2533018416
  - # 12
    frequency:    7.5678340272
  - # 13
    frequency:    8.0980327039
  - # 14
    frequency:   10.5480309281
  - # 15
    frequency:   10.9674793225
  - # 16
    frequency:   11.9062702064
  - # 17
    frequency:   17.3854214812
  - # 18
    frequency:   62.6062322795

- q-position: [    0.0757576,    0.0000000,    0.0000000 ]
  distance:    0.0251712
  band:
  - # 1
    frequency:   -2.9878302856
  - # 2
    frequency:   -2.9464721021
  - # 3
    frequency:    0.3385854488
  - # 4
    frequency:    1.0151474466
  - # 5
    frequency:    1.5750414320
  - # 6
    frequency:    3.0880119363
  - # 7
    frequency:    3.4047015053
  - # 8
    frequency:    4.6764966487
  - # 9
    frequency:    5.4130476083
  - # 10
    frequency:    5.6937180677
  - # 11
    frequency:    7.2561498620
  - # 12
    frequency:    7.5996046428
  - # 13
    frequency:    8.1002097517
  - # 14
    frequency:   10.5610255431
  - # 15
    frequency:   10.9498757635
  - # 16
    frequency:   12.0819218435
  - # 17
    frequency:   17.3413854943
  - # 18
    frequency:   62.6039812850

- q-position: [    0.0808081,    0.0000000,    0.0000000 ]
  distance:    0.0268493
  band:
  - # 1
    frequency:   -2.9850845365
  - # 2
    frequency:   -2.9393499524
  - # 3
    frequency:    0.3900232109
  - # 4
    frequency:    1.0793389405
  - # 5
    frequency:    1.6741568665
  - # 6
    frequency:    3.1032081576
  - # 7
    frequency:    3.4540726759
  - # 8
    frequency:    4.6667258997
  - # 9
    frequency:    5.4184105135
  - # 10
    frequency:    5.7218170664
  - # 11
    frequency:    7.2590289261
  - # 12
    frequency:    7.6302582637
  - # 13
    frequency:    8.1028367006
  - # 14
    frequency:   10.5743609750
  - # 15
    frequency:   10.9281723804
  - # 16
    frequency:   12.2674008018
  - # 17
    frequency:   17.2949019596
  - # 18
    frequency:   62.6016102722

- q-position: [    0.0858586,    0.0000000,    0.0000000 ]
  distance:    0.0285274
  band:
  - # 1
    frequency:   -2.9822455905
  - # 2
    frequency:   -2.9320725479
  - # 3
    frequency:    0.4430995441
  - # 4
    frequency:    1.1428577306
  - # 5
    frequency:    1.7720611232
  - # 6
    frequency:    3.1192603446
  - # 7
    frequency:    3.5047799136
  - # 8
    frequency:    4.6571140528
  - # 9
    frequency:    5.4238764449
  - # 10
    frequency:    5.7495997219
  - # 11
    frequency:    7.2619145565
  - # 12
    frequency:    7.6596252010
  - # 13
    frequency:    8.1059907504
  - # 14
    frequency:   10.5879443053
  - # 15
    frequency:   10.9033081330
  - # 16
    frequency:   12.4606606211
  - # 17
    frequency:   17.2460860396
  - # 18
    frequency:   62.5991256283

- q-position: [    0.0909091,    0.0000000,    0.0000000 ]
  distance:    0.0302055
  band:
  - # 1
    frequency:   -2.9793245736
  - # 2
    frequency:   -2.9246612687
  - # 3
    frequency:    0.4977073792
  - # 4
    frequency:    1.2056638971
  - # 5
    frequency:    1.8686634191
  - # 6
    frequency:    3.1361495211
  - # 7
    frequency:    3.5566372604
  - # 8
    frequency:    4.6477488472
  - # 9
    frequency:    5.4294096728
  - # 10
    frequency:    5.7770712041
  - # 11
    frequency:    7.2647829621
  - # 12
    frequency:    7.6875781023
  - # 13
    frequency:    8.1097576846
  - # 14
    frequency:   10.6016821032
  - # 15
    frequency:   10.8758742967
  - # 16
    frequency:   12.6599980364
  - # 17
    frequency:   17.1950604093
  - # 18
    frequency:   62.5965339532

- q-position: [    0.0959596,    0.0000000,    0.0000000 ]
  distance:    0.0318836
  band:
  - # 1
    frequency:   -2.9763322802
  - # 2
    frequency:   -2.9171338052
  - # 3
    frequency:    0.5537293967
  - # 4
    frequency:    1.2677184071
  - # 5
    frequency:    1.9638732863
  - # 6
    frequency:    3.1538566327
  - # 7
    frequency:    3.6094559013
  - # 8
    frequency:    4.6387294240
  - # 9
    frequency:    5.4349747981
  - # 10
    frequency:    5.8042551820
  - # 11
    frequency:    7.2676112818
  - # 12
    frequency:    7.7140226066
  - # 13
    frequency:    8.1142310331
  - # 14
    frequency:   10.6154812785
  - # 15
    frequency:   10.8462680849
  - # 16
    frequency:   12.8639168370
  - # 17
    frequency:   17.1419558892
  - # 18
    frequency:   62.5938420278

- q-position: [    0.1010101,    0.0000000,    0.0000000 ]
  distance:    0.0335617
  band:
  - # 1
    frequency:   -2.9732791121
  - # 2
    frequency:   -2.9095043044
  - # 3
    frequency:    0.6110446749
  - # 4
    frequency:    1.3289832488
  - # 5
    frequency:    2.0576012582
  - # 6
    frequency:    3.1723626487
  - # 7
    frequency:    3.6630384796
  - # 8
    frequency:    4.6301700358
  - # 9
    frequency:    5.4405370402
  - # 10
    frequency:    5.8311888875
  - # 11
    frequency:    7.2703778076
  - # 12
    frequency:    7.7388896834
  - # 13
    frequency:    8.1195102697
  - # 14
    frequency:   10.6292499304
  - # 15
    frequency:   10.8147742547
  - # 16
    frequency:   13.0710598765
  - # 17
    frequency:   17.0869124685
  - # 18
    frequency:   62.5910567817

- q-position: [    0.1060606,    0.0000000,    0.0000000 ]
  distance:    0.0352397
  band:
  - # 1
    frequency:   -2.9701750301
  - # 2
    frequency:   -2.9017835522
  - # 3
    frequency:    0.6695325025
  - # 4
    frequency:    1.3894215652
  - # 5
    frequency:    2.1497595828
  - # 6
    frequency:    3.1916486509
  - # 7
    frequency:    3.7171723328
  - # 8
    frequency:    4.6222048034
  - # 9
    frequency:    5.4460625149
  - # 10
    frequency:    5.8579193444
  - # 11
    frequency:    7.2730621848
  - # 12
    frequency:    7.7621303818
  - # 13
    frequency:    8.1256977600
  - # 14
    frequency:   10.6428981841
  - # 15
    frequency:   10.7816100473
  - # 16
    frequency:   13.2801737178
  - # 17
    frequency:   17.0300809105
  - # 18
    frequency:   62.5881852605

- q-position: [    0.1111111,    0.0000000,    0.0000000 ]
  distance:    0.0369178
  band:
  - # 1
    frequency:   -2.9670295167
  - # 2
    frequency:   -2.8939791899
  - # 3
    frequency:    0.7290746416
  - # 4
    frequency:    1.4489977851
  - # 5
    frequency:    2.2402629369
  - # 6
    frequency:    3.2116959082
  - # 7
    frequency:    3.7716212996
  - # 8
    frequency:    4.6149939742
  - # 9
    frequency:    5.4515185035
  - # 10
    frequency:    5.8845005708
  - # 11
    frequency:    7.2756455891
  - # 12
    frequency:    7.7837133395
  - # 13
    frequency:    8.1328942835
  - # 14
    frequency:   10.6563390035
  - # 15
    frequency:   10.7469509388
  - # 16
    frequency:   13.4900884317
  - # 17
    frequency:   16.9716252392
  - # 18
    frequency:   62.5852345933

- q-position: [    0.1161616,    0.0000000,    0.0000000 ]
  distance:    0.0385959
  band:
  - # 1
    frequency:   -2.9638515507
  - # 2
    frequency:   -2.8860959593
  - # 3
    frequency:    0.7895566949
  - # 4
    frequency:    1.5076777497
  - # 5
    frequency:    2.3290291101
  - # 6
    frequency:    3.2324859357
  - # 7
    frequency:    3.8261156384
  - # 8
    frequency:    4.6087322220
  - # 9
    frequency:    5.4568737115
  - # 10
    frequency:    5.9109915522
  - # 11
    frequency:    7.2781108804
  - # 12
    frequency:    7.8036249565
  - # 13
    frequency:    8.1411932176
  - # 14
    frequency:   10.6694889736
  - # 15
    frequency:   10.7109459712
  - # 16
    frequency:   13.6997037348
  - # 17
    frequency:   16.9117265822
  - # 18
    frequency:   62.5822119603

- q-position: [    0.1212121,    0.0000000,    0.0000000 ]
  distance:    0.0402740
  band:
  - # 1
    frequency:   -2.9606495896
  - # 2
    frequency:   -2.8781359770
  - # 3
    frequency:    0.8508689279
  - # 4
    frequency:    1.5654288364
  - # 5
    frequency:    2.4159796241
  - # 6
    frequency:    3.2540005376
  - # 7
    frequency:    3.8803395453
  - # 8
    frequency:    4.6036595669
  - # 9
    frequency:    5.4620985185
  - # 10
    frequency:    5.9374547949
  - # 11
    frequency:    7.2804427332
  - # 12
    frequency:    7.8218716149
  - # 13
    frequency:    8.1506738774
  - # 14
    frequency:   10.6737272109
  - # 15
    frequency:   10.6822690427
  - # 16
    frequency:   13.9079766242
  - # 17
    frequency:   16.8505891576
  - # 18
    frequency:   62.5791245609

- q-position: [    0.1262626,    0.0000000,    0.0000000 ]
  distance:    0.0419521
  band:
  - # 1
    frequency:   -2.9574315603
  - # 2
    frequency:   -2.8700990313
  - # 3
    frequency:    0.9129067458
  - # 4
    frequency:    1.6222200764
  - # 5
    frequency:    2.5010402477
  - # 6
    frequency:    3.2762218332
  - # 7
    frequency:    3.9339159082
  - # 8
    frequency:    4.6000753458
  - # 9
    frequency:    5.4671652193
  - # 10
    frequency:    5.9639552883
  - # 11
    frequency:    7.2826277456
  - # 12
    frequency:    7.8384828087
  - # 13
    frequency:    8.1613949754
  - # 14
    frequency:   10.6354157774
  - # 15
    frequency:   10.6946052167
  - # 16
    frequency:   14.1139072062
  - # 17
    frequency:   16.7884497393
  - # 18
    frequency:   62.5759795823

- q-position: [    0.1313131,    0.0000000,    0.0000000 ]
  distance:    0.0436302
  band:
  - # 1
    frequency:   -2.9542048562
  - # 2
    frequency:   -2.8619829005
  - # 3
    frequency:    0.9755709384
  - # 4
    frequency:    1.6780222697
  - # 5
    frequency:    2.5841413700
  - # 6
    frequency:    3.2991322659
  - # 7
    frequency:    3.9863886000
  - # 8
    frequency:    4.5983549861
  - # 9
    frequency:    5.4720482557
  - # 10
    frequency:    5.9905597313
  - # 11
    frequency:    7.2846545253
  - # 12
    frequency:    7.8535137097
  - # 13
    frequency:    8.1733894772
  - # 14
    frequency:   10.5961258115
  - # 15
    frequency:   10.7064291993
  - # 16
    frequency:   14.3165194361
  - # 17
    frequency:   16.7255929484
  - # 18
    frequency:   62.5727841691

- q-position: [    0.1363636,    0.0000000,    0.0000000 ]
  distance:    0.0453082
  band:
  - # 1
    frequency:   -2.9509763390
  - # 2
    frequency:   -2.8537836868
  - # 3
    frequency:    1.0387677650
  - # 4
    frequency:    1.7328080932
  - # 5
    frequency:    2.6652181916
  - # 6
    frequency:    3.3227145956
  - # 7
    frequency:    4.0372044924
  - # 8
    frequency:    4.5989674612
  - # 9
    frequency:    5.4767244407
  - # 10
    frequency:    6.0173358988
  - # 11
    frequency:    7.2865137561
  - # 12
    frequency:    7.8670457715
  - # 13
    frequency:    8.1866620657
  - # 14
    frequency:   10.5559671700
  - # 15
    frequency:   10.7176789692
  - # 16
    frequency:   14.5148320690
  - # 17
    frequency:   16.6623766515
  - # 18
    frequency:   62.5695453936

- q-position: [    0.1414141,    0.0000000,    0.0000000 ]
  distance:    0.0469863
  band:
  - # 1
    frequency:   -2.9477523442
  - # 2
    frequency:   -2.8454961590
  - # 3
    frequency:    1.1024089199
  - # 4
    frequency:    1.7865522060
  - # 5
    frequency:    2.7442107040
  - # 6
    frequency:    3.3469518744
  - # 7
    frequency:    4.0857015384
  - # 8
    frequency:    4.6024871314
  - # 9
    frequency:    5.4811731739
  - # 10
    frequency:    6.0443520460
  - # 11
    frequency:    7.2881982437
  - # 12
    frequency:    7.8791845343
  - # 13
    frequency:    8.2011898801
  - # 14
    frequency:   10.5150473252
  - # 15
    frequency:   10.7282992917
  - # 16
    frequency:   14.7078115250
  - # 17
    frequency:   16.5992755918
  - # 18
    frequency:   62.5662702277

- q-position: [    0.1464646,    0.0000000,    0.0000000 ]
  distance:    0.0486644
  band:
  - # 1
    frequency:   -2.9445386893
  - # 2
    frequency:   -2.8371140986
  - # 3
    frequency:    1.1664114077
  - # 4
    frequency:    1.8392313480
  - # 5
    frequency:    2.8210634333
  - # 6
    frequency:    3.3718274073
  - # 7
    frequency:    4.1311166820
  - # 8
    frequency:    4.6095862553
  - # 9
    frequency:    5.4853766484
  - # 10
    frequency:    6.0716762659
  - # 11
    frequency:    7.2897029431
  - # 12
    frequency:    7.8900546731
  - # 13
    frequency:    8.2169263411
  - # 14
    frequency:   10.4734727617
  - # 15
    frequency:   10.7382421573
  - # 16
    frequency:   14.8942905647
  - # 17
    frequency:   16.5369593061
  - # 18
    frequency:   62.5629655157

- q-position: [    0.1515152,    0.0000000,    0.0000000 ]
  distance:    0.0503425
  band:
  - # 1
    frequency:   -2.9413406838
  - # 2
    frequency:   -2.8286306415
  - # 3
    frequency:    1.2306973457
  - # 4
    frequency:    1.8908244335
  - # 5
    frequency:    2.8957249372
  - # 6
    frequency:    3.3973246997
  - # 7
    frequency:    4.1726361207
  - # 8
    frequency:    4.6209856786
  - # 9
    frequency:    5.4893200484
  - # 10
    frequency:    6.0993757332
  - # 11
    frequency:    7.2910249672
  - # 12
    frequency:    7.8997931555
  - # 13
    frequency:    8.2338070707
  - # 14
    frequency:   10.4313500635
  - # 15
    frequency:   10.7474671449
  - # 16
    frequency:   15.0728198689
  - # 17
    frequency:   16.4764372320
  - # 18
    frequency:   62.5596379488

- q-position: [    0.1565657,    0.0000000,    0.0000000 ]
  distance:    0.0520206
  band:
  - # 1
    frequency:   -2.9381631394
  - # 2
    frequency:   -2.8200386090
  - # 3
    frequency:    1.2951937064
  - # 4
    frequency:    1.9413126384
  - # 5
    frequency:    2.9681470628
  - # 6
    frequency:    3.4234273920
  - # 7
    frequency:    4.2095104002
  - # 8
    frequency:    4.6373412345
  - # 9
    frequency:    5.4929917369
  - # 10
    frequency:    6.1275157819
  - # 11
    frequency:    7.2921635786
  - # 12
    frequency:    7.9085418006
  - # 13
    frequency:    8.2517565110
  - # 14
    frequency:   10.3887868187
  - # 15
    frequency:   10.7559417064
  - # 16
    frequency:   15.2413837823
  - # 17
    frequency:   16.4193397662
  - # 18
    frequency:   62.5562940416

- q-position: [    0.1616162,    0.0000000,    0.0000000 ]
  distance:    0.0536987
  band:
  - # 1
    frequency:   -2.9350103817
  - # 2
    frequency:   -2.8113308212
  - # 3
    frequency:    1.3598320111
  - # 4
    frequency:    1.9906794795
  - # 5
    frequency:    3.0382839893
  - # 6
    frequency:    3.4501191862
  - # 7
    frequency:    4.2412288061
  - # 8
    frequency:    4.6590713755
  - # 9
    frequency:    5.4963834314
  - # 10
    frequency:    6.1561587814
  - # 11
    frequency:    7.2931201641
  - # 12
    frequency:    7.9164404548
  - # 13
    frequency:    8.2706939388
  - # 14
    frequency:   10.3458924369
  - # 15
    frequency:   10.7636413703
  - # 16
    frequency:   15.3968419990
  - # 17
    frequency:   16.3684735129
  - # 18
    frequency:   62.5529401091

- q-position: [    0.1666667,    0.0000000,    0.0000000 ]
  distance:    0.0553767
  band:
  - # 1
    frequency:   -2.9318862602
  - # 2
    frequency:   -2.8025003872
  - # 3
    frequency:    1.4245479805
  - # 4
    frequency:    2.0389108853
  - # 5
    frequency:    3.1060911031
  - # 6
    frequency:    3.4773837655
  - # 7
    frequency:    4.2676882871
  - # 8
    frequency:    4.6861907600
  - # 9
    frequency:    5.4994903672
  - # 10
    frequency:    6.1853627939
  - # 11
    frequency:    7.2938981922
  - # 12
    frequency:    7.9236215833
  - # 13
    frequency:    8.2905380027
  - # 14
    frequency:   10.3027789480
  - # 15
    frequency:   10.7705498638
  - # 16
    frequency:   15.5338852722
  - # 17
    frequency:   16.3288626595
  - # 18
    frequency:   62.5495822476

- q-position: [    0.1717172,    0.0000000,    0.0000000 ]
  distance:    0.0570548
  band:
  - # 1
    frequency:   -2.9287941595
  - # 2
    frequency:   -2.7935409667
  - # 3
    frequency:    1.4892811514
  - # 4
    frequency:    2.0859952552
  - # 5
    frequency:    3.1715237801
  - # 6
    frequency:    3.5052047106
  - # 7
    frequency:    4.2892547849
  - # 8
    frequency:    4.7182518307
  - # 9
    frequency:    5.5023114444
  - # 10
    frequency:    6.2151800198
  - # 11
    frequency:    7.2945031549
  - # 12
    frequency:    7.9302065703
  - # 13
    frequency:    8.3112094237
  - # 14
    frequency:   10.2595618405
  - # 15
    frequency:   10.7766591536
  - # 16
    frequency:   15.6436314586
  - # 17
    frequency:   16.3091501773
  - # 18
    frequency:   62.5462263151

- q-position: [    0.1767677,    0.0000000,    0.0000000 ]
  distance:    0.0587329
  band:
  - # 1
    frequency:   -2.9257370081
  - # 2
    frequency:   -2.7844470000
  - # 3
    frequency:    1.5539744645
  - # 4
    frequency:    2.1319235066
  - # 5
    frequency:    3.2345361781
  - # 6
    frequency:    3.5335654161
  - # 7
    frequency:    4.3066695201
  - # 8
    frequency:    4.7544416971
  - # 9
    frequency:    5.5048493574
  - # 10
    frequency:    6.2456550582
  - # 11
    frequency:    7.2949424926
  - # 12
    frequency:    7.9363036253
  - # 13
    frequency:    8.3326319031
  - # 14