nqpoint: 300    
npath: 3      
segment_nqpoint:
- 100
- 100
- 100
labels:
- [ 'G', 'M' ]
- [ 'M', 'K' ]
- [ 'K', 'G' ]
reciprocal_lattice:
- [   0.30052062,   0.17350566,   0.00000000 ] # a*
- [   0.00000000,   0.34701133,   0.00000000 ] # b*
- [   0.00000000,   0.00000000,   0.03534401 ] # c*
natom: 9      
lattice:
- [     3.327558653258285,     0.000000000000000,     0.000000000000000 ] # a
- [    -1.663779326629142,     2.881750326301788,     0.000000000000000 ] # b
- [     0.000000000000000,     0.000000000000000,    28.293337504761471 ] # c
points:
- symbol: C # 1
  coordinates: [  0.333332985432215,  0.666666983183674,  0.639323337162733 ]
  mass: 12.010700
- symbol: C # 2
  coordinates: [  0.666666984744047,  0.333332985985145,  0.372942160582786 ]
  mass: 12.010700
- symbol: N # 3
  coordinates: [  0.000000000000000,  0.000000000000000,  0.506180647819111 ]
  mass: 14.006700
- symbol: N # 4
  coordinates: [  0.333332985432215,  0.666666983183674,  0.595307334859898 ]
  mass: 14.006700
- symbol: N # 5
  coordinates: [  0.666666984744047,  0.333332985985145,  0.417236242763323 ]
  mass: 14.006700
- symbol: O # 6
  coordinates: [  0.333332985432215,  0.666666983183674,  0.681903911177485 ]
  mass: 15.999400
- symbol: S # 7
  coordinates: [  0.666666984744047,  0.333332985985145,  0.318096088822515 ]
  mass: 32.065000
- symbol: Sc # 8
  coordinates: [  0.333332985432215,  0.666666983183674,  0.462060862380639 ]
  mass: 44.955912
- symbol: Sc # 9
  coordinates: [  0.666666984744047,  0.333332985985145,  0.547991055125400 ]
  mass: 44.955912

phonon:
- q-position: [    0.0000000,    0.0000000,    0.0000000 ]
  distance:    0.0000000
  band:
  - # 1
    frequency:   -1.3702357967
  - # 2
    frequency:   -1.3702357967
  - # 3
    frequency:   -0.0000101569
  - # 4
    frequency:    0.0000006501
  - # 5
    frequency:    0.0000086923
  - # 6
    frequency:    0.4778254300
  - # 7
    frequency:    0.4778254301
  - # 8
    frequency:    4.7224535883
  - # 9
    frequency:    4.7224535883
  - # 10
    frequency:    5.3813864216
  - # 11
    frequency:    7.5651809768
  - # 12
    frequency:    7.5651809768
  - # 13
    frequency:    8.1731185351
  - # 14
    frequency:    8.1731185351
  - # 15
    frequency:    8.3249501008
  - # 16
    frequency:   10.8975777144
  - # 17
    frequency:   13.1917977980
  - # 18
    frequency:   13.1917977980
  - # 19
    frequency:   13.4837500507
  - # 20
    frequency:   13.8432923273
  - # 21
    frequency:   13.8432923273
  - # 22
    frequency:   17.6152337788
  - # 23
    frequency:   17.6152337788
  - # 24
    frequency:   27.0158397833
  - # 25
    frequency:   38.6358075510
  - # 26
    frequency:   57.4502354369
  - # 27
    frequency:   69.3431434372

- q-position: [    0.0050505,    0.0000000,    0.0000000 ]
  distance:    0.0017526
  band:
  - # 1
    frequency:   -1.3702010888
  - # 2
    frequency:   -1.3691617549
  - # 3
    frequency:    0.0026148475
  - # 4
    frequency:    0.0874649014
  - # 5
    frequency:    0.0965789129
  - # 6
    frequency:    0.4839832396
  - # 7
    frequency:    0.4895095358
  - # 8
    frequency:    4.7222597133
  - # 9
    frequency:    4.7233207385
  - # 10
    frequency:    5.3810021076
  - # 11
    frequency:    7.5651237921
  - # 12
    frequency:    7.5653929869
  - # 13
    frequency:    8.1728017100
  - # 14
    frequency:    8.1731475667
  - # 15
    frequency:    8.3251810838
  - # 16
    frequency:   10.8966979304
  - # 17
    frequency:   13.1914241684
  - # 18
    frequency:   13.1914405954
  - # 19
    frequency:   13.4836805766
  - # 20
    frequency:   13.8433948882
  - # 21
    frequency:   13.8437508391
  - # 22
    frequency:   17.6152653998
  - # 23
    frequency:   17.6155233833
  - # 24
    frequency:   27.0157495620
  - # 25
    frequency:   38.6358056386
  - # 26
    frequency:   57.4494197741
  - # 27
    frequency:   69.3418845658

- q-position: [    0.0101010,    0.0000000,    0.0000000 ]
  distance:    0.0035052
  band:
  - # 1
    frequency:   -1.3700789654
  - # 2
    frequency:   -1.3659371094
  - # 3
    frequency:    0.0097572280
  - # 4
    frequency:    0.1718191283
  - # 5
    frequency:    0.1928514150
  - # 6
    frequency:    0.5029942365
  - # 7
    frequency:    0.5230775251
  - # 8
    frequency:    4.7216815180
  - # 9
    frequency:    4.7259142807
  - # 10
    frequency:    5.3798546810
  - # 11
    frequency:    7.5649519813
  - # 12
    frequency:    7.5660284475
  - # 13
    frequency:    8.1718480125
  - # 14
    frequency:    8.1732346268
  - # 15
    frequency:    8.3258790375
  - # 16
    frequency:   10.8940601422
  - # 17
    frequency:   13.1903009758
  - # 18
    frequency:   13.1903692668
  - # 19
    frequency:   13.4834754507
  - # 20
    frequency:   13.8437024620
  - # 21
    frequency:   13.8451243273
  - # 22
    frequency:   17.6153601784
  - # 23
    frequency:   17.6163913226
  - # 24
    frequency:   27.0154790455
  - # 25
    frequency:   38.6357999089
  - # 26
    frequency:   57.4469741518
  - # 27
    frequency:   69.3381106201

- q-position: [    0.0151515,    0.0000000,    0.0000000 ]
  distance:    0.0052577
  band:
  - # 1
    frequency:   -1.3698185401
  - # 2
    frequency:   -1.3605543251
  - # 3
    frequency:    0.0210229187
  - # 4
    frequency:    0.2496673407
  - # 5
    frequency:    0.2885641866
  - # 6
    frequency:    0.5363283932
  - # 7
    frequency:    0.5749197024
  - # 8
    frequency:    4.7207292899
  - # 9
    frequency:    4.7302105199
  - # 10
    frequency:    5.3779607471
  - # 11
    frequency:    7.5646647834
  - # 12
    frequency:    7.5670855736
  - # 13
    frequency:    8.1702485707
  - # 14
    frequency:    8.1733795956
  - # 15
    frequency:    8.3270582644
  - # 16
    frequency:   10.8896690378
  - # 17
    frequency:   13.1884214248
  - # 18
    frequency:   13.1885846569
  - # 19
    frequency:   13.4831443752
  - # 20
    frequency:   13.8442147155
  - # 21
    frequency:   13.8474067285
  - # 22
    frequency:   17.6155178625
  - # 23
    frequency:   17.6178349795
  - # 24
    frequency:   27.0150286763
  - # 25
    frequency:   38.6357903848
  - # 26
    frequency:   57.4429026643
  - # 27
    frequency:   69.3318295982

- q-position: [    0.0202020,    0.0000000,    0.0000000 ]
  distance:    0.0070103
  band:
  - # 1
    frequency:   -1.3693443737
  - # 2
    frequency:   -1.3530008581
  - # 3
    frequency:    0.0359856980
  - # 4
    frequency:    0.3179697775
  - # 5
    frequency:    0.3835539321
  - # 6
    frequency:    0.5854751151
  - # 7
    frequency:    0.6408950120
  - # 8
    frequency:    4.7194201649
  - # 9
    frequency:    4.7361700554
  - # 10
    frequency:    5.3753481811
  - # 11
    frequency:    7.5642609608
  - # 12
    frequency:    7.5685611410
  - # 13
    frequency:    8.1679911094
  - # 14
    frequency:    8.1735822211
  - # 15
    frequency:    8.3287403638
  - # 16
    frequency:   10.8835324182
  - # 17
    frequency:   13.1857745694
  - # 18
    frequency:   13.1860881993
  - # 19
    frequency:   13.4827029134
  - # 20
    frequency:   13.8449310708
  - # 21
    frequency:   13.8505881902
  - # 22
    frequency:   17.6157380353
  - # 23
    frequency:   17.6198500084
  - # 24
    frequency:   27.0143991909
  - # 25
    frequency:   38.6357771041
  - # 26
    frequency:   57.4372121245
  - # 27
    frequency:   69.3230548046

- q-position: [    0.0252525,    0.0000000,    0.0000000 ]
  distance:    0.0087629
  band:
  - # 1
    frequency:   -1.3685675381
  - # 2
    frequency:   -1.3432589555
  - # 3
    frequency:    0.0544081383
  - # 4
    frequency:    0.3758869401
  - # 5
    frequency:    0.4777655589
  - # 6
    frequency:    0.6499756298
  - # 7
    frequency:    0.7173763496
  - # 8
    frequency:    4.7177781108
  - # 9
    frequency:    4.7437378910
  - # 10
    frequency:    5.3720564414
  - # 11
    frequency:    7.5637388439
  - # 12
    frequency:    7.5704501206
  - # 13
    frequency:    8.1650632629
  - # 14
    frequency:    8.1738420436
  - # 15
    frequency:    8.3309513186
  - # 16
    frequency:   10.8756611789
  - # 17
    frequency:   13.1823458657
  - # 18
    frequency:   13.1828819535
  - # 19
    frequency:   13.4821716274
  - # 20
    frequency:   13.8458506726
  - # 21
    frequency:   13.8546554182
  - # 22
    frequency:   17.6160201200
  - # 23
    frequency:   17.6224303589
  - # 24
    frequency:   27.0135916189
  - # 25
    frequency:   38.6357601195
  - # 26
    frequency:   57.4299120462
  - # 27
    frequency:   69.3118048123

- q-position: [    0.0303030,    0.0000000,    0.0000000 ]
  distance:    0.0105155
  band:
  - # 1
    frequency:   -1.3673965831
  - # 2
    frequency:   -1.3313050156
  - # 3
    frequency:    0.0761904200
  - # 4
    frequency:    0.4255398675
  - # 5
    frequency:    0.5712389921
  - # 6
    frequency:    0.7266147333
  - # 7
    frequency:    0.8015470249
  - # 8
    frequency:    4.7158339004
  - # 9
    frequency:    4.7528435385
  - # 10
    frequency:    5.3681370330
  - # 11
    frequency:    7.5630963906
  - # 12
    frequency:    7.5727451838
  - # 13
    frequency:    8.1614564082
  - # 14
    frequency:    8.1741582943
  - # 15
    frequency:    8.3337182065
  - # 16
    frequency:   10.8660692851
  - # 17
    frequency:   13.1781179082
  - # 18
    frequency:   13.1789686541
  - # 19
    frequency:   13.4815749652
  - # 20
    frequency:   13.8469723456
  - # 21
    frequency:   13.8595921097
  - # 22
    frequency:   17.6163633863
  - # 23
    frequency:   17.6255683099
  - # 24
    frequency:   27.0126072818
  - # 25
    frequency:   38.6357394980
  - # 26
    frequency:   57.4210146209
  - # 27
    frequency:   69.2981034095

- q-position: [    0.0353535,    0.0000000,    0.0000000 ]
  distance:    0.0122681
  band:
  - # 1
    frequency:   -1.3657463106
  - # 2
    frequency:   -1.3171082954
  - # 3
    frequency:    0.1012887921
  - # 4
    frequency:    0.4701600205
  - # 5
    frequency:    0.6640731933
  - # 6
    frequency:    0.8112473366
  - # 7
    frequency:    0.8913239717
  - # 8
    frequency:    4.7136250684
  - # 9
    frequency:    4.7634010655
  - # 10
    frequency:    5.3636541498
  - # 11
    frequency:    7.5623312584
  - # 12
    frequency:    7.5754360939
  - # 13
    frequency:    8.1571694334
  - # 14
    frequency:    8.1745297721
  - # 15
    frequency:    8.3370661013
  - # 16
    frequency:   10.8547737383
  - # 17
    frequency:   13.1730713140
  - # 18
    frequency:   13.1743517691
  - # 19
    frequency:   13.4809399757
  - # 20
    frequency:   13.8482945435
  - # 21
    frequency:   13.8653794259
  - # 22
    frequency:   17.6167669587
  - # 23
    frequency:   17.6292545114
  - # 24
    frequency:   27.0114477905
  - # 25
    frequency:   38.6357153209
  - # 26
    frequency:   57.4105346868
  - # 27
    frequency:   69.2819795315

- q-position: [    0.0404040,    0.0000000,    0.0000000 ]
  distance:    0.0140207
  band:
  - # 1
    frequency:   -1.3635434288
  - # 2
    frequency:   -1.3006288033
  - # 3
    frequency:    0.1296665161
  - # 4
    frequency:    0.5122706839
  - # 5
    frequency:    0.7563850172
  - # 6
    frequency:    0.9005963347
  - # 7
    frequency:    0.9851924849
  - # 8
    frequency:    4.7111958485
  - # 9
    frequency:    4.7753090299
  - # 10
    frequency:    5.3586855252
  - # 11
    frequency:    7.5614408854
  - # 12
    frequency:    7.5785090051
  - # 13
    frequency:    8.1522119543
  - # 14
    frequency:    8.1749547058
  - # 15
    frequency:    8.3410156337
  - # 16
    frequency:   10.8417945374
  - # 17
    frequency:   13.1671857086
  - # 18
    frequency:   13.1690355659
  - # 19
    frequency:   13.4802949430
  - # 20
    frequency:   13.8498152939
  - # 21
    frequency:   13.8719964637
  - # 22
    frequency:   17.6172298263
  - # 23
    frequency:   17.6334780362
  - # 24
    frequency:   27.0101150437
  - # 25
    frequency:   38.6356876832
  - # 26
    frequency:   57.3984896918
  - # 27
    frequency:   69.2634671777

- q-position: [    0.0454545,    0.0000000,    0.0000000 ]
  distance:    0.0157732
  band:
  - # 1
    frequency:   -1.3607291790
  - # 2
    frequency:   -1.2818142586
  - # 3
    frequency:    0.1612727608
  - # 4
    frequency:    0.5533574078
  - # 5
    frequency:    0.8482784550
  - # 6
    frequency:    0.9925593053
  - # 7
    frequency:    1.0820559319
  - # 8
    frequency:    4.7085970840
  - # 9
    frequency:    4.7884502374
  - # 10
    frequency:    5.3533235310
  - # 11
    frequency:    7.5604225779
  - # 12
    frequency:    7.5819456886
  - # 13
    frequency:    8.1466066863
  - # 14
    frequency:    8.1754306045
  - # 15
    frequency:    8.3455814797
  - # 16
    frequency:   10.8271546326
  - # 17
    frequency:   13.1604407584
  - # 18
    frequency:   13.1630251794
  - # 19
    frequency:   13.4796680287
  - # 20
    frequency:   13.8515321403
  - # 21
    frequency:   13.8794206921
  - # 22
    frequency:   17.6177508536
  - # 23
    frequency:   17.6382264383
  - # 24
    frequency:   27.0086112251
  - # 25
    frequency:   38.6356566928
  - # 26
    frequency:   57.3848996503
  - # 27
    frequency:   69.2426053141

- q-position: [    0.0505051,    0.0000000,    0.0000000 ]
  distance:    0.0175258
  band:
  - # 1
    frequency:   -1.3572596092
  - # 2
    frequency:   -1.2605959932
  - # 3
    frequency:    0.1960358069
  - # 4
    frequency:    0.5941844369
  - # 5
    frequency:    0.9398294407
  - # 6
    frequency:    1.0858683945
  - # 7
    frequency:    1.1811189250
  - # 8
    frequency:    4.7058861036
  - # 9
    frequency:    4.8026912615
  - # 10
    frequency:    5.3476765576
  - # 11
    frequency:    7.5592735988
  - # 12
    frequency:    7.5857227153
  - # 13
    frequency:    8.1403909029
  - # 14
    frequency:    8.1759541064
  - # 15
    frequency:    8.3507718190
  - # 16
    frequency:   10.8108798719
  - # 17
    frequency:   13.1528171949
  - # 18
    frequency:   13.1563266812
  - # 19
    frequency:   13.4790860064
  - # 20
    frequency:   13.8534420858
  - # 21
    frequency:   13.8876283262
  - # 22
    frequency:   17.6183287924
  - # 23
    frequency:   17.6434858197
  - # 24
    frequency:   27.0069388006
  - # 25
    frequency:   38.6356224703
  - # 26
    frequency:   57.3697870927
  - # 27
    frequency:   69.2194377616

- q-position: [    0.0555556,    0.0000000,    0.0000000 ]
  distance:    0.0192784
  band:
  - # 1
    frequency:   -1.3531043298
  - # 2
    frequency:   -1.2368836023
  - # 3
    frequency:    0.2338619833
  - # 4
    frequency:    0.6351099806
  - # 5
    frequency:    1.0310830402
  - # 6
    frequency:    1.1797528339
  - # 7
    frequency:    1.2818001473
  - # 8
    frequency:    4.7031265561
  - # 9
    frequency:    4.8178816818
  - # 10
    frequency:    5.3418707001
  - # 11
    frequency:    7.5579912556
  - # 12
    frequency:    7.5898106228
  - # 13
    frequency:    8.1336170976
  - # 14
    frequency:    8.1765208303
  - # 15
    frequency:    8.3565886138
  - # 16
    frequency:   10.7929989418
  - # 17
    frequency:   13.1442977735
  - # 18
    frequency:   13.1489471461
  - # 19
    frequency:   13.4785731576
  - # 20
    frequency:   13.8555415418
  - # 21
    frequency:   13.8965946277
  - # 22
    frequency:   17.6189622945
  - # 23
    frequency:   17.6492409039
  - # 24
    frequency:   27.0051005153
  - # 25
    frequency:   38.6355851480
  - # 26
    frequency:   57.3531770098
  - # 27
    frequency:   69.1940130704

- q-position: [    0.0606061,    0.0000000,    0.0000000 ]
  distance:    0.0210310
  band:
  - # 1
    frequency:   -1.3482444891
  - # 2
    frequency:   -1.2105580244
  - # 3
    frequency:    0.2746364134
  - # 4
    frequency:    0.6762797661
  - # 5
    frequency:    1.1220573728
  - # 6
    frequency:    1.2737261310
  - # 7
    frequency:    1.3836684579
  - # 8
    frequency:    4.7003881938
  - # 9
    frequency:    4.8338530354
  - # 10
    frequency:    5.3360517346
  - # 11
    frequency:    7.5565729815
  - # 12
    frequency:    7.5941731047
  - # 13
    frequency:    8.1263530638
  - # 14
    frequency:    8.1771252378
  - # 15
    frequency:    8.3630284566
  - # 16
    frequency:   10.7735433009
  - # 17
    frequency:   13.1348681220
  - # 18
    frequency:   13.1408947115
  - # 19
    frequency:   13.4781503810
  - # 20
    frequency:   13.8578262820
  - # 21
    frequency:   13.9062941250
  - # 22
    frequency:   17.6196499250
  - # 23
    frequency:   17.6554751150
  - # 24
    frequency:   27.0030993902
  - # 25
    frequency:   38.6355448697
  - # 26
    frequency:   57.3350967905
  - # 27
    frequency:   69.1663843804

- q-position: [    0.0656566,    0.0000000,    0.0000000 ]
  distance:    0.0227836
  band:
  - # 1
    frequency:   -1.3426705036
  - # 2
    frequency:   -1.1814625345
  - # 3
    frequency:    0.3182241150
  - # 4
    frequency:    0.7177315680
  - # 5
    frequency:    1.2127498441
  - # 6
    frequency:    1.3674657537
  - # 7
    frequency:    1.4863967407
  - # 8
    frequency:    4.6977465973
  - # 9
    frequency:    4.8504175590
  - # 10
    frequency:    5.3303872985
  - # 11
    frequency:    7.5550164096
  - # 12
    frequency:    7.5987662672
  - # 13
    frequency:    8.1186816158
  - # 14
    frequency:    8.1777605113
  - # 15
    frequency:    8.3700837124
  - # 16
    frequency:   10.7525471070
  - # 17
    frequency:   13.1245174427
  - # 18
    frequency:   13.1321786304
  - # 19
    frequency:   13.4778345455
  - # 20
    frequency:   13.8602914070
  - # 21
    frequency:   13.9167007608
  - # 22
    frequency:   17.6203901760
  - # 23
    frequency:   17.6621706631
  - # 24
    frequency:   27.0009387187
  - # 25
    frequency:   38.6355017894
  - # 26
    frequency:   57.3155761534
  - # 27
    frequency:   69.1366092689

- q-position: [    0.0707071,    0.0000000,    0.0000000 ]
  distance:    0.0245362
  band:
  - # 1
    frequency:   -1.3363798752
  - # 2
    frequency:   -1.1493908652
  - # 3
    frequency:    0.3644710895
  - # 4
    frequency:    0.7594496804
  - # 5
    frequency:    1.3031432697
  - # 6
    frequency:    1.4607462082
  - # 7
    frequency:    1.5897289411
  - # 8
    frequency:    4.6952828306
  - # 9
    frequency:    4.8673669494
  - # 10
    frequency:    5.3250690400
  - # 11
    frequency:    7.5533194347
  - # 12
    frequency:    7.6035380144
  - # 13
    frequency:    8.1107001205
  - # 14
    frequency:    8.1784184564
  - # 15
    frequency:    8.3777437252
  - # 16
    frequency:   10.7300471370
  - # 17
    frequency:   13.1132390510
  - # 18
    frequency:   13.1228093125
  - # 19
    frequency:   13.4776380963
  - # 20
    frequency:   13.8629313191
  - # 21
    frequency:   13.9277879740
  - # 22
    frequency:   17.6211814796
  - # 23
    frequency:   17.6693086332
  - # 24
    frequency:   26.9986220629
  - # 25
    frequency:   38.6354560709
  - # 26
    frequency:   57.2946470738
  - # 27
    frequency:   69.1047495850

- q-position: [    0.0757576,    0.0000000,    0.0000000 ]
  distance:    0.0262887
  band:
  - # 1
    frequency:   -1.3293752658
  - # 2
    frequency:   -1.1140712576
  - # 3
    frequency:    0.4132054866
  - # 4
    frequency:    0.8013931098
  - # 5
    frequency:    1.3932109349
  - # 6
    frequency:    1.5534012837
  - # 7
    frequency:    1.6934566425
  - # 8
    frequency:    4.6930830191
  - # 9
    frequency:    4.8844716234
  - # 10
    frequency:    5.3203142575
  - # 11
    frequency:    7.5514802622
  - # 12
    frequency:    7.6084276420
  - # 13
    frequency:    8.1025199164
  - # 14
    frequency:    8.1790894299
  - # 15
    frequency:    8.3859959255
  - # 16
    frequency:   10.7060827003
  - # 17
    frequency:   13.1010307488
  - # 18
    frequency:   13.1127983551
  - # 19
    frequency:   13.4775689023
  - # 20
    frequency:   13.8657397096
  - # 21
    frequency:   13.9395287306
  - # 22
    frequency:   17.6220222212
  - # 23
    frequency:   17.6768690790
  - # 24
    frequency:   26.9961532501
  - # 25
    frequency:   38.6354078871
  - # 26
    frequency:   57.2723437043
  - # 27
    frequency:   69.0708712724

- q-position: [    0.0808081,    0.0000000,    0.0000000 ]
  distance:    0.0280413
  band:
  - # 1
    frequency:   -1.3216628928
  - # 2
    frequency:   -1.0751445695
  - # 3
    frequency:    0.4642390931
  - # 4
    frequency:    0.8435101475
  - # 5
    frequency:    1.4829204125
  - # 6
    frequency:    1.6453022674
  - # 7
    frequency:    1.7974023835
  - # 8
    frequency:    4.6912378409
  - # 9
    frequency:    4.9014813480
  - # 10
    frequency:    5.3163661674
  - # 11
    frequency:    7.5494974425
  - # 12
    frequency:    7.6133657472
  - # 13
    frequency:    8.0942655990
  - # 14
    frequency:    8.1797623013
  - # 15
    frequency:    8.3948267466
  - # 16
    frequency:   10.6806955453
  - # 17
    frequency:   13.0878950441
  - # 18
    frequency:   13.1021585602
  - # 19
    frequency:   13.4776303168
  - # 20
    frequency:   13.8687095579
  - # 21
    frequency:   13.9518955176
  - # 22
    frequency:   17.6229107527
  - # 23
    frequency:   17.6848311189
  - # 24
    frequency:   26.9935363682
  - # 25
    frequency:   38.6353574191
  - # 26
    frequency:   57.2487022904
  - # 27
    frequency:   69.0350441794

- q-position: [    0.0858586,    0.0000000,    0.0000000 ]
  distance:    0.0297939
  band:
  - # 1
    frequency:   -1.3132512440
  - # 2
    frequency:   -1.0321333335
  - # 3
    frequency:    0.5173694287
  - # 4
    frequency:    0.8857458486
  - # 5
    frequency:    1.5722362804
  - # 6
    frequency:    1.7363450998
  - # 7
    frequency:    1.9014076599
  - # 8
    frequency:    4.6898419237
  - # 9
    frequency:    4.9181286313
  - # 10
    frequency:    5.3134914255
  - # 11
    frequency:    7.5473698907
  - # 12
    frequency:    7.6182745996
  - # 13
    frequency:    8.0860740629
  - # 14
    frequency:    8.1804244484
  - # 15
    frequency:    8.4042223111
  - # 16
    frequency:   10.6539297584
  - # 17
    frequency:   13.0738392425
  - # 18
    frequency:   13.0909039390
  - # 19
    frequency:   13.4778214152
  - # 20
    frequency:   13.8718331450
  - # 21
    frequency:   13.9648603128
  - # 22
    frequency:   17.6238454036
  - # 23
    frequency:   17.6931730344
  - # 24
    frequency:   26.9907757622
  - # 25
    frequency:   38.6353048555
  - # 26
    frequency:   57.2237610817
  - # 27
    frequency:   68.9973418585

- q-position: [    0.0909091,    0.0000000,    0.0000000 ]
  distance:    0.0315465
  band:
  - # 1
    frequency:   -1.3041500769
  - # 2
    frequency:   -0.9843962672
  - # 3
    frequency:    0.5723826848
  - # 4
    frequency:    0.9280457860
  - # 5
    frequency:    1.6611219719
  - # 6
    frequency:    1.8264426690
  - # 7
    frequency:    2.0053241422
  - # 8
    frequency:    4.6889931403
  - # 9
    frequency:    4.9341367858
  - # 10
    frequency:    5.3119730094
  - # 11
    frequency:    7.5450968909
  - # 12
    frequency:    7.6230691493
  - # 13
    frequency:    8.0780931153
  - # 14
    frequency:    8.1810617895
  - # 15
    frequency:    8.4141688859
  - # 16
    frequency:   10.6258316563
  - # 17
    frequency:   13.0588754382
  - # 18
    frequency:   13.0790497035
  - # 19
    frequency:   13.4781373638
  - # 20
    frequency:   13.8751020779
  - # 21
    frequency:   13.9783945429
  - # 22
    frequency:   17.6248244928
  - # 23
    frequency:   17.7018723698
  - # 24
    frequency:   26.9878760293
  - # 25
    frequency:   38.6352503914
  - # 26
    frequency:   57.1975602380
  - # 27
    frequency:   68.9578413553

- q-position: [    0.0959596,    0.0000000,    0.0000000 ]
  distance:    0.0332991
  band:
  - # 1
    frequency:   -1.2943696577
  - # 2
    frequency:   -0.9310577895
  - # 3
    frequency:    0.6290576277
  - # 4
    frequency:    0.9703578383
  - # 5
    frequency:    1.7495409800
  - # 6
    frequency:    1.9155201456
  - # 7
    frequency:    2.1090070811
  - # 8
    frequency:    4.6887917989
  - # 9
    frequency:    4.9492347536
  - # 10
    frequency:    5.3120964005
  - # 11
    frequency:    7.5426780878
  - # 12
    frequency:    7.6276588823
  - # 13
    frequency:    8.0704794244
  - # 14
    frequency:    8.1816588528
  - # 15
    frequency:    8.4246531266
  - # 16
    frequency:   10.5964496724
  - # 17
    frequency:   13.0430204379
  - # 18
    frequency:   13.0666122444
  - # 19
    frequency:   13.4785698783
  - # 20
    frequency:   13.8785073268
  - # 21
    frequency:   13.9924690383
  - # 22
    frequency:   17.6258463378
  - # 23
    frequency:   17.7109060327
  - # 24
    frequency:   26.9848420144
  - # 25
    frequency:   38.6351942283
  - # 26
    frequency:   57.1701417310
  - # 27
    frequency:   68.9166229862

- q-position: [    0.1010101,    0.0000000,    0.0000000 ]
  distance:    0.0350516
  band:
  - # 1
    frequency:   -1.2839201895
  - # 2
    frequency:   -0.8708911766
  - # 3
    frequency:    0.6871704350
  - # 4
    frequency:    1.0126329444
  - # 5
    frequency:    1.8374575988
  - # 6
    frequency:    2.0035121591
  - # 7
    frequency:    2.2123101858
  - # 8
    frequency:    4.6893397230
  - # 9
    frequency:    4.9631799871
  - # 10
    frequency:    5.3141277985
  - # 11
    frequency:    7.5401134659
  - # 12
    frequency:    7.6319507338
  - # 13
    frequency:    8.0633955517
  - # 14
    frequency:    8.1821988836
  - # 15
    frequency:    8.4356621394
  - # 16
    frequency:   10.5658342356
  - # 17
    frequency:   13.0262956443
  - # 18
    frequency:   13.0536090982
  - # 19
    frequency:   13.4791077327
  - # 20
    frequency:   13.8820392724
  - # 21
    frequency:   14.0070539951
  - # 22
    frequency:   17.6269092640
  - # 23
    frequency:   17.7202503940
  - # 24
    frequency:   26.9816788053
  - # 25
    frequency:   38.6351365725
  - # 26
    frequency:   57.1415492422
  - # 27
    frequency:   68.8737701085

- q-position: [    0.1060606,    0.0000000,    0.0000000 ]
  distance:    0.0368042
  band:
  - # 1
    frequency:   -1.2728113876
  - # 2
    frequency:   -0.8021076227
  - # 3
    frequency:    0.7465002642
  - # 4
    frequency:    1.0548253221
  - # 5
    frequency:    1.9248373444
  - # 6
    frequency:    2.0903611192
  - # 7
    frequency:    2.3150814878
  - # 8
    frequency:    4.6907392237
  - # 9
    frequency:    4.9757882772
  - # 10
    frequency:    5.3182855050
  - # 11
    frequency:    7.5374033201
  - # 12
    frequency:    7.6358532258
  - # 13
    frequency:    8.0570058598
  - # 14
    frequency:    8.1826639854
  - # 15
    frequency:    8.4471833930
  - # 16
    frequency:   10.5340376453
  - # 17
    frequency:   13.0087269242
  - # 18
    frequency:   13.0400589011
  - # 19
    frequency:   13.4797372847
  - # 20
    frequency:   13.8856877630
  - # 21
    frequency:   14.0221189464
  - # 22
    frequency:   17.6280116116
  - # 23
    frequency:   17.7298813872
  - # 24
    frequency:   26.9783917270
  - # 25
    frequency:   38.6350776349
  - # 26
    frequency:   57.1118280567
  - # 27
    frequency:   68.8293688807

- q-position: [    0.1111111,    0.0000000,    0.0000000 ]
  distance:    0.0385568
  band:
  - # 1
    frequency:   -1.2610521643
  - # 2
    frequency:   -0.7219313630
  - # 3
    frequency:    0.8068352179
  - # 4
    frequency:    1.0968924217
  - # 5
    frequency:    2.0116471560
  - # 6
    frequency:    2.1760162616
  - # 7
    frequency:    2.4171598527
  - # 8
    frequency:    4.6930919665
  - # 9
    frequency:    4.9869655623
  - # 10
    frequency:    5.3247094694
  - # 11
    frequency:    7.5345482191
  - # 12
    frequency:    7.6392818652
  - # 13
    frequency:    8.0514712130
  - # 14
    frequency:    8.1830352945
  - # 15
    frequency:    8.4592045116
  - # 16
    frequency:   10.5011139407
  - # 17
    frequency:   12.9903444785
  - # 18
    frequency:   13.0259813341
  - # 19
    frequency:   13.4804429941
  - # 20
    frequency:   13.8894421797
  - # 21
    frequency:   14.0376327484
  - # 22
    frequency:   17.6291517418
  - # 23
    frequency:   17.7397746059
  - # 24
    frequency:   26.9749863359
  - # 25
    frequency:   38.6350176302
  - # 26
    frequency:   57.0810249544
  - # 27
    frequency:   68.7835080148

- q-position: [    0.1161616,    0.0000000,    0.0000000 ]
  distance:    0.0403094
  band:
  - # 1
    frequency:   -1.2486503919
  - # 2
    frequency:   -0.6256048810
  - # 3
    frequency:    0.8679783135
  - # 4
    frequency:    1.1387947586
  - # 5
    frequency:    2.0978554530
  - # 6
    frequency:    2.2604331593
  - # 7
    frequency:    2.5183719229
  - # 8
    frequency:    4.6964977401
  - # 9
    frequency:    4.9967332563
  - # 10
    frequency:    5.3334374726
  - # 11
    frequency:    7.5315489657
  - # 12
    frequency:    7.6421656174
  - # 13
    frequency:    8.0469426153
  - # 14
    frequency:    8.1832931845
  - # 15
    frequency:    8.4717129770
  - # 16
    frequency:   10.4671187688
  - # 17
    frequency:   12.9711827241
  - # 18
    frequency:   13.0113970577
  - # 19
    frequency:   13.4812079164
  - # 20
    frequency:   13.8932915072
  - # 21
    frequency:   14.0535635833
  - # 22
    frequency:   17.6303280409
  - # 23
    frequency:   17.7499053997
  - # 24
    frequency:   26.9714684137
  - # 25
    frequency:   38.6349567760
  - # 26
    frequency:   57.0491880968
  - # 27
    frequency:   68.7362785219

- q-position: [    0.1212121,    0.0000000,    0.0000000 ]
  distance:    0.0420620
  band:
  - # 1
    frequency:   -1.2356127213
  - # 2
    frequency:   -0.5034449109
  - # 3
    frequency:    0.9297531024
  - # 4
    frequency:    1.1804957022
  - # 5
    frequency:    2.1834320993
  - # 6
    frequency:    2.3435735361
  - # 7
    frequency:    2.6185293580
  - # 8
    frequency:    4.7010531418
  - # 9
    frequency:    5.0052385184
  - # 10
    frequency:    5.3443965246