nqpoint: 300    
npath: 3      
segment_nqpoint:
- 100
- 100
- 100
labels:
- [ 'G', 'M' ]
- [ 'M', 'K' ]
- [ 'K', 'G' ]
reciprocal_lattice:
- [   0.29963801,   0.17299608,   0.00000000 ] # a*
- [   0.00000000,   0.34599217,   0.00000000 ] # b*
- [   0.00000000,   0.00000000,   0.03641728 ] # c*
natom: 8      
lattice:
- [     3.337360339230270,     0.000000000000000,     0.000000000000000 ] # a
- [    -1.668680169615135,     2.890238835351038,     0.000000000000000 ] # b
- [     0.000000000000000,     0.000000000000000,    27.459491341243478 ] # c
points:
- symbol: C # 1
  coordinates: [  0.666666984744047,  0.333332985985145,  0.384286877008713 ]
  mass: 12.010700
- symbol: Hf # 2
  coordinates: [  0.333332985432215,  0.666666983183674,  0.484304249713335 ]
  mass: 178.490000
- symbol: Hf # 3
  coordinates: [  0.666666984744047,  0.333332985985145,  0.630595934841720 ]
  mass: 178.490000
- symbol: N # 4
  coordinates: [  0.000000000000000,  0.000000000000000,  0.507832672664779 ]
  mass: 14.006700
- symbol: N # 5
  coordinates: [  0.333332985432215,  0.666666983183674,  0.594353967694668 ]
  mass: 14.006700
- symbol: N # 6
  coordinates: [  0.666666984744047,  0.333332985985145,  0.429675873900928 ]
  mass: 14.006700
- symbol: O # 7
  coordinates: [  0.333332985432215,  0.666666983183674,  0.672244475028486 ]
  mass: 15.999400
- symbol: S # 8
  coordinates: [  0.666666984744047,  0.333332985985145,  0.327755524971514 ]
  mass: 32.065000

phonon:
- q-position: [    0.0000000,    0.0000000,    0.0000000 ]
  distance:    0.0000000
  band:
  - # 1
    frequency:  -55.8067650919
  - # 2
    frequency:  -55.8067650919
  - # 3
    frequency:  -38.4564585714
  - # 4
    frequency:  -14.0089192014
  - # 5
    frequency:  -14.0089192014
  - # 6
    frequency:   -4.8415699358
  - # 7
    frequency:   -4.8415699357
  - # 8
    frequency:   -0.0000272681
  - # 9
    frequency:    0.0000006066
  - # 10
    frequency:    0.0000253653
  - # 11
    frequency:    1.5582010222
  - # 12
    frequency:    5.3786787624
  - # 13
    frequency:    7.7749624679
  - # 14
    frequency:    7.7749624679
  - # 15
    frequency:   12.8848378974
  - # 16
    frequency:   15.4437434077
  - # 17
    frequency:   15.4437434077
  - # 18
    frequency:   19.6781131680
  - # 19
    frequency:   19.6781131680
  - # 20
    frequency:   28.2362199019
  - # 21
    frequency:   42.0369485296
  - # 22
    frequency:   42.0369485297
  - # 23
    frequency:   59.9592622241
  - # 24
    frequency:   73.2277634078

- q-position: [    0.0050505,    0.0000000,    0.0000000 ]
  distance:    0.0017474
  band:
  - # 1
    frequency:  -55.8046996353
  - # 2
    frequency:  -55.8022813031
  - # 3
    frequency:  -38.4464743780
  - # 4
    frequency:  -14.0352713346
  - # 5
    frequency:  -14.0243765335
  - # 6
    frequency:   -5.1321937538
  - # 7
    frequency:   -4.9444533314
  - # 8
    frequency:   -1.7076048253
  - # 9
    frequency:    0.0283266659
  - # 10
    frequency:    0.9148601874
  - # 11
    frequency:    2.3935556640
  - # 12
    frequency:    5.3741272662
  - # 13
    frequency:    7.7846522261
  - # 14
    frequency:    7.7984409921
  - # 15
    frequency:   12.8817071191
  - # 16
    frequency:   15.4177630814
  - # 17
    frequency:   15.4626685452
  - # 18
    frequency:   19.6999361842
  - # 19
    frequency:   19.7048026800
  - # 20
    frequency:   28.2364065179
  - # 21
    frequency:   42.0370442764
  - # 22
    frequency:   42.0507991911
  - # 23
    frequency:   59.9578163807
  - # 24
    frequency:   73.2104301457

- q-position: [    0.0101010,    0.0000000,    0.0000000 ]
  distance:    0.0034949
  band:
  - # 1
    frequency:  -55.7984992589
  - # 2
    frequency:  -55.7888569774
  - # 3
    frequency:  -38.4165461386
  - # 4
    frequency:  -14.1171452976
  - # 5
    frequency:  -14.0709707101
  - # 6
    frequency:   -5.8949773228
  - # 7
    frequency:   -5.2081749935
  - # 8
    frequency:   -2.3127678124
  - # 9
    frequency:    0.1117312449
  - # 10
    frequency:    1.7278455470
  - # 11
    frequency:    3.0608055530
  - # 12
    frequency:    5.3620546486
  - # 13
    frequency:    7.8137258778
  - # 14
    frequency:    7.8628317347
  - # 15
    frequency:   12.8733694796
  - # 16
    frequency:   15.3430677663
  - # 17
    frequency:   15.5144600859
  - # 18
    frequency:   19.7632527812
  - # 19
    frequency:   19.7839157565
  - # 20
    frequency:   28.2369773497
  - # 21
    frequency:   42.0373578356
  - # 22
    frequency:   42.0919563684
  - # 23
    frequency:   59.9534803487
  - # 24
    frequency:   73.1584302065

- q-position: [    0.0151515,    0.0000000,    0.0000000 ]
  distance:    0.0052423
  band:
  - # 1
    frequency:  -55.7881525848
  - # 2
    frequency:  -55.7665731283
  - # 3
    frequency:  -38.3667481670
  - # 4
    frequency:  -14.2632270774
  - # 5
    frequency:  -14.1493747575
  - # 6
    frequency:   -6.8781214396
  - # 7
    frequency:   -5.5564994904
  - # 8
    frequency:   -2.5831031631
  - # 9
    frequency:    0.2452408919
  - # 10
    frequency:    2.4067731938
  - # 11
    frequency:    3.5019226522
  - # 12
    frequency:    5.3459834961
  - # 13
    frequency:    7.8620669009
  - # 14
    frequency:    7.9549004704
  - # 15
    frequency:   12.8622587507
  - # 16
    frequency:   15.2285971062
  - # 17
    frequency:   15.5867289977
  - # 18
    frequency:   19.8623684347
  - # 19
    frequency:   19.9125076162
  - # 20
    frequency:   28.2379640037
  - # 21
    frequency:   42.0379666528
  - # 22
    frequency:   42.1592583252
  - # 23
    frequency:   59.9462586042
  - # 24
    frequency:   73.0717645085

- q-position: [    0.0202020,    0.0000000,    0.0000000 ]
  distance:    0.0069897
  band:
  - # 1
    frequency:  -55.7736427928
  - # 2
    frequency:  -55.7355644100
  - # 3
    frequency:  -38.2972086780
  - # 4
    frequency:  -14.4883308049
  - # 5
    frequency:  -14.2607225938
  - # 6
    frequency:   -7.8893110566
  - # 7
    frequency:   -5.9397419382
  - # 8
    frequency:   -2.7422679323
  - # 9
    frequency:    0.4201562072
  - # 10
    frequency:    2.9605772675
  - # 11
    frequency:    3.8171322810
  - # 12
    frequency:    5.3294311809
  - # 13
    frequency:    7.9290563928
  - # 14
    frequency:    8.0623804713
  - # 15
    frequency:   12.8507944575
  - # 16
    frequency:   15.0871019439
  - # 17
    frequency:   15.6651941700
  - # 18
    frequency:   19.9898067155
  - # 19
    frequency:   20.0855694875
  - # 20
    frequency:   28.2394149107
  - # 21
    frequency:   42.0389948400
  - # 22
    frequency:   42.2508414683
  - # 23
    frequency:   59.9361585445
  - # 24
    frequency:   72.9504391637

- q-position: [    0.0252525,    0.0000000,    0.0000000 ]
  distance:    0.0087372
  band:
  - # 1
    frequency:  -55.7549508344
  - # 2
    frequency:  -55.6960185421
  - # 3
    frequency:  -38.2081165183
  - # 4
    frequency:  -14.8120643111
  - # 5
    frequency:  -14.4065958571
  - # 6
    frequency:   -8.8260738580
  - # 7
    frequency:   -6.3335469987
  - # 8
    frequency:   -2.8718501285
  - # 9
    frequency:    0.6245866566
  - # 10
    frequency:    3.4048656485
  - # 11
    frequency:    4.0628958552
  - # 12
    frequency:    5.3152177133
  - # 13
    frequency:    8.0129988112
  - # 14
    frequency:    8.1774597511
  - # 15
    frequency:   12.8405253725
  - # 16
    frequency:   14.9331360173
  - # 17
    frequency:   15.7382785439
  - # 18
    frequency:   20.1380525860
  - # 19
    frequency:   20.2962631851
  - # 20
    frequency:   28.2413896980
  - # 21
    frequency:   42.0406059881
  - # 22
    frequency:   42.3642395529
  - # 23
    frequency:   59.9231903914
  - # 24
    frequency:   72.7944723178

- q-position: [    0.0303030,    0.0000000,    0.0000000 ]
  distance:    0.0104846
  band:
  - # 1
    frequency:  -55.7320599315
  - # 2
    frequency:  -55.6481754584
  - # 3
    frequency:  -38.0997309920
  - # 4
    frequency:  -15.2531089767
  - # 5
    frequency:  -14.5889481695
  - # 6
    frequency:   -9.6313750269
  - # 7
    frequency:   -6.7259652680
  - # 8
    frequency:   -3.0009416987
  - # 9
    frequency:    0.8453566459
  - # 10
    frequency:    3.7524713279
  - # 11
    frequency:    4.2700375038
  - # 12
    frequency:    5.3058375605
  - # 13
    frequency:    8.1105451950
  - # 14
    frequency:    8.2960660194
  - # 15
    frequency:   12.8320516453
  - # 16
    frequency:   14.7814627696
  - # 17
    frequency:   15.7989626773
  - # 18
    frequency:   20.3006606636
  - # 19
    frequency:   20.5365804008
  - # 20
    frequency:   28.2439525658
  - # 21
    frequency:   42.0429936087
  - # 22
    frequency:   42.4965052881
  - # 23
    frequency:   59.9073670519
  - # 24
    frequency:   72.6039036632

- q-position: [    0.0353535,    0.0000000,    0.0000000 ]
  distance:    0.0122320
  band:
  - # 1
    frequency:  -55.7049613511
  - # 2
    frequency:  -55.5923261351
  - # 3
    frequency:  -37.9723952128
  - # 4
    frequency:  -15.8184288366
  - # 5
    frequency:  -14.8099246008
  - # 6
    frequency:  -10.2784412171
  - # 7
    frequency:   -7.1098919019
  - # 8
    frequency:   -3.1381505581
  - # 9
    frequency:    1.0704765042
  - # 10
    frequency:    4.0136480464
  - # 11
    frequency:    4.4542246817
  - # 12
    frequency:    5.3042274781
  - # 13
    frequency:    8.2164567455
  - # 14
    frequency:    8.4161804352
  - # 15
    frequency:   12.8253194065
  - # 16
    frequency:   14.6458383863
  - # 17
    frequency:   15.8444278545
  - # 18
    frequency:   20.4726964431
  - # 19
    frequency:   20.7982263353
  - # 20
    frequency:   28.2471654795
  - # 21
    frequency:   42.0463696805
  - # 22
    frequency:   42.6443414910
  - # 23
    frequency:   59.8887039301
  - # 24
    frequency:   72.3788065656

- q-position: [    0.0404040,    0.0000000,    0.0000000 ]
  distance:    0.0139795
  band:
  - # 1
    frequency:  -55.6736614353
  - # 2
    frequency:  -55.5288110435
  - # 3
    frequency:  -37.8265535829
  - # 4
    frequency:  -16.4946128957
  - # 5
    frequency:  -15.0715477888
  - # 6
    frequency:  -10.7693567414
  - # 7
    frequency:   -7.4797777272
  - # 8
    frequency:   -3.2833958704
  - # 9
    frequency:    1.2907897452
  - # 10
    frequency:    4.1976264005
  - # 11
    frequency:    4.6212164984
  - # 12
    frequency:    5.3148672122
  - # 13
    frequency:    8.3240452717
  - # 14
    frequency:    8.5366620955
  - # 15
    frequency:   12.8199368920
  - # 16
    frequency:   14.5379238640
  - # 17
    frequency:   15.8747666876
  - # 18
    frequency:   20.6507485781
  - # 19
    frequency:   21.0734007143
  - # 20
    frequency:   28.2510817795
  - # 21
    frequency:   42.0509518748
  - # 22
    frequency:   42.8042300165
  - # 23
    frequency:   59.8672186834
  - # 24
    frequency:   72.1193027288

- q-position: [    0.0454545,    0.0000000,    0.0000000 ]
  distance:    0.0157269
  band:
  - # 1
    frequency:  -55.6381898464
  - # 2
    frequency:  -55.4580181619
  - # 3
    frequency:  -37.6627741821
  - # 4
    frequency:  -17.2511068087
  - # 5
    frequency:  -15.3752787161
  - # 6
    frequency:  -11.1275961235
  - # 7
    frequency:   -7.8305014972
  - # 8
    frequency:   -3.4331540661
  - # 9
    frequency:    1.5002875256
  - # 10
    frequency:    4.3134927811
  - # 11
    frequency:    4.7688132791
  - # 12
    frequency:    5.3453389055
  - # 13
    frequency:    8.4263248176
  - # 14
    frequency:    8.6566789763
  - # 15
    frequency:   12.8153913421
  - # 16
    frequency:   14.4662174588
  - # 17
    frequency:   15.8916801068
  - # 18
    frequency:   20.8327431399
  - # 19
    frequency:   21.3552707736
  - # 20
    frequency:   28.2557405038
  - # 21
    frequency:   42.0569501029
  - # 22
    frequency:   42.9725493440
  - # 23
    frequency:   59.8429309106
  - # 24
    frequency:   71.8255793105

- q-position: [    0.0505051,    0.0000000,    0.0000000 ]
  distance:    0.0174744
  band:
  - # 1
    frequency:  -55.5986089620
  - # 2
    frequency:  -55.3803804748
  - # 3
    frequency:  -37.4817770517
  - # 4
    frequency:  -18.0522938179
  - # 5
    frequency:  -15.7215168982
  - # 6
    frequency:  -11.3839458807
  - # 7
    frequency:   -8.1572876589
  - # 8
    frequency:   -3.5829282074
  - # 9
    frequency:    1.6955736217
  - # 10
    frequency:    4.3703118135
  - # 11
    frequency:    4.8884016813
  - # 12
    frequency:    5.4067382319
  - # 13
    frequency:    8.5174612828
  - # 14
    frequency:    8.7754973087
  - # 15
    frequency:   12.8111704695
  - # 16
    frequency:   14.4351573348
  - # 17
    frequency:   15.8975265482
  - # 18
    frequency:   21.0176973219
  - # 19
    frequency:   21.6381232866
  - # 20
    frequency:   28.2611614052
  - # 21
    frequency:   42.0645530608
  - # 22
    frequency:   43.1456750557
  - # 23
    frequency:   59.8158617554
  - # 24
    frequency:   71.4979083815

- q-position: [    0.0555556,    0.0000000,    0.0000000 ]
  distance:    0.0192218
  band:
  - # 1
    frequency:  -55.5550243166
  - # 2
    frequency:  -55.2963728830
  - # 3
    frequency:  -37.2844695333
  - # 4
    frequency:  -18.8670723494
  - # 5
    frequency:  -16.1091602707
  - # 6
    frequency:  -11.5659104549
  - # 7
    frequency:   -8.4560773492
  - # 8
    frequency:   -3.7282750463
  - # 9
    frequency:    1.8751119880
  - # 10
    frequency:    4.3768822118
  - # 11
    frequency:    4.9724277275
  - # 12
    frequency:    5.5073325544
  - # 13
    frequency:    8.5938817117
  - # 14
    frequency:    8.8924322576
  - # 15
    frequency:   12.8068215005
  - # 16
    frequency:   14.4447091885
  - # 17
    frequency:   15.8947454198
  - # 18
    frequency:   21.2054721836
  - # 19
    frequency:   21.9172949486
  - # 20
    frequency:   28.2673403974
  - # 21
    frequency:   42.0739154560
  - # 22
    frequency:   43.3200607458
  - # 23
    frequency:   59.7860333995
  - # 24
    frequency:   71.1366686025

- q-position: [    0.0606061,    0.0000000,    0.0000000 ]
  distance:    0.0209692
  band:
  - # 1
    frequency:  -55.5075959417
  - # 2
    frequency:  -55.2065084452
  - # 3
    frequency:  -37.0719899136
  - # 4
    frequency:  -19.6718096749
  - # 5
    frequency:  -16.5353620189
  - # 6
    frequency:  -11.6942160575
  - # 7
    frequency:   -8.7239722346
  - # 8
    frequency:   -3.8651096514
  - # 9
    frequency:    2.0385821749
  - # 10
    frequency:    4.3414530799
  - # 11
    frequency:    5.0248938837
  - # 12
    frequency:    5.6427548139
  - # 13
    frequency:    8.6546004112
  - # 14
    frequency:    9.0068570999
  - # 15
    frequency:   12.8019745285
  - # 16
    frequency:   14.4906828885
  - # 17
    frequency:   15.8855541025
  - # 18
    frequency:   21.3965408771
  - # 19
    frequency:   22.1889956196
  - # 20
    frequency:   28.2742450232
  - # 21
    frequency:   42.0851465567
  - # 22
    frequency:   43.4922996321
  - # 23
    frequency:   59.7534684105
  - # 24
    frequency:   70.7423689566

- q-position: [    0.0656566,    0.0000000,    0.0000000 ]
  distance:    0.0227167
  band:
  - # 1
    frequency:  -55.4565504045
  - # 2
    frequency:  -55.1113338784
  - # 3
    frequency:  -36.8457604993
  - # 4
    frequency:  -20.4494035606
  - # 5
    frequency:  -16.9955731046
  - # 6
    frequency:  -11.7834477464
  - # 7
    frequency:   -8.9595072148
  - # 8
    frequency:   -3.9896936582
  - # 9
    frequency:    2.1864139689
  - # 10
    frequency:    4.2715298461
  - # 11
    frequency:    5.0573693897
  - # 12
    frequency:    5.8004401389
  - # 13
    frequency:    8.7007659748
  - # 14
    frequency:    9.1182272717
  - # 15
    frequency:   12.7963457589
  - # 16
    frequency:   14.5657397037
  - # 17
    frequency:   15.8718119811
  - # 18
    frequency:   21.5917710803
  - # 19
    frequency:   22.4501065860
  - # 20
    frequency:   28.2818095097
  - # 21
    frequency:   42.0983006470
  - # 22
    frequency:   43.6591690875
  - # 23
    frequency:   59.7181888899
  - # 24
    frequency:   70.3156743251

- q-position: [    0.0707071,    0.0000000,    0.0000000 ]
  distance:    0.0244641
  band:
  - # 1
    frequency:  -55.4021932761
  - # 2
    frequency:  -55.0114242479
  - # 3
    frequency:  -36.6075506590
  - # 4
    frequency:  -21.1873672146
  - # 5
    frequency:  -17.4838610623
  - # 6
    frequency:  -11.8437882385
  - # 7
    frequency:   -9.1626539182
  - # 8
    frequency:   -4.0985082049
  - # 9
    frequency:    2.3194732561
  - # 10
    frequency:    4.1737706159
  - # 11
    frequency:    5.0792268433
  - # 12
    frequency:    5.9696909633
  - # 13
    frequency:    8.7347897724
  - # 14
    frequency:    9.2261039884
  - # 15
    frequency:   12.7897285099
  - # 16
    frequency:   14.6607677382
  - # 17
    frequency:   15.8549754544
  - # 18
    frequency:   21.7922170210
  - # 19
    frequency:   22.6979981362
  - # 20
    frequency:   28.2899290620
  - # 21
    frequency:   42.1133698658
  - # 22
    frequency:   43.8176614627
  - # 23
    frequency:   59.6802153435
  - # 24
    frequency:   69.8574326241

- q-position: [    0.0757576,    0.0000000,    0.0000000 ]
  distance:    0.0262115
  band:
  - # 1
    frequency:  -55.3449216935
  - # 2
    frequency:  -54.9073767981
  - # 3
    frequency:  -36.3595489263
  - # 4
    frequency:  -21.8761524091
  - # 5
    frequency:  -17.9934032481
  - # 6
    frequency:  -11.8825835743
  - # 7
    frequency:   -9.3345910156
  - # 8
    frequency:   -4.1880981065
  - # 9
    frequency:    2.4388558053
  - # 10
    frequency:    4.0539418983
  - # 11
    frequency:    5.0957025836
  - # 12
    frequency:    6.1438240730
  - # 13
    frequency:    8.7594800437
  - # 14
    frequency:    9.3301736869
  - # 15
    frequency:   12.7819758528
  - # 16
    frequency:   14.7662236862
  - # 17
    frequency:   15.8360982618
  - # 18
    frequency:   21.9989203401
  - # 19
    frequency:   22.9303839448
  - # 20
    frequency:   28.2984532606
  - # 21
    frequency:   42.1302797969
  - # 22
    frequency:   43.9650050877
  - # 23
    frequency:   59.6395651582
  - # 24
    frequency:   69.3687031089

- q-position: [    0.0808081,    0.0000000,    0.0000000 ]
  distance:    0.0279590
  band:
  - # 1
    frequency:  -55.2852366027
  - # 2
    frequency:  -54.7998038925
  - # 3
    frequency:  -36.1044403232
  - # 4
    frequency:  -22.5079431743
  - # 5
    frequency:  -18.5170165534
  - # 6
    frequency:  -11.9054734451
  - # 7
    frequency:   -9.4773520098
  - # 8
    frequency:   -4.2549196031
  - # 9
    frequency:    2.5457551273
  - # 10
    frequency:    3.9169136488
  - # 11
    frequency:    5.1094147198
  - # 12
    frequency:    6.3187943418
  - # 13
    frequency:    8.7774374359
  - # 14
    frequency:    9.4302634198
  - # 15
    frequency:   12.7729772139
  - # 16
    frequency:   14.8731690986
  - # 17
    frequency:   15.8158524274
  - # 18
    frequency:   22.2127256741
  - # 19
    frequency:   23.1452150846
  - # 20
    frequency:   28.3071787701
  - # 21
    frequency:   42.1488880419
  - # 22
    frequency:   44.0986793968
  - # 23
    frequency:   59.5962505084
  - # 24
    frequency:   68.8507853192

- q-position: [    0.0858586,    0.0000000,    0.0000000 ]
  distance:    0.0297064
  band:
  - # 1
    frequency:  -55.2237541920
  - # 2
    frequency:  -54.6893250677
  - # 3
    frequency:  -35.8454798356
  - # 4
    frequency:  -23.0758482502
  - # 5
    frequency:  -19.0476118131
  - # 6
    frequency:  -11.9171471446
  - # 7
    frequency:   -9.5934639925
  - # 8
    frequency:   -4.2952015094
  - # 9
    frequency:    2.6413818263
  - # 10
    frequency:    3.7666849972
  - # 11
    frequency:    5.1216312064
  - # 12
    frequency:    6.4920210960
  - # 13
    frequency:    8.7907582868
  - # 14
    frequency:    9.5263530788
  - # 15
    frequency:   12.7626309511
  - # 16
    frequency:   14.9739206359
  - # 17
    frequency:   15.7945575246
  - # 18
    frequency:   22.4341228364
  - # 19
    frequency:   23.3406101280
  - # 20
    frequency:   28.3158420501
  - # 21
    frequency:   42.1689858728
  - # 22
    frequency:   44.2164278849
  - # 23
    frequency:   59.5502754252
  - # 24
    frequency:   68.3052479619

- q-position: [    0.0909091,    0.0000000,    0.0000000 ]
  distance:    0.0314538
  band:
  - # 1
    frequency:  -55.1612159572
  - # 2
    frequency:  -54.5765582408
  - # 3
    frequency:  -35.5865446604
  - # 4
    frequency:  -23.5733882791
  - # 5
    frequency:  -19.5785178985
  - # 6
    frequency:  -11.9218333227
  - # 7
    frequency:   -9.6856502073
  - # 8
    frequency:   -4.3048211211
  - # 9
    frequency:    2.7269202692
  - # 10
    frequency:    3.6064336165
  - # 11
    frequency:    5.1329415224
  - # 12
    frequency:    6.6617767951
  - # 13
    frequency:    8.8009685261
  - # 14
    frequency:    9.6185849442
  - # 15
    frequency:   12.7508151621
  - # 16
    frequency:   15.0623628785
  - # 17
    frequency:   15.7722128562
  - # 18
    frequency:   22.6631300011
  - # 19
    frequency:   23.5148160331
  - # 20
    frequency:   28.3241133706
  - # 21
    frequency:   42.1903029305
  - # 22
    frequency:   44.3162722086
  - # 23
    frequency:   59.5016316078
  - # 24
    frequency:   67.7339568422

- q-position: [    0.0959596,    0.0000000,    0.0000000 ]
  distance:    0.0332013
  band:
  - # 1
    frequency:  -55.0984967884
  - # 2
    frequency:  -54.4621101643
  - # 3
    frequency:  -35.3321365743
  - # 4
    frequency:  -23.9942126190
  - # 5
    frequency:  -20.1036721289
  - # 6
    frequency:  -11.9236074616
  - # 7
    frequency:   -9.7566223528
  - # 8
    frequency:   -4.2791924014
  - # 9
    frequency:    2.8035147460
  - # 10
    frequency:    3.4385786755
  - # 11
    frequency:    5.1435890986
  - # 12
    frequency:    6.8268909773
  - # 13
    frequency:    8.8090842105
  - # 14
    frequency:    9.7072703757
  - # 15
    frequency:   12.7373593823
  - # 16
    frequency:   15.1340165874
  - # 17
    frequency:   15.7485310909
  - # 18
    frequency:   22.8992296208
  - # 19
    frequency:   23.6661949593
  - # 20
    frequency:   28.3315940847
  - # 21
    frequency:   42.2125148110
  - # 22
    frequency:   44.3965302246
  - # 23
    frequency:   59.4502923089
  - # 24
    frequency:   67.1391007967

- q-position: [    0.1010101,    0.0000000,    0.0000000 ]
  distance:    0.0349487
  band:
  - # 1
    frequency:  -55.0366104423
  - # 2
    frequency:  -54.3465662770
  - # 3
    frequency:  -35.0872942122
  - # 4
    frequency:  -24.3320246958
  - # 5
    frequency:  -20.6177031450
  - # 6
    frequency:  -11.9265709642
  - # 7
    frequency:   -9.8089566538
  - # 8
    frequency:   -4.2131593461
  - # 9
    frequency:    2.8722832024
  - # 10
    frequency:    3.2648451937
  - # 11
    frequency:    5.1536405729
  - # 12
    frequency:    6.9866010606
  - # 13
    frequency:    8.8157188568
  - # 14
    frequency:    9.7928927225
  - # 15
    frequency:   12.7220202903
  - # 16
    frequency:   15.1859495911
  - # 17
    frequency:   15.7229745694
  - # 18
    frequency:   23.1413613327
  - # 19
    frequency:   23.7932336042
  - # 20
    frequency:   28.3378196505
  - # 21
    frequency:   42.2352532805
  - # 22
    frequency:   44.4558401336
  - # 23
    frequency:   59.3962031938
  - # 24
    frequency:   66.5232145568

- q-position: [    0.1060606,    0.0000000,    0.0000000 ]
  distance:    0.0366961
  band:
  - # 1
    frequency:  -54.9767117831
  - # 2
    frequency:  -54.2304801661
  - # 3
    frequency:  -34.8573709136
  - # 4
    frequency:  -24.5807230280
  - # 5
    frequency:  -21.1159409209
  - # 6
    frequency:  -11.9349350082
  - # 7
    frequency:   -9.8450338489
  - # 8
    frequency:   -4.1008776588
  - # 9
    frequency:    2.9343638505
  - # 10
    frequency:    3.0863177162
  - # 11
    frequency:    5.1630777471
  - # 12
    frequency:    7.1404697547
  - # 13
    frequency:    8.8211920766
  - # 14
    frequency:    9.8761047060
  - # 15
    frequency:   12.7044652051
  - # 16
    frequency:   15.2165970582
  - # 17
    frequency:   15.6947979208
  - # 18
    frequency:   23.3879663921
  - # 19
    frequency:   23.8945736147
  - # 20
    frequency:   28.3422710613
  - # 21
    frequency:   42.2581187694
  - # 22
    frequency:   44.4931920836
  - # 23
    frequency:   59.3392683114
  - # 24
    frequency:   65.8891977822

- q-position: [    0.1111111,    0.0000000,    0.0000000 ]
  distance:    0.0384436
  band:
  - # 1
    frequency:  -54.9200952512
  - # 2
    frequency:  -54.1143629218
  - # 3
    frequency:  -34.6476507559
  - # 4
    frequency:  -24.7347640108
  - # 5
    frequency:  -21.5943846909
  - # 6
    frequency:  -11.9530317197
  - # 7
    frequency:   -9.8670215814
  - # 8
    frequency:   -3.9356475341
  - # 9
    frequency:    2.9034721678
  - # 10
    frequency:    2.9910110687
  - # 11
    frequency:    5.1718528466
  - # 12
    frequency:    7.2883324615
  - # 13
    frequency:    8.8256201282
  - # 14
    frequency:    9.9577172529
  - # 15
    frequency:   12.6842684900
  - # 16
    frequency:   15.2255392871
  - # 17
    frequency:   15.6631033592
  - # 18
    frequency:   23.6370698495
  - # 19
    frequency:   23.9690639036
  - # 20
    frequency:   28.3443968258
  - # 21
    frequency:   42.2806947306
  - # 22
    frequency:   44.5079675054
  - # 23
    frequency:   59.2793279058
  - # 24
    frequency:   65.2403305536

- q-position: [    0.1161616,    0.0000000,    0.0000000 ]
  distance:    0.0401910
  band:
  - # 1
    frequency:  -54.8681891629
  - # 2
    frequency:  -53.9986727344
  - # 3
    frequency:  -34.4628271744
  - # 4
    frequency:  -24.7897111082
  - # 5
    frequency:  -22.0496511737
  - # 6
    frequency:  -11.9852718479
  - # 7
    frequency:   -9.8768815968
  - # 8
    frequency:   -3.7096194767
  - # 9
    frequency:    2.7161743000
  - # 10
    frequency:    3.0437767122
  - # 11
    frequency:    5.1799277298
  - # 12
    frequency:    7.4302568546
  - # 13
    frequency:    8.8289839785
  - # 14
    frequency:   10.0386743184
  - # 15
    frequency:   12.6609288394
  - # 16
    frequency:   15.2132711024
  - # 17
    frequency:   15.6269183710
  - # 18
    frequency:   23.8863825020
  - # 19
    frequency:   24.0158380040
  - # 20
    frequency:   28.3436462122
  - # 21
    frequency:   42.3025633952
  - # 22
    frequency:   44.4999849838
  - # 23
    frequency:   59.2161220876
  - # 24
    frequency:   64.5802881879

- q-position: [    0.1212121,    0.0000000,    0.0000000 ]
  distance:    0.0419384
  band:
  - # 1
    frequency:  -54.8225456595
  - # 2
    frequency:  -53.8838051402
  - # 3
    frequency:  -34.3064517121
  - # 4
    frequency:  -24.7428590023
  - # 5
    frequency:  -22.4789171863
  - # 6
    frequency:  -12.0360673761
  - # 7
    frequency:   -9.8763893253
  - # 8
    frequency:   -3.4132071171
  - # 9
    frequency:    2.5236287193
  - # 10
    frequency:    3.0948503217
  - # 11
    frequency:    5.1873096742
  - # 12
    frequency:    7.5665044731
  - # 13
    frequency:    8.8311772859
  - # 14
    frequency:   10.1200033301
  - # 15
    frequency:   12.6339212932
  - # 16
    frequency:   15.1809858071
  - # 17
    frequency:   15.5853093569
  - # 18
    frequency:   24.0344211767
  - # 19
    frequency:   24.1334053207
  - # 20
    frequency:   28.3395121154
  - # 21
    frequency:   42.3233224207
  - # 22
    frequency:   44.4695495527
  - # 23
    frequency:   59.1492289193
  - # 24
    frequency:   63.9131639776

- q-position: [    0.1262626,    0.0000000,    0.0000000 ]
  distance:    0.0436859
  band:
  - # 1
    frequency:  -54.7848264099
  - # 2
    frequency:  -53.7700843678
  - # 3
    frequency:  -34.1805353071
  - # 4
    frequency:  -24.5937517913
  - # 5
    frequency:  -22.8798643491
  - # 6
    frequency:  -12.1097335450
  - # 7
    frequency:   -9.8671579057
  - # 8
    frequency:   -3.0338107057
  - # 9
    frequency:    2.3242496856
  - # 10
    frequency:    3.1477012580
  - # 11
    frequency:    5.1940945058
  - # 12
    frequency:    7.6974870504
  - # 13
    frequency:    8.8320389115
  - # 14
    frequency:   10.2027214070
  - # 15
    frequency:   12.6028089289
  - # 16
    frequency:   15.1303871184
  - # 17
    frequency:   15.5375484621
  - # 18
    frequency:   24.0248713949
  - # 19
    frequency:   24.3755232804
  - # 20
    frequency:   28.3315790090
  - # 21
    frequency:   42.3426018991
  - # 22
    frequency:   44.4174999769
  - # 23
    frequency:   59.0779538637
  - # 24
    frequency:   63.2435209327

- q-position: [    0.1313131,    0.0000000,    0.0000000 ]
  distance:    0.0454333
  band:
  - # 1
    frequency:  -54.7567844960
  - # 2
    frequency:  -53.6577562583
  - # 3
    frequency:  -34.0854857556
  - # 4
    frequency:  -24.3444182041
  - # 5
    frequency:  -23.2506293159
  - # 6
    frequency:  -12.2103718180
  - # 7
    frequency:   -9.8506619472
  - # 8
    frequency:   -2.5526369533
  - # 9
    frequency:    2.1153931023
  - # 10
    frequency:    3.2082706020
  - # 11
    frequency:    5.2005303578
  - # 12
    frequency:    7.8237115397
  - # 13
    frequency:    8.8313746048
  - # 14
    frequency:   10.2876605552
  - # 15
    frequency:   12.5674583103
  - # 16
    frequency:   15.0635345625
  - # 17
    frequency:   15.4833524472
  - # 18
    frequency:   23.9879535403
  - # 19
    frequency:   24.6100811782
  - # 20
    frequency:   28.3195688269
  - # 21
    frequency:   42.3600811691
  - # 22
    frequency:   44.3452461103
  - # 23
    frequency:   59.0011215102
  - # 24
    frequency:   62.5765212730

- q-position: [    0.1363636,    0.0000000,    0.0000000 ]
  distance:    0.0471808
  band:
  - # 1
    frequency:  -54.7402432399
  - # 2
    frequency:  -53.5469832224
  - # 3
    frequency:  -34.0204590805
  - # 4
    frequency:  -23.9992588532
  - # 5
    frequency:  -23.5897604136
  - # 6
    frequency:  -12.3417098109
  - # 7