nqpoint: 300    
npath: 3      
segment_nqpoint:
- 100
- 100
- 100
labels:
- [ 'G', 'M' ]
- [ 'M', 'K' ]
- [ 'K', 'G' ]
reciprocal_lattice:
- [   0.30117540,   0.17388370,   0.00000000 ] # a*
- [   0.00000000,   0.34776740,   0.00000000 ] # b*
- [   0.00000000,   0.00000000,   0.04431260 ] # c*
natom: 5      
lattice:
- [     3.320324276035350,     0.000000000000000,     0.000000000000000 ] # a
- [    -1.660162138017675,     2.875485171844948,     0.000000000000000 ] # b
- [     0.000000000000000,     0.000000000000000,    22.566946043063460 ] # c
points:
- symbol: C # 1
  coordinates: [  0.000000000000000,  0.000000000000000,  0.500000037548242 ]
  mass: 12.010700
- symbol: H # 2
  coordinates: [  0.333332985432215,  0.666666983183674,  0.601186621227980 ]
  mass: 1.007940
- symbol: H # 3
  coordinates: [  0.666666984744047,  0.333332985985145,  0.398813378772020 ]
  mass: 1.007940
- symbol: Zr # 4
  coordinates: [  0.333332985432215,  0.666666983183674,  0.444290659080681 ]
  mass: 91.224000
- symbol: Zr # 5
  coordinates: [  0.666666984744047,  0.333332985985145,  0.555709340358888 ]
  mass: 91.224000

phonon:
- q-position: [    0.0000000,    0.0000000,    0.0000000 ]
  distance:    0.0000000
  band:
  - # 1
    frequency:   -0.0000162263
  - # 2
    frequency:   -0.0000001696
  - # 3
    frequency:    0.0000056288
  - # 4
    frequency:    3.4854239330
  - # 5
    frequency:    3.4854239330
  - # 6
    frequency:    7.1568792117
  - # 7
    frequency:   15.3800750471
  - # 8
    frequency:   15.3800750471
  - # 9
    frequency:   15.8999996452
  - # 10
    frequency:   25.6570850321
  - # 11
    frequency:   26.4455315117
  - # 12
    frequency:   30.9971870289
  - # 13
    frequency:   30.9971870289
  - # 14
    frequency:   31.0022006662
  - # 15
    frequency:   31.0022006663

- q-position: [    0.0050505,    0.0000000,    0.0000000 ]
  distance:    0.0017564
  band:
  - # 1
    frequency:   -0.0635552125
  - # 2
    frequency:    0.0011805465
  - # 3
    frequency:    0.0833227903
  - # 4
    frequency:    3.4875078009
  - # 5
    frequency:    3.4897274875
  - # 6
    frequency:    7.1565970660
  - # 7
    frequency:   15.3808913539
  - # 8
    frequency:   15.3812224235
  - # 9
    frequency:   15.8993953171
  - # 10
    frequency:   25.6575756082
  - # 11
    frequency:   26.4449900465
  - # 12
    frequency:   30.9721469006
  - # 13
    frequency:   30.9726056419
  - # 14
    frequency:   31.0239736566
  - # 15
    frequency:   31.0241748207

- q-position: [    0.0101010,    0.0000000,    0.0000000 ]
  distance:    0.0035128
  band:
  - # 1
    frequency:   -0.1268838655
  - # 2
    frequency:    0.0047184158
  - # 3
    frequency:    0.1667626436
  - # 4
    frequency:    3.4937396524
  - # 5
    frequency:    3.5025854861
  - # 6
    frequency:    7.1557515032
  - # 7
    frequency:   15.3833403402
  - # 8
    frequency:   15.3846587161
  - # 9
    frequency:   15.8975886209
  - # 10
    frequency:   25.6590433176
  - # 11
    frequency:   26.4433668757
  - # 12
    frequency:   30.9415542899
  - # 13
    frequency:   30.9430937605
  - # 14
    frequency:   31.0447734660
  - # 15
    frequency:   31.0458697745

- q-position: [    0.0151515,    0.0000000,    0.0000000 ]
  distance:    0.0052692
  band:
  - # 1
    frequency:   -0.1897567151
  - # 2
    frequency:    0.0106030257
  - # 3
    frequency:    0.2504343860
  - # 4
    frequency:    3.5040607102
  - # 5
    frequency:    3.5238419604
  - # 6
    frequency:    7.1543451518
  - # 7
    frequency:   15.3874221058
  - # 8
    frequency:   15.3903664179
  - # 9
    frequency:   15.8945984118
  - # 10
    frequency:   25.6614761543
  - # 11
    frequency:   26.4406656840
  - # 12
    frequency:   30.9077414335
  - # 13
    frequency:   30.9109397529
  - # 14
    frequency:   31.0622936694
  - # 15
    frequency:   31.0650114714

- q-position: [    0.0202020,    0.0000000,    0.0000000 ]
  distance:    0.0070256
  band:
  - # 1
    frequency:   -0.2519391411
  - # 2
    frequency:    0.0188190544
  - # 3
    frequency:    0.3344484691
  - # 4
    frequency:    3.5183745832
  - # 5
    frequency:    3.5532435145
  - # 6
    frequency:    7.1523824130
  - # 7
    frequency:   15.3931364870
  - # 8
    frequency:   15.3983163645
  - # 9
    frequency:   15.8904560894
  - # 10
    frequency:   25.6648542765
  - # 11
    frequency:   26.4368926451
  - # 12
    frequency:   30.8707951523
  - # 13
    frequency:   30.8761841267
  - # 14
    frequency:   31.0764903756
  - # 15
    frequency:   31.0815832646

- q-position: [    0.0252525,    0.0000000,    0.0000000 ]
  distance:    0.0087820
  band:
  - # 1
    frequency:   -0.3131884496
  - # 2
    frequency:    0.0293495045
  - # 3
    frequency:    0.4189089890
  - # 4
    frequency:    3.5365495298
  - # 5
    frequency:    3.5904484810
  - # 6
    frequency:    7.1498694891
  - # 7
    frequency:   15.4004825519
  - # 8
    frequency:   15.4084677601
  - # 9
    frequency:   15.8852055712
  - # 10
    frequency:   25.6691502529
  - # 11
    frequency:   26.4320564717
  - # 12
    frequency:   30.8307866894
  - # 13
    frequency:   30.8388480242
  - # 14
    frequency:   31.0873522550
  - # 15
    frequency:   31.0955974336

- q-position: [    0.0303030,    0.0000000,    0.0000000 ]
  distance:    0.0105384
  band:
  - # 1
    frequency:   -0.3732511624
  - # 2
    frequency:    0.0421792725
  - # 3
    frequency:    0.5039119331
  - # 4
    frequency:    3.5584214502
  - # 5
    frequency:    3.6350385201
  - # 6
    frequency:    7.1468144213
  - # 7
    frequency:   15.4094578707
  - # 8
    frequency:   15.4207682244
  - # 9
    frequency:   15.8789032872
  - # 10
    frequency:   25.6743293936
  - # 11
    frequency:   26.4261684844
  - # 12
    frequency:   30.7877917647
  - # 13
    frequency:   30.7989535519
  - # 14
    frequency:   31.0948802970
  - # 15
    frequency:   31.1070748766

- q-position: [    0.0353535,    0.0000000,    0.0000000 ]
  distance:    0.0122948
  band:
  - # 1
    frequency:   -0.4318602885
  - # 2
    frequency:    0.0572986845
  - # 3
    frequency:    0.5895436871
  - # 4
    frequency:    3.5837974567
  - # 5
    frequency:    3.6865317014
  - # 6
    frequency:    7.1432271320
  - # 7
    frequency:   15.4200575272
  - # 8
    frequency:   15.4351538717
  - # 9
    frequency:   15.8716182323
  - # 10
    frequency:   25.6803501563
  - # 11
    frequency:   26.4192427023
  - # 12
    frequency:   30.7418933655
  - # 13
    frequency:   30.7565268296
  - # 14
    frequency:   31.0990847778
  - # 15
    frequency:   31.1160420943

- q-position: [    0.0404040,    0.0000000,    0.0000000 ]
  distance:    0.0140512
  band:
  - # 1
    frequency:   -0.4887325633
  - # 2
    frequency:    0.0747065106
  - # 3
    frequency:    0.6758798127
  - # 4
    frequency:    3.6124598511
  - # 5
    frequency:    3.7443961168
  - # 6
    frequency:    7.1391194713
  - # 7
    frequency:   15.4322728141
  - # 8
    frequency:   15.4515494327
  - # 9
    frequency:   15.8634321449
  - # 10
    frequency:   25.6871646082
  - # 11
    frequency:   26.4112959549
  - # 12
    frequency:   30.6931823381
  - # 13
    frequency:   30.7115989097
  - # 14
    frequency:   31.0999843733
  - # 15
    frequency:   31.1225303190

- q-position: [    0.0454545,    0.0000000,    0.0000000 ]
  distance:    0.0158076
  band:
  - # 1
    frequency:   -0.5435656276
  - # 2
    frequency:    0.0944120923
  - # 3
    frequency:    0.7629840890
  - # 4
    frequency:    3.6441703418
  - # 5
    frequency:    3.8080632017
  - # 6
    frequency:    7.1345052615
  - # 7
    frequency:   15.4460895058
  - # 8
    frequency:   15.4698684322
  - # 9
    frequency:   15.8544399259
  - # 10
    frequency:   25.6947189293
  - # 11
    frequency:   26.4023480176
  - # 12
    frequency:   30.6417574635
  - # 13
    frequency:   30.6642062672
  - # 14
    frequency:   31.0976057352
  - # 15
    frequency:   31.1265750943

- q-position: [    0.0505051,    0.0000000,    0.0000000 ]
  distance:    0.0175640
  band:
  - # 1
    frequency:   -0.5960350911
  - # 2
    frequency:    0.1164363755
  - # 3
    frequency:    0.8509077954
  - # 4
    frequency:    3.6786743407
  - # 5
    frequency:    3.8769401396
  - # 6
    frequency:    7.1294003380
  - # 7
    frequency:   15.4614855195
  - # 8
    frequency:   15.4900134371
  - # 9
    frequency:   15.8447505010
  - # 10
    frequency:   25.7029539321
  - # 11
    frequency:   26.3924217752
  - # 12
    frequency:   30.5877253532
  - # 13
    frequency:   30.6143912001
  - # 14
    frequency:   31.0919831926
  - # 15
    frequency:   31.1282159667

- q-position: [    0.0555556,    0.0000000,    0.0000000 ]
  distance:    0.0193204
  band:
  - # 1
    frequency:   -0.6457913898
  - # 2
    frequency:    0.1408118010
  - # 3
    frequency:    0.9396892068
  - # 4
    frequency:    3.7157052027
  - # 5
    frequency:    3.9504209386
  - # 6
    frequency:    7.1238225826
  - # 7
    frequency:   15.4784276113
  - # 8
    frequency:   15.5118763851
  - # 9
    frequency:   15.8344884881
  - # 10
    frequency:   25.7118055761
  - # 11
    frequency:   26.3815434172
  - # 12
    frequency:   30.5312002571
  - # 13
    frequency:   30.5622022366
  - # 14
    frequency:   31.0831584894
  - # 15
    frequency:   31.1274962002

- q-position: [    0.0606061,    0.0000000,    0.0000000 ]
  distance:    0.0210768
  band:
  - # 1
    frequency:   -0.6924562900
  - # 2
    frequency:    0.1675811413
  - # 3
    frequency:    1.0293532706
  - # 4
    frequency:    3.7549882946
  - # 5
    frequency:    4.0278959814
  - # 6
    frequency:    7.1177919465
  - # 7
    frequency:   15.4968664446
  - # 8
    frequency:   15.5353390081
  - # 9
    frequency:   15.8237973527
  - # 10
    frequency:   25.7212054475
  - # 11
    frequency:   26.3697426753
  - # 12
    frequency:   30.4723038130
  - # 13
    frequency:   30.5076945776
  - # 14
    frequency:   31.0711805276
  - # 15
    frequency:   31.1244624875

- q-position: [    0.0656566,    0.0000000,    0.0000000 ]
  distance:    0.0228332
  band:
  - # 1
    frequency:   -0.7356188182
  - # 2
    frequency:    0.1967954658
  - # 3
    frequency:    1.1199114362
  - # 4
    frequency:    3.7962448084
  - # 5
    frequency:    4.1087600143
  - # 6
    frequency:    7.1113304609
  - # 7
    frequency:   15.5167287144
  - # 8
    frequency:   15.5602733575
  - # 9
    frequency:   15.8128453777
  - # 10
    frequency:   25.7310811739
  - # 11
    frequency:   26.3570531137
  - # 12
    frequency:   30.4111647492
  - # 13
    frequency:   30.4509305822
  - # 14
    frequency:   31.0561051045
  - # 15
    frequency:   31.1191646519

- q-position: [    0.0707071,    0.0000000,    0.0000000 ]
  distance:    0.0245896
  band:
  - # 1
    frequency:   -0.7748302850
  - # 2
    frequency:    0.2285114696
  - # 3
    frequency:    1.2113616135
  - # 4
    frequency:    3.8391952612
  - # 5
    frequency:    4.1924186632
  - # 6
    frequency:    7.1044622340
  - # 7
    frequency:   15.5379036269
  - # 8
    frequency:   15.5865424405
  - # 9
    frequency:   15.8018371709
  - # 10
    frequency:   25.7413567369
  - # 11
    frequency:   26.3435124926
  - # 12
    frequency:   30.3479185460
  - # 13
    frequency:   30.3919802940
  - # 14
    frequency:   31.0379946404
  - # 15
    frequency:   31.1116553457

- q-position: [    0.0757576,    0.0000000,    0.0000000 ]
  distance:    0.0263460
  band:
  - # 1
    frequency:   -0.8095979188
  - # 2
    frequency:    0.2627884125
  - # 3
    frequency:    1.3036882418
  - # 4
    frequency:    3.8835626463
  - # 5
    frequency:    4.2782936421
  - # 6
    frequency:    7.0972134333
  - # 7
    frequency:   15.5602178776
  - # 8
    frequency:   15.6140009699
  - # 9
    frequency:   15.7910365844
  - # 10
    frequency:   25.7519526399
  - # 11
    frequency:   26.3291632313
  - # 12
    frequency:   30.2827070570
  - # 13
    frequency:   30.3309220016
  - # 14
    frequency:   31.0169178961
  - # 15
    frequency:   31.1019897501

- q-position: [    0.0808081,    0.0000000,    0.0000000 ]
  distance:    0.0281024
  band:
  - # 1
    frequency:   -0.8393763838
  - # 2
    frequency:    0.2996849029
  - # 3
    frequency:    1.3968624533
  - # 4
    frequency:    3.9290752222
  - # 5
    frequency:    4.3658268526
  - # 6
    frequency:    7.0896122542
  - # 7
    frequency:   15.5833858277
  - # 8
    frequency:   15.6424962293
  - # 9
    frequency:   15.7808143682
  - # 10
    frequency:   25.7627858769
  - # 11
    frequency:   26.3140530091
  - # 12
    frequency:   30.2156780932
  - # 13
    frequency:   30.2678428208
  - # 14
    frequency:   30.9929496776
  - # 15
    frequency:   31.0902252870

- q-position: [    0.0858586,    0.0000000,    0.0000000 ]
  distance:    0.0298588
  band:
  - # 1
    frequency:   -0.8635560873
  - # 2
    frequency:    0.3392557209
  - # 3
    frequency:    1.4908423231
  - # 4
    frequency:    3.9754689401
  - # 5
    frequency:    4.4544835802
  - # 6
    frequency:    7.0816888758
  - # 7
    frequency:   15.6069039031
  - # 8
    frequency:   15.6718690518
  - # 9
    frequency:   15.7717515601
  - # 10
    frequency:   25.7737696353
  - # 11
    frequency:   26.2982355619
  - # 12
    frequency:   30.1469849705
  - # 13
    frequency:   30.2028392852
  - # 14
    frequency:   30.9661705304
  - # 15
    frequency:   31.0764213532

- q-position: [    0.0909091,    0.0000000,    0.0000000 ]
  distance:    0.0316152
  band:
  - # 1
    frequency:   -0.8814465627
  - # 2
    frequency:    0.3815488386
  - # 3
    frequency:    1.5855731964
  - # 4
    frequency:    4.0224895224
  - # 5
    frequency:    4.5437549779
  - # 6
    frequency:    7.0734754066
  - # 7
    frequency:   15.6298221664
  - # 8
    frequency:   15.7019549054
  - # 9
    frequency:   15.7648656876
  - # 10
    frequency:   25.7848126461
  - # 11
    frequency:   26.2817717505
  - # 12
    frequency:   30.0767860214
  - # 13
    frequency:   30.1360179270
  - # 14
    frequency:   30.9366664221
  - # 15
    frequency:   31.0606390872

- q-position: [    0.0959596,    0.0000000,    0.0000000 ]
  distance:    0.0333716
  band:
  - # 1
    frequency:   -0.8922521588
  - # 2
    frequency:    0.4266027448
  - # 3
    frequency:    1.6809880881
  - # 4
    frequency:    4.0698942134
  - # 5
    frequency:    4.6331600014
  - # 6
    frequency:    7.0650058217
  - # 7
    frequency:   15.6503157885
  - # 8
    frequency:   15.7325850791
  - # 9
    frequency:   15.7620370864
  - # 10
    frequency:   25.7958180610
  - # 11
    frequency:   26.2647310155
  - # 12
    frequency:   30.0052440737
  - # 13
    frequency:   30.0674958298
  - # 14
    frequency:   30.9045284151
  - # 15
    frequency:   31.0429411781

- q-position: [    0.1010101,    0.0000000,    0.0000000 ]
  distance:    0.0351280
  band:
  - # 1
    frequency:   -0.8950353411
  - # 2
    frequency:    0.4744441447
  - # 3
    frequency:    1.7770081496
  - # 4
    frequency:    4.1174532254
  - # 5
    frequency:    4.7222469281
  - # 6
    frequency:    7.0563158959
  - # 7
    frequency:   15.6654308269
  - # 8
    frequency:   15.7635879570
  - # 9
    frequency:   15.7662609609
  - # 10
    frequency:   25.8066817006
  - # 11
    frequency:   26.2471933732
  - # 12
    frequency:   29.9325258970
  - # 13
    frequency:   29.9974011302
  - # 14
    frequency:   30.8698523290
  - # 15
    frequency:   31.0233917267

- q-position: [    0.1060606,    0.0000000,    0.0000000 ]
  distance:    0.0368844
  band:
  - # 1
    frequency:   -0.8886592369
  - # 2
    frequency:    0.5250860701
  - # 3
    frequency:    1.8735431996
  - # 4
    frequency:    4.1649509065
  - # 5
    frequency:    4.8105945605
  - # 6
    frequency:    7.0474431354
  - # 7
    frequency:   15.6727892247
  - # 8
    frequency:   15.7799403118
  - # 9
    frequency:   15.7947903679
  - # 10
    frequency:   25.8172894582
  - # 11
    frequency:   26.2292521683
  - # 12
    frequency:   29.8588016182
  - # 13
    frequency:   29.9258734481
  - # 14
    frequency:   30.8327383941
  - # 15
    frequency:   31.0020561647

- q-position: [    0.1111111,    0.0000000,    0.0000000 ]
  distance:    0.0386408
  band:
  - # 1
    frequency:   -0.8716935109
  - # 2
    frequency:    0.5785264082
  - # 3
    frequency:    1.9704923141
  - # 4
    frequency:    4.2121866565
  - # 5
    frequency:    4.8978131808
  - # 6
    frequency:    7.0384267119
  - # 7
    frequency:   15.6734306801
  - # 8
    frequency:   15.8020421167
  - # 9
    frequency:   15.8260189963
  - # 10
    frequency:   25.8275135774
  - # 11
    frequency:   26.2110178703
  - # 12
    frequency:   29.7842441114
  - # 13
    frequency:   29.8530642182
  - # 14
    frequency:   30.7932908965
  - # 15
    frequency:   30.9790012398

- q-position: [    0.1161616,    0.0000000,    0.0000000 ]
  distance:    0.0403972
  band:
  - # 1
    frequency:   -0.8422508780
  - # 2
    frequency:    0.6347468393
  - # 3
    frequency:    2.0677444730
  - # 4
    frequency:    4.2589756132
  - # 5
    frequency:    4.9835453010
  - # 6
    frequency:    7.0293074007
  - # 7
    frequency:   15.6702953879
  - # 8
    frequency:   15.8296128063
  - # 9
    frequency:   15.8571018375
  - # 10
    frequency:   25.8372074570
  - # 11
    frequency:   26.1926232692
  - # 12
    frequency:   29.7090283607
  - # 13
    frequency:   29.7791369002
  - # 14
    frequency:   30.7516178154
  - # 15
    frequency:   30.9542950692

- q-position: [    0.1212121,    0.0000000,    0.0000000 ]
  distance:    0.0421536
  band:
  - # 1
    frequency:   -0.7976800315
  - # 2
    frequency:    0.6937121618
  - # 3
    frequency:    2.1651792606
  - # 4
    frequency:    4.3051491321
  - # 5
    frequency:    5.0674662265
  - # 6
    frequency:    7.0201275272
  - # 7
    frequency:   15.6655836827
  - # 8
    frequency:   15.8604170470
  - # 9
    frequency:   15.8878696813
  - # 10
    frequency:   25.8461986200
  - # 11
    frequency:   26.1742304433
  - # 12
    frequency:   29.6333308030
  - # 13
    frequency:   29.7042670393
  - # 14
    frequency:   30.7078304546
  - # 15
    frequency:   30.9280072630

- q-position: [    0.1262626,    0.0000000,    0.0000000 ]
  distance:    0.0439100
  band:
  - # 1
    frequency:   -0.7339223934
  - # 2
    frequency:    0.7553699740
  - # 3
    frequency:    2.2626676175
  - # 4
    frequency:    4.3505550762
  - # 5
    frequency:    5.1492844369
  - # 6
    frequency:    7.0109309203
  - # 7
    frequency:   15.6604976441
  - # 8
    frequency:   15.8931948147
  - # 9
    frequency:   15.9181576050
  - # 10
    frequency:   25.8542796498
  - # 11
    frequency:   26.1560397136
  - # 12
    frequency:   29.5573286511
  - # 13
    frequency:   29.6286421517
  - # 14
    frequency:   30.6620430677
  - # 15
    frequency:   30.9002091190

- q-position: [    0.1313131,    0.0000000,    0.0000000 ]
  distance:    0.0456664
  band:
  - # 1
    frequency:   -0.6439268392
  - # 2
    frequency:    0.8196506798
  - # 3
    frequency:    2.3600726425
  - # 4
    frequency:    4.3950579323
  - # 5
    frequency:    5.2287417742
  - # 6
    frequency:    7.0017628733
  - # 7
    frequency:   15.6556769973
  - # 8
    frequency:   15.9272244651
  - # 9
    frequency:   15.9478064605
  - # 10
    frequency:   25.8611975410
  - # 11
    frequency:   26.1383001527
  - # 12
    frequency:   29.4811992027
  - # 13
    frequency:   29.5524614079
  - # 14
    frequency:   30.6143724790
  - # 15
    frequency:   30.8709738840

- q-position: [    0.1363636,    0.0000000,    0.0000000 ]
  distance:    0.0474228
  band:
  - # 1
    frequency:   -0.5125154149
  - # 2
    frequency:    0.8864677846
  - # 3
    frequency:    2.4572504440
  - # 4
    frequency:    4.4385387636
  - # 5
    frequency:    5.3056134218
  - # 6
    frequency:    6.9926701103
  - # 7
    frequency:   15.6514826259
  - # 8
    frequency:   15.9620385276
  - # 9
    frequency:   15.9766643358
  - # 10
    frequency:   25.8666436215
  - # 11
    frequency:   26.1213195118
  - # 12
    frequency:   29.4051191386
  - # 13
    frequency:   29.4759350874
  - # 14
    frequency:   30.5649377023
  - # 15
    frequency:   30.8403770789

- q-position: [    0.1414141,    0.0000000,    0.0000000 ]
  distance:    0.0491792
  band:
  - # 1
    frequency:   -0.2851573349
  - # 2
    frequency:    0.9557184476
  - # 3
    frequency:    2.5540510419
  - # 4
    frequency:    4.4808950100
  - # 5
    frequency:    5.3797076552
  - # 6
    frequency:    6.9837007519
  - # 7
    frequency:   15.6481306695
  - # 8
    frequency:   15.9972892817
  - # 9
    frequency:   16.0045879764
  - # 10
    frequency:   25.8702497951
  - # 11
    frequency:   26.1054678378
  - # 12
    frequency:   29.3292638143
  - # 13
    frequency:   29.3992837806
  - # 14
    frequency:   30.5138595568
  - # 15
    frequency:   30.8084968803

- q-position: [    0.1464646,    0.0000000,    0.0000000 ]
  distance:    0.0509356
  band:
  - # 1
    frequency:    0.3614077167
  - # 2
    frequency:    1.0272842601
  - # 3
    frequency:    2.6503193207
  - # 4
    frequency:    4.5220401410
  - # 5
    frequency:    5.4508653447
  - # 6
    frequency:    6.9749042749
  - # 7
    frequency:   15.6457542109
  - # 8
    frequency:   16.0314441474
  - # 9
    frequency:   16.0326871454
  - # 10
    frequency:   25.8716024246
  - # 11
    frequency:   26.0911634801
  - # 12
    frequency:   29.2538065492
  - # 13
    frequency:   29.3227373147
  - # 14
    frequency:   30.4612602840
  - # 15
    frequency:   30.7754145516

- q-position: [    0.1515152,    0.0000000,    0.0000000 ]
  distance:    0.0526920
  band:
  - # 1
    frequency:    0.6115900006
  - # 2
    frequency:    1.1010322176
  - # 3
    frequency:    2.7458960367
  - # 4
    frequency:    4.5619031658
  - # 5
    frequency:    5.5189591973
  - # 6
    frequency:    6.9663314531
  - # 7
    frequency:   15.6444327873
  - # 8
    frequency:   16.0571109233
  - # 9
    frequency:   16.0679716623
  - # 10
    frequency:   25.8702891644
  - # 11
    frequency:   26.0788262002
  - # 12
    frequency:   29.1789179194
  - # 13
    frequency:   29.2465333838
  - # 14
    frequency:   30.4072631657
  - # 15
    frequency:   30.7412149128

- q-position: [    0.1565657,    0.0000000,    0.0000000 ]
  distance:    0.0544484
  band:
  - # 1
    frequency:    0.8059786163
  - # 2
    frequency:    1.1768158612
  - # 3
    frequency:    2.8406188817
  - # 4
    frequency:    4.6004280064
  - # 5
    frequency:    5.5838927302
  - # 6
    frequency:    6.9580342692
  - # 7
    frequency:   15.6442073058
  - # 8
    frequency:   16.0814788871
  - # 9
    frequency:   16.1028975259
  - # 10
    frequency:   25.8659857660
  - # 11
    frequency:   26.0687903751
  - # 12
    frequency:   29.1047650564
  - # 13
    frequency:   29.1709158709
  - # 14
    frequency:   30.3519921459
  - # 15
    frequency:   30.7059868398

- q-position: [    0.1616162,    0.0000000,    0.0000000 ]
  distance:    0.0562048
  band:
  - # 1
    frequency:    0.9785796665
  - # 2
    frequency:    1.2544765597
  - # 3
    frequency:    2.9343236071
  - # 4
    frequency:    4.6375727332
  - # 5
    frequency:    5.6455989771
  - # 6
    frequency:    6.9500657777
  - # 7
    frequency:   15.6450880512
  - # 8
    frequency:   16.1044522267
  - # 9
    frequency:   16.1372279584
  - # 10
    frequency:   25.8585593055
  - # 11
    frequency:   26.0612018602
  - # 12
    frequency:   29.0315109590
  - # 13
    frequency:   29.0961328533
  - # 14
    frequency:   30.2955714583
  - # 15
    frequency:   30.6698237803

- q-position: [    0.1666667,    0.0000000,    0.0000000 ]
  distance:    0.0579612
  band:
  - # 1
    frequency:    1.1393362106
  - # 2
    frequency:    1.3338449089
  - # 3
    frequency:    3.0268452108
  - # 4
    frequency:    4.6733086702
  - # 5
    frequency:    5.7040389418
  - # 6
    frequency:    6.9424799031
  - # 7
    frequency:   15.6470592994
  - # 8
    frequency:   16.1259497115
  - # 9
    frequency:   16.1707319311
  - # 10
    frequency:   25.8481300423
  - # 11
    frequency:   26.0559563091
  - # 12
    frequency:   28.9593138217
  - # 13
    frequency:   29.0224342949
  - # 14
    frequency:   30.2381252612
  - # 15
    frequency:   30.6328242743

- q-position: [    0.1717172,    0.0000000,    0.0000000 ]
  distance:    0.0597176
  band:
  - # 1
    frequency:    1.2925390856
  - # 2
    frequency:    1.4147422259
  - # 3
    frequency:    3.1180191898
  - # 4
    frequency:    4.7076193700
  - # 5
    frequency:    5.7591998202
  - # 6
    frequency:    6.9353311484
  - # 7
    frequency:   15.6500822202
  - # 8
    frequency:   16.1459055369
  - # 9
    frequency:   16.2031835283
  - # 10
    frequency:   25.8350460360
  - # 11
    frequency:   26.0527248184
  - # 12
    frequency:   28.8883263837
  - # 13
    frequency:   28.9500694390
  - # 14
    frequency:   30.1797772831
  - # 15
    frequency:   30.5950924642

- q-position: [    0.1767677,    0.0000000,    0.0000000 ]
  distance:    0.0614740
  band:
  - # 1
    frequency:    1.4403548428
  - # 2
    frequency:    1.4969821141
  - # 3
    frequency:    3.2076828585
  - # 4
    frequency:    4.7404994687
  - # 5
    frequency:    5.8110930256
  - # 6
    frequency:    6.9286741935
  - # 7
    frequency:   15.6540969218
  - # 8
    frequency:   16.1642700225
  - # 9
    frequency:   16.2343625845
  - # 10
    frequency:   25.8197882339
  - # 11
    frequency:   26.0510491769
  - # 12
    frequency:   28.8186953047
  - # 13
    frequency:   28.8792839308
  - # 14
    frequency:   30.1206504799
  - # 15
    frequency:   30.5567385813

- q-position: [    0.1818182,    0.0000000,    0.0000000 ]
  distance:    0.0632304
  band:
  - # 1
    frequency:    1.5803720800
  - # 2
    frequency:    1.5839547122
  - # 3
    frequency:    3.2956767323
  - # 4
    frequency:    4.7719534265
  - # 5
    frequency:    5.8597520591
  - # 6
    frequency:    6.9225633591
  - # 7
    frequency:   15.6590240804
  - # 8
    frequency:   16.1810101495
  - # 9
    frequency:   16.2640561186
  - # 10
    frequency:   25.8028674099
  - # 11
    frequency:   26.0504453121
  - # 12
    frequency:   28.7505605700
  - # 13
    frequency:   28.8103167140
  - # 14
    frequency:   30.0608667075
  - # 15
    frequency:   30.5178793904

- q-position: [    0.1868687,    0.0000000,    0.0000000 ]
  distance:    0.0649868
  band:
  - # 1
    frequency:    1.6647151787
  - # 2
    frequency:    1.7239772684
  - # 3
    frequency:    3.3818459704
  - # 4
    frequency:    4.8019941682
  - # 5
    frequency:    5.9052302744
  - # 6
    frequency:    6.9170519158
  - # 7
    frequency:   15.6647663943
  - # 8
    frequency:   16.1961099258
  - # 9
    frequency:   16.2920602878
  - # 10
    frequency:   25.7847568909
  - # 11
    frequency:   26.0504709625
  - # 12
    frequency:   28.6840549292
  - # 13
    frequency:   28.7433967648
  - # 14
    frequency:   30.0005464115
  - # 15
    frequency:   30.4786385767

- q-position: [    0.1919192,    0.0000000,    0.0000000 ]
  distance:    0.0667432
  band:
  - # 1
    frequency:    1.7498116700
  - # 2
    frequency:    1.8607496788
  - # 3
    frequency:    3.4660418693
  - # 4
    frequency:    4.8306416403
  - # 5
    frequency:    5.9475985893
  - # 6
    frequency:    6.9121912238
  - # 7
    frequency:   15.6712099917
  - # 8
    frequency:   16.2095705646
  - # 9
    frequency:   16.3181826849
  - # 10
    frequency:   25.7658659742
  - # 11
    frequency:   26.0507526221
  - # 12
    frequency:   28.6193033716
  - # 13
    frequency:   28.6787397467
  - # 14
    frequency:   29.9398083369
  - # 15
    frequency:   30.4391470552

- q-position: [    0.1969697,    0.0000000,    0.0000000 ]
  distance:    0.0684996
  band:
  - # 1
    frequency:    1.8354606635
  - # 2
    frequency:    1.9944056467
  - # 3
    frequency:    3.5481233912
  - # 4
    frequency:    4.8579213076
  - # 5
    frequency:    5.9869431968
  - # 6
    frequency:    6.9080296956
  - # 7
    frequency:   15.6782258612
  - # 8
    frequency:   16.2214104665
  - # 9
    frequency:   16.3422448553
  - # 10
    frequency:   25.7465390749
  - # 11
    frequency:   26.0509866618
  - # 12
    frequency:   28.5564226418
  - # 13
    frequency:   28.6165446860
  - # 14
    frequency:   29.8787692602
  - # 15
    frequency:   30.3995431814

- q-position: [    0.2020202,    0.0000000,    0.0000000 ]
  distance:    0.0702560
  band:
  - # 1
    frequency:    1.9214617360
  - # 2
    frequency:    2.1249537080
  - # 3
    frequency:    3.6279587078
  - # 4
    frequency:    4.8838626189
  - # 5
    frequency:    6.0233633236
  - # 6
    frequency:    6.9046115877
  - # 7
    frequency:   15.6856713369
  - # 8
    frequency:   16.2316649920
  - # 9
    frequency:   16.3640849388
  - # 10
    frequency:   25.7270655755
  - # 11
    frequency:   26.0509295826
  - # 12
    frequency:   28.4955207960
  - # 13
    frequency:   28.5569907869
  - # 14
    frequency:   29.8175437460
  - # 15
    frequency:   30.3599728399

- q-position: [    0.2070707,    0.0000000,    0.0000000 ]
  distance:    0.0720124
  band:
  - # 1
    frequency:    2.0076165010
  - # 2
    frequency:    2.2523195166
  - # 3
    frequency:    3.7054267284
  - # 4
    frequency:    4.9084974783
  - # 5
    frequency:    6.0569690772
  - # 6
    frequency:    6.9019756414
  - # 7
    frequency:   15.6933916543
  - # 8
    frequency:   16.2403860167
  - # 9
    frequency:   16.3835603564
  - # 10
    frequency:   25.7076915679
  - # 11
    frequency:   26.0503861416
  - # 12
    frequency:   28.4366968017
  - # 13
    frequency:   28.5002345195
  - # 14
    frequency:   29.7562439316
  - # 15
    frequency:   30.3205893874

- q-position: [    0.2121212,    0.0000000,    0.0000000 ]
  distance:    0.0737688
  band:
  - # 1
    frequency:    2.0937301138
  - # 2