nqpoint: 300    
npath: 3      
segment_nqpoint:
- 100
- 100
- 100
labels:
- [ 'G', 'M' ]
- [ 'M', 'K' ]
- [ 'K', 'G' ]
reciprocal_lattice:
- [   0.32465399,   0.18743907,   0.00000000 ] # a*
- [   0.00000000,   0.37487813,   0.00000000 ] # b*
- [   0.00000000,   0.00000000,   0.04271449 ] # c*
natom: 6      
lattice:
- [     3.080202436905700,     0.000000000000000,     0.000000000000000 ] # a
- [    -1.540101218452850,     2.667533559160340,     0.000000000000000 ] # b
- [     0.000000000000000,     0.000000000000000,    23.411261405747766 ] # c
points:
- symbol: H # 1
  coordinates: [  0.333332985432215,  0.666666983183674,  0.615569625061280 ]
  mass: 1.007940
- symbol: H # 2
  coordinates: [  0.666666984744047,  0.333332985985145,  0.384430374938720 ]
  mass: 1.007940
- symbol: N # 3
  coordinates: [  0.000000000000000,  0.000000000000000,  0.526631749101140 ]
  mass: 14.006700
- symbol: O # 4
  coordinates: [  0.666666984744047,  0.333332985985145,  0.426660700920557 ]
  mass: 15.999400
- symbol: Ti # 5
  coordinates: [  0.333332985432215,  0.666666983183674,  0.479766198962889 ]
  mass: 47.867000
- symbol: Ti # 6
  coordinates: [  0.666666984744047,  0.333332985985145,  0.573124714312654 ]
  mass: 47.867000

phonon:
- q-position: [    0.0000000,    0.0000000,    0.0000000 ]
  distance:    0.0000000
  band:
  - # 1
    frequency:   -0.0000015537
  - # 2
    frequency:   -0.0000006001
  - # 3
    frequency:    0.0000014796
  - # 4
    frequency:    4.0520422359
  - # 5
    frequency:    4.0520422359
  - # 6
    frequency:    5.9038402334
  - # 7
    frequency:    8.8866219167
  - # 8
    frequency:    8.8866219167
  - # 9
    frequency:   14.0104781715
  - # 10
    frequency:   14.0104781715
  - # 11
    frequency:   15.0367668273
  - # 12
    frequency:   16.1226383812
  - # 13
    frequency:   17.5785499919
  - # 14
    frequency:   17.5785499919
  - # 15
    frequency:   28.5140165279
  - # 16
    frequency:   28.5140165279
  - # 17
    frequency:   30.1247361479
  - # 18
    frequency:  109.6016929994

- q-position: [    0.0050505,    0.0000000,    0.0000000 ]
  distance:    0.0018933
  band:
  - # 1
    frequency:   -0.1502279597
  - # 2
    frequency:    0.0848320261
  - # 3
    frequency:    0.1688311946
  - # 4
    frequency:    4.0516381632
  - # 5
    frequency:    4.0520934488
  - # 6
    frequency:    5.9069777841
  - # 7
    frequency:    8.8870083941
  - # 8
    frequency:    8.8879528135
  - # 9
    frequency:   14.0087374159
  - # 10
    frequency:   14.0105569237
  - # 11
    frequency:   15.0360907188
  - # 12
    frequency:   16.1224427432
  - # 13
    frequency:   17.5788914893
  - # 14
    frequency:   17.5791183590
  - # 15
    frequency:   28.5138592158
  - # 16
    frequency:   28.5142436464
  - # 17
    frequency:   30.1241447894
  - # 18
    frequency:  109.6005387474

- q-position: [    0.0101010,    0.0000000,    0.0000000 ]
  distance:    0.0037866
  band:
  - # 1
    frequency:   -0.2050958387
  - # 2
    frequency:    0.1695269418
  - # 3
    frequency:    0.2568184242
  - # 4
    frequency:    4.0504412223
  - # 5
    frequency:    4.0522468972
  - # 6
    frequency:    5.9163507417
  - # 7
    frequency:    8.8881663807
  - # 8
    frequency:    8.8919385499
  - # 9
    frequency:   14.0035300016
  - # 10
    frequency:   14.0107969608
  - # 11
    frequency:   15.0340644252
  - # 12
    frequency:   16.1218549198
  - # 13
    frequency:   17.5799142654
  - # 14
    frequency:   17.5808201428
  - # 15
    frequency:   28.5133872528
  - # 16
    frequency:   28.5149244201
  - # 17
    frequency:   30.1223740039
  - # 18
    frequency:  109.5970837939

- q-position: [    0.0151515,    0.0000000,    0.0000000 ]
  distance:    0.0056800
  band:
  - # 1
    frequency:   -0.2464211570
  - # 2
    frequency:    0.2539477239
  - # 3
    frequency:    0.3391632168
  - # 4
    frequency:    4.0484968595
  - # 5
    frequency:    4.0525020634
  - # 6
    frequency:    5.9318415752
  - # 7
    frequency:    8.8900915451
  - # 8
    frequency:    8.8985583247
  - # 9
    frequency:   13.9949002492
  - # 10
    frequency:   14.0112095610
  - # 11
    frequency:   15.0306941822
  - # 12
    frequency:   16.1208722392
  - # 13
    frequency:   17.5816131958
  - # 14
    frequency:   17.5836453994
  - # 15
    frequency:   28.5126005606
  - # 16
    frequency:   28.5160571008
  - # 17
    frequency:   30.1194336442
  - # 18
    frequency:  109.5913514904

- q-position: [    0.0202020,    0.0000000,    0.0000000 ]
  distance:    0.0075733
  band:
  - # 1
    frequency:   -0.2827776275
  - # 2
    frequency:    0.3379575451
  - # 3
    frequency:    0.4217354289
  - # 4
    frequency:    4.0458795780
  - # 5
    frequency:    4.0528582632
  - # 6
    frequency:    5.9532594396
  - # 7
    frequency:    8.8927766854
  - # 8
    frequency:    8.9077776711
  - # 9
    frequency:   13.9829212510
  - # 10
    frequency:   14.0118133112
  - # 11
    frequency:   15.0259908349
  - # 12
    frequency:   16.1194904331
  - # 13
    frequency:   17.5839798178
  - # 14
    frequency:   17.5875775823
  - # 15
    frequency:   28.5114990137
  - # 16
    frequency:   28.5176387649
  - # 17
    frequency:   30.1153400746
  - # 18
    frequency:  109.5833805699

- q-position: [    0.0252525,    0.0000000,    0.0000000 ]
  distance:    0.0094666
  band:
  - # 1
    frequency:   -0.3169686163
  - # 2
    frequency:    0.4214199276
  - # 3
    frequency:    0.5060410303
  - # 4
    frequency:    4.0426912100
  - # 5
    frequency:    4.0533149017
  - # 6
    frequency:    5.9803472736
  - # 7
    frequency:    8.8962117566
  - # 8
    frequency:    8.9195487506
  - # 9
    frequency:   13.9676937491
  - # 10
    frequency:   14.0126337963
  - # 11
    frequency:   15.0199704740
  - # 12
    frequency:   16.1177039042
  - # 13
    frequency:   17.5870024464
  - # 14
    frequency:   17.5925935883
  - # 15
    frequency:   28.5100824465
  - # 16
    frequency:   28.5196652999
  - # 17
    frequency:   30.1101160852
  - # 18
    frequency:  109.5732248684

- q-position: [    0.0303030,    0.0000000,    0.0000000 ]
  distance:    0.0113599
  band:
  - # 1
    frequency:   -0.3498377333
  - # 2
    frequency:    0.5041989619
  - # 3
    frequency:    0.5924287116
  - # 4
    frequency:    4.0390587316
  - # 5
    frequency:    4.0538718111
  - # 6
    frequency:    6.0127908912
  - # 7
    frequency:    8.9003839076
  - # 8
    frequency:    8.9338107488
  - # 9
    frequency:   13.9493446403
  - # 10
    frequency:   14.0137031713
  - # 11
    frequency:   15.0126552481
  - # 12
    frequency:   16.1155060811
  - # 13
    frequency:   17.5906663304
  - # 14
    frequency:   17.5986638314
  - # 15
    frequency:   28.5083506638
  - # 16
    frequency:   28.5221313851
  - # 17
    frequency:   30.1037907720
  - # 18
    frequency:  109.5609529392

- q-position: [    0.0353535,    0.0000000,    0.0000000 ]
  distance:    0.0132533
  band:
  - # 1
    frequency:   -0.3814409402
  - # 2
    frequency:    0.5861596134
  - # 3
    frequency:    0.6808937560
  - # 4
    frequency:    4.0351317900
  - # 5
    frequency:    4.0545296501
  - # 6
    frequency:    6.0502293890
  - # 7
    frequency:    8.9052775309
  - # 8
    frequency:    8.9504903583
  - # 9
    frequency:   13.9280251693
  - # 10
    frequency:   14.0150596242
  - # 11
    frequency:   15.0040742875
  - # 12
    frequency:   16.1128898431
  - # 13
    frequency:   17.5949538474
  - # 14
    frequency:   17.6057523545
  - # 15
    frequency:   28.5063034536
  - # 16
    frequency:   28.5250304689
  - # 17
    frequency:   30.0963993833
  - # 18
    frequency:  109.5466475604

- q-position: [    0.0404040,    0.0000000,    0.0000000 ]
  distance:    0.0151466
  band:
  - # 1
    frequency:   -0.4115186276
  - # 2
    frequency:    0.6671681358
  - # 3
    frequency:    0.7713246448
  - # 4
    frequency:    4.0310800933
  - # 5
    frequency:    4.0552903376
  - # 6
    frequency:    6.0922661766
  - # 7
    frequency:    8.9108743245
  - # 8
    frequency:    8.9695023340
  - # 9
    frequency:   13.9039088741
  - # 10
    frequency:   14.0167467393
  - # 11
    frequency:   14.9942646743
  - # 12
    frequency:   16.1098479941
  - # 13
    frequency:   17.5998447310
  - # 14
    frequency:   17.6138169865
  - # 15
    frequency:   28.5039406032
  - # 16
    frequency:   28.5283547440
  - # 17
    frequency:   30.0879831323
  - # 18
    frequency:  109.5304051418

- q-position: [    0.0454545,    0.0000000,    0.0000000 ]
  distance:    0.0170399
  band:
  - # 1
    frequency:   -0.4396963324
  - # 2
    frequency:    0.7470926134
  - # 3
    frequency:    0.8635786209
  - # 4
    frequency:    4.0270907740
  - # 5
    frequency:    4.0561574928
  - # 6
    frequency:    6.1384800107
  - # 7
    frequency:    8.9171533661
  - # 8
    frequency:    8.9907501047
  - # 9
    frequency:   13.8771893391
  - # 10
    frequency:   14.0188127705
  - # 11
    frequency:   14.9832724011
  - # 12
    frequency:   16.1063737627
  - # 13
    frequency:   17.6053163248
  - # 14
    frequency:   17.6228095568
  - # 15
    frequency:   28.5012619177
  - # 16
    frequency:   28.5320951193
  - # 17
    frequency:   30.0785889764
  - # 18
    frequency:  109.5123350345

- q-position: [    0.0505051,    0.0000000,    0.0000000 ]
  distance:    0.0189332
  band:
  - # 1
    frequency:   -0.4655678126
  - # 2
    frequency:    0.8258036468
  - # 3
    frequency:    0.9575018494
  - # 4
    frequency:    4.0233657936
  - # 5
    frequency:    4.0571368492
  - # 6
    frequency:    6.1884355210
  - # 7
    frequency:    8.9240912018
  - # 8
    frequency:    9.0141264287
  - # 9
    frequency:   13.8480778042
  - # 10
    frequency:   14.0213098383
  - # 11
    frequency:   14.9711532689
  - # 12
    frequency:   16.1024613056
  - # 13
    frequency:   17.6113438574
  - # 14
    frequency:   17.6326761718
  - # 15
    frequency:   28.4982672410
  - # 16
    frequency:   28.5362411936
  - # 17
    frequency:   30.0682693630
  - # 18
    frequency:  109.4925587477

- q-position: [    0.0555556,    0.0000000,    0.0000000 ]
  distance:    0.0208266
  band:
  - # 1
    frequency:   -0.4887256247
  - # 2
    frequency:    0.9031752008
  - # 3
    frequency:    1.0529326845
  - # 4
    frequency:    4.0201194117
  - # 5
    frequency:    4.0582366049
  - # 6
    frequency:    6.2416928579
  - # 7
    frequency:    8.9316619485
  - # 8
    frequency:    9.0395140808
  - # 9
    frequency:   13.8168006593
  - # 10
    frequency:   14.0242930621
  - # 11
    frequency:   14.9579736945
  - # 12
    frequency:   16.0981061933
  - # 13
    frequency:   17.6179007323
  - # 14
    frequency:   17.6433575616
  - # 15
    frequency:   28.4949564797
  - # 16
    frequency:   28.5407812295
  - # 17
    frequency:   30.0570819434
  - # 18
    frequency:  109.4712090801

- q-position: [    0.0606061,    0.0000000,    0.0000000 ]
  distance:    0.0227199
  band:
  - # 1
    frequency:   -0.5087678371
  - # 2
    frequency:    0.9790856219
  - # 3
    frequency:    1.1497009548
  - # 4
    frequency:    4.0175757138
  - # 5
    frequency:    4.0594676776
  - # 6
    frequency:    6.2978162193
  - # 7
    frequency:    8.9398374125
  - # 8
    frequency:    9.0667865656
  - # 9
    frequency:   13.7835968453
  - # 10
    frequency:   14.0278196431
  - # 11
    frequency:   14.9438114086
  - # 12
    frequency:   16.0933058566
  - # 13
    frequency:   17.6249588256
  - # 14
    frequency:   17.6547894976
  - # 15
    frequency:   28.4913296286
  - # 16
    frequency:   28.5457021310
  - # 17
    frequency:   30.0450892543
  - # 18
    frequency:  109.4484291719

- q-position: [    0.0656566,    0.0000000,    0.0000000 ]
  distance:    0.0246132
  band:
  - # 1
    frequency:   -0.5252932757
  - # 2
    frequency:    1.0534188353
  - # 3
    frequency:    1.2476272937
  - # 4
    frequency:    4.0159661722
  - # 5
    frequency:    4.0608438273
  - # 6
    frequency:    6.3563811359
  - # 7
    frequency:    8.9485872230
  - # 8
    frequency:    9.0958088540
  - # 9
    frequency:   13.7487151667
  - # 10
    frequency:   14.0319479108
  - # 11
    frequency:   14.9287560422
  - # 12
    frequency:   16.0880599814
  - # 13
    frequency:   17.6324887866
  - # 14
    frequency:   17.6669032811
  - # 15
    frequency:   28.4873867994
  - # 16
    frequency:   28.5509894262
  - # 17
    frequency:   30.0323583680
  - # 18
    frequency:  109.4243714842

- q-position: [    0.0707071,    0.0000000,    0.0000000 ]
  distance:    0.0265065
  band:
  - # 1
    frequency:   -0.5378902097
  - # 2
    frequency:    1.1260657178
  - # 3
    frequency:    1.3465234724
  - # 4
    frequency:    4.0155272059
  - # 5
    frequency:    4.0623816185
  - # 6
    frequency:    6.4169804799
  - # 7
    frequency:    8.9578789828
  - # 8
    frequency:    9.1264381436
  - # 9
    frequency:   13.7124115162
  - # 10
    frequency:   14.0367363498
  - # 11
    frequency:   14.9129096065
  - # 12
    frequency:   16.0823708363
  - # 13
    frequency:   17.6404603345
  - # 14
    frequency:   17.6796262979
  - # 15
    frequency:   28.4831282498
  - # 16
    frequency:   28.5566272560
  - # 17
    frequency:   30.0189605126
  - # 18
    frequency:  109.3991967141

- q-position: [    0.0757576,    0.0000000,    0.0000000 ]
  distance:    0.0283999
  band:
  - # 1
    frequency:   -0.5461196354
  - # 2
    frequency:    1.1969256372
  - # 3
    frequency:    1.4461936938
  - # 4
    frequency:    4.0164977023
  - # 5
    frequency:    4.0641001967
  - # 6
    frequency:    6.4792292332
  - # 7
    frequency:    8.9676784350
  - # 8
    frequency:    9.1585246499
  - # 9
    frequency:   13.6749460057
  - # 10
    frequency:   14.0422426197
  - # 11
    frequency:   14.8963868809
  - # 12
    frequency:   16.0762435299
  - # 13
    frequency:   17.6488425467
  - # 14
    frequency:   17.6928826317
  - # 15
    frequency:   28.4785544159
  - # 16
    frequency:   28.5625983727
  - # 17
    frequency:   30.0049706629
  - # 18
    frequency:  109.3730726535

- q-position: [    0.0808081,    0.0000000,    0.0000000 ]
  distance:    0.0302932
  band:
  - # 1
    frequency:   -0.5494919603
  - # 2
    frequency:    1.2659081364
  - # 3
    frequency:    1.5464365481
  - # 4
    frequency:    4.0191164698
  - # 5
    frequency:    4.0660208652
  - # 6
    frequency:    6.5427680883
  - # 7
    frequency:    8.9779496470
  - # 8
    frequency:    9.1919124354
  - # 9
    frequency:   13.6365800011
  - # 10
    frequency:   14.0485225831
  - # 11
    frequency:   14.8793157212
  - # 12
    frequency:   16.0696861926
  - # 13
    frequency:   17.6576041344
  - # 14
    frequency:   17.7065937252
  - # 15
    frequency:   28.4736659441
  - # 16
    frequency:   28.5688841477
  - # 17
    frequency:   29.9904671023
  - # 18
    frequency:  109.3461730013

- q-position: [    0.0858586,    0.0000000,    0.0000000 ]
  distance:    0.0321865
  band:
  - # 1
    frequency:   -0.5474335531
  - # 2
    frequency:    1.3329347259
  - # 3
    frequency:    1.6470473211
  - # 4
    frequency:    4.0236195935
  - # 5
    frequency:    4.0681664589
  - # 6
    frequency:    6.6072659826
  - # 7
    frequency:    8.9886552106
  - # 8
    frequency:    9.2264402864
  - # 9
    frequency:   13.5975730614
  - # 10
    frequency:   14.0556293570
  - # 11
    frequency:   14.8618373039
  - # 12
    frequency:   16.0627100874
  - # 13
    frequency:   17.6667137003
  - # 14
    frequency:   17.7206790763
  - # 15
    frequency:   28.4684637258
  - # 16
    frequency:   28.5754645927
  - # 17
    frequency:   29.9755309595
  - # 18
    frequency:  109.3186761360

- q-position: [    0.0909091,    0.0000000,    0.0000000 ]
  distance:    0.0340798
  band:
  - # 1
    frequency:   -0.5392360194
  - # 2
    frequency:    1.3979407314
  - # 3
    frequency:    1.7478204187
  - # 4
    frequency:    4.0302376761
  - # 5
    frequency:    4.0705605266
  - # 6
    frequency:    6.6724216747
  - # 7
    frequency:    8.9997564576
  - # 8
    frequency:    9.2619426463
  - # 9
    frequency:   13.5581797919
  - # 10
    frequency:   14.0636123993
  - # 11
    frequency:   14.8441063127
  - # 12
    frequency:   16.0553296552
  - # 13
    frequency:   17.6761399763
  - # 14
    frequency:   17.7350569548
  - # 15
    frequency:   28.4629489313
  - # 16
    frequency:   28.5823183935
  - # 17
    frequency:   29.9602457193
  - # 18
    frequency:  109.2907638614

- q-position: [    0.0959596,    0.0000000,    0.0000000 ]
  distance:    0.0359732
  band:
  - # 1
    frequency:   -0.5239738657
  - # 2
    frequency:    1.4608771265
  - # 3
    frequency:    1.8485517471
  - # 4
    frequency:    4.0391929542
  - # 5
    frequency:    4.0732263526
  - # 6
    frequency:    6.7379644731
  - # 7
    frequency:    9.0112136904
  - # 8
    frequency:    9.2982506143
  - # 9
    frequency:   13.5186466360
  - # 10
    frequency:   14.0725166443
  - # 11
    frequency:   14.8262910683
  - # 12
    frequency:   16.0475625047
  - # 13
    frequency:   17.6858520388
  - # 14
    frequency:   17.7496451244
  - # 15
    frequency:   28.4571230445
  - # 16
    frequency:   28.5894229601
  - # 17
    frequency:   29.9446967107
  - # 18
    frequency:  109.2626201314

- q-position: [    0.1010101,    0.0000000,    0.0000000 ]
  distance:    0.0378665
  band:
  - # 1
    frequency:   -0.5003595570
  - # 2
    frequency:    1.5217122591
  - # 3
    frequency:    1.9490409583
  - # 4
    frequency:    4.0506962885
  - # 5
    frequency:    4.0761858640
  - # 6
    frequency:    6.8036542243
  - # 7
    frequency:    9.0229864241
  - # 8
    frequency:    9.3351930122
  - # 9
    frequency:   13.4792086386
  - # 10
    frequency:   14.0823816984
  - # 11
    frequency:   14.8085735917
  - # 12
    frequency:   16.0394293581
  - # 13
    frequency:   17.6958194987
  - # 14
    frequency:   17.7643615553
  - # 15
    frequency:   28.4509878975
  - # 16
    frequency:   28.5967544925
  - # 17
    frequency:   29.9289705743
  - # 18
    frequency:  109.2344297673

- q-position: [    0.1060606,    0.0000000,    0.0000000 ]
  distance:    0.0397598
  band:
  - # 1
    frequency:   -0.4664608427
  - # 2
    frequency:    1.5804333643
  - # 3
    frequency:    2.0490935233
  - # 4
    frequency:    4.0649440446
  - # 5
    frequency:    4.0794584931
  - # 6
    frequency:    6.8692806606
  - # 7
    frequency:    9.0350336409
  - # 8
    frequency:    9.3725975202
  - # 9
    frequency:   13.4400862386
  - # 10
    frequency:   14.0932411068
  - # 11
    frequency:   14.7911495800
  - # 12
    frequency:   16.0309539671
  - # 13
    frequency:   17.7060126649
  - # 14
    frequency:   17.7791251133
  - # 15
    frequency:   28.4445457040
  - # 16
    frequency:   28.6042880647
  - # 17
    frequency:   29.9131547119
  - # 18
    frequency:  109.2063771751

- q-position: [    0.1111111,    0.0000000,    0.0000000 ]
  distance:    0.0416531
  band:
  - # 1
    frequency:   -0.4190661560
  - # 2
    frequency:    1.6370477394
  - # 3
    frequency:    2.1485226257
  - # 4
    frequency:    4.0821148903
  - # 5
    frequency:    4.0830600791
  - # 6
    frequency:    6.9346622032
  - # 7
    frequency:    9.0473140505
  - # 8
    frequency:    9.4102918746
  - # 9
    frequency:   13.4014821570
  - # 10
    frequency:   14.1051217000
  - # 11
    frequency:   14.7742282592
  - # 12
    frequency:   16.0221630135
  - # 13
    frequency:   17.7164026821
  - # 14
    frequency:   17.7938562120
  - # 15
    frequency:   28.4377990924
  - # 16
    frequency:   28.6119977267
  - # 17
    frequency:   29.8973367207
  - # 18
    frequency:  109.1786450739

- q-position: [    0.1161616,    0.0000000,    0.0000000 ]
  distance:    0.0435464
  band:
  - # 1
    frequency:   -0.3519163132
  - # 2
    frequency:    1.6915834446
  - # 3
    frequency:    2.2471508926
  - # 4
    frequency:    4.0870019093
  - # 5
    frequency:    4.1023665607
  - # 6
    frequency:    6.9996443103
  - # 7
    frequency:    9.0597863559
  - # 8
    frequency:    9.4481051171
  - # 9
    frequency:   13.3635784706
  - # 10
    frequency:   14.1180430298
  - # 11
    frequency:   14.7580320655
  - # 12
    frequency:   16.0130860078
  - # 13
    frequency:   17.7269616402
  - # 14
    frequency:   17.8084774178
  - # 15
    frequency:   28.4307511363
  - # 16
    frequency:   28.6198566250
  - # 17
    frequency:   29.8816038159
  - # 18
    frequency:  109.1514132447

- q-position: [    0.1212121,    0.0000000,    0.0000000 ]
  distance:    0.0454398
  band:
  - # 1
    frequency:   -0.2483099958
  - # 2
    frequency:    1.7440893939
  - # 3
    frequency:    2.3448119790
  - # 4
    frequency:    4.0912900111
  - # 5
    frequency:    4.1258326610
  - # 6
    frequency:    7.0640974552
  - # 7
    frequency:    9.0724095200
  - # 8
    frequency:    9.4858688760
  - # 9
    frequency:   13.3265339747
  - # 10
    frequency:   14.1320168991
  - # 11
    frequency:   14.7427960951
  - # 12
    frequency:   16.0037551996
  - # 13
    frequency:   17.7376626578
  - # 14
    frequency:   17.8229139979
  - # 15
    frequency:   28.4234053836
  - # 16
    frequency:   28.6278371416
  - # 17
    frequency:   29.8660422457
  - # 18
    frequency:  109.1248573103

- q-position: [    0.1262626,    0.0000000,    0.0000000 ]
  distance:    0.0473331
  band:
  - # 1
    frequency:    0.1075981132
  - # 2
    frequency:    1.7946347005
  - # 3
    frequency:    2.4413520170
  - # 4
    frequency:    4.0959248048
  - # 5
    frequency:    4.1526196047
  - # 6
    frequency:    7.1279148183
  - # 7
    frequency:    9.0851430281
  - # 8
    frequency:    9.5234186575
  - # 9
    frequency:   13.2904819510
  - # 10
    frequency:   14.1470469929
  - # 11
    frequency:   14.7287672468
  - # 12
    frequency:   15.9942055134
  - # 13
    frequency:   17.7484799381
  - # 14
    frequency:   17.8370944065
  - # 15
    frequency:   28.4157658834
  - # 16
    frequency:   28.6359110510
  - # 17
    frequency:   29.8507367022
  - # 18
    frequency:  109.0991475544

- q-position: [    0.1313131,    0.0000000,    0.0000000 ]
  distance:    0.0492264
  band:
  - # 1
    frequency:    0.3106801217
  - # 2
    frequency:    1.8433071642
  - # 3
    frequency:    2.5366309230
  - # 4
    frequency:    4.1009012252
  - # 5
    frequency:    4.1828038096
  - # 6
    frequency:    7.1910097717
  - # 7
    frequency:    9.0979471439
  - # 8
    frequency:    9.5605951183
  - # 9
    frequency:   13.2555284678
  - # 10
    frequency:   14.1631286127
  - # 11
    frequency:   14.7162029742
  - # 12
    frequency:   15.9844745201
  - # 13
    frequency:   17.7593888001
  - # 14
    frequency:   17.8509507026
  - # 15
    frequency:   28.4078372087
  - # 16
    frequency:   28.6440496939
  - # 17
    frequency:   29.8357697345
  - # 18
    frequency:  109.0744477899

- q-position: [    0.1363636,    0.0000000,    0.0000000 ]
  distance:    0.0511197
  band:
  - # 1
    frequency:    0.4403159111
  - # 2
    frequency:    1.8902108103
  - # 3
    frequency:    2.6305235339
  - # 4
    frequency:    4.1062094033
  - # 5
    frequency:    4.2164292991
  - # 6
    frequency:    7.2533132373
  - # 7
    frequency:    9.1107831513
  - # 8
    frequency:    9.5972452902
  - # 9
    frequency:   13.2217513372
  - # 10
    frequency:   14.1802485168
  - # 11
    frequency:   14.7053695615
  - # 12
    frequency:   15.9746024544
  - # 13
    frequency:   17.7703656844
  - # 14
    frequency:   17.8644188995
  - # 15
    frequency:   28.3996244774
  - # 16
    frequency:   28.6522241655
  - # 17
    frequency:   29.8212211676
  - # 18
    frequency:  109.0509142850

- q-position: [    0.1414141,    0.0000000,    0.0000000 ]
  distance:    0.0530131
  band:
  - # 1
    frequency:    0.5517207169
  - # 2
    frequency:    1.9354624334
  - # 3
    frequency:    2.7229205148
  - # 4
    frequency:    4.1118359778
  - # 5
    frequency:    4.2535058708
  - # 6
    frequency:    7.3147709909
  - # 7
    frequency:    9.1236135807
  - # 8
    frequency:    9.6332237236
  - # 9
    frequency:   13.1891998506
  - # 10
    frequency:   14.1983848676
  - # 11
    frequency:   14.6965398368
  - # 12
    frequency:   15.9646322891
  - # 13
    frequency:   17.7813881357
  - # 14
    frequency:   17.8774392447
  - # 15
    frequency:   28.3911333682
  - # 16
    frequency:   28.6604055164
  - # 17
    frequency:   29.8071675350
  - # 18
    frequency:  109.0286947546

- q-position: [    0.1464646,    0.0000000,    0.0000000 ]
  distance:    0.0549064
  band:
  - # 1
    frequency:    0.6548900993
  - # 2
    frequency:    1.9791871433
  - # 3
    frequency:    2.8137289647
  - # 4
    frequency:    4.1177660766
  - # 5
    frequency:    4.2940080016
  - # 6
    frequency:    7.3753409879
  - # 7
    frequency:    9.1364024123
  - # 8
    frequency:    9.6683935216
  - # 9
    frequency:   13.1578953874
  - # 10
    frequency:   14.2175072837
  - # 11
    frequency:   14.6899902505
  - # 12
    frequency:   15.9546098727
  - # 13
    frequency:   17.7924347638
  - # 14
    frequency:   17.8899564338
  - # 15
    frequency:   28.3823701335
  - # 16
    frequency:   28.6685649631
  - # 17
    frequency:   29.7936815296
  - # 18
    frequency:  109.0079274258

- q-position: [    0.1515152,    0.0000000,    0.0000000 ]
  distance:    0.0567997
  band:
  - # 1
    frequency:    0.7537897035
  - # 2
    frequency:    2.0215129655
  - # 3
    frequency:    2.9028726317
  - # 4
    frequency:    4.1239859762
  - # 5
    frequency:    4.3378746434
  - # 6
    frequency:    7.4349907745
  - # 7
    frequency:    9.1491152539
  - # 8
    frequency:    9.7026272356
  - # 9
    frequency:   13.1278329608
  - # 10
    frequency:   14.2375769956
  - # 11
    frequency:   14.6859972715
  - # 12
    frequency:   15.9445841423
  - # 13
    frequency:   17.8034851836
  - # 14
    frequency:   17.9019197597
  - # 15
    frequency:   28.3733416072
  - # 16
    frequency:   28.6766741032
  - # 17
    frequency:   29.7808314818
  - # 18
    frequency:  108.9887401830

- q-position: [    0.1565657,    0.0000000,    0.0000000 ]
  distance:    0.0586930
  band:
  - # 1
    frequency:    0.8504547260
  - # 2
    frequency:    2.0625646019
  - # 3
    frequency:    2.9902916589
  - # 4
    frequency:    4.1304864103
  - # 5
    frequency:    4.3850100284
  - # 6
    frequency:    7.4936950494
  - # 7
    frequency:    9.1617194875
  - # 8
    frequency:    9.7358076017
  - # 9
    frequency:   13.0989837139
  - # 10
    frequency:   14.2585471009
  - # 11
    frequency:   14.6848330876
  - # 12
    frequency:   15.9346074222
  - # 13
    frequency:   17.8145199364
  - # 14
    frequency:   17.9132832051
  - # 15
    frequency:   28.3640552089
  - # 16
    frequency:   28.6847051315
  - # 17
    frequency:   29.7686808717
  - # 18
    frequency:  108.9712497998

- q-position: [    0.1616162,    0.0000000,    0.0000000 ]
  distance:    0.0605864
  band:
  - # 1
    frequency:    0.9460881879
  - # 2
    frequency:    2.1024565157
  - # 3
    frequency:    3.0759418091
  - # 4
    frequency:    4.1372664625
  - # 5
    frequency:    4.4352855463
  - # 6
    frequency:    7.5514334261
  - # 7
    frequency:    9.1741843828
  - # 8
    frequency:    9.7678281038
  - # 9
    frequency:   13.0712983142
  - # 10
    frequency:   14.2803629131
  - # 11
    frequency:   14.6867606434
  - # 12
    frequency:   15.9247358235
  - # 13
    frequency:   17.8255203949
  - # 14
    frequency:   17.9240054828
  - # 15
    frequency:   28.3545189429
  - # 16
    frequency:   28.6926310520
  - # 17
    frequency:   29.7572878818
  - # 18
    frequency:  108.9555612630

- q-position: [    0.1666667,    0.0000000,    0.0000000 ]
  distance:    0.0624797
  band:
  - # 1
    frequency:    1.0414670610
  - # 2
    frequency:    2.1412855531
  - # 3
    frequency:    3.1597931600
  - # 4
    frequency:    4.1443379441
  - # 5
    frequency:    4.4885426777
  - # 6
    frequency:    7.6081884415
  - # 7
    frequency:    9.1864811738
  - # 8
    frequency:    9.7985933559
  - # 9
    frequency:   13.0447111247
  - # 10
    frequency:   14.3029623986
  - # 11
    frequency:   14.6920281016
  - # 12
    frequency:   15.9150297661
  - # 13
    frequency:   17.8364686530
  - # 14
    frequency:   17.9340500314
  - # 15
    frequency:   28.3447413928
  - # 16
    frequency:   28.7004258792
  - # 17
    frequency:   29.7467050016
  - # 18
    frequency:  108.9417671928

- q-position: [    0.1717172,    0.0000000,    0.0000000 ]
  distance:    0.0643730
  band:
  - # 1
    frequency:    1.1371220909
  - # 2
    frequency:    2.1791233641
  - # 3
    frequency:    3.2418283250
  - # 4
    frequency:    4.1517301165
  - # 5
    frequency:    4.5445968787
  - # 6
    frequency:    7.6639438442
  - # 7
    frequency:    9.1985830961
  - # 8
    frequency:    9.8280193081
  - # 9
    frequency:   13.0191449576
  - # 10
    frequency:   14.3262766951
  - # 11
    frequency:   14.7008628636
  - # 12
    frequency:   15.9055546537
  - # 13
    frequency:   17.8473474035
  - # 14
    frequency:   17.9433849757
  - # 15
    frequency:   28.3347317116
  - # 16
    frequency:   28.7080648244
  - # 17
    frequency:   29.7369786877
  - # 18
    frequency:  108.9299473637

- q-position: [    0.1767677,    0.0000000,    0.0000000 ]
  distance:    0.0662663
  band:
  - # 1
    frequency:    1.2334272809
  - # 2
    frequency:    2.2160089298
  - # 3
    frequency:    3.3220403140
  - # 4
    frequency:    4.1594945813
  - # 5
    frequency:    4.6032422275
  - # 6
    frequency:    7.7186831845
  - # 7
    frequency:    9.2104653847
  - # 8
    frequency:    9.8560332890
  - # 9
    frequency:   12.9945161476
  - # 10
    frequency:   14.3502307012
  - # 11
    frequency:   14.7134653251
  - # 12
    frequency:   15.8963817481
  - # 13
    frequency:   17.8581398049
  - # 14