nqpoint: 300    
npath: 3      
segment_nqpoint:
- 100
- 100
- 100
labels:
- [ 'G', 'M' ]
- [ 'M', 'K' ]
- [ 'K', 'G' ]
reciprocal_lattice:
- [   0.32465399,   0.18743907,   0.00000000 ] # a*
- [   0.00000000,   0.37487813,   0.00000000 ] # b*
- [   0.00000000,   0.00000000,   0.04271449 ] # c*
natom: 6      
lattice:
- [     3.080202436905700,     0.000000000000000,     0.000000000000000 ] # a
- [    -1.540101218452850,     2.667533559160340,     0.000000000000000 ] # b
- [     0.000000000000000,     0.000000000000000,    23.411261405747766 ] # c
points:
- symbol: H # 1
  coordinates: [  0.333332985432215,  0.666666983183674,  0.615569625061280 ]
  mass: 1.007940
- symbol: H # 2
  coordinates: [  0.666666984744047,  0.333332985985145,  0.384430374938720 ]
  mass: 1.007940
- symbol: N # 3
  coordinates: [  0.000000000000000,  0.000000000000000,  0.526631749101140 ]
  mass: 14.006700
- symbol: O # 4
  coordinates: [  0.666666984744047,  0.333332985985145,  0.426660700920557 ]
  mass: 15.999400
- symbol: Ti # 5
  coordinates: [  0.333332985432215,  0.666666983183674,  0.479766198962889 ]
  mass: 47.867000
- symbol: Ti # 6
  coordinates: [  0.666666984744047,  0.333332985985145,  0.573124714312654 ]
  mass: 47.867000

phonon:
- q-position: [    0.0000000,    0.0000000,    0.0000000 ]
  distance:    0.0000000
  band:
  - # 1
    frequency:   -0.0000081455
  - # 2
    frequency:    0.0000000203
  - # 3
    frequency:    0.0000110061
  - # 4
    frequency:    3.8271816110
  - # 5
    frequency:    3.8271816110
  - # 6
    frequency:    6.5620631890
  - # 7
    frequency:    9.2005503782
  - # 8
    frequency:    9.2005503782
  - # 9
    frequency:   14.3474473045
  - # 10
    frequency:   14.3474473045
  - # 11
    frequency:   14.8268267166
  - # 12
    frequency:   16.1837588937
  - # 13
    frequency:   17.4742087009
  - # 14
    frequency:   17.4742087009
  - # 15
    frequency:   29.6759646359
  - # 16
    frequency:   29.6759646359
  - # 17
    frequency:   29.9738707243
  - # 18
    frequency:  109.3075766631

- q-position: [    0.0050505,    0.0000000,    0.0000000 ]
  distance:    0.0018933
  band:
  - # 1
    frequency:   -0.0009059250
  - # 2
    frequency:    0.0541807547
  - # 3
    frequency:    0.0622714058
  - # 4
    frequency:    3.8268954354
  - # 5
    frequency:    3.8273763539
  - # 6
    frequency:    6.5625006766
  - # 7
    frequency:    9.2006217886
  - # 8
    frequency:    9.2019577120
  - # 9
    frequency:   14.3460038847
  - # 10
    frequency:   14.3474126303
  - # 11
    frequency:   14.8265632013
  - # 12
    frequency:   16.1835108551
  - # 13
    frequency:   17.4746350877
  - # 14
    frequency:   17.4747864788
  - # 15
    frequency:   29.6752481309
  - # 16
    frequency:   29.6756944419
  - # 17
    frequency:   29.9744076408
  - # 18
    frequency:  109.3072263109

- q-position: [    0.0101010,    0.0000000,    0.0000000 ]
  distance:    0.0037866
  band:
  - # 1
    frequency:   -0.0036088073
  - # 2
    frequency:    0.1083023766
  - # 3
    frequency:    0.1244808201
  - # 4
    frequency:    3.8260389056
  - # 5
    frequency:    3.8279758691
  - # 6
    frequency:    6.5638263725
  - # 7
    frequency:    9.2008353800
  - # 8
    frequency:    9.2061667169
  - # 9
    frequency:   14.3416853444
  - # 10
    frequency:   14.3473104855
  - # 11
    frequency:   14.8257710889
  - # 12
    frequency:   16.1827665127
  - # 13
    frequency:   17.4759132598
  - # 14
    frequency:   17.4765154590
  - # 15
    frequency:   29.6731126441
  - # 16
    frequency:   29.6748839712
  - # 17
    frequency:   29.9760046671
  - # 18
    frequency:  109.3061771619

- q-position: [    0.0151515,    0.0000000,    0.0000000 ]
  distance:    0.0056800
  band:
  - # 1
    frequency:   -0.0080692186
  - # 2
    frequency:    0.1623049276
  - # 3
    frequency:    0.1865747681
  - # 4
    frequency:    3.8246180580
  - # 5
    frequency:    3.8290253738
  - # 6
    frequency:    6.5660795040
  - # 7
    frequency:    9.2011892410
  - # 8
    frequency:    9.2131387107
  - # 9
    frequency:   14.3345263622
  - # 10
    frequency:   14.3471465074
  - # 11
    frequency:   14.8244460923
  - # 12
    frequency:   16.1815252079
  - # 13
    frequency:   17.4780402333
  - # 14
    frequency:   17.4793826525
  - # 15
    frequency:   29.6695986614
  - # 16
    frequency:   29.6735335615
  - # 17
    frequency:   29.9786222402
  - # 18
    frequency:  109.3044349307

- q-position: [    0.0202020,    0.0000000,    0.0000000 ]
  distance:    0.0075733
  band:
  - # 1
    frequency:   -0.0142155321
  - # 2
    frequency:    0.2161268616
  - # 3
    frequency:    0.2485162256
  - # 4
    frequency:    3.8226431066
  - # 5
    frequency:    3.8305981185
  - # 6
    frequency:    6.5693238966
  - # 7
    frequency:    9.2016802145
  - # 8
    frequency:    9.2228102305
  - # 9
    frequency:   14.3245832059
  - # 10
    frequency:   14.3469301051
  - # 11
    frequency:   14.8225823748
  - # 12
    frequency:   16.1797859146
  - # 13
    frequency:   17.4810109710
  - # 14
    frequency:   17.4833666498
  - # 15
    frequency:   29.6647687500
  - # 16
    frequency:   29.6716437888
  - # 17
    frequency:   29.9821993501
  - # 18
    frequency:  109.3020091156

- q-position: [    0.0252525,    0.0000000,    0.0000000 ]
  distance:    0.0094666
  band:
  - # 1
    frequency:   -0.0219376204
  - # 2
    frequency:    0.2697042210
  - # 3
    frequency:    0.3102914238
  - # 4
    frequency:    3.8201286718
  - # 5
    frequency:    3.8327923285
  - # 6
    frequency:    6.5736457142
  - # 7
    frequency:    9.2023039389
  - # 8
    frequency:    9.2350944797
  - # 9
    frequency:   14.3119316544
  - # 10
    frequency:   14.3466744758
  - # 11
    frequency:   14.8201743013
  - # 12
    frequency:   16.1775473454
  - # 13
    frequency:   17.4848182910
  - # 14
    frequency:   17.4884379686
  - # 15
    frequency:   29.6587014845
  - # 16
    frequency:   29.6692154871
  - # 17
    frequency:   29.9866596439
  - # 18
    frequency:  109.2989129597

- q-position: [    0.0303030,    0.0000000,    0.0000000 ]
  distance:    0.0113599
  band:
  - # 1
    frequency:   -0.0310774910
  - # 2
    frequency:    0.3229698357
  - # 3
    frequency:    0.3719150077
  - # 4
    frequency:    3.8170941010
  - # 5
    frequency:    3.8357271364
  - # 6
    frequency:    6.5791504311
  - # 7
    frequency:    9.2030549068
  - # 8
    frequency:    9.2498832366
  - # 9
    frequency:   14.2966644636
  - # 10
    frequency:   14.3463966210
  - # 11
    frequency:   14.8172185242
  - # 12
    frequency:   16.1748080978
  - # 13
    frequency:   17.4894527448
  - # 14
    frequency:   17.4945595230
  - # 15
    frequency:   29.6514849694
  - # 16
    frequency:   29.6662497749
  - # 17
    frequency:   29.9919179428
  - # 18
    frequency:  109.2951633964

- q-position: [    0.0353535,    0.0000000,    0.0000000 ]
  distance:    0.0132533
  band:
  - # 1
    frequency:   -0.0414177994
  - # 2
    frequency:    0.3758525277
  - # 3
    frequency:    0.4334331283
  - # 4
    frequency:    3.8135638790
  - # 5
    frequency:    3.8395377227
  - # 6
    frequency:    6.5859591573
  - # 7
    frequency:    9.2039265382
  - # 8
    frequency:    9.2670491190
  - # 9
    frequency:   14.2788886424
  - # 10
    frequency:   14.3461173548
  - # 11
    frequency:   14.8137161464
  - # 12
    frequency:   16.1715668370
  - # 13
    frequency:   17.4949024727
  - # 14
    frequency:   17.5016871963
  - # 15
    frequency:   29.6432110355
  - # 16
    frequency:   29.6627480882
  - # 17
    frequency:   29.9978860952
  - # 18
    frequency:  109.2907809793

- q-position: [    0.0404040,    0.0000000,    0.0000000 ]
  distance:    0.0151466
  band:
  - # 1
    frequency:   -0.0526683532
  - # 2
    frequency:    0.4282763228
  - # 3
    frequency:    0.4949241856
  - # 4
    frequency:    3.8095681261
  - # 5
    frequency:    3.8443699314
  - # 6
    frequency:    6.5942044629
  - # 7
    frequency:    9.2049112691
  - # 8
    frequency:    9.2864480920
  - # 9
    frequency:   14.2587227652
  - # 10
    frequency:   14.3458612980
  - # 11
    frequency:   14.8096747461
  - # 12
    frequency:   16.1678225132
  - # 13
    frequency:   17.5011530439
  - # 14
    frequency:   17.5097705001
  - # 15
    frequency:   29.6339707353
  - # 16
    frequency:   29.6587122200
  - # 17
    frequency:   30.0044775385
  - # 18
    frequency:  109.2857897984

- q-position: [    0.0454545,    0.0000000,    0.0000000 ]
  distance:    0.0170399
  band:
  - # 1
    frequency:   -0.0644502741
  - # 2
    frequency:    0.4801596766
  - # 3
    frequency:    0.5564971346
  - # 4
    frequency:    3.8051431807
  - # 5
    frequency:    3.8503746745
  - # 6
    frequency:    6.6040258545
  - # 7
    frequency:    9.2060006531
  - # 8
    frequency:    9.3079221058
  - # 9
    frequency:   14.2362944825
  - # 10
    frequency:   14.3456568469
  - # 11
    frequency:   14.8051101095
  - # 12
    frequency:   16.1635746079
  - # 13
    frequency:   17.5081872912
  - # 14
    frequency:   17.5187532952
  - # 15
    frequency:   29.6238513130
  - # 16
    frequency:   29.6541443644
  - # 17
    frequency:   30.0116103937
  - # 18
    frequency:  109.2802173796

- q-position: [    0.0505051,    0.0000000,    0.0000000 ]
  distance:    0.0189332
  band:
  - # 1
    frequency:   -0.0762765168
  - # 2
    frequency:    0.5314147218
  - # 3
    frequency:    0.6182874927
  - # 4
    frequency:    3.8003322589
  - # 5
    frequency:    3.8577024595
  - # 6
    frequency:    6.6155650669
  - # 7
    frequency:    9.2071854763
  - # 8
    frequency:    9.3313017567
  - # 9
    frequency:   14.2117383160
  - # 10
    frequency:   14.3455361107
  - # 11
    frequency:   14.8000475979
  - # 12
    frequency:   16.1588234029
  - # 13
    frequency:   17.5159851478
  - # 14
    frequency:   17.5285745572
  - # 15
    frequency:   29.6129345048
  - # 16
    frequency:   29.6490471643
  - # 17
    frequency:   30.0192092335
  - # 18
    frequency:  109.2740945720

- q-position: [    0.0555556,    0.0000000,    0.0000000 ]
  distance:    0.0208266
  band:
  - # 1
    frequency:   -0.0875254579
  - # 2
    frequency:    0.5819465499
  - # 3
    frequency:    0.6804514186
  - # 4
    frequency:    3.7951861822
  - # 5
    frequency:    3.8664983742
  - # 6
    frequency:    6.6289613298
  - # 7
    frequency:    9.2084558829
  - # 8
    frequency:    9.3564088830
  - # 9
    frequency:   14.1851937617
  - # 10
    frequency:   14.3455348057
  - # 11
    frequency:   14.7945231316
  - # 12
    frequency:   16.1535702688
  - # 13
    frequency:   17.5245234980
  - # 14
    frequency:   17.5391691620
  - # 15
    frequency:   29.6012958731
  - # 16
    frequency:   29.6434237631
  - # 17
    frequency:   30.0272058199
  - # 18
    frequency:  109.2674554191

- q-position: [    0.0606061,    0.0000000,    0.0000000 ]
  distance:    0.0227199
  band:
  - # 1
    frequency:   -0.0974000458
  - # 2
    frequency:    0.6316525423
  - # 3
    frequency:    0.7431584293
  - # 4
    frequency:    3.7897641588
  - # 5
    frequency:    3.8768978249
  - # 6
    frequency:    6.6443467670
  - # 7
    frequency:    9.2098015107
  - # 8
    frequency:    9.3830590230
  - # 9
    frequency:   14.1568036772
  - # 10
    frequency:   14.3456921003
  - # 11
    frequency:   14.7885838235
  - # 12
    frequency:   16.1478179626
  - # 13
    frequency:   17.5337760501
  - # 14
    frequency:   17.5504686755
  - # 15
    frequency:   29.5890048514
  - # 16
    frequency:   29.6372778571
  - # 17
    frequency:   30.0355391314
  - # 18
    frequency:  109.2603370180

- q-position: [    0.0656566,    0.0000000,    0.0000000 ]
  distance:    0.0246132
  band:
  - # 1
    frequency:   -0.1048551484
  - # 2
    frequency:    0.6804217738
  - # 3
    frequency:    0.8065834310
  - # 4
    frequency:    3.7841345976
  - # 5
    frequency:    3.8890232580
  - # 6
    frequency:    6.6618420747
  - # 7
    frequency:    9.2112116345
  - # 8
    frequency:    9.4110636869
  - # 9
    frequency:   14.1267129071
  - # 10
    frequency:   14.3460504030
  - # 11
    frequency:   14.7822883137
  - # 12
    frequency:   16.1415709312
  - # 13
    frequency:   17.5437132389
  - # 14
    frequency:   17.5624021284
  - # 15
    frequency:   29.5761252160
  - # 16
    frequency:   29.6306137497
  - # 17
    frequency:   30.0441549621
  - # 18
    frequency:  109.2527793651

- q-position: [    0.0707071,    0.0000000,    0.0000000 ]
  distance:    0.0265065
  band:
  - # 1
    frequency:   -0.1084489361
  - # 2
    frequency:    0.7281345185
  - # 3
    frequency:    0.8708987582
  - # 4
    frequency:    3.7783759284
  - # 5
    frequency:    3.9029820014
  - # 6
    frequency:    6.6815526153
  - # 7
    frequency:    9.2126753158
  - # 8
    frequency:    9.4402324111
  - # 9
    frequency:   14.0950670868
  - # 10
    frequency:   14.3466550884
  - # 11
    frequency:   14.7757068660
  - # 12
    frequency:   16.1348356114
  - # 13
    frequency:   17.5543021681
  - # 14
    frequency:   17.5748967620
  - # 15
    frequency:   29.5627157720
  - # 16
    frequency:   29.6234364045
  - # 17
    frequency:   30.0530053034
  - # 18
    frequency:  109.2448251887

- q-position: [    0.0757576,    0.0000000,    0.0000000 ]
  distance:    0.0283999
  band:
  - # 1
    frequency:   -0.1059841033
  - # 2
    frequency:    0.7746618951
  - # 3
    frequency:    0.9362668294
  - # 4
    frequency:    3.7725773904
  - # 5
    frequency:    3.9188652495
  - # 6
    frequency:    6.7035650458
  - # 7
    frequency:    9.2141815561
  - # 8
    frequency:    9.4703745843
  - # 9
    frequency:   14.0620115733
  - # 10
    frequency:   14.3475541573
  - # 11
    frequency:   14.7689212818
  - # 12
    frequency:   16.1276207204
  - # 13
    frequency:   17.5655065953
  - # 14
    frequency:   17.5878787338
  - # 15
    frequency:   29.5488311044
  - # 16
    frequency:   29.6157514972
  - # 17
    frequency:   30.0620476532
  - # 18
    frequency:  109.2365197704

- q-position: [    0.0808081,    0.0000000,    0.0000000 ]
  distance:    0.0302932
  band:
  - # 1
    frequency:   -0.0933855643
  - # 2
    frequency:    0.8198657021
  - # 3
    frequency:    1.0028338705
  - # 4
    frequency:    3.7668397436
  - # 5
    frequency:    3.9367481045
  - # 6
    frequency:    6.7279445807
  - # 7
    frequency:    9.2157194525
  - # 8
    frequency:    9.5013010475
  - # 9
    frequency:   14.0276904578
  - # 10
    frequency:   14.3487978303
  - # 11
    frequency:   14.7620246738
  - # 12
    frequency:   16.1199375325
  - # 13
    frequency:   17.5772869669
  - # 14
    frequency:   17.6012737738
  - # 15
    frequency:   29.5345223047
  - # 16
    frequency:   29.6075654646
  - # 17
    frequency:   30.0712443437
  - # 18
    frequency:  109.2279107549

- q-position: [    0.0858586,    0.0000000,    0.0000000 ]
  distance:    0.0321865
  band:
  - # 1
    frequency:   -0.0583639895
  - # 2
    frequency:    0.8635985012
  - # 3
    frequency:    1.0707249723
  - # 4
    frequency:    3.7612758444
  - # 5
    frequency:    3.9566904908
  - # 6
    frequency:    6.7547329625
  - # 7
    frequency:    9.2172783527
  - # 8
    frequency:    9.5328254818
  - # 9
    frequency:   13.9922456285
  - # 10
    frequency:   14.3504380767
  - # 11
    frequency:   14.7551211293
  - # 12
    frequency:   16.1118001342
  - # 13
    frequency:   17.5896005045
  - # 14
    frequency:   17.6150077840
  - # 15
    frequency:   29.5198376181
  - # 16
    frequency:   29.5988855503
  - # 17
    frequency:   30.0805619365
  - # 18
    frequency:  109.2190479494

- q-position: [    0.0909091,    0.0000000,    0.0000000 ]
  distance:    0.0340798
  band:
  - # 1
    frequency:    0.0751867358
  - # 2
    frequency:    0.9057040211
  - # 3
    frequency:    1.1400405622
  - # 4
    frequency:    3.7560110149
  - # 5
    frequency:    3.9787386897
  - # 6
    frequency:    6.7839471856
  - # 7
    frequency:    9.2188480069
  - # 8
    frequency:    9.5647656064
  - # 9
    frequency:   13.9558158666
  - # 10
    frequency:   14.3525280811
  - # 11
    frequency:   14.7483252786
  - # 12
    frequency:   16.1032256554
  - # 13
    frequency:   17.6024013433
  - # 14
    frequency:   17.6290073791
  - # 15
    frequency:   29.5048229900
  - # 16
    frequency:   29.5897198459
  - # 17
    frequency:   30.0899707087
  - # 18
    frequency:  109.2099831127

- q-position: [    0.0959596,    0.0000000,    0.0000000 ]
  distance:    0.0359732
  band:
  - # 1
    frequency:    0.1396726261
  - # 2
    frequency:    0.9460179661
  - # 3
    frequency:    1.2108542332
  - # 4
    frequency:    3.7511831266
  - # 5
    frequency:    4.0029272124
  - # 6
    frequency:    6.8155789860
  - # 7
    frequency:    9.2204187152
  - # 8
    frequency:    9.5969442115
  - # 9
    frequency:   13.9185359693
  - # 10
    frequency:   14.3551216541
  - # 11
    frequency:   14.7417617701
  - # 12
    frequency:   16.0942344731
  - # 13
    frequency:   17.6156407242
  - # 14
    frequency:   17.6432003642
  - # 15
    frequency:   29.4895225018
  - # 16
    frequency:   29.5800773266
  - # 17
    frequency:   30.0994442341
  - # 18
    frequency:  109.2007697357

- q-position: [    0.1010101,    0.0000000,    0.0000000 ]
  distance:    0.0378665
  band:
  - # 1
    frequency:    0.1982490503
  - # 2
    frequency:    0.9843693198
  - # 3
    frequency:    1.2832117722
  - # 4
    frequency:    3.7469423071
  - # 5
    frequency:    4.0292807344
  - # 6
    frequency:    6.8495950753
  - # 7
    frequency:    9.2219814657
  - # 8
    frequency:    9.6291900541
  - # 9
    frequency:   13.8805359055
  - # 10
    frequency:   14.3582725964
  - # 11
    frequency:   14.7355646442
  - # 12
    frequency:   16.0848503840
  - # 13
    frequency:   17.6292672345
  - # 14
    frequency:   17.6575161515
  - # 15
    frequency:   29.4739787006
  - # 16
    frequency:   29.5699678809
  - # 17
    frequency:   30.1089590570
  - # 18
    frequency:  109.1914628135

- q-position: [    0.1060606,    0.0000000,    0.0000000 ]
  distance:    0.0397598
  band:
  - # 1
    frequency:    0.2573930012
  - # 2
    frequency:    1.0205822424
  - # 3
    frequency:    1.3571311912
  - # 4
    frequency:    3.7434501769
  - # 5
    frequency:    4.0578158561
  - # 6
    frequency:    6.8859380672
  - # 7
    frequency:    9.2235280637
  - # 8
    frequency:    9.6613386422
  - # 9
    frequency:   13.8419400180
  - # 10
    frequency:   14.3620340243
  - # 11
    frequency:   14.7298765922
  - # 12
    frequency:   16.0751007476
  - # 13
    frequency:   17.6432270966
  - # 14
    frequency:   17.6718861167
  - # 15
    frequency:   29.4582328313
  - # 16
    frequency:   29.5594023334
  - # 17
    frequency:   30.1184944473
  - # 18
    frequency:  109.1821186103

- q-position: [    0.1111111,    0.0000000,    0.0000000 ]
  distance:    0.0416531
  band:
  - # 1
    frequency:    0.3187820721
  - # 2
    frequency:    1.0544786558
  - # 3
    frequency:    1.4326035542
  - # 4
    frequency:    3.7408785265
  - # 5
    frequency:    4.0885425157
  - # 6
    frequency:    6.9245280113
  - # 7
    frequency:    9.2250512472
  - # 8
    frequency:    9.6932329301
  - # 9
    frequency:   13.8028662923
  - # 10
    frequency:   14.3664576698
  - # 11
    frequency:   14.7248480781
  - # 12
    frequency:   16.0650165966
  - # 13
    frequency:   17.6574644972
  - # 14
    frequency:   17.6862438978
  - # 15
    frequency:   29.4423249816
  - # 16
    frequency:   29.5483924615
  - # 17
    frequency:   30.1280322248
  - # 18
    frequency:  109.1727944172

- q-position: [    0.1161616,    0.0000000,    0.0000000 ]
  distance:    0.0435464
  band:
  - # 1
    frequency:    0.3830366632
  - # 2
    frequency:    1.0858815983
  - # 3
    frequency:    1.5095944159
  - # 4
    frequency:    3.7394073559
  - # 5
    frequency:    4.1214649550
  - # 6
    frequency:    6.9652644322
  - # 7
    frequency:    9.2265447874
  - # 8
    frequency:    9.7247239445
  - # 9
    frequency:   13.7634257175
  - # 10
    frequency:   14.3715931675
  - # 11
    frequency:   14.7206363040
  - # 12
    frequency:   16.0546327185
  - # 13
    frequency:   17.6719219546
  - # 14
    frequency:   17.7005256416
  - # 15
    frequency:   29.4262941521
  - # 16
    frequency:   29.5369510035
  - # 17
    frequency:   30.1375566415
  - # 18
    frequency:  109.1635483053

- q-position: [    0.1212121,    0.0000000,    0.0000000 ]
  distance:    0.0454398
  band:
  - # 1
    frequency:    0.4503936121
  - # 2
    frequency:    1.1146194044
  - # 3
    frequency:    1.5880457135
  - # 4
    frequency:    3.7392222281
  - # 5
    frequency:    4.1565822098
  - # 6
    frequency:    7.0080287516
  - # 7
    frequency:    9.2280035723
  - # 8
    frequency:    9.7556713550
  - # 9
    frequency:   13.7237217647
  - # 10
    frequency:   14.3774873407
  - # 11
    frequency:   14.7174039961
  - # 12
    frequency:   16.0439877083
  - # 13
    frequency:   17.6865407139
  - # 14
    frequency:   17.7146702002
  - # 15
    frequency:   29.4101782645
  - # 16
    frequency:   29.5250916606
  - # 17
    frequency:   30.1470543074
  - # 18
    frequency:  109.1544388739

- q-position: [    0.1262626,    0.0000000,    0.0000000 ]
  distance:    0.0473331
  band:
  - # 1
    frequency:    0.5209153263
  - # 2
    frequency:    1.1405307258
  - # 3
    frequency:    1.6678779912
  - # 4
    frequency:    3.7405109309
  - # 5
    frequency:    4.1938881567
  - # 6
    frequency:    7.0526869679
  - # 7
    frequency:    9.2294236711
  - # 8
    frequency:    9.7859439963
  - # 9
    frequency:   13.6838500102
  - # 10
    frequency:   14.3841835017
  - # 11
    frequency:   14.7153179960
  - # 12
    frequency:   16.0331239975
  - # 13
    frequency:   17.7012611672
  - # 14
    frequency:   17.7286192863
  - # 15
    frequency:   29.3940141182
  - # 16
    frequency:   29.5128290902
  - # 17
    frequency:   30.1565141507
  - # 18
    frequency:  109.1455249951

- q-position: [    0.1313131,    0.0000000,    0.0000000 ]
  distance:    0.0492264
  band:
  - # 1
    frequency:    0.5945744108
  - # 2
    frequency:    1.1634703498
  - # 3
    frequency:    1.7489928603
  - # 4
    frequency:    3.7434594978
  - # 5
    frequency:    4.2333711962
  - # 6
    frequency:    7.0990924673
  - # 7
    frequency:    9.2308023779
  - # 8
    frequency:    9.8154203462
  - # 9
    frequency:   13.6438979260
  - # 10
    frequency:   14.3917207792
  - # 11
    frequency:   14.7145476441
  - # 12
    frequency:   16.0220878621
  - # 13
    frequency:   17.7160232891
  - # 14
    frequency:   17.7423175898
  - # 15
    frequency:   29.3778373061
  - # 16
    frequency:   29.5001788929
  - # 17
    frequency:   30.1659274000
  - # 18
    frequency:  109.1368655557

- q-position: [    0.1363636,    0.0000000,    0.0000000 ]
  distance:    0.0511197
  band:
  - # 1
    frequency:    0.6712940768
  - # 2
    frequency:    1.1833157070
  - # 3
    frequency:    1.8312756227
  - # 4
    frequency:    3.7482477081
  - # 5
    frequency:    4.2750136744
  - # 6
    frequency:    7.1470888515
  - # 7
    frequency:    9.2321382338
  - # 8
    frequency:    9.8439889563
  - # 9
    frequency:   13.6039448554
  - # 10
    frequency:   14.4001334850
  - # 11
    frequency:   14.7152629531
  - # 12
    frequency:   16.0109294183
  - # 13
    frequency:   17.7307670816
  - # 14
    frequency:   17.7557128649
  - # 15
    frequency:   29.3616820998
  - # 16
    frequency:   29.4871575921
  - # 17
    frequency:   30.1752875815
  - # 18
    frequency:  109.1285191987

- q-position: [    0.1414141,    0.0000000,    0.0000000 ]
  distance:    0.0530131
  band:
  - # 1
    frequency:    0.7509696871
  - # 2
    frequency:    1.1999738848
  - # 3
    frequency:    1.9145979984
  - # 4
    frequency:    3.7550442629
  - # 5
    frequency:    4.3187911570
  - # 6
    frequency:    7.1965126803
  - # 7
    frequency:    9.2334310266
  - # 8
    frequency:    9.8715488279
  - # 9
    frequency:   13.5640621835
  - # 10
    frequency:   14.4094505325
  - # 11
    frequency:   14.7176325767
  - # 12
    frequency:   15.9997026113
  - # 13
    frequency:   17.7454330222
  - # 14
    frequency:   17.7687559902
  - # 15
    frequency:   29.3455813129
  - # 16
    frequency:   29.4737826070
  - # 17
    frequency:   30.1845905215
  - # 18
    frequency:  109.1205440629

- q-position: [    0.1464646,    0.0000000,    0.0000000 ]
  distance:    0.0549064
  band:
  - # 1
    frequency:    0.8334810924
  - # 2
    frequency:    1.2133888934
  - # 3
    frequency:    1.9988209098
  - # 4
    frequency:    3.7640018981
  - # 5
    frequency:    4.3646716651
  - # 6
    frequency:    7.2471960462
  - # 7
    frequency:    9.2346817674
  - # 8
    frequency:    9.8980097244
  - # 9
    frequency:   13.5243137034
  - # 10
    frequency:   14.4196949170
  - # 11
    frequency:   14.7218215900
  - # 12
    frequency:   15.9884652097
  - # 13
    frequency:   17.7599625077
  - # 14
    frequency:   17.7814010124
  - # 15
    frequency:   29.3295661495
  - # 16
    frequency:   29.4600722193
  - # 17
    frequency:   30.1938343494
  - # 18
    frequency:  109.1129975243

- q-position: [    0.1515152,    0.0000000,    0.0000000 ]
  distance:    0.0567997
  band:
  - # 1
    frequency:    0.9186999829
  - # 2
    frequency:    1.2235488810
  - # 3
    frequency:    2.0837972784
  - # 4
    frequency:    3.7752527458
  - # 5
    frequency:    4.4126149635
  - # 6
    frequency:    7.2989689185
  - # 7
    frequency:    9.2358926453
  - # 8
    frequency:    9.9232924056
  - # 9
    frequency:   13.4847561668
  - # 10
    frequency:   14.4308832667
  - # 11
    frequency:   14.7279891063
  - # 12
    frequency:   15.9772788174
  - # 13
    frequency:   17.7742982889
  - # 14
    frequency:   17.7936051747
  - # 15
    frequency:   29.3136660463
  - # 16
    frequency:   29.4460455344
  - # 17
    frequency:   30.2030194935
  - # 18
    frequency:  109.1059359391

- q-position: [    0.1565657,    0.0000000,    0.0000000 ]
  distance:    0.0586930
  band:
  - # 1
    frequency:    1.0064943174
  - # 2
    frequency:    1.2304929686
  - # 3
    frequency:    2.1693747949
  - # 4
    frequency:    3.7889042731
  - # 5
    frequency:    4.4625719747
  - # 6
    frequency:    7.3516612142
  - # 7
    frequency:    9.2370669596
  - # 8
    frequency:    9.9473287725
  - # 9
    frequency:   13.4454399994
  - # 10
    frequency:   14.4430254717
  - # 11
    frequency:   14.7362857625
  - # 12
    frequency:   15.9662089207
  - # 13
    frequency:   17.7883848903
  - # 14
    frequency:   17.8053289395
  - # 15
    frequency:   29.2979085153
  - # 16
    frequency:   29.4317224376
  - # 17
    frequency:   30.2121486664
  - # 18
    frequency:  109.0994143895

- q-position: [    0.1616162,    0.0000000,    0.0000000 ]
  distance:    0.0605864
  band:
  - # 1
    frequency:    1.0967309458
  - # 2
    frequency:    1.2343173840
  - # 3
    frequency:    2.2553986243
  - # 4
    frequency:    3.8050361011
  - # 5
    frequency:    4.5144843663
  - # 6
    frequency:    7.4051045728
  - # 7
    frequency:    9.2382090321
  - # 8
    frequency:    9.9700619096
  - # 9
    frequency:   13.4064101464
  - # 10
    frequency:   14.4561243954
  - # 11
    frequency:   14.7468511110
  - # 12
    frequency:   15.9553249928
  - # 13
    frequency:   17.8021690103
  - # 14
    frequency:   17.8165360081
  - # 15
    frequency:   29.2823189910
  - # 16
    frequency:   29.4171235457
  - # 17
    frequency:   30.2212268353
  - # 18
    frequency:  109.0934864332

- q-position: [    0.1666667,    0.0000000,    0.0000000 ]
  distance:    0.0624797
  band:
  - # 1
    frequency:    1.1892770708
  - # 2
    frequency:    1.2351806168
  - # 3
    frequency:    2.3417140124
  - # 4
    frequency:    3.8236979450
  - # 5
    frequency:    4.5682843392
  - # 6
    frequency:    7.4591338253
  - # 7
    frequency:    9.2393240995
  - # 8
    frequency:    9.9914460143
  - # 9
    frequency:   13.3677070103
  - # 10
    frequency:   14.4701756723
  - # 11
    frequency:   14.7598109543
  - # 12
    frequency:   15.9447006823
  - # 13
    frequency:   17.8155998984
  - # 14
    frequency:   17.8271933426
  - # 15
    frequency:   29.2669206902
  - # 16
    frequency:   29.4022701550
  - # 17
    frequency:   30.2302611733
  - # 18
    frequency:  109.0882038589

- q-position: [    0.1717172,    0.0000000,    0.0000000 ]
  distance:    0.0643730
  band:
  - # 1
    frequency:    1.2333073784
  - # 2
    frequency:    1.2840009548
  - # 3
    frequency:    2.4281687609
  - # 4
    frequency:    3.8449088150
  - # 5
    frequency:    4.6238946232
  - # 6
    frequency:    7.5135881663
  - # 7
    frequency:    9.2404181897
  - # 8
    frequency:   10.0114462093
  - # 9
    frequency:   13.3293674327
  - # 10
    frequency:   14.4851675925
  - # 11
    frequency:   14.7752746501
  - # 12
    frequency:   15.9344141239
  - # 13
    frequency:   17.8286297053
  - # 14
    frequency:   17.8372711954
  - # 15
    frequency:   29.2517344874
  - # 16
    frequency:   29.3871841859
  - # 17
    frequency:   30.2392609908
  - # 18
    frequency:  109.0836164465

- q-position: [    0.1767677,    0.0000000,    0.0000000 ]
  distance:    0.0662663
  band:
  - # 1
    frequency:    1.2289912135
  - # 2
    frequency:    1.3807721346
  - # 3
    frequency:    2.5146155422
  - # 4
    frequency:    3.8686575013
  - # 5
    frequency:    4.6812286734
  - # 6
    frequency:    7.5683120433
  - # 7
    frequency:    9.2414979827
  - # 8
    frequency:   10.0300382358
  - # 9
    frequency:   13.2914256719
  - # 10
    frequency:   14.5010810735
  - # 11
    frequency:   14.7933324049
  - # 12
    frequency:   15.9245484179
  - # 13
    frequency:   17.8412138039
  - # 14