nqpoint: 300    
npath: 3      
segment_nqpoint:
- 100
- 100
- 100
labels:
- [ 'G', 'M' ]
- [ 'M', 'K' ]
- [ 'K', 'G' ]
reciprocal_lattice:
- [   0.29365034,   0.16953910,   0.00000000 ] # a*
- [   0.00000000,   0.33907821,   0.00000000 ] # b*
- [   0.00000000,   0.00000000,   0.03799628 ] # c*
natom: 7      
lattice:
- [     3.405410656341697,     0.000000000000000,     0.000000000000000 ] # a
- [    -1.702705328170848,     2.949172138697322,     0.000000000000000 ] # b
- [     0.000000000000000,     0.000000000000000,    26.318366998068530 ] # c
points:
- symbol: Br # 1
  coordinates: [  0.666666984744047,  0.333332985985145,  0.341966505773724 ]
  mass: 79.904000
- symbol: C # 2
  coordinates: [  0.333332985432215,  0.666666983183674,  0.598971675724135 ]
  mass: 12.010700
- symbol: N # 3
  coordinates: [  0.000000000000000,  0.000000000000000,  0.457148424395095 ]
  mass: 14.006700
- symbol: N # 4
  coordinates: [  0.333332985432215,  0.666666983183674,  0.551424344735903 ]
  mass: 14.006700
- symbol: S # 5
  coordinates: [  0.333332985432215,  0.666666983183674,  0.658033494226276 ]
  mass: 32.065000
- symbol: Sc # 6
  coordinates: [  0.333332985432215,  0.666666983183674,  0.412870453517301 ]
  mass: 44.955912
- symbol: Sc # 7
  coordinates: [  0.666666984744047,  0.333332985985145,  0.503511768177416 ]
  mass: 44.955912

phonon:
- q-position: [    0.0000000,    0.0000000,    0.0000000 ]
  distance:    0.0000000
  band:
  - # 1
    frequency:   -0.0000200774
  - # 2
    frequency:   -0.0000002855
  - # 3
    frequency:    0.0000147014
  - # 4
    frequency:    0.7545370090
  - # 5
    frequency:    0.7545370092
  - # 6
    frequency:    3.1279441766
  - # 7
    frequency:    3.1279441767
  - # 8
    frequency:    4.2487171441
  - # 9
    frequency:    6.0641359027
  - # 10
    frequency:    6.0641359028
  - # 11
    frequency:    7.3870559509
  - # 12
    frequency:    7.4545884862
  - # 13
    frequency:    7.4545884862
  - # 14
    frequency:   10.1931363528
  - # 15
    frequency:   12.3149906186
  - # 16
    frequency:   12.3149906186
  - # 17
    frequency:   12.4260670227
  - # 18
    frequency:   13.9138266894
  - # 19
    frequency:   13.9138266895
  - # 20
    frequency:   26.8729479734
  - # 21
    frequency:   57.6029321783

- q-position: [    0.0050505,    0.0000000,    0.0000000 ]
  distance:    0.0017125
  band:
  - # 1
    frequency:    0.0020458133
  - # 2
    frequency:    0.0658512884
  - # 3
    frequency:    0.0673463818
  - # 4
    frequency:    0.7569313332
  - # 5
    frequency:    0.7598205659
  - # 6
    frequency:    3.1283859546
  - # 7
    frequency:    3.1291836077
  - # 8
    frequency:    4.2485725830
  - # 9
    frequency:    6.0640108959
  - # 10
    frequency:    6.0640358186
  - # 11
    frequency:    7.3835610291
  - # 12
    frequency:    7.4545134702
  - # 13
    frequency:    7.4575826579
  - # 14
    frequency:   10.1921009882
  - # 15
    frequency:   12.3139991919
  - # 16
    frequency:   12.3148201703
  - # 17
    frequency:   12.4260186118
  - # 18
    frequency:   13.9139794721
  - # 19
    frequency:   13.9141927475
  - # 20
    frequency:   26.8728694789
  - # 21
    frequency:   57.6021613500

- q-position: [    0.0101010,    0.0000000,    0.0000000 ]
  distance:    0.0034250
  band:
  - # 1
    frequency:    0.0080913909
  - # 2
    frequency:    0.1312166129
  - # 3
    frequency:    0.1350172026
  - # 4
    frequency:    0.7641250557
  - # 5
    frequency:    0.7753880618
  - # 6
    frequency:    3.1297128325
  - # 7
    frequency:    3.1328906572
  - # 8
    frequency:    4.2481418476
  - # 9
    frequency:    6.0636370080
  - # 10
    frequency:    6.0637343820
  - # 11
    frequency:    7.3744565140
  - # 12
    frequency:    7.4542914431
  - # 13
    frequency:    7.4651869830
  - # 14
    frequency:   10.1889968467
  - # 15
    frequency:   12.3110304279
  - # 16
    frequency:   12.3143078792
  - # 17
    frequency:   12.4258701712
  - # 18
    frequency:   13.9144373706
  - # 19
    frequency:   13.9152897697
  - # 20
    frequency:   26.8726341778
  - # 21
    frequency:   57.5998501076

- q-position: [    0.0151515,    0.0000000,    0.0000000 ]
  distance:    0.0051375
  band:
  - # 1
    frequency:    0.0179007905
  - # 2
    frequency:    0.1956077660
  - # 3
    frequency:    0.2033000983
  - # 4
    frequency:    0.7761487215
  - # 5
    frequency:    0.8004585957
  - # 6
    frequency:    3.1319294287
  - # 7
    frequency:    3.1390318014
  - # 8
    frequency:    4.2474338184
  - # 9
    frequency:    6.0630175039
  - # 10
    frequency:    6.0632281106
  - # 11
    frequency:    7.3619835449
  - # 12
    frequency:    7.4539313813
  - # 13
    frequency:    7.4751666184
  - # 14
    frequency:   10.1838298265
  - # 15
    frequency:   12.3060993582
  - # 16
    frequency:   12.3134509168
  - # 17
    frequency:   12.4256135458
  - # 18
    frequency:   13.9151990372
  - # 19
    frequency:   13.9171143064
  - # 20
    frequency:   26.8722426163
  - # 21
    frequency:   57.5960021748

- q-position: [    0.0202020,    0.0000000,    0.0000000 ]
  distance:    0.0068501
  band:
  - # 1
    frequency:    0.0311628211
  - # 2
    frequency:    0.2585371024
  - # 3
    frequency:    0.2724197769
  - # 4
    frequency:    0.7930461518
  - # 5
    frequency:    0.8339238633
  - # 6
    frequency:    3.1350433908
  - # 7
    frequency:    3.1475518430
  - # 8
    frequency:    4.2464634179
  - # 9
    frequency:    6.0621573863
  - # 10
    frequency:    6.0625114308
  - # 11
    frequency:    7.3475561008
  - # 12
    frequency:    7.4534479595
  - # 13
    frequency:    7.4861184581
  - # 14
    frequency:   10.1766098936
  - # 15
    frequency:   12.2992266472
  - # 16
    frequency:   12.3122446018
  - # 17
    frequency:   12.4252393735
  - # 18
    frequency:   13.9162622260
  - # 19
    frequency:   13.9196606316
  - # 20
    frequency:   26.8716957003
  - # 21
    frequency:   57.5906237477

- q-position: [    0.0252525,    0.0000000,    0.0000000 ]
  distance:    0.0085626
  band:
  - # 1
    frequency:    0.0475652745
  - # 2
    frequency:    0.3195306200
  - # 3
    frequency:    0.3425276815
  - # 4
    frequency:    0.8148594038
  - # 5
    frequency:    0.8745433739
  - # 6
    frequency:    3.1390653186
  - # 7
    frequency:    3.1583748703
  - # 8
    frequency:    4.2452517893
  - # 9
    frequency:    6.0610627581
  - # 10
    frequency:    6.0615770184
  - # 11
    frequency:    7.3318851519
  - # 12
    frequency:    7.4528611271
  - # 13
    frequency:    7.4973475365
  - # 14
    frequency:   10.1673512769
  - # 15
    frequency:   12.2904339103
  - # 16
    frequency:   12.3106824489
  - # 17
    frequency:   12.4247415403
  - # 18
    frequency:   13.9176237945
  - # 19
    frequency:   13.9229207760
  - # 20
    frequency:   26.8709946892
  - # 21
    frequency:   57.5837234787

- q-position: [    0.0303030,    0.0000000,    0.0000000 ]
  distance:    0.0102751
  band:
  - # 1
    frequency:    0.0668402340
  - # 2
    frequency:    0.3781556412
  - # 3
    frequency:    0.4137057978
  - # 4
    frequency:    0.8416010652
  - # 5
    frequency:    0.9211010404
  - # 6
    frequency:    3.1440086468
  - # 7
    frequency:    3.1714054976
  - # 8
    frequency:    4.2438265406
  - # 9
    frequency:    6.0597399686
  - # 10
    frequency:    6.0604162622
  - # 11
    frequency:    7.3153363249
  - # 12
    frequency:    7.4521955273
  - # 13
    frequency:    7.5085101095
  - # 14
    frequency:   10.1560727251
  - # 15
    frequency:   12.2797397707
  - # 16
    frequency:   12.3087562357
  - # 17
    frequency:   12.4241208264
  - # 18
    frequency:   13.9192797054
  - # 19
    frequency:   13.9268845729
  - # 20
    frequency:   26.8701411877
  - # 21
    frequency:   57.5753124542

- q-position: [    0.0353535,    0.0000000,    0.0000000 ]
  distance:    0.0119876
  band:
  - # 1
    frequency:    0.0887779953
  - # 2
    frequency:    0.4340634071
  - # 3
    frequency:    0.4859789779
  - # 4
    frequency:    0.8732131101
  - # 5
    frequency:    0.9724994081
  - # 6
    frequency:    3.1498894802
  - # 7
    frequency:    3.1865302983
  - # 8
    frequency:    4.2422220447
  - # 9
    frequency:    6.0581945835
  - # 10
    frequency:    6.0590198393
  - # 11
    frequency:    7.2981188155
  - # 12
    frequency:    7.4514797709
  - # 13
    frequency:    7.5194256502
  - # 14
    frequency:   10.1427978123
  - # 15
    frequency:   12.2671575152
  - # 16
    frequency:   12.3064560882
  - # 17
    frequency:   12.4233869017
  - # 18
    frequency:   13.9212250293
  - # 19
    frequency:   13.9315397134
  - # 20
    frequency:   26.8691371346
  - # 21
    frequency:   57.5654041672

- q-position: [    0.0404040,    0.0000000,    0.0000000 ]
  distance:    0.0137001
  band:
  - # 1
    frequency:    0.1132208708
  - # 2
    frequency:    0.4870385375
  - # 3
    frequency:    0.5593299384
  - # 4
    frequency:    0.9095197060
  - # 5
    frequency:    1.0277988872
  - # 6
    frequency:    3.1567263731
  - # 7
    frequency:    3.2036193345
  - # 8
    frequency:    4.2404797872
  - # 9
    frequency:    6.0564302277
  - # 10
    frequency:    6.0573783859
  - # 11
    frequency:    7.2803698805
  - # 12
    frequency:    7.4507455812
  - # 13
    frequency:    7.5299933906
  - # 14
    frequency:   10.1275552713
  - # 15
    frequency:   12.2526944531
  - # 16
    frequency:   12.3037705814
  - # 17
    frequency:   12.4225585915
  - # 18
    frequency:   13.9234539497
  - # 19
    frequency:   13.9368718111
  - # 20
    frequency:   26.8679847905
  - # 21
    frequency:   57.5540144825

- q-position: [    0.0454545,    0.0000000,    0.0000000 ]
  distance:    0.0154126
  band:
  - # 1
    frequency:    0.1400493698
  - # 2
    frequency:    0.5370377413
  - # 3
    frequency:    0.6337129944
  - # 4
    frequency:    0.9501909938
  - # 5
    frequency:    1.0862208803
  - # 6
    frequency:    3.1645400397
  - # 7
    frequency:    3.2225276906
  - # 8
    frequency:    4.2386487482
  - # 9
    frequency:    6.0544473611
  - # 10
    frequency:    6.0554832414
  - # 11
    frequency:    7.2621936036
  - # 12
    frequency:    7.4500268304
  - # 13
    frequency:    7.5401546650
  - # 14
    frequency:   10.1103793390
  - # 15
    frequency:   12.2363526132
  - # 16
    frequency:   12.3006868562
  - # 17
    frequency:   12.4216627980
  - # 18
    frequency:   13.9259597690
  - # 19
    frequency:   13.9428644738
  - # 20
    frequency:   26.8666867232
  - # 21
    frequency:   57.5411615973

- q-position: [    0.0505051,    0.0000000,    0.0000000 ]
  distance:    0.0171252
  band:
  - # 1
    frequency:    0.1691685369
  - # 2
    frequency:    0.5841979070
  - # 3
    frequency:    0.7090647677
  - # 4
    frequency:    0.9947372947
  - # 5
    frequency:    1.1471322531
  - # 6
    frequency:    3.1733529859
  - # 7
    frequency:    3.2430969259
  - # 8
    frequency:    4.2367858005
  - # 9
    frequency:    6.0522420571
  - # 10
    frequency:    6.0533272435
  - # 11
    frequency:    7.2436800055
  - # 12
    frequency:    7.4493584923
  - # 13
    frequency:    7.5498749326
  - # 14
    frequency:   10.0913100895
  - # 15
    frequency:   12.2181302763
  - # 16
    frequency:   12.2971907494
  - # 17
    frequency:   12.4207326091
  - # 18
    frequency:   13.9287349175
  - # 19
    frequency:   13.9494993817
  - # 20
    frequency:   26.8652457921
  - # 21
    frequency:   57.5268659945

- q-position: [    0.0555556,    0.0000000,    0.0000000 ]
  distance:    0.0188377
  band:
  - # 1
    frequency:    0.2004975667
  - # 2
    frequency:    0.6288052658
  - # 3
    frequency:    0.7853116201
  - # 4
    frequency:    1.0425418311
  - # 5
    frequency:    1.2100228754
  - # 6
    frequency:    3.1831890504
  - # 7
    frequency:    3.2651563868
  - # 8
    frequency:    4.2349560995
  - # 9
    frequency:    6.0498048636
  - # 10
    frequency:    6.0509055439
  - # 11
    frequency:    7.2249152473
  - # 12
    frequency:    7.4487755395
  - # 13
    frequency:    7.5591346619
  - # 14
    frequency:   10.0703937380
  - # 15
    frequency:   12.1980238988
  - # 16
    frequency:   12.2932669345
  - # 17
    frequency:   12.4198050604
  - # 18
    frequency:   13.9317709648
  - # 19
    frequency:   13.9567563710
  - # 20
    frequency:   26.8636651315
  - # 21
    frequency:   57.5111503922

- q-position: [    0.0606061,    0.0000000,    0.0000000 ]
  distance:    0.0205502
  band:
  - # 1
    frequency:    0.2339630666
  - # 2
    frequency:    0.6712365866
  - # 3
    frequency:    0.8623743092
  - # 4
    frequency:    1.0929209320
  - # 5
    frequency:    1.2744826792
  - # 6
    frequency:    3.1940728459
  - # 7
    frequency:    3.2885243398
  - # 8
    frequency:    4.2332334338
  - # 9
    frequency:    6.0471198366
  - # 10
    frequency:    6.0482164152
  - # 11
    frequency:    7.2059874771
  - # 12
    frequency:    7.4483118174
  - # 13
    frequency:    7.5679244541
  - # 14
    frequency:   10.0476828935
  - # 15
    frequency:   12.1760301122
  - # 16
    frequency:   12.2888990743
  - # 17
    frequency:   12.4189188885
  - # 18
    frequency:   13.9350586346
  - # 19
    frequency:   13.9646135225
  - # 20
    frequency:   26.8619481324
  - # 21
    frequency:   57.4940396862

- q-position: [    0.0656566,    0.0000000,    0.0000000 ]
  distance:    0.0222627
  band:
  - # 1
    frequency:    0.2694952356
  - # 2
    frequency:    0.7118950777
  - # 3
    frequency:    0.9401705781
  - # 4
    frequency:    1.1451890877
  - # 5
    frequency:    1.3401811404
  - # 6
    frequency:    3.2060290929
  - # 7
    frequency:    3.3130089245
  - # 8
    frequency:    4.2317004878
  - # 9
    frequency:    6.0441638445
  - # 10
    frequency:    6.0452620145
  - # 11
    frequency:    7.1869903263
  - # 12
    frequency:    7.4479989297
  - # 13
    frequency:    7.5762423123
  - # 14
    frequency:   10.0232367457
  - # 15
    frequency:   12.1521476124
  - # 16
    frequency:   12.2840699797
  - # 17
    frequency:   12.4181124813
  - # 18
    frequency:   13.9385878242
  - # 19
    frequency:   13.9730472558
  - # 20
    frequency:   26.8600984249
  - # 21
    frequency:   57.4755608885

- q-position: [    0.0707071,    0.0000000,    0.0000000 ]
  distance:    0.0239752
  band:
  - # 1
    frequency:    0.3070260171
  - # 2
    frequency:    0.7511602376
  - # 3
    frequency:    1.0186163449
  - # 4
    frequency:    1.1987096985
  - # 5
    frequency:    1.4068501092
  - # 6
    frequency:    3.2190818454
  - # 7
    frequency:    3.3384089624
  - # 8
    frequency:    4.2304489530
  - # 9
    frequency:    6.0409062504
  - # 10
    frequency:    6.0420490704
  - # 11
    frequency:    7.1680249617
  - # 12
    frequency:    7.4478651709
  - # 13
    frequency:    7.5840920544
  - # 14
    frequency:    9.9971211715
  - # 15
    frequency:   12.1263788403
  - # 16
    frequency:   12.2787617753
  - # 17
    frequency:   12.4174221345
  - # 18
    frequency:   13.9423476270
  - # 19
    frequency:   13.9820324282
  - # 20
    frequency:   26.8581198591
  - # 21
    frequency:   57.4557430597

- q-position: [    0.0757576,    0.0000000,    0.0000000 ]
  distance:    0.0256877
  band:
  - # 1
    frequency:    0.3464884330
  - # 2
    frequency:    0.7893590069
  - # 3
    frequency:    1.0976260135
  - # 4
    frequency:    1.2529242685
  - # 5
    frequency:    1.4742699476
  - # 6
    frequency:    3.2332536126
  - # 7
    frequency:    3.3645147004
  - # 8
    frequency:    4.2295793974
  - # 9
    frequency:    6.0373090836
  - # 10
    frequency:    6.0385894616
  - # 11
    frequency:    7.1492010967
  - # 12
    frequency:    7.4479345403
  - # 13
    frequency:    7.5914823656
  - # 14
    frequency:    9.9694087497
  - # 15
    frequency:   12.0987314239
  - # 16
    frequency:   12.2729560689
  - # 17
    frequency:   12.4168806571
  - # 18
    frequency:   13.9463263607
  - # 19
    frequency:   13.9915424407
  - # 20
    frequency:   26.8560164878
  - # 21
    frequency:   57.4346172378

- q-position: [    0.0808081,    0.0000000,    0.0000000 ]
  distance:    0.0274003
  band:
  - # 1
    frequency:    0.3878165359
  - # 2
    frequency:    0.8267555809
  - # 3
    frequency:    1.1771122784
  - # 4
    frequency:    1.3073627737
  - # 5
    frequency:    1.5422585502
  - # 6
    frequency:    3.2485643874
  - # 7
    frequency:    3.3911086242
  - # 8
    frequency:    4.2292007688
  - # 9
    frequency:    6.0333278134
  - # 10
    frequency:    6.0349006555
  - # 11
    frequency:    7.1306371180
  - # 12
    frequency:    7.4482258728
  - # 13
    frequency:    7.5984262234
  - # 14
    frequency:    9.9401786791
  - # 15
    frequency:   12.0692193821
  - # 16
    frequency:   12.2666341227
  - # 17
    frequency:   12.4165163267
  - # 18
    frequency:   13.9505116008
  - # 19
    frequency:   14.0015493497
  - # 20
    frequency:   26.8537925477
  - # 21
    frequency:   57.4122163619

- q-position: [    0.0858586,    0.0000000,    0.0000000 ]
  distance:    0.0291128
  band:
  - # 1
    frequency:    0.4309456156
  - # 2
    frequency:    0.8635532778
  - # 3
    frequency:    1.2569856772
  - # 4
    frequency:    1.3616418738
  - # 5
    frequency:    1.6106627219
  - # 6
    frequency:    3.2650306067
  - # 7
    frequency:    3.4179665226
  - # 8
    frequency:    4.2294293717
  - # 9
    frequency:    6.0289128256
  - # 10
    frequency:    6.0310059840
  - # 11
    frequency:    7.1124593704
  - # 12
    frequency:    7.4487521129
  - # 13
    frequency:    7.6049405516
  - # 14
    frequency:    9.9095165955
  - # 15
    frequency:   12.0378641106
  - # 16
    frequency:   12.2597770242
  - # 17
    frequency:   12.4163521736
  - # 18
    frequency:   13.9548902185
  - # 19
    frequency:   14.0120239870
  - # 20
    frequency:   26.8514524427
  - # 21
    frequency:   57.3885751915

- q-position: [    0.0909091,    0.0000000,    0.0000000 ]
  distance:    0.0308253
  band:
  - # 1
    frequency:    0.4758124499
  - # 2
    frequency:    0.8999023085
  - # 3
    frequency:    1.3371540487
  - # 4
    frequency:    1.4154571506
  - # 5
    frequency:    1.6793514170
  - # 6
    frequency:    3.2826640725
  - # 7
    frequency:    3.4448590467
  - # 8
    frequency:    4.2303871142
  - # 9
    frequency:    6.0240116866
  - # 10
    frequency:    6.0269347376
  - # 11
    frequency:    7.0948005935
  - # 12
    frequency:    7.4495197590
  - # 13
    frequency:    7.6110460214
  - # 14
    frequency:    9.8775142887
  - # 15
    frequency:   12.0046951802
  - # 16
    frequency:   12.2523658553
  - # 17
    frequency:   12.4164055582
  - # 18
    frequency:   13.9594484253
  - # 19
    frequency:   14.0229360868
  - # 20
    frequency:   26.8490007278
  - # 21
    frequency:   57.3637302222

- q-position: [    0.0959596,    0.0000000,    0.0000000 ]
  distance:    0.0325378
  band:
  - # 1
    frequency:    0.5223554866
  - # 2
    frequency:    0.9359093444
  - # 3
    frequency:    1.4175219971
  - # 4
    frequency:    1.4685734796
  - # 5
    frequency:    1.7482104183
  - # 6
    frequency:    3.3014708782
  - # 7
    frequency:    3.4715540438
  - # 8
    frequency:    4.2321987946
  - # 9
    frequency:    6.0185722332
  - # 10
    frequency:    6.0227220668
  - # 11
    frequency:    7.0777974992
  - # 12
    frequency:    7.4505284920
  - # 13
    frequency:    7.6167669532
  - # 14
    frequency:    9.8442693224
  - # 15
    frequency:   11.9697509737
  - # 16
    frequency:   12.2443818574
  - # 17
    frequency:   12.4166880032
  - # 18
    frequency:   13.9641718229
  - # 19
    frequency:   14.0342544215
  - # 20
    frequency:   26.8464420929
  - # 21
    frequency:   57.3377195980

- q-position: [    0.1010101,    0.0000000,    0.0000000 ]
  distance:    0.0342503
  band:
  - # 1
    frequency:    0.5705149060
  - # 2
    frequency:    0.9716466937
  - # 3
    frequency:    1.4979904116
  - # 4
    frequency:    1.5208156956
  - # 5
    frequency:    1.8171381182
  - # 6
    frequency:    3.3214503877
  - # 7
    frequency:    3.4978199658
  - # 8
    frequency:    4.2349881891
  - # 9
    frequency:    6.0125464716
  - # 10
    frequency:    6.0184086909
  - # 11
    frequency:    7.0615875166
  - # 12
    frequency:    7.4517709990
  - # 13
    frequency:    7.6221312915
  - # 14
    frequency:    9.8098845627
  - # 15
    frequency:   11.9330791918
  - # 16
    frequency:   12.2358065908
  - # 17
    frequency:   12.4172052392
  - # 18
    frequency:   13.9690454590
  - # 19
    frequency:   14.0459469448
  - # 20
    frequency:   26.8437813499
  - # 21
    frequency:   57.3105830195

- q-position: [    0.1060606,    0.0000000,    0.0000000 ]
  distance:    0.0359628
  band:
  - # 1
    frequency:    0.6202325523
  - # 2
    frequency:    1.0071601860
  - # 3
    frequency:    1.5720604057
  - # 4
    frequency:    1.5784560657
  - # 5
    frequency:    1.8860421442
  - # 6
    frequency:    3.3425943249
  - # 7
    frequency:    3.5234306117
  - # 8
    frequency:    4.2388727572
  - # 9
    frequency:    6.0058951830
  - # 10
    frequency:    6.0140404211
  - # 11
    frequency:    7.0463047871
  - # 12
    frequency:    7.4532329926
  - # 13
    frequency:    7.6271706334
  - # 14
    frequency:    9.7744676220
  - # 15
    frequency:   11.8947372485
  - # 16
    frequency:   12.2266220871
  - # 17
    frequency:   12.4179574234
  - # 18
    frequency:   13.9740538886
  - # 19
    frequency:   14.0579809429
  - # 20
    frequency:   26.8410234192
  - # 21
    frequency:   57.2823616498

- q-position: [    0.1111111,    0.0000000,    0.0000000 ]
  distance:    0.0376754
  band:
  - # 1
    frequency:    0.6714517422
  - # 2
    frequency:    1.0424755655
  - # 3
    frequency:    1.6222290945
  - # 4
    frequency:    1.6588112896
  - # 5
    frequency:    1.9548366383
  - # 6
    frequency:    3.3648860298
  - # 7
    frequency:    3.5481713441
  - # 8
    frequency:    4.2439569088
  - # 9
    frequency:    5.9985930323
  - # 10
    frequency:    6.0096675136
  - # 11
    frequency:    7.0320755834
  - # 12
    frequency:    7.4548934192
  - # 13
    frequency:    7.6319202992
  - # 14
    frequency:    9.7381302260
  - # 15
    frequency:   11.8547925783
  - # 16
    frequency:   12.2168109928
  - # 17
    frequency:   12.4189394956
  - # 18
    frequency:   13.9791812409
  - # 19
    frequency:   14.0703231919
  - # 20
    frequency:   26.8381733186
  - # 21
    frequency:   57.2530980175

- q-position: [    0.1161616,    0.0000000,    0.0000000 ]
  distance:    0.0393879
  band:
  - # 1
    frequency:    0.7241169673
  - # 2
    frequency:    1.0776035140
  - # 3
    frequency:    1.6712823358
  - # 4
    frequency:    1.7389436905
  - # 5
    frequency:    2.0234400633
  - # 6
    frequency:    3.3882999324
  - # 7
    frequency:    3.5718466947
  - # 8
    frequency:    4.2503240198
  - # 9
    frequency:    5.9906338657
  - # 10
    frequency:    6.0053438791
  - # 11
    frequency:    7.0190134142
  - # 12
    frequency:    7.4567248420
  - # 13
    frequency:    7.6364194288
  - # 14
    frequency:    9.7009875107
  - # 15
    frequency:   11.8133228671
  - # 16
    frequency:   12.2063567031
  - # 17
    frequency:   12.4201416358
  - # 18
    frequency:   13.9844112914
  - # 19
    frequency:   14.0829401214
  - # 20
    frequency:   26.8352361534
  - # 21
    frequency:   57.2228359169

- q-position: [    0.1212121,    0.0000000,    0.0000000 ]
  distance:    0.0411004
  band:
  - # 1
    frequency:    0.7781735155
  - # 2
    frequency:    1.1125435397
  - # 3
    frequency:    1.7192148243
  - # 4
    frequency:    1.8187358671
  - # 5
    frequency:    2.0917734653
  - # 6
    frequency:    3.4128012895
  - # 7
    frequency:    3.5942889507
  - # 8
    frequency:    4.2580277163
  - # 9
    frequency:    5.9820357823
  - # 10
    frequency:    6.0011261757
  - # 11
    frequency:    7.0072141655
  - # 12
    frequency:    7.4586939794
  - # 13
    frequency:    7.6407110917
  - # 14
    frequency:    9.6631572585
  - # 15
    frequency:   11.7704162215
  - # 16
    frequency:   12.1952434849
  - # 17
    frequency:   12.4215497953
  - # 18
    frequency:   13.9897275387
  - # 19
    frequency:   14.0957979816
  - # 20
    frequency:   26.8322171078
  - # 21
    frequency:   57.1916203067

- q-position: [    0.1262626,    0.0000000,    0.0000000 ]
  distance:    0.0428129
  band:
  - # 1
    frequency:    0.8335670303
  - # 2
    frequency:    1.1472869773
  - # 3
    frequency:    1.7660509417
  - # 4
    frequency:    1.8980650366
  - # 5
    frequency:    2.1597591802
  - # 6
    frequency:    3.4383462121
  - # 7
    frequency:    3.6153669443
  - # 8
    frequency:    4.2670833347
  - # 9
    frequency:    5.9728454908
  - # 10
    frequency:    5.9970728225
  - # 11
    frequency:    6.9967516853
  - # 12
    frequency:    7.4607623758
  - # 13
    frequency:    7.6448423904
  - # 14
    frequency:    9.6247590776
  - # 15
    frequency:   11.7261712809
  - # 16
    frequency:   12.1834565885
  - # 17
    frequency:   12.4231462734
  - # 18
    frequency:   13.9951132855
  - # 19
    frequency:   14.1088630133
  - # 20
    frequency:   26.8291214375
  - # 21
    frequency:   57.1594972069

- q-position: [    0.1313131,    0.0000000,    0.0000000 ]
  distance:    0.0445254
  band:
  - # 1
    frequency:    0.8902430315
  - # 2
    frequency:    1.1818193161
  - # 3
    frequency:    1.8118406203
  - # 4
    frequency:    1.9768024507
  - # 5
    frequency:    2.2273200335
  - # 6
    frequency:    3.4648819925
  - # 7
    frequency:    3.6349939631
  - # 8
    frequency:    4.2774607837
  - # 9
    frequency:    5.9631414383
  - # 10
    frequency:    5.9932429691
  - # 11
    frequency:    6.9876742256
  - # 12
    frequency:    7.4628871755
  - # 13
    frequency:    7.6488645341
  - # 14
    frequency:    9.5859135319
  - # 15
    frequency:   11.6806972798
  - # 16
    frequency:   12.1709823465
  - # 17
    frequency:   12.4249103175
  - # 18
    frequency:   14.0005517229
  - # 19
    frequency:   14.1221016186
  - # 20
    frequency:   26.8259544637
  - # 21
    frequency:   57.1265135938

- q-position: [    0.1363636,    0.0000000,    0.0000000 ]
  distance:    0.0462379
  band:
  - # 1
    frequency:    0.9481464117
  - # 2
    frequency:    1.2161220311
  - # 3
    frequency:    1.8566553367
  - # 4
    frequency:    2.0548124306
  - # 5
    frequency:    2.2943791559
  - # 6
    frequency:    3.4923477223
  - # 7
    frequency:    3.6531335865
  - # 8
    frequency:    4.2890801506
  - # 9
    frequency:    5.9530352367
  - # 10
    frequency:    5.9896954585
  - # 11
    frequency:    6.9800021063
  - # 12
    frequency:    7.4650219757
  - # 13
    frequency:    7.6528328530
  - # 14
    frequency:    9.5467412264
  - # 15
    frequency:   11.6341140612
  - # 16
    frequency:   12.1578082611
  - # 17
    frequency:   12.4268187287
  - # 18
    frequency:   14.0060260185
  - # 19
    frequency:   14.1354805298
  - # 20
    frequency:   26.8227215679
  - # 21
    frequency:   57.0927172945

- q-position: [    0.1414141,    0.0000000,    0.0000000 ]
  distance:    0.0479505
  band:
  - # 1
    frequency:    1.0072209250
  - # 2
    frequency:    1.2501740503
  - # 3
    frequency:    1.9005841331
  - # 4
    frequency:    2.1319507869
  - # 5
    frequency:    2.3608606212
  - # 6
    frequency:    3.5206751700
  - # 7
    frequency:    3.6698024542
  - # 8
    frequency:    4.3018112007
  - # 9
    frequency:    5.9426710078
  - # 10
    frequency:    5.9864878196
  - # 11
    frequency:    6.9737268590
  - # 12
    frequency:    7.4671177274
  - # 13
    frequency:    7.6568067171
  - # 14
    frequency:    9.5073618514
  - # 15
    frequency:   11.5865520401
  - # 16
    frequency:   12.1439230778
  - # 17
    frequency:   12.4288464560
  - # 18
    frequency:   14.0115194051
  - # 19
    frequency:   14.1489669754
  - # 20
    frequency:   26.8194281876
  - # 21
    frequency:   57.0581568805

- q-position: [    0.1464646,    0.0000000,    0.0000000 ]
  distance:    0.0496630
  band:
  - # 1
    frequency:    1.0674086748
  - # 2
    frequency:    1.2839529545
  - # 3
    frequency:    1.9437296227
  - # 4
    frequency:    2.2080623255
  - # 5
    frequency:    2.4266912055
  - # 6
    frequency:    3.5497898713
  - # 7
    frequency:    3.6850694577
  - # 8
    frequency:    4.3154774072
  - # 9
    frequency:    5.9322224216
  - # 10
    frequency:    5.9836753195
  - # 11
    frequency:    6.9688119622
  - # 12
    frequency:    7.4691236621
  - # 13
    frequency:    7.6608493170
  - # 14
    frequency:    9.4678931915
  - # 15
    frequency:   11.5381521151
  - # 16
    frequency:   12.1293168480
  - # 17
    frequency:   12.4309671680
  - # 18
    frequency:   14.0170152722
  - # 19
    frequency:   14.1625288402
  - # 20
    frequency:   26.8160798128
  - # 21
    frequency:   57.0228815606

- q-position: [    0.1515152,    0.0000000,    0.0000000 ]
  distance:    0.0513755
  band:
  - # 1
    frequency:    1.1286496088
  - # 2
    frequency:    1.3174359763
  - # 3
    frequency:    1.9862039880
  - # 4
    frequency:    2.2829770836
  - # 5
    frequency:    2.4918036566
  - # 6
    frequency:    3.5796123710
  - # 7
    frequency:    3.6990515036
  - # 8
    frequency:    4.3298644499
  - # 9
    frequency:    5.9218873782
  - # 10
    frequency:    5.9813101065
  - # 11
    frequency:    6.9651951235
  - # 12
    frequency:    7.4709882166
  - # 13
    frequency:    7.6650272597
  - # 14
    frequency:    9.4284501061
  - # 15
    frequency:   11.4890655220
  - # 16
    frequency:   12.1139809780
  - # 17
    frequency:   12.4331537924
  - # 18
    frequency:   14.0224972569
  - # 19
    frequency:   14.1761348184
  - # 20
    frequency:   26.8126819826
  - # 21