nqpoint: 300    
npath: 3      
segment_nqpoint:
- 100
- 100
- 100
labels:
- [ 'G', 'M' ]
- [ 'M', 'K' ]
- [ 'K', 'G' ]
reciprocal_lattice:
- [   0.29365034,   0.16953910,   0.00000000 ] # a*
- [   0.00000000,   0.33907821,   0.00000000 ] # b*
- [   0.00000000,   0.00000000,   0.03799628 ] # c*
natom: 7      
lattice:
- [     3.405410656341697,     0.000000000000000,     0.000000000000000 ] # a
- [    -1.702705328170848,     2.949172138697322,     0.000000000000000 ] # b
- [     0.000000000000000,     0.000000000000000,    26.318366998068530 ] # c
points:
- symbol: Br # 1
  coordinates: [  0.666666984744047,  0.333332985985145,  0.341966505773724 ]
  mass: 79.904000
- symbol: C # 2
  coordinates: [  0.333332985432215,  0.666666983183674,  0.598971675724135 ]
  mass: 12.010700
- symbol: N # 3
  coordinates: [  0.000000000000000,  0.000000000000000,  0.457148424395095 ]
  mass: 14.006700
- symbol: N # 4
  coordinates: [  0.333332985432215,  0.666666983183674,  0.551424344735903 ]
  mass: 14.006700
- symbol: S # 5
  coordinates: [  0.333332985432215,  0.666666983183674,  0.658033494226276 ]
  mass: 32.065000
- symbol: Sc # 6
  coordinates: [  0.333332985432215,  0.666666983183674,  0.412870453517301 ]
  mass: 44.955912
- symbol: Sc # 7
  coordinates: [  0.666666984744047,  0.333332985985145,  0.503511768177416 ]
  mass: 44.955912

phonon:
- q-position: [    0.0000000,    0.0000000,    0.0000000 ]
  distance:    0.0000000
  band:
  - # 1
    frequency:   -0.0000025424
  - # 2
    frequency:   -0.0000008356
  - # 3
    frequency:    0.0000025253
  - # 4
    frequency:    0.3624491993
  - # 5
    frequency:    0.3624491993
  - # 6
    frequency:    3.0781236557
  - # 7
    frequency:    3.0781236557
  - # 8
    frequency:    4.2484459179
  - # 9
    frequency:    5.7788654461
  - # 10
    frequency:    5.7788654461
  - # 11
    frequency:    7.1672757301
  - # 12
    frequency:    7.1672757301
  - # 13
    frequency:    7.3849155495
  - # 14
    frequency:   10.5885173811
  - # 15
    frequency:   11.9337736084
  - # 16
    frequency:   11.9337736084
  - # 17
    frequency:   12.9293970609
  - # 18
    frequency:   14.0108222671
  - # 19
    frequency:   14.0108222671
  - # 20
    frequency:   26.9303784920
  - # 21
    frequency:   57.6006359291

- q-position: [    0.0050505,    0.0000000,    0.0000000 ]
  distance:    0.0017125
  band:
  - # 1
    frequency:   -0.0458881222
  - # 2
    frequency:    0.0689396589
  - # 3
    frequency:    0.1284055492
  - # 4
    frequency:    0.3661783812
  - # 5
    frequency:    0.3741462250
  - # 6
    frequency:    3.0786996369
  - # 7
    frequency:    3.0801078166
  - # 8
    frequency:    4.2481693662
  - # 9
    frequency:    5.7789151246
  - # 10
    frequency:    5.7794318992
  - # 11
    frequency:    7.1670871957
  - # 12
    frequency:    7.1677439231
  - # 13
    frequency:    7.3849809263
  - # 14
    frequency:   10.5861970404
  - # 15
    frequency:   11.9339507266
  - # 16
    frequency:   11.9346065454
  - # 17
    frequency:   12.9283161350
  - # 18
    frequency:   14.0108058416
  - # 19
    frequency:   14.0108648128
  - # 20
    frequency:   26.9301459738
  - # 21
    frequency:   57.5998778900

- q-position: [    0.0101010,    0.0000000,    0.0000000 ]
  distance:    0.0034250
  band:
  - # 1
    frequency:   -0.0429328792
  - # 2
    frequency:    0.1371475030
  - # 3
    frequency:    0.2418426217
  - # 4
    frequency:    0.3773851910
  - # 5
    frequency:    0.4082458056
  - # 6
    frequency:    3.0804273424
  - # 7
    frequency:    3.0860384718
  - # 8
    frequency:    4.2473452549
  - # 9
    frequency:    5.7790657301
  - # 10
    frequency:    5.7811231597
  - # 11
    frequency:    7.1665118173
  - # 12
    frequency:    7.1691451139
  - # 13
    frequency:    7.3851883550
  - # 14
    frequency:   10.5792693787
  - # 15
    frequency:   11.9344792827
  - # 16
    frequency:   11.9370707371
  - # 17
    frequency:   12.9250805748
  - # 18
    frequency:   14.0107570923
  - # 19
    frequency:   14.0109938876
  - # 20
    frequency:   26.9294498366
  - # 21
    frequency:   57.5976049186

- q-position: [    0.0151515,    0.0000000,    0.0000000 ]
  distance:    0.0051375
  band:
  - # 1
    frequency:   -0.0246038351
  - # 2
    frequency:    0.2036688142
  - # 3
    frequency:    0.3507827637
  - # 4
    frequency:    0.3962299831
  - # 5
    frequency:    0.4643171985
  - # 6
    frequency:    3.0833060572
  - # 7
    frequency:    3.0958507057
  - # 8
    frequency:    4.2459902818
  - # 9
    frequency:    5.7793219493
  - # 10
    frequency:    5.7839150651
  - # 11
    frequency:    7.1655209039
  - # 12
    frequency:    7.1714691741
  - # 13
    frequency:    7.3855711139
  - # 14
    frequency:   10.5678321705
  - # 15
    frequency:   11.9353509025
  - # 16
    frequency:   11.9410646557
  - # 17
    frequency:   12.9197120140
  - # 18
    frequency:   14.0106775965
  - # 19
    frequency:   14.0112137773
  - # 20
    frequency:   26.9282943180
  - # 21
    frequency:   57.5938204492

- q-position: [    0.0202020,    0.0000000,    0.0000000 ]
  distance:    0.0068501
  band:
  - # 1
    frequency:    0.0429828724
  - # 2
    frequency:    0.2670735838
  - # 3
    frequency:    0.4232761766
  - # 4
    frequency:    0.4456321508
  - # 5
    frequency:    0.5457417128
  - # 6
    frequency:    3.0873345866
  - # 7
    frequency:    3.1094381396
  - # 8
    frequency:    4.2441325079
  - # 9
    frequency:    5.7796915176
  - # 10
    frequency:    5.7877677858
  - # 11
    frequency:    7.1640687823
  - # 12
    frequency:    7.1746993436
  - # 13
    frequency:    7.3861825804
  - # 14
    frequency:   10.5520410802
  - # 15
    frequency:   11.9365517004
  - # 16
    frequency:   11.9464264633
  - # 17
    frequency:   12.9122464477
  - # 18
    frequency:   14.0105699685
  - # 19
    frequency:   14.0115315345
  - # 20
    frequency:   26.9266864335
  - # 21
    frequency:   57.5885301974

- q-position: [    0.0252525,    0.0000000,    0.0000000 ]
  distance:    0.0085626
  band:
  - # 1
    frequency:    0.0763288804
  - # 2
    frequency:    0.3253950522
  - # 3
    frequency:    0.4596139518
  - # 4
    frequency:    0.5256855733
  - # 5
    frequency:    0.6491983839
  - # 6
    frequency:    3.0925112502
  - # 7
    frequency:    3.1266554108
  - # 8
    frequency:    4.2418117352
  - # 9
    frequency:    5.7801851052
  - # 10
    frequency:    5.7926264733
  - # 11
    frequency:    7.1620960871
  - # 12
    frequency:    7.1788124087
  - # 13
    frequency:    7.3870930266
  - # 14
    frequency:   10.5320999794
  - # 15
    frequency:   11.9380623862
  - # 16
    frequency:   11.9529438160
  - # 17
    frequency:   12.9027341348
  - # 18
    frequency:   14.0104378377
  - # 19
    frequency:   14.0119568465
  - # 20
    frequency:   26.9246359052
  - # 21
    frequency:   57.5817421474

- q-position: [    0.0303030,    0.0000000,    0.0000000 ]
  distance:    0.0102751
  band:
  - # 1
    frequency:    0.1079516830
  - # 2
    frequency:    0.3770233434
  - # 3
    frequency:    0.5060281568
  - # 4
    frequency:    0.6003768936
  - # 5
    frequency:    0.7625617776
  - # 6
    frequency:    3.0988338709
  - # 7
    frequency:    3.1473211939
  - # 8
    frequency:    4.2390801007
  - # 9
    frequency:    5.7808161605
  - # 10
    frequency:    5.7984221384
  - # 11
    frequency:    7.1595344196
  - # 12
    frequency:    7.1837789476
  - # 13
    frequency:    7.3883850777
  - # 14
    frequency:   10.5082495372
  - # 15
    frequency:   11.9398584154
  - # 16
    frequency:   11.9603654471
  - # 17
    frequency:   12.8912394508
  - # 18
    frequency:   14.0102858182
  - # 19
    frequency:   14.0125018586
  - # 20
    frequency:   26.9221550650
  - # 21
    frequency:   57.5734665338

- q-position: [    0.0353535,    0.0000000,    0.0000000 ]
  distance:    0.0119876
  band:
  - # 1
    frequency:    0.1402940559
  - # 2
    frequency:    0.4223860219
  - # 3
    frequency:    0.5613558542
  - # 4
    frequency:    0.6746950408
  - # 5
    frequency:    0.8790152111
  - # 6
    frequency:    3.1062997563
  - # 7
    frequency:    3.1712213853
  - # 8
    frequency:    4.2360029491
  - # 9
    frequency:    5.7816007115
  - # 10
    frequency:    5.8050727355
  - # 11
    frequency:    7.1563122352
  - # 12
    frequency:    7.1895636371
  - # 13
    frequency:    7.3901479698
  - # 14
    frequency:   10.4807555291
  - # 15
    frequency:   11.9419101826
  - # 16
    frequency:   11.9684130819
  - # 17
    frequency:   12.8778406821
  - # 18
    frequency:   14.0101194694
  - # 19
    frequency:   14.0131809576
  - # 20
    frequency:   26.9192587320
  - # 21
    frequency:   57.5637158195

- q-position: [    0.0404040,    0.0000000,    0.0000000 ]
  distance:    0.0137001
  band:
  - # 1
    frequency:    0.1740592378
  - # 2
    frequency:    0.4636929941
  - # 3
    frequency:    0.6227550516
  - # 4
    frequency:    0.7498530472
  - # 5
    frequency:    0.9960713539
  - # 6
    frequency:    3.1149056691
  - # 7
    frequency:    3.1981120515
  - # 8
    frequency:    4.2326600675
  - # 9
    frequency:    5.7825571278
  - # 10
    frequency:    5.8124844228
  - # 11
    frequency:    7.1523615777
  - # 12
    frequency:    7.1961256168
  - # 13
    frequency:    7.3924709821
  - # 14
    frequency:   10.4498980386
  - # 15
    frequency:   11.9441832592
  - # 16
    frequency:   11.9767925141
  - # 17
    frequency:   12.8626297490
  - # 18
    frequency:   14.0099452483
  - # 19
    frequency:   14.0140105251
  - # 20
    frequency:   26.9159640667
  - # 21
    frequency:   57.5525046681

- q-position: [    0.0454545,    0.0000000,    0.0000000 ]
  distance:    0.0154126
  band:
  - # 1
    frequency:    0.2095303441
  - # 2
    frequency:    0.5030406767
  - # 3
    frequency:    0.6875974882
  - # 4
    frequency:    0.8259635157
  - # 5
    frequency:    1.1126990211
  - # 6
    frequency:    3.1246477841
  - # 7
    frequency:    3.2277217529
  - # 8
    frequency:    4.2291473791
  - # 9
    frequency:    5.7837058456
  - # 10
    frequency:    5.8205529666
  - # 11
    frequency:    7.1476250253
  - # 12
    frequency:    7.2034189025
  - # 13
    frequency:    7.3954366783
  - # 14
    frequency:   10.4159623112
  - # 15
    frequency:   11.9466386739
  - # 16
    frequency:   11.9852030878
  - # 17
    frequency:   12.8457118452
  - # 18
    frequency:   14.0097704534
  - # 19
    frequency:   14.0150086653
  - # 20
    frequency:   26.9122904045
  - # 21
    frequency:   57.5398499118

- q-position: [    0.0505051,    0.0000000,    0.0000000 ]
  distance:    0.0171252
  band:
  - # 1
    frequency:    0.2468181926
  - # 2
    frequency:    0.5416605462
  - # 3
    frequency:    0.7542086199
  - # 4
    frequency:    0.9028761111
  - # 5
    frequency:    1.2283624925
  - # 6
    frequency:    3.1355216265
  - # 7
    frequency:    3.2597529017
  - # 8
    frequency:    4.2255792107
  - # 9
    frequency:    5.7850690600
  - # 10
    frequency:    5.8291652602
  - # 11
    frequency:    7.1420620425
  - # 12
    frequency:    7.2113928438
  - # 13
    frequency:    7.3991147500
  - # 14
    frequency:   10.3792315980
  - # 15
    frequency:   11.9492332375
  - # 16
    frequency:   11.9933452529
  - # 17
    frequency:   12.8272049796
  - # 18
    frequency:   14.0096031598
  - # 19
    frequency:   14.0161949181
  - # 20
    frequency:   26.9082590694
  - # 21
    frequency:   57.5257705146

- q-position: [    0.0555556,    0.0000000,    0.0000000 ]
  distance:    0.0188377
  band:
  - # 1
    frequency:    0.2859415670
  - # 2
    frequency:    0.5801393995
  - # 3
    frequency:    0.8216331939
  - # 4
    frequency:    0.9803981009
  - # 5
    frequency:    1.3427243408
  - # 6
    frequency:    3.1475219891
  - # 7
    frequency:    3.2938818790
  - # 8
    frequency:    4.2220912505
  - # 9
    frequency:    5.7866703872
  - # 10
    frequency:    5.8382009257
  - # 11
    frequency:    7.1356539638
  - # 12
    frequency:    7.2199926172
  - # 13
    frequency:    7.4035572327
  - # 14
    frequency:   10.3399819858
  - # 15
    frequency:   11.9519199101
  - # 16
    frequency:   12.0009262057
  - # 17
    frequency:   12.8072394040
  - # 18
    frequency:   14.0094521461
  - # 19
    frequency:   14.0175899617
  - # 20
    frequency:   26.9038931736
  - # 21
    frequency:   57.5102875319

- q-position: [    0.0606061,    0.0000000,    0.0000000 ]
  distance:    0.0205502
  band:
  - # 1
    frequency:    0.3268638736
  - # 2
    frequency:    0.6187217559
  - # 3
    frequency:    0.8893190985
  - # 4
    frequency:    1.0583511012
  - # 5
    frequency:    1.4555405420
  - # 6
    frequency:    3.1606428241
  - # 7
    frequency:    3.3297577245
  - # 8
    frequency:    4.2188442964
  - # 9
    frequency:    5.7885345013
  - # 10
    frequency:    5.8475339771
  - # 11
    frequency:    7.1284070757
  - # 12
    frequency:    7.2291597474
  - # 13
    frequency:    7.4087956139
  - # 14
    frequency:   10.2984789984
  - # 15
    frequency:   11.9546482104
  - # 16
    frequency:   12.0076638437
  - # 17
    frequency:   12.7859569077
  - # 18
    frequency:   14.0093268136
  - # 19
    frequency:   14.0192153115
  - # 20
    frequency:   26.8992174025
  - # 21
    frequency:   57.4934240645

- q-position: [    0.0656566,    0.0000000,    0.0000000 ]
  distance:    0.0222627
  band:
  - # 1
    frequency:    0.3695141189
  - # 2
    frequency:    0.6574876360
  - # 3
    frequency:    0.9569275912
  - # 4
    frequency:    1.1365826423
  - # 5
    frequency:    1.5666182003
  - # 6
    frequency:    3.1748771064
  - # 7
    frequency:    3.3669993410
  - # 8
    frequency:    4.2160288404
  - # 9
    frequency:    5.7906867505
  - # 10
    frequency:    5.8570345235
  - # 11
    frequency:    7.1203536484
  - # 12
    frequency:    7.2388326500
  - # 13
    frequency:    7.4148399681
  - # 14
    frequency:   10.2549756426
  - # 15
    frequency:   11.9573646643
  - # 16
    frequency:   12.0132893774
  - # 17
    frequency:   12.7635099584
  - # 18
    frequency:   14.0092370963
  - # 19
    frequency:   14.0210930215
  - # 20
    frequency:   26.8942577900
  - # 21
    frequency:   57.4752052103

- q-position: [    0.0707071,    0.0000000,    0.0000000 ]
  distance:    0.0239752
  band:
  - # 1
    frequency:    0.4138005207
  - # 2
    frequency:    0.6964407242
  - # 3
    frequency:    1.0242352489
  - # 4
    frequency:    1.2149651802
  - # 5
    frequency:    1.6757965896
  - # 6
    frequency:    3.1902166671
  - # 7
    frequency:    3.4051913524
  - # 8
    frequency:    4.2138703858
  - # 9
    frequency:    5.7931527562
  - # 10
    frequency:    5.8665705017
  - # 11
    frequency:    7.1115511460
  - # 12
    frequency:    7.2489471883
  - # 13
    frequency:    7.4216798700
  - # 14
    frequency:   10.2097115555
  - # 15
    frequency:   11.9600132925
  - # 16
    frequency:   12.0175489702
  - # 17
    frequency:   12.7400606620
  - # 18
    frequency:   14.0091933644
  - # 19
    frequency:   14.0232453905
  - # 20
    frequency:   26.8890414872
  - # 21
    frequency:   57.4556580106

- q-position: [    0.0757576,    0.0000000,    0.0000000 ]
  distance:    0.0256877
  band:
  - # 1
    frequency:    0.4596198656
  - # 2
    frequency:    0.7355505565
  - # 3
    frequency:    1.0910838873
  - # 4
    frequency:    1.2933921259
  - # 5
    frequency:    1.7829378918
  - # 6
    frequency:    3.2066519930
  - # 7
    frequency:    3.4438790912
  - # 8
    frequency:    4.2126351039
  - # 9
    frequency:    5.7959580027
  - # 10
    frequency:    5.8760094363
  - # 11
    frequency:    7.1020800922
  - # 12
    frequency:    7.2594372378
  - # 13
    frequency:    7.4292865853
  - # 14
    frequency:   10.1629129359
  - # 15
    frequency:   11.9625361311
  - # 16
    frequency:   12.0202047530
  - # 17
    frequency:   12.7157795092
  - # 18
    frequency:   14.0092063190
  - # 19
    frequency:   14.0256946780
  - # 20
    frequency:   26.8835965257
  - # 21
    frequency:   57.4348113937

- q-position: [    0.0808081,    0.0000000,    0.0000000 ]
  distance:    0.0274003
  band:
  - # 1
    frequency:    0.5068640718
  - # 2
    frequency:    0.7747726920
  - # 3
    frequency:    1.1573542034
  - # 4
    frequency:    1.3717737335
  - # 5
    frequency:    1.8879223008
  - # 6
    frequency:    3.2241719944
  - # 7
    frequency:    3.4825637651
  - # 8
    frequency:    4.2126348915
  - # 9
    frequency:    5.7991274201
  - # 10
    frequency:    5.8852202348
  - # 11
    frequency:    7.0920411316
  - # 12
    frequency:    7.2702352531
  - # 13
    frequency:    7.4376159662
  - # 14
    frequency:   10.1147929963
  - # 15
    frequency:   11.9648737832
  - # 16
    frequency:   12.0210355195
  - # 17
    frequency:   12.6908438730
  - # 18
    frequency:   14.0092868805
  - # 19
    frequency:   14.0284628318
  - # 20
    frequency:   26.8779515811
  - # 21
    frequency:   57.4126961150

- q-position: [    0.0858586,    0.0000000,    0.0000000 ]
  distance:    0.0291128
  band:
  - # 1
    frequency:    0.5554247761
  - # 2
    frequency:    0.8140583607
  - # 3
    frequency:    1.2229513314
  - # 4
    frequency:    1.4500335948
  - # 5
    frequency:    1.9906451688
  - # 6
    frequency:    3.2427637405
  - # 7
    frequency:    3.5206997587
  - # 8
    frequency:    4.2142299994
  - # 9
    frequency:    5.8026849674
  - # 10
    frequency:    5.8940750341
  - # 11
    frequency:    7.0815517385
  - # 12
    frequency:    7.2812728321
  - # 13
    frequency:    7.4466115634
  - # 14
    frequency:   10.0655527305
  - # 15
    frequency:   11.9669659965
  - # 16
    frequency:   12.0198373478
  - # 17
    frequency:   12.6654362183
  - # 18
    frequency:   14.0094460694
  - # 19
    frequency:   14.0315712285
  - # 20
    frequency:   26.8721357362
  - # 21
    frequency:   57.3893446931

- q-position: [    0.0909091,    0.0000000,    0.0000000 ]
  distance:    0.0308253
  band:
  - # 1
    frequency:    0.6051964743
  - # 2
    frequency:    0.8533590089
  - # 3
    frequency:    1.2877966059
  - # 4
    frequency:    1.5281058424
  - # 5
    frequency:    2.0910150778
  - # 6
    frequency:    3.2624121653
  - # 7
    frequency:    3.5576973062
  - # 8
    frequency:    4.2178261331
  - # 9
    frequency:    5.8066532223
  - # 10
    frequency:    5.9024511245
  - # 11
    frequency:    7.0707428631
  - # 12
    frequency:    7.2924812737
  - # 13
    frequency:    7.4562076193
  - # 14
    frequency:   10.0153818442
  - # 15
    frequency:   11.9687522596
  - # 16
    frequency:   12.0164243385
  - # 17
    frequency:   12.6397419922
  - # 18
    frequency:   14.0096948814
  - # 19
    frequency:   14.0350404296
  - # 20
    frequency:   26.8661782494
  - # 21
    frequency:   57.3647913440

- q-position: [    0.0959596,    0.0000000,    0.0000000 ]
  distance:    0.0325378
  band:
  - # 1
    frequency:    0.6560785866
  - # 2
    frequency:    0.8926283319
  - # 3
    frequency:    1.3518226987
  - # 4
    frequency:    1.6059329712
  - # 5
    frequency:    2.1889522434
  - # 6
    frequency:    3.2830997481
  - # 7
    frequency:    3.5929351337
  - # 8
    frequency:    4.2238615665
  - # 9
    frequency:    5.8110529815
  - # 10
    frequency:    5.9102329825
  - # 11
    frequency:    7.0597556392
  - # 12
    frequency:    7.3037921258
  - # 13
    frequency:    7.4663317750
  - # 14
    frequency:    9.9644597413
  - # 15
    frequency:   11.9701724117
  - # 16
    frequency:   12.0106295957
  - # 17
    frequency:   12.6139471849
  - # 18
    frequency:   14.0100441566
  - # 19
    frequency:   14.0388899529
  - # 20
    frequency:   26.8601083289
  - # 21
    frequency:   57.3390719112

- q-position: [    0.1010101,    0.0000000,    0.0000000 ]
  distance:    0.0342503
  band:
  - # 1
    frequency:    0.7079767183
  - # 2
    frequency:    0.9318230642
  - # 3
    frequency:    1.4149706689
  - # 4
    frequency:    1.6834641529
  - # 5
    frequency:    2.2843869041
  - # 6
    frequency:    3.3048061755
  - # 7
    frequency:    3.6257882257
  - # 8
    frequency:    4.2327792530
  - # 9
    frequency:    5.8159028795
  - # 10
    frequency:    5.9173144435
  - # 11
    frequency:    7.0487381522
  - # 12
    frequency:    7.3151377221
  - # 13
    frequency:    7.4769074443
  - # 14
    frequency:    9.9129564906
  - # 15
    frequency:   11.9711672583
  - # 16
    frequency:   12.0023065021
  - # 17
    frequency:   12.5882355922
  - # 18
    frequency:   14.0105044437
  - # 19
    frequency:   14.0431380606
  - # 20
    frequency:   26.8539549149
  - # 21
    frequency:   57.3122237941

- q-position: [    0.1060606,    0.0000000,    0.0000000 ]
  distance:    0.0359628
  band:
  - # 1
    frequency:    0.7608033203
  - # 2
    frequency:    0.9709031607
  - # 3
    frequency:    1.4771881419
  - # 4
    frequency:    1.7606539306
  - # 5
    frequency:    2.3772574636
  - # 6
    frequency:    3.3275079915
  - # 7
    frequency:    3.6556739238
  - # 8
    frequency:    4.2449808652
  - # 9
    frequency:    5.8212190298
  - # 10
    frequency:    5.9236010362
  - # 11
    frequency:    7.0378421988
  - # 12
    frequency:    7.3264517050
  - # 13
    frequency:    7.4878558905
  - # 14
    frequency:    9.8610337233
  - # 15
    frequency:   11.9716791837
  - # 16
    frequency:   11.9913302536
  - # 17
    frequency:   12.5627858718
  - # 18
    frequency:   14.0110858620
  - # 19
    frequency:   14.0478015634
  - # 20
    frequency:   26.8477464730
  - # 21
    frequency:   57.2842858725

- q-position: [    0.1111111,    0.0000000,    0.0000000 ]
  distance:    0.0376754
  band:
  - # 1
    frequency:    0.8144779057
  - # 2
    frequency:    1.0098316896
  - # 3
    frequency:    1.5384281787
  - # 4
    frequency:    1.8374612005
  - # 5
    frequency:    2.4675082163
  - # 6
    frequency:    3.3511782470
  - # 7
    frequency:    3.6821134101
  - # 8
    frequency:    4.2607658560
  - # 9
    frequency:    5.8270146957
  - # 10
    frequency:    5.9290124840
  - # 11
    frequency:    7.0272199548
  - # 12
    frequency:    7.3376695335
  - # 13
    frequency:    7.4990980709
  - # 14
    frequency:    9.8088454282
  - # 15
    frequency:   11.9716527529
  - # 16
    frequency:   11.9775995208
  - # 17
    frequency:   12.5377685693
  - # 18
    frequency:   14.0117979595
  - # 19
    frequency:   14.0528956404
  - # 20
    frequency:   26.8415107983
  - # 21
    frequency:   57.2552984305

- q-position: [    0.1161616,    0.0000000,    0.0000000 ]
  distance:    0.0393879
  band:
  - # 1
    frequency:    0.8689269405
  - # 2
    frequency:    1.0485746029
  - # 3
    frequency:    1.5986485811
  - # 4
    frequency:    1.9138484080
  - # 5
    frequency:    2.5550865031
  - # 6
    frequency:    3.3757861608
  - # 7
    frequency:    3.7047959839
  - # 8
    frequency:    4.2802682897
  - # 9
    frequency:    5.8332999951
  - # 10
    frequency:    5.9334853434
  - # 11
    frequency:    7.0170204904
  - # 12
    frequency:    7.3487289759
  - # 13
    frequency:    7.5105563204
  - # 14
    frequency:    9.7565386220
  - # 15
    frequency:   11.9610380203
  - # 16
    frequency:   11.9710352922
  - # 17
    frequency:   12.5133433614
  - # 18
    frequency:   14.0126495716
  - # 19
    frequency:   14.0584336764
  - # 20
    frequency:   26.8352748334
  - # 21
    frequency:   57.2253030762

- q-position: [    0.1212121,    0.0000000,    0.0000000 ]
  distance:    0.0411004
  band:
  - # 1
    frequency:    0.9240835032
  - # 2
    frequency:    1.0871004658
  - # 3
    frequency:    1.6578114788
  - # 4
    frequency:    1.9897809057
  - # 5
    frequency:    2.6399391445
  - # 6
    frequency:    3.4012968039
  - # 7
    frequency:    3.7236258949
  - # 8
    frequency:    4.3034118662
  - # 9
    frequency:    5.8400816437
  - # 10
    frequency:    5.9369757086
  - # 11
    frequency:    7.0073861251
  - # 12
    frequency:    7.3595705856
  - # 13
    frequency:    7.5221559317
  - # 14
    frequency:    9.7042538817
  - # 15
    frequency:   11.9415957223
  - # 16
    frequency:   11.9697774417
  - # 17
    frequency:   12.4896568096
  - # 18
    frequency:   14.0136486806
  - # 19
    frequency:   14.0644271135
  - # 20
    frequency:   26.8290645002
  - # 21
    frequency:   57.1943426605

- q-position: [    0.1262626,    0.0000000,    0.0000000 ]
  distance:    0.0428129
  band:
  - # 1
    frequency:    0.9798867842
  - # 2
    frequency:    1.1253801875
  - # 3
    frequency:    1.7158831026
  - # 4
    frequency:    2.0652264303
  - # 5
    frequency:    2.7220079704
  - # 6
    frequency:    3.4276708247
  - # 7
    frequency:    3.7387338028
  - # 8
    frequency:    4.3299013009
  - # 9
    frequency:    5.8473627422
  - # 10
    frequency:    5.9394618543
  - # 11
    frequency:    6.9984486761
  - # 12
    frequency:    7.3701381586
  - # 13
    frequency:    7.5338266706
  - # 14
    frequency:    9.6521257309
  - # 15
    frequency:   11.9192494451
  - # 16
    frequency:   11.9678336673
  - # 17
    frequency:   12.4668408904
  - # 18
    frequency:   14.0148022790
  - # 19
    frequency:   14.0708853189
  - # 20
    frequency:   26.8229045465
  - # 21
    frequency:   57.1624611934

- q-position: [    0.1313131,    0.0000000,    0.0000000 ]
  distance:    0.0445254
  band:
  - # 1
    frequency:    1.0362814818
  - # 2
    frequency:    1.1633867722
  - # 3
    frequency:    1.7728336804
  - # 4
    frequency:    2.1401546669
  - # 5
    frequency:    2.8012242140
  - # 6
    frequency:    3.4548642297
  - # 7
    frequency:    3.7504491427
  - # 8
    frequency:    4.3592540882
  - # 9
    frequency:    5.8551426093
  - # 10
    frequency:    5.9409466295
  - # 11
    frequency:    6.9903257238
  - # 12
    frequency:    7.3803791703
  - # 13
    frequency:    7.5455042427
  - # 14
    frequency:    9.6002828769
  - # 15
    frequency:   11.8940026875
  - # 16
    frequency:   11.9651627254
  - # 17
    frequency:   12.4450124592
  - # 18
    frequency:   14.0161162376
  - # 19
    frequency:   14.0778154687
  - # 20
    frequency:   26.8168184086
  - # 21
    frequency:   57.1297037582

- q-position: [    0.1363636,    0.0000000,    0.0000000 ]
  distance:    0.0462379
  band:
  - # 1
    frequency:    1.0932171396
  - # 2
    frequency:    1.2010950975
  - # 3
    frequency:    1.8286374128
  - # 4
    frequency:    2.2145368767
  - # 5
    frequency:    2.8775014638
  - # 6
    frequency:    3.4828282360
  - # 7
    frequency:    3.7592468158
  - # 8
    frequency:    4.3908596349
  - # 9
    frequency:    5.8634166647
  - # 10
    frequency:    5.9414593609
  - # 11
    frequency:    6.9831170698
  - # 12
    frequency:    7.3902451905
  - # 13
    frequency:    7.5571317102
  - # 14
    frequency:    9.5488483017
  - # 15
    frequency:   11.8658847199
  - # 16
    frequency:   11.9617280714
  - # 17
    frequency:   12.4242736287
  - # 18
    frequency:   14.0175951822
  - # 19
    frequency:   14.0852224467
  - # 20
    frequency:   26.8108280892
  - # 21
    frequency:   57.0961164242

- q-position: [    0.1414141,    0.0000000,    0.0000000 ]
  distance:    0.0479505
  band:
  - # 1
    frequency:    1.1506474601
  - # 2
    frequency:    1.2384817221
  - # 3
    frequency:    1.8832725000
  - # 4
    frequency:    2.2883455682
  - # 5
    frequency:    2.9507267754
  - # 6
    frequency:    3.5115092148
  - # 7
    frequency:    3.7656896943
  - # 8
    frequency:    4.4240447989
  - # 9
    frequency:    5.8721763620
  - # 10
    frequency:    5.9410569801
  - # 11
    frequency:    6.9769016019
  - # 12
    frequency:    7.3996922712
  - # 13
    frequency:    7.5686608370
  - # 14
    frequency:    9.4979392134
  - # 15
    frequency:   11.8349491417
  - # 16
    frequency:   11.9574982025
  - # 17
    frequency:   12.4047128514
  - # 18
    frequency:   14.0192423813
  - # 19
    frequency:   14.0931087600
  - # 20
    frequency:   26.8049540510
  - # 21
    frequency:   57.0617461576

- q-position: [    0.1464646,    0.0000000,    0.0000000 ]
  distance:    0.0496630
  band:
  - # 1
    frequency:    1.2085296210
  - # 2
    frequency:    1.2755247222
  - # 3
    frequency:    1.9367211970
  - # 4
    frequency:    2.3615541927
  - # 5
    frequency:    3.0207494787
  - # 6
    frequency:    3.5408487388
  - # 7
    frequency:    3.7703843450
  - # 8
    frequency:    4.4581290543
  - # 9
    frequency:    5.8814091736
  - # 10
    frequency:    5.9398240699
  - # 11
    frequency:    6.9717347867
  - # 12
    frequency:    7.4086813033
  - # 13
    frequency:    7.5800533310
  - # 14
    frequency:    9.4476668734
  - # 15
    frequency:   11.8012722392
  - # 16
    frequency:   11.9524469303
  - # 17
    frequency:   12.3864063570
  - # 18
    frequency:   14.0210596454
  - # 19
    frequency:   14.1014744714
  - # 20
    frequency:   26.7992151268
  - # 21
    frequency:   57.0266407309

- q-position: [    0.1515152,    0.0000000,    0.0000000 ]
  distance:    0.0513755
  band:
  - # 1
    frequency:    1.2668236164
  - # 2
    frequency:    1.3122035528
  - # 3
    frequency:    1.9889698802
  - # 4
    frequency:    2.4341368504
  - # 5
    frequency:    3.0873672672
  - # 6
    frequency:    3.5707837517
  - # 7
    frequency:    3.7739574939
  - # 8
    frequency:    4.4924623594
  - # 9
    frequency:    5.8910986264
  - # 10
    frequency:    5.9378715372
  - # 11
    frequency:    6.9676469873
  - # 12
    frequency:    7.4171783362
  - # 13
    frequency:    7.5912819346
  - # 14
    frequency:    9.3981363177
  - # 15
    frequency:   11.7649515067
  - # 16
    frequency:   11.9465535753
  - # 17
    frequency:   12.3694195660
  - # 18
    frequency:   14.0230472433
  - # 19
    frequency:   14.1103171505
  - # 20
    frequency:   26.7936284445
  - # 21