nqpoint: 300    
npath: 3      
segment_nqpoint:
- 100
- 100
- 100
labels:
- [ 'G', 'M' ]
- [ 'M', 'K' ]
- [ 'K', 'G' ]
reciprocal_lattice:
- [   0.26897121,   0.15529060,   0.00000000 ] # a*
- [   0.00000000,   0.31058120,   0.00000000 ] # b*
- [   0.00000000,   0.00000000,   0.03785702 ] # c*
natom: 7      
lattice:
- [     3.717870028016781,     0.000000000000000,     0.000000000000000 ] # a
- [    -1.858935014008391,     3.219769892256338,     0.000000000000000 ] # b
- [     0.000000000000000,     0.000000000000000,    26.415180889787624 ] # c
points:
- symbol: Br # 1
  coordinates: [  0.333332985432215,  0.666666983183674,  0.659286830646710 ]
  mass: 79.904000
- symbol: C # 2
  coordinates: [  0.000000000000000,  0.000000000000000,  0.534286142550832 ]
  mass: 12.010700
- symbol: C # 3
  coordinates: [  0.666666984744047,  0.333332985985145,  0.385756892055895 ]
  mass: 12.010700
- symbol: N # 4
  coordinates: [  0.666666984744047,  0.333332985985145,  0.340713169353290 ]
  mass: 14.006700
- symbol: O # 5
  coordinates: [  0.666666984744047,  0.333332985985145,  0.436211590565312 ]
  mass: 15.999400
- symbol: Y # 6
  coordinates: [  0.333332985432215,  0.666666983183674,  0.483152538280371 ]
  mass: 88.905850
- symbol: Y # 7
  coordinates: [  0.666666984744047,  0.333332985985145,  0.585420770991641 ]
  mass: 88.905850

phonon:
- q-position: [    0.0000000,    0.0000000,    0.0000000 ]
  distance:    0.0000000
  band:
  - # 1
    frequency:   -1.5154881421
  - # 2
    frequency:   -1.5154881420
  - # 3
    frequency:   -0.0000183706
  - # 4
    frequency:   -0.0000002753
  - # 5
    frequency:    0.0000206032
  - # 6
    frequency:    2.5461831305
  - # 7
    frequency:    2.5461831306
  - # 8
    frequency:    3.8652712758
  - # 9
    frequency:    3.8652712759
  - # 10
    frequency:    3.9928106963
  - # 11
    frequency:    5.0735803955
  - # 12
    frequency:    5.0735803955
  - # 13
    frequency:    6.3215087095
  - # 14
    frequency:    8.1544261514
  - # 15
    frequency:    9.0972791281
  - # 16
    frequency:    9.0972791282
  - # 17
    frequency:   13.9903484154
  - # 18
    frequency:   13.9903484155
  - # 19
    frequency:   15.9036855843
  - # 20
    frequency:   32.1381263624
  - # 21
    frequency:   67.6729111951

- q-position: [    0.0050505,    0.0000000,    0.0000000 ]
  distance:    0.0015686
  band:
  - # 1
    frequency:   -1.5153385535
  - # 2
    frequency:   -1.5144378433
  - # 3
    frequency:    0.0014001337
  - # 4
    frequency:    0.0487356971
  - # 5
    frequency:    0.0862603175
  - # 6
    frequency:    2.5463084909
  - # 7
    frequency:    2.5475450706
  - # 8
    frequency:    3.8645674408
  - # 9
    frequency:    3.8652615891
  - # 10
    frequency:    3.9941362845
  - # 11
    frequency:    5.0735441577
  - # 12
    frequency:    5.0761833733
  - # 13
    frequency:    6.3213986264
  - # 14
    frequency:    8.1530286571
  - # 15
    frequency:    9.0970420079
  - # 16
    frequency:    9.1032629428
  - # 17
    frequency:   13.9903690336
  - # 18
    frequency:   13.9904198956
  - # 19
    frequency:   15.9024364120
  - # 20
    frequency:   32.1377486833
  - # 21
    frequency:   67.6726792114

- q-position: [    0.0101010,    0.0000000,    0.0000000 ]
  distance:    0.0031372
  band:
  - # 1
    frequency:   -1.5148910748
  - # 2
    frequency:   -1.5112928353
  - # 3
    frequency:    0.0055912349
  - # 4
    frequency:    0.0974655417
  - # 5
    frequency:    0.1725395608
  - # 6
    frequency:    2.5466845434
  - # 7
    frequency:    2.5516161223
  - # 8
    frequency:    3.8625186645
  - # 9
    frequency:    3.8652326790
  - # 10
    frequency:    3.9980233054
  - # 11
    frequency:    5.0734356383
  - # 12
    frequency:    5.0839342628
  - # 13
    frequency:    6.3210686978
  - # 14
    frequency:    8.1488911860
  - # 15
    frequency:    9.0963314929
  - # 16
    frequency:    9.1211591557
  - # 17
    frequency:   13.9904308821
  - # 18
    frequency:   13.9906342477
  - # 19
    frequency:   15.8986910934
  - # 20
    frequency:   32.1366165442
  - # 21
    frequency:   67.6719837685

- q-position: [    0.0151515,    0.0000000,    0.0000000 ]
  distance:    0.0047058
  band:
  - # 1
    frequency:   -1.5141495194
  - # 2
    frequency:   -1.5060703124
  - # 3
    frequency:    0.0125497934
  - # 4
    frequency:    0.1461832512
  - # 5
    frequency:    0.2588534559
  - # 6
    frequency:    2.5473112026
  - # 7
    frequency:    2.5583528304
  - # 8
    frequency:    3.8592866114
  - # 9
    frequency:    3.8651849929
  - # 10
    frequency:    4.0042323744
  - # 11
    frequency:    5.0732554183
  - # 12
    frequency:    5.0966603455
  - # 13
    frequency:    6.3205199037
  - # 14
    frequency:    8.1421671747
  - # 15
    frequency:    9.0951501176
  - # 16
    frequency:    9.1508119894
  - # 17
    frequency:   13.9905339418
  - # 18
    frequency:   13.9909912066
  - # 19
    frequency:   15.8924562255
  - # 20
    frequency:   32.1347326372
  - # 21
    frequency:   67.6708263891

- q-position: [    0.0202020,    0.0000000,    0.0000000 ]
  distance:    0.0062744
  band:
  - # 1
    frequency:   -1.5131200904
  - # 2
    frequency:   -1.4987974058
  - # 3
    frequency:    0.0222366440
  - # 4
    frequency:    0.1948817160
  - # 5
    frequency:    0.3452115362
  - # 6
    frequency:    2.5481883270
  - # 7
    frequency:    2.5676854864
  - # 8
    frequency:    3.8550740042
  - # 9
    frequency:    3.8651192659
  - # 10
    frequency:    4.0124416737
  - # 11
    frequency:    5.0730044620
  - # 12
    frequency:    5.1140787274
  - # 13
    frequency:    6.3197539328
  - # 14
    frequency:    8.1330784274
  - # 15
    frequency:    9.0935020982
  - # 16
    frequency:    9.1919902669
  - # 17
    frequency:   13.9906781810
  - # 18
    frequency:   13.9914903283
  - # 19
    frequency:   15.8837428069
  - # 20
    frequency:   32.1321014385
  - # 21
    frequency:   67.6692096054

- q-position: [    0.0252525,    0.0000000,    0.0000000 ]
  distance:    0.0078430
  band:
  - # 1
    frequency:   -1.5118111584
  - # 2
    frequency:   -1.4895090337
  - # 3
    frequency:    0.0345984086
  - # 4
    frequency:    0.2435526298
  - # 5
    frequency:    0.4316145785
  - # 6
    frequency:    2.5493157200
  - # 7
    frequency:    2.5795218169
  - # 8
    frequency:    3.8500740488
  - # 9
    frequency:    3.8650365049
  - # 10
    frequency:    4.0223111062
  - # 11
    frequency:    5.0726841122
  - # 12
    frequency:    5.1358045592
  - # 13
    frequency:    6.3187732651
  - # 14
    frequency:    8.1218777524
  - # 15
    frequency:    9.0913933192
  - # 16
    frequency:    9.2444170564
  - # 17
    frequency:   13.9908635545
  - # 18
    frequency:   13.9921309880
  - # 19
    frequency:   15.8725662449
  - # 20
    frequency:   32.1287291929
  - # 21
    frequency:   67.6671369504

- q-position: [    0.0303030,    0.0000000,    0.0000000 ]
  distance:    0.0094116
  band:
  - # 1
    frequency:   -1.5102329673
  - # 2
    frequency:   -1.4782451512
  - # 3
    frequency:    0.0495688451
  - # 4
    frequency:    0.2921861785
  - # 5
    frequency:    0.5180526130
  - # 6
    frequency:    2.5506931324
  - # 7
    frequency:    2.5937514673
  - # 8
    frequency:    3.8444456994
  - # 9
    frequency:    3.8649379678
  - # 10
    frequency:    4.0335224671
  - # 11
    frequency:    5.0722960823
  - # 12
    frequency:    5.1613636251
  - # 13
    frequency:    6.3175812822
  - # 14
    frequency:    8.1088154508
  - # 15
    frequency:    9.0888313164
  - # 16
    frequency:    9.3077933273
  - # 17
    frequency:   13.9910900034
  - # 18
    frequency:   13.9929123766
  - # 19
    frequency:   15.8589463658
  - # 20
    frequency:   32.1246238924
  - # 21
    frequency:   67.6646129465

- q-position: [    0.0353535,    0.0000000,    0.0000000 ]
  distance:    0.0109801
  band:
  - # 1
    frequency:   -1.5083972808
  - # 2
    frequency:   -1.4650476244
  - # 3
    frequency:    0.0670704426
  - # 4
    frequency:    0.3407707984
  - # 5
    frequency:    0.6045036163
  - # 6
    frequency:    2.5523202641
  - # 7
    frequency:    2.6102507823
  - # 8
    frequency:    3.8383104312
  - # 9
    frequency:    3.8648251372
  - # 10
    frequency:    4.0457975333
  - # 11
    frequency:    5.0718424467
  - # 12
    frequency:    5.1902095306
  - # 13
    frequency:    6.3161824041
  - # 14
    frequency:    8.0941161467
  - # 15
    frequency:    9.0858252528
  - # 16
    frequency:    9.3818100308
  - # 17
    frequency:   13.9913574537
  - # 18
    frequency:   13.9938334960
  - # 19
    frequency:   15.8429074306
  - # 20
    frequency:   32.1197952482
  - # 21
    frequency:   67.6616430901

- q-position: [    0.0404040,    0.0000000,    0.0000000 ]
  distance:    0.0125487
  band:
  - # 1
    frequency:   -1.5063169871
  - # 2
    frequency:   -1.4499569645
  - # 3
    frequency:    0.0870161751
  - # 4
    frequency:    0.3892930119
  - # 5
    frequency:    0.6909329239
  - # 6
    frequency:    2.5541967682
  - # 7
    frequency:    2.6288874401
  - # 8
    frequency:    3.8317593009
  - # 9
    frequency:    3.8646996898
  - # 10
    frequency:    4.0589033642
  - # 11
    frequency:    5.0713256294
  - # 12
    frequency:    5.2217449793
  - # 13
    frequency:    6.3145822458
  - # 14
    frequency:    8.0779670766
  - # 15
    frequency:    9.0823858898
  - # 16
    frequency:    9.4661485359
  - # 17
    frequency:   13.9916658158
  - # 18
    frequency:   13.9948931534
  - # 19
    frequency:   15.8244781578
  - # 20
    frequency:   32.1142546574
  - # 21
    frequency:   67.6582338335

- q-position: [    0.0454545,    0.0000000,    0.0000000 ]
  distance:    0.0141173
  band:
  - # 1
    frequency:   -1.5040056809
  - # 2
    frequency:   -1.4330091385
  - # 3
    frequency:    0.1093113220
  - # 4
    frequency:    0.4377373463
  - # 5
    frequency:    0.7772933298
  - # 6
    frequency:    2.5563222546
  - # 7
    frequency:    2.6495246029
  - # 8
    frequency:    3.8248622068
  - # 9
    frequency:    3.8645634633
  - # 10
    frequency:    4.0726517831
  - # 11
    frequency:    5.0707483905
  - # 12
    frequency:    5.2553458297
  - # 13
    frequency:    6.3127877908
  - # 14
    frequency:    8.0605155483
  - # 15
    frequency:    9.0785255518
  - # 16
    frequency:    9.5604728288
  - # 17
    frequency:   13.9920149834
  - # 18
    frequency:   13.9960899552
  - # 19
    frequency:   15.8036917556
  - # 20
    frequency:   32.1080151641
  - # 21
    frequency:   67.6543925633

- q-position: [    0.0505051,    0.0000000,    0.0000000 ]
  distance:    0.0156859
  band:
  - # 1
    frequency:   -1.5014772398
  - # 2
    frequency:   -1.4142326332
  - # 3
    frequency:    0.1338552691
  - # 4
    frequency:    0.4860863368
  - # 5
    frequency:    0.8635257796
  - # 6
    frequency:    2.5586962951
  - # 7
    frequency:    2.6720243849
  - # 8
    frequency:    3.8176757374
  - # 9
    frequency:    3.8644184202
  - # 10
    frequency:    4.0868963989
  - # 11
    frequency:    5.0701138112
  - # 12
    frequency:    5.2903860092
  - # 13
    frequency:    6.3108075740
  - # 14
    frequency:    8.0418721964
  - # 15
    frequency:    9.0742580845
  - # 16
    frequency:    9.6644178960
  - # 17
    frequency:   13.9924048319
  - # 18
    frequency:   13.9974222992
  - # 19
    frequency:   15.7805859669
  - # 20
    frequency:   32.1010914145
  - # 21
    frequency:   67.6501275760

- q-position: [    0.0555556,    0.0000000,    0.0000000 ]
  distance:    0.0172545
  band:
  - # 1
    frequency:   -1.4987454136
  - # 2
    frequency:   -1.3936458748
  - # 3
    frequency:    0.1605432147
  - # 4
    frequency:    0.5343206091
  - # 5
    frequency:    0.9495605174
  - # 6
    frequency:    2.5613184298
  - # 7
    frequency:    2.6962505585
  - # 8
    frequency:    3.8102487340
  - # 9
    frequency:    3.8642666113
  - # 10
    frequency:    4.1015284627
  - # 11
    frequency:    5.0694252766
  - # 12
    frequency:    5.3262611414
  - # 13
    frequency:    6.3086518691
  - # 14
    frequency:    8.0221170537
  - # 15
    frequency:    9.0695988061
  - # 16
    frequency:    9.7775781294
  - # 17
    frequency:   13.9928352174
  - # 18
    frequency:   13.9988883654
  - # 19
    frequency:   15.7552031308
  - # 20
    frequency:   32.0934996074
  - # 21
    frequency:   67.6454480507

- q-position: [    0.0606061,    0.0000000,    0.0000000 ]
  distance:    0.0188231
  band:
  - # 1
    frequency:   -1.4958234427
  - # 2
    frequency:   -1.3712550333
  - # 3
    frequency:    0.1892677169
  - # 4
    frequency:    0.5824190336
  - # 5
    frequency:    1.0353185229
  - # 6
    frequency:    2.5641881741
  - # 7
    frequency:    2.7220705142
  - # 8
    frequency:    3.8026258427
  - # 9
    frequency:    3.8641101391
  - # 10
    frequency:    4.1164721050
  - # 11
    frequency:    5.0686864582
  - # 12
    frequency:    5.3624089454
  - # 13
    frequency:    6.3063328738
  - # 14
    frequency:    8.0013063785
  - # 15
    frequency:    9.0645644516
  - # 16
    frequency:    9.8994983678
  - # 17
    frequency:   13.9933059747
  - # 18
    frequency:   14.0004861070
  - # 19
    frequency:   15.7275902681
  - # 20
    frequency:   32.0852574394
  - # 21
    frequency:   67.6403640189

- q-position: [    0.0656566,    0.0000000,    0.0000000 ]
  distance:    0.0203917
  band:
  - # 1
    frequency:   -1.4927237174
  - # 2
    frequency:   -1.3470521570
  - # 3
    frequency:    0.2199200400
  - # 4
    frequency:    0.6303589417
  - # 5
    frequency:    1.1207130817
  - # 6
    frequency:    2.5673050279
  - # 7
    frequency:    2.7493565494
  - # 8
    frequency:    3.7948496202
  - # 9
    frequency:    3.8639511226
  - # 10
    frequency:    4.1316793224
  - # 11
    frequency:    5.0679012936
  - # 12
    frequency:    5.3983250001
  - # 13
    frequency:    6.3038648882
  - # 14
    frequency:    7.9794790590
  - # 15
    frequency:    9.0591731095
  - # 16
    frequency:   10.0296689279
  - # 17
    frequency:   13.9938169161
  - # 18
    frequency:   14.0022132386
  - # 19
    frequency:   15.6977991947
  - # 20
    frequency:   32.0763840461
  - # 21
    frequency:   67.6348863316

- q-position: [    0.0707071,    0.0000000,    0.0000000 ]
  distance:    0.0219603
  band:
  - # 1
    frequency:   -1.4894574891
  - # 2
    frequency:   -1.3210135148
  - # 3
    frequency:    0.2523912700
  - # 4
    frequency:    0.6781163893
  - # 5
    frequency:    1.2056513499
  - # 6
    frequency:    2.5706684850
  - # 7
    frequency:    2.7779865859
  - # 8
    frequency:    3.7869617140
  - # 9
    frequency:    3.8637916652
  - # 10
    frequency:    4.1471250389
  - # 11
    frequency:    5.0670739660
  - # 12
    frequency:    5.4335731807
  - # 13
    frequency:    6.3012644784
  - # 14
    frequency:    7.9566620632
  - # 15
    frequency:    9.0534441505
  - # 16
    frequency:   10.1675249552
  - # 17
    frequency:   13.9943678293
  - # 18
    frequency:   14.0040672257
  - # 19
    frequency:   15.6658866758
  - # 20
    frequency:   32.0668999378
  - # 21
    frequency:   67.6290266239

- q-position: [    0.0757576,    0.0000000,    0.0000000 ]
  distance:    0.0235289
  band:
  - # 1
    frequency:   -1.4860346387
  - # 2
    frequency:   -1.2930979563
  - # 3
    frequency:    0.2865731889
  - # 4
    frequency:    0.7256664545
  - # 5
    frequency:    1.2900358149
  - # 6
    frequency:    2.5742780451
  - # 7
    frequency:    2.8078444190
  - # 8
    frequency:    3.7790035010
  - # 9
    frequency:    3.8636338265
  - # 10
    frequency:    4.1628025067
  - # 11
    frequency:    5.0662088828
  - # 12
    frequency:    5.4677907736
  - # 13
    frequency:    6.2985506219
  - # 14
    frequency:    7.9328747920
  - # 15
    frequency:    9.0473981478
  - # 16
    frequency:   10.3124496988
  - # 17
    frequency:   13.9949584757
  - # 18
    frequency:   14.0060452713
  - # 19
    frequency:   15.6319146322
  - # 20
    frequency:   32.0568269324
  - # 21
    frequency:   67.6227972773

- q-position: [    0.0808081,    0.0000000,    0.0000000 ]
  distance:    0.0250975
  band:
  - # 1
    frequency:   -1.4824635048
  - # 2
    frequency:   -1.2632450534
  - # 3
    frequency:    0.3223589092
  - # 4
    frequency:    0.7729835543
  - # 5
    frequency:    1.3737655948
  - # 6
    frequency:    2.5781332268
  - # 7
    frequency:    2.8388195887
  - # 8
    frequency:    3.7710164447
  - # 9
    frequency:    3.8634795992
  - # 10
    frequency:    4.1787192213
  - # 11
    frequency:    5.0653106529
  - # 12
    frequency:    5.5006888459
  - # 13
    frequency:    6.2957448300
  - # 14
    frequency:    7.9081324021
  - # 15
    frequency:    9.0410567897
  - # 16
    frequency:   10.4637808777
  - # 17
    frequency:   13.9955885884
  - # 18
    frequency:   14.0081443047
  - # 19
    frequency:   15.5959504145
  - # 20
    frequency:   32.0461880841
  - # 21
    frequency:   67.6162113799

- q-position: [    0.0858586,    0.0000000,    0.0000000 ]
  distance:    0.0266661
  band:
  - # 1
    frequency:   -1.4787507714
  - # 2
    frequency:   -1.2313727323
  - # 3
    frequency:    0.3596432817
  - # 4
    frequency:    0.8200417669
  - # 5
    frequency:    1.4567375562
  - # 6
    frequency:    2.5822335828
  - # 7
    frequency:    2.8708069421
  - # 8
    frequency:    3.7630423336
  - # 9
    frequency:    3.8633308933
  - # 10
    frequency:    4.1948934311
  - # 11
    frequency:    5.0643840637
  - # 12
    frequency:    5.5320488088
  - # 13
    frequency:    6.2928712415
  - # 14
    frequency:    7.8824482522
  - # 15
    frequency:    9.0344427827
  - # 16
    frequency:   10.6208191084
  - # 17
    frequency:   13.9962578703
  - # 18
    frequency:   14.0103609691
  - # 19
    frequency:   15.5580671702
  - # 20
    frequency:   32.0350076082
  - # 21
    frequency:   67.6092826841

- q-position: [    0.0909091,    0.0000000,    0.0000000 ]
  distance:    0.0282347
  band:
  - # 1
    frequency:   -1.4749014113
  - # 2
    frequency:   -1.1973740386
  - # 3
    frequency:    0.3983230994
  - # 4
    frequency:    0.8668151464
  - # 5
    frequency:    1.5388472662
  - # 6
    frequency:    2.5865787160
  - # 7
    frequency:    2.9037059378
  - # 8
    frequency:    3.7551235029
  - # 9
    frequency:    3.8631895263
  - # 10
    frequency:    4.2113512390
  - # 11
    frequency:    5.0634340575
  - # 12
    frequency:    5.5617162641
  - # 13
    frequency:    6.2899566857
  - # 14
    frequency:    7.8558356458
  - # 15
    frequency:    9.0275797473
  - # 16
    frequency:   10.7828373500
  - # 17
    frequency:   13.9969659918
  - # 18
    frequency:   14.0126916133
  - # 19
    frequency:   15.5183443313
  - # 20
    frequency:   32.0233108042
  - # 21
    frequency:   67.6020255630

- q-position: [    0.0959596,    0.0000000,    0.0000000 ]
  distance:    0.0298032
  band:
  - # 1
    frequency:   -1.4709186803
  - # 2
    frequency:   -1.1611125817
  - # 3
    frequency:    0.4382971252
  - # 4
    frequency:    0.9132780205
  - # 5
    frequency:    1.6199898116
  - # 6
    frequency:    2.5911682979
  - # 7
    frequency:    2.9374197172
  - # 8
    frequency:    3.7473031085
  - # 9
    frequency:    3.8630572233
  - # 10
    frequency:    4.2281242443
  - # 11
    frequency:    5.0624657081
  - # 12
    frequency:    5.5895932046
  - # 13
    frequency:    6.2870307115
  - # 14
    frequency:    7.8283090339
  - # 15
    frequency:    9.0204921042
  - # 16
    frequency:   10.9490904290
  - # 17
    frequency:   13.9977125891
  - # 18
    frequency:   14.0151322871
  - # 19
    frequency:   15.4768682666
  - # 20
    frequency:   32.0111239748
  - # 21
    frequency:   67.5944549648

- q-position: [    0.1010101,    0.0000000,    0.0000000 ]
  distance:    0.0313718
  band:
  - # 1
    frequency:   -1.4668041546
  - # 2
    frequency:   -1.1224160367
  - # 3
    frequency:    0.4794659819
  - # 4
    frequency:    0.9594052618
  - # 5
    frequency:    1.7000605336
  - # 6
    frequency:    2.5960020886
  - # 7
    frequency:    2.9718539546
  - # 8
    frequency:    3.7396255020
  - # 9
    frequency:    3.8629356250
  - # 10
    frequency:    4.2452476400
  - # 11
    frequency:    5.0614841970
  - # 12
    frequency:    5.6156294931
  - # 13
    frequency:    6.2841255801
  - # 14
    frequency:    7.7998848149
  - # 15
    frequency:    9.0132049528
  - # 16
    frequency:   11.1188238809
  - # 17
    frequency:   13.9984972618
  - # 18
    frequency:   14.0176787465
  - # 19
    frequency:   15.4337331537
  - # 20
    frequency:   31.9984743438
  - # 21
    frequency:   67.5865863658

- q-position: [    0.1060606,    0.0000000,    0.0000000 ]
  distance:    0.0329404
  band:
  - # 1
    frequency:   -1.4625578036
  - # 2
    frequency:   -1.0810667966
  - # 3
    frequency:    0.5217319407
  - # 4
    frequency:    1.0051725273
  - # 5
    frequency:    1.7789557257
  - # 6
    frequency:    2.6010799584
  - # 7
    frequency:    3.0069154736
  - # 8
    frequency:    3.7321367546
  - # 9
    frequency:    3.8628263055
  - # 10
    frequency:    4.2627586722
  - # 11
    frequency:    5.0604947898
  - # 12
    frequency:    5.6398143488
  - # 13
    frequency:    6.2812762204
  - # 14
    frequency:    7.7705818417
  - # 15
    frequency:    9.0057439427
  - # 16
    frequency:   11.2912815298
  - # 17
    frequency:   13.9993195710
  - # 18
    frequency:   14.0203264756
  - # 19
    frequency:   15.3890421529
  - # 20
    frequency:   31.9853899707
  - # 21
    frequency:   67.5784357221

- q-position: [    0.1111111,    0.0000000,    0.0000000 ]
  distance:    0.0345090
  band:
  - # 1
    frequency:   -1.4581780916
  - # 2
    frequency:   -1.0367883674
  - # 3
    frequency:    0.5649986559
  - # 4
    frequency:    1.0505564615
  - # 5
    frequency:    1.8565733409
  - # 6
    frequency:    2.6064019105
  - # 7
    frequency:    3.0425106052
  - # 8
    frequency:    3.7248853880
  - # 9
    frequency:    3.8627307994
  - # 10
    frequency:    4.2806953678
  - # 11
    frequency:    5.0595028128
  - # 12
    frequency:    5.6621683498
  - # 13
    frequency:    6.2785201460
  - # 14
    frequency:    7.7404217228
  - # 15
    frequency:    8.9981351364
  - # 16
    frequency:   11.4657113923
  - # 17
    frequency:   14.0001790371
  - # 18
    frequency:   14.0230707361
  - # 19
    frequency:   15.3429089941
  - # 20
    frequency:   31.9718996654
  - # 21
    frequency:   67.5700194201

- q-position: [    0.1161616,    0.0000000,    0.0000000 ]
  distance:    0.0360776
  band:
  - # 1
    frequency:   -1.4536620996
  - # 2
    frequency:   -0.9892251936
  - # 3
    frequency:    0.6091708920
  - # 4
    frequency:    1.0955348620
  - # 5
    frequency:    1.9328137425
  - # 6
    frequency:    2.6119681056
  - # 7
    frequency:    3.0785432349
  - # 8
    frequency:    3.7179233877
  - # 9
    frequency:    3.8626506388
  - # 10
    frequency:    4.2990954475
  - # 11
    frequency:    5.0585136303
  - # 12
    frequency:    5.6827362671
  - # 13
    frequency:    6.2758973340
  - # 14
    frequency:    7.7094289808
  - # 15
    frequency:    8.9904048669
  - # 16
    frequency:   11.6413696037
  - # 17
    frequency:   14.0010751380
  - # 18
    frequency:   14.0259066674
  - # 19
    frequency:   15.2954601405
  - # 20
    frequency:   31.9580328995
  - # 21
    frequency:   67.5613542265

- q-position: [    0.1212121,    0.0000000,    0.0000000 ]
  distance:    0.0376462
  band:
  - # 1
    frequency:   -1.4490056605
  - # 2
    frequency:   -0.9379118965
  - # 3
    frequency:    0.6541542937
  - # 4
    frequency:    1.1400868063
  - # 5
    frequency:    2.0075805196
  - # 6
    frequency:    2.6177788871
  - # 7
    frequency:    3.1149124604
  - # 8
    frequency:    3.7113076108
  - # 9
    frequency:    3.8625873991
  - # 10
    frequency:    4.3179953510
  - # 11
    frequency:    5.0575326220
  - # 12
    frequency:    5.7015808822
  - # 13
    frequency:    6.2734500654
  - # 14
    frequency:    7.6776311178
  - # 15
    frequency:    8.9825795894
  - # 16
    frequency:   11.8175221022
  - # 17
    frequency:   14.0020073070
  - # 18
    frequency:   14.0288294683
  - # 19
    frequency:   15.2468377636
  - # 20
    frequency:   31.9438197185
  - # 21
    frequency:   67.5524572369

- q-position: [    0.1262626,    0.0000000,    0.0000000 ]
  distance:    0.0392148
  band:
  - # 1
    frequency:   -1.4442035022
  - # 2
    frequency:   -0.8822245322
  - # 3
    frequency:    0.6998552476
  - # 4
    frequency:    1.1841927411
  - # 5
    frequency:    2.0807813722
  - # 6
    frequency:    2.6238348078
  - # 7
    frequency:    3.1515097332
  - # 8
    frequency:    3.7051017511
  - # 9
    frequency:    3.8625427524
  - # 10
    frequency:    4.3374293140
  - # 11
    frequency:    5.0565651612
  - # 12
    frequency:    5.7187778202
  - # 13
    frequency:    6.2712227299
  - # 14
    frequency:    7.6450586226
  - # 15
    frequency:    8.9746857283
  - # 16
    frequency:   11.9934437580
  - # 17
    frequency:   14.0029749313
  - # 18
    frequency:   14.0318347247
  - # 19
    frequency:   15.1972038780
  - # 20
    frequency:   31.9292906519
  - # 21
    frequency:   67.5433458245

- q-position: [    0.1313131,    0.0000000,    0.0000000 ]
  distance:    0.0407834
  band:
  - # 1
    frequency:   -1.4392493939
  - # 2
    frequency:   -0.8212992723
  - # 3
    frequency:    0.7461808818
  - # 4
    frequency:    1.2278345363
  - # 5
    frequency:    2.1523290533
  - # 6
    frequency:    2.6301366562
  - # 7
    frequency:    3.1882152868
  - # 8
    frequency:    3.6993791080
  - # 9
    frequency:    3.8625185295
  - # 10
    frequency:    4.3574284499
  - # 11
    frequency:    5.0556165935
  - # 12
    frequency:    5.7344113471
  - # 13
    frequency:    6.2692615937
  - # 14
    frequency:    7.6117449474
  - # 15
    frequency:    8.9667495209
  - # 16
    frequency:   12.1684144667
  - # 17
    frequency:   14.0039773497
  - # 18
    frequency:   14.0349189837
  - # 19
    frequency:   15.1467461573
  - # 20
    frequency:   31.9144766233
  - # 21
    frequency:   67.5340375881

- q-position: [    0.1363636,    0.0000000,    0.0000000 ]
  distance:    0.0423520
  band:
  - # 1
    frequency:   -1.4341362902
  - # 2
    frequency:   -0.7538871467
  - # 3
    frequency:    0.7930392390
  - # 4
    frequency:    1.2709955058
  - # 5
    frequency:    2.2221423375
  - # 6
    frequency:    2.6366854840
  - # 7
    frequency:    3.2248935432
  - # 8
    frequency:    3.6942265206
  - # 9
    frequency:    3.8625167863
  - # 10
    frequency:    4.3780198028
  - # 11
    frequency:    5.0546922166
  - # 12
    frequency:    5.7485710316
  - # 13
    frequency:    6.2676145332
  - # 14
    frequency:    7.5777264745
  - # 15
    frequency:    8.9587968600
  - # 16
    frequency:   12.3417113915
  - # 17
    frequency:   14.0050138516
  - # 18
    frequency:   14.0380807633
  - # 19
    frequency:   15.0956862270
  - # 20
    frequency:   31.8994088608
  - # 21
    frequency:   67.5245503006

- q-position: [    0.1414141,    0.0000000,    0.0000000 ]
  distance:    0.0439206
  band:
  - # 1
    frequency:   -1.4288564714
  - # 2
    frequency:   -0.6780695869
  - # 3
    frequency:    0.8403396476
  - # 4
    frequency:    1.3136603987
  - # 5
    frequency:    2.2901469678
  - # 6
    frequency:    2.6434826327
  - # 7
    frequency:    3.2613870258
  - # 8
    frequency:    3.6897500074
  - # 9
    frequency:    3.8625398759
  - # 10
    frequency:    4.3992253495
  - # 11
    frequency:    5.0537972595
  - # 12
    frequency:    5.7613491453
  - # 13
    frequency:    6.2663307336
  - # 14
    frequency:    7.5430424880
  - # 15
    frequency:    8.9508531361
  - # 16
    frequency:   12.5125959607
  - # 17
    frequency:   14.0060836753
  - # 18
    frequency:   14.0413223297
  - # 19
    frequency:   15.0442916647
  - # 20
    frequency:   31.8841188067
  - # 21
    frequency:   67.5149018564

- q-position: [    0.1464646,    0.0000000,    0.0000000 ]
  distance:    0.0454892
  band:
  - # 1
    frequency:   -1.4234016771
  - # 2
    frequency:   -0.5906244222
  - # 3
    frequency:    0.8879932958
  - # 4
    frequency:    1.3558153633
  - # 5
    frequency:    2.3562765211
  - # 6
    frequency:    2.6505297595
  - # 7
    frequency:    3.2975080796
  - # 8
    frequency:    3.6860828746
  - # 9
    frequency:    3.8625905221
  - # 10
    frequency:    4.4210609456
  - # 11
    frequency:    5.0529368638
  - # 12
    frequency:    5.7728386671
  - # 13
    frequency:    6.2654603477
  - # 14
    frequency:    7.5077351675
  - # 15
    frequency:    8.9429430803
  - # 16
    frequency:   12.6802932284
  - # 17
    frequency:   14.0071860066
  - # 18
    frequency:   14.0446528589
  - # 19
    frequency:   14.9928936437
  - # 20
    frequency:   31.8686380280
  - # 21
    frequency:   67.5051102204

- q-position: [    0.1515152,    0.0000000,    0.0000000 ]
  distance:    0.0470578
  band:
  - # 1
    frequency:   -1.4177632319
  - # 2
    frequency:   -0.4853037408
  - # 3
    frequency:    0.9359139948
  - # 4
    frequency:    1.3974478883
  - # 5
    frequency:    2.4204731214
  - # 6
    frequency:    2.6578288620
  - # 7
    frequency:    3.3330274564
  - # 8
    frequency:    3.6833972989
  - # 9
    frequency:    3.8626718932
  - # 10
    frequency:    4.4435352240
  - # 11
    frequency:    5.0521160644
  - # 12
    frequency:    5.7831317648
  - # 13
    frequency:    6.2650541111
  - # 14
    frequency:    7.4718496146
  - # 15
    frequency:    8.9350906118
  - # 16
    frequency:   12.8439595223
  - # 17
    frequency:   14.0083199781
  - # 18
    frequency:   14.0480941236
  - # 19
    frequency:   14.9419132979
  - # 20
    frequency:   31.8529981275
  - # 21
    frequency:   67.4951933766
