nqpoint: 300    
npath: 3      
segment_nqpoint:
- 100
- 100
- 100
labels:
- [ 'G', 'M' ]
- [ 'M', 'K' ]
- [ 'K', 'G' ]
reciprocal_lattice:
- [   0.30436223,   0.17572361,   0.00000000 ] # a*
- [   0.00000000,   0.35144723,   0.00000000 ] # b*
- [   0.00000000,   0.00000000,   0.04305591 ] # c*
natom: 5      
lattice:
- [     3.285558835255781,     0.000000000000000,     0.000000000000000 ] # a
- [    -1.642779417627890,     2.845377416958032,     0.000000000000000 ] # b
- [     0.000000000000000,     0.000000000000000,    23.225616689891769 ] # c
points:
- symbol: Br # 1
  coordinates: [  0.666666984744048,  0.333332985985145,  0.387503166015694 ]
  mass: 79.904000
- symbol: C # 2
  coordinates: [  0.000000000000000,  0.000000000000000,  0.513659944698603 ]
  mass: 12.010700
- symbol: F # 3
  coordinates: [  0.333332985432215,  0.666666983183674,  0.612496833984306 ]
  mass: 18.998403
- symbol: Ti # 4
  coordinates: [  0.333332985432215,  0.666666983183674,  0.466761683026367 ]
  mass: 47.867000
- symbol: Ti # 5
  coordinates: [  0.666666984744048,  0.333332985985145,  0.560287097371540 ]
  mass: 47.867000

phonon:
- q-position: [    0.0000000,    0.0000000,    0.0000000 ]
  distance:    0.0000000
  band:
  - # 1
    frequency:   -0.0000009254
  - # 2
    frequency:   -0.0000001392
  - # 3
    frequency:    0.0000009467
  - # 4
    frequency:    3.4114618714
  - # 5
    frequency:    3.4114618714
  - # 6
    frequency:    5.2097038796
  - # 7
    frequency:    5.2097038796
  - # 8
    frequency:    5.5588849452
  - # 9
    frequency:    6.6855756847
  - # 10
    frequency:    6.6855756847
  - # 11
    frequency:   10.3674493717
  - # 12
    frequency:   13.2088844425
  - # 13
    frequency:   16.4725257137
  - # 14
    frequency:   16.4725257137
  - # 15
    frequency:   16.8843040703

- q-position: [    0.0050505,    0.0000000,    0.0000000 ]
  distance:    0.0017750
  band:
  - # 1
    frequency:   -0.0122936938
  - # 2
    frequency:    0.0711643010
  - # 3
    frequency:    0.1133889935
  - # 4
    frequency:    3.4117968590
  - # 5
    frequency:    3.4131053219
  - # 6
    frequency:    5.2094613134
  - # 7
    frequency:    5.2102361515
  - # 8
    frequency:    5.5581973727
  - # 9
    frequency:    6.6859377561
  - # 10
    frequency:    6.6871025629
  - # 11
    frequency:   10.3670288013
  - # 12
    frequency:   13.2076590500
  - # 13
    frequency:   16.4732249866
  - # 14
    frequency:   16.4738259041
  - # 15
    frequency:   16.8840052278

- q-position: [    0.0101010,    0.0000000,    0.0000000 ]
  distance:    0.0035500
  band:
  - # 1
    frequency:   -0.0122072643
  - # 2
    frequency:    0.1423074803
  - # 3
    frequency:    0.2258450831
  - # 4
    frequency:    3.4128013558
  - # 5
    frequency:    3.4180218629
  - # 6
    frequency:    5.2087346781
  - # 7
    frequency:    5.2118115757
  - # 8
    frequency:    5.5561746486
  - # 9
    frequency:    6.6870215119
  - # 10
    frequency:    6.6916593712
  - # 11
    frequency:   10.3657684307
  - # 12
    frequency:   13.2039859074
  - # 13
    frequency:   16.4753168461
  - # 14
    frequency:   16.4777132196
  - # 15
    frequency:   16.8831125182

- q-position: [    0.0151515,    0.0000000,    0.0000000 ]
  distance:    0.0053250
  band:
  - # 1
    frequency:    0.0057230150
  - # 2
    frequency:    0.2134084429
  - # 3
    frequency:    0.3384057839
  - # 4
    frequency:    3.4144739616
  - # 5
    frequency:    3.4261704857
  - # 6
    frequency:    5.2075271562
  - # 7
    frequency:    5.2143647182
  - # 8
    frequency:    5.5529365684
  - # 9
    frequency:    6.6888196048
  - # 10
    frequency:    6.6991761517
  - # 11
    frequency:   10.3636722634
  - # 12
    frequency:   13.1978741088
  - # 13
    frequency:   16.4787834742
  - # 14
    frequency:   16.4841476819
  - # 15
    frequency:   16.8816376972

- q-position: [    0.0202020,    0.0000000,    0.0000000 ]
  distance:    0.0070999
  band:
  - # 1
    frequency:    0.0255483505
  - # 2
    frequency:    0.2844461449
  - # 3
    frequency:    0.4508810099
  - # 4
    frequency:    3.4168123340
  - # 5
    frequency:    3.4374842180
  - # 6
    frequency:    5.2058440264
  - # 7
    frequency:    5.2177823486
  - # 8
    frequency:    5.5486823847
  - # 9
    frequency:    6.6913198833
  - # 10
    frequency:    6.7095411434
  - # 11
    frequency:   10.3607469145
  - # 12
    frequency:   13.1893387759
  - # 13
    frequency:   16.4835953726
  - # 14
    frequency:   16.4930619019
  - # 15
    frequency:   16.8796014176

- q-position: [    0.0252525,    0.0000000,    0.0000000 ]
  distance:    0.0088749
  band:
  - # 1
    frequency:    0.0454167998
  - # 2
    frequency:    0.3553996129
  - # 3
    frequency:    0.5631954598
  - # 4
    frequency:    3.4198131761
  - # 5
    frequency:    3.4518720783
  - # 6
    frequency:    5.2036926271
  - # 7
    frequency:    5.2218973498
  - # 8
    frequency:    5.5436907753
  - # 9
    frequency:    6.6945055307
  - # 10
    frequency:    6.7226072809
  - # 11
    frequency:   10.3570015262
  - # 12
    frequency:   13.1784010069
  - # 13
    frequency:   16.4897116592
  - # 14
    frequency:   16.5043597293
  - # 15
    frequency:   16.8770350283

- q-position: [    0.0303030,    0.0000000,    0.0000000 ]
  distance:    0.0106499
  band:
  - # 1
    frequency:    0.0685346338
  - # 2
    frequency:    0.4262479558
  - # 3
    frequency:    0.6752930456
  - # 4
    frequency:    3.4234722200
  - # 5
    frequency:    3.4692216092
  - # 6
    frequency:    5.2010823047
  - # 7
    frequency:    5.2264809029
  - # 8
    frequency:    5.5383203858
  - # 9
    frequency:    6.6983552559
  - # 10
    frequency:    6.7381999821
  - # 11
    frequency:   10.3524476523
  - # 12
    frequency:   13.1650878028
  - # 13
    frequency:   16.4970804762
  - # 14
    frequency:   16.5179138756
  - # 15
    frequency:   16.8739835683

- q-position: [    0.0353535,    0.0000000,    0.0000000 ]
  distance:    0.0124249
  band:
  - # 1
    frequency:    0.0951870771
  - # 2
    frequency:    0.4969703678
  - # 3
    frequency:    0.7871227336
  - # 4
    frequency:    3.4277842068
  - # 5
    frequency:    3.4894018161
  - # 6
    frequency:    5.1980243501
  - # 7
    frequency:    5.2312346267
  - # 8
    frequency:    5.5330101650
  - # 9
    frequency:    6.7028435327
  - # 10
    frequency:    6.7561253138
  - # 11
    frequency:   10.3470991176
  - # 12
    frequency:   13.1494319754
  - # 13
    frequency:   16.5056395086
  - # 14
    frequency:   16.5335618691
  - # 15
    frequency:   16.8705105901

- q-position: [    0.0404040,    0.0000000,    0.0000000 ]
  distance:    0.0141999
  band:
  - # 1
    frequency:    0.1253635189
  - # 2
    frequency:    0.5675461205
  - # 3
    frequency:    0.8986348927
  - # 4
    frequency:    3.4327428649
  - # 5
    frequency:    3.5122663300
  - # 6
    frequency:    5.1945319220
  - # 7
    frequency:    5.2357863795
  - # 8
    frequency:    5.5282765560
  - # 9
    frequency:    6.7079408830
  - # 10
    frequency:    6.7761777535
  - # 11
    frequency:   10.3409718524
  - # 12
    frequency:   13.1314720337
  - # 13
    frequency:   16.5153166041
  - # 14
    frequency:   16.5510992322
  - # 15
    frequency:   16.8667059104

- q-position: [    0.0454545,    0.0000000,    0.0000000 ]
  distance:    0.0159749
  band:
  - # 1
    frequency:    0.1589659960
  - # 2
    frequency:    0.6379545425
  - # 3
    frequency:    1.0097800047
  - # 4
    frequency:    3.4383408860
  - # 5
    frequency:    3.5376566159
  - # 6
    frequency:    5.1906199612
  - # 7
    frequency:    5.2396963573
  - # 8
    frequency:    5.5247014333
  - # 9
    frequency:    6.7136141996
  - # 10
    frequency:    6.7981470046
  - # 11
    frequency:   10.3340837107
  - # 12
    frequency:   13.1112520506
  - # 13
    frequency:   16.5260304893
  - # 14
    frequency:   16.5702679713
  - # 15
    frequency:   16.8626981849

- q-position: [    0.0505051,    0.0000000,    0.0000000 ]
  distance:    0.0177499
  band:
  - # 1
    frequency:    0.1958601268
  - # 2
    frequency:    0.7081749865
  - # 3
    frequency:    1.1205080930
  - # 4
    frequency:    3.4445699025
  - # 5
    frequency:    3.5654050723
  - # 6
    frequency:    5.1863050944
  - # 7
    frequency:    5.2424825178
  - # 8
    frequency:    5.5229020300
  - # 9
    frequency:    6.7198271016
  - # 10
    frequency:    6.8218235768
  - # 11
    frequency:   10.3264542737
  - # 12
    frequency:   13.0888215101
  - # 13
    frequency:   16.5376915729
  - # 14
    frequency:   16.5907371347
  - # 15
    frequency:   16.8586755368

- q-position: [    0.0555556,    0.0000000,    0.0000000 ]
  distance:    0.0195248
  band:
  - # 1
    frequency:    0.2358936323
  - # 2
    frequency:    0.7781867828
  - # 3
    frequency:    1.2307684192
  - # 4
    frequency:    3.4514204635
  - # 5
    frequency:    3.5953378986
  - # 6
    frequency:    5.1816055318
  - # 7
    frequency:    5.2436722899
  - # 8
    frequency:    5.5234759477
  - # 9
    frequency:    6.7265403183
  - # 10
    frequency:    6.8470030625
  - # 11
    frequency:   10.3181046457
  - # 12
    frequency:   13.0642351348
  - # 13
    frequency:   16.5502028277
  - # 14
    frequency:   16.6120701792
  - # 15
    frequency:   16.8549194850

- q-position: [    0.0606061,    0.0000000,    0.0000000 ]
  distance:    0.0212998
  band:
  - # 1
    frequency:    0.2789050860
  - # 2
    frequency:    0.8479691798
  - # 3
    frequency:    1.3405092974
  - # 4
    frequency:    3.4588820147
  - # 5
    frequency:    3.6272776369
  - # 6
    frequency:    5.1765409585
  - # 7
    frequency:    5.2428762612
  - # 8
    frequency:    5.5269254541
  - # 9
    frequency:    6.7337120944
  - # 10
    frequency:    6.8734891959
  - # 11
    frequency:   10.3090572466
  - # 12
    frequency:   13.0375526932
  - # 13
    frequency:   16.5634607410
  - # 14
    frequency:   16.6336718627
  - # 15
    frequency:   16.8518594356

- q-position: [    0.0656566,    0.0000000,    0.0000000 ]
  distance:    0.0230748
  band:
  - # 1
    frequency:    0.3247288913
  - # 2
    frequency:    0.9175012717
  - # 3
    frequency:    1.4496779700
  - # 4
    frequency:    3.4669428791
  - # 5
    frequency:    3.6610453345
  - # 6
    frequency:    5.1711324231
  - # 7
    frequency:    5.2398611201
  - # 8
    frequency:    5.5335836037
  - # 9
    frequency:    6.7412986109
  - # 10
    frequency:    6.9010958681
  - # 11
    frequency:   10.2993356051
  - # 12
    frequency:   13.0088387883
  - # 13
    frequency:   16.5773563241
  - # 14
    frequency:   16.6547099710
  - # 15
    frequency:   16.8501524158

- q-position: [    0.0707071,    0.0000000,    0.0000000 ]
  distance:    0.0248498
  band:
  - # 1
    frequency:    0.3731984703
  - # 2
    frequency:    0.9867619156
  - # 3
    frequency:    1.5582205213
  - # 4
    frequency:    3.4755902412
  - # 5
    frequency:    3.6964622981
  - # 6
    frequency:    5.1654022247
  - # 7
    frequency:    5.2345890383
  - # 8
    frequency:    5.5435747779
  - # 9
    frequency:    6.7492544152
  - # 10
    frequency:    6.9296483067
  - # 11
    frequency:   10.2889641579
  - # 12
    frequency:   12.9781626262
  - # 13
    frequency:   16.5917761685
  - # 14
    frequency:   16.6740316522
  - # 15
    frequency:   16.8507682565

- q-position: [    0.0757576,    0.0000000,    0.0000000 ]
  distance:    0.0266248
  band:
  - # 1
    frequency:    0.4241484371
  - # 2
    frequency:    1.0557296372
  - # 3
    frequency:    1.6660818168
  - # 4
    frequency:    3.4848101338
  - # 5
    frequency:    3.7333514362
  - # 6
    frequency:    5.1593738003
  - # 7
    frequency:    5.2272048831
  - # 8
    frequency:    5.5568280425
  - # 9
    frequency:    6.7575328552
  - # 10
    frequency:    6.9589836207
  - # 11
    frequency:   10.2779680586
  - # 12
    frequency:   12.9455977666
  - # 13
    frequency:   16.6066035401
  - # 14
    frequency:   16.6901761255
  - # 15
    frequency:   16.8549784440

- q-position: [    0.0808081,    0.0000000,    0.0000000 ]
  distance:    0.0283998
  band:
  - # 1
    frequency:    0.4774161080
  - # 2
    frequency:    1.1243825302
  - # 3
    frequency:    1.7732054649
  - # 4
    frequency:    3.4945874286
  - # 5
    frequency:    3.7715382000
  - # 6
    frequency:    5.1530716163
  - # 7
    frequency:    5.2179825636
  - # 8
    frequency:    5.5731318369
  - # 9
    frequency:    6.7660865113
  - # 10
    frequency:    6.9889508912
  - # 11
    frequency:   10.2663729984
  - # 12
    frequency:   12.9112218528
  - # 13
    frequency:   16.6217194978
  - # 14
    frequency:   16.7016963201
  - # 15
    frequency:   16.8640360671

- q-position: [    0.0858586,    0.0000000,    0.0000000 ]
  distance:    0.0301748
  band:
  - # 1
    frequency:    0.5328425342
  - # 2
    frequency:    1.1926981490
  - # 3
    frequency:    1.8795337981
  - # 4
    frequency:    3.5049058278
  - # 5
    frequency:    3.8108511474
  - # 6
    frequency:    5.1465210642
  - # 7
    frequency:    5.2072599433
  - # 8
    frequency:    5.5922004155
  - # 9
    frequency:    6.7748676217
  - # 10
    frequency:    7.0194109520
  - # 11
    frequency:   10.2542050431
  - # 12
    frequency:   12.8751163248
  - # 13
    frequency:   16.6370040270
  - # 14
    frequency:   16.7078172533
  - # 15
    frequency:   16.8785190366

- q-position: [    0.0909091,    0.0000000,    0.0000000 ]
  distance:    0.0319497
  band:
  - # 1
    frequency:    0.5902731758
  - # 2
    frequency:    1.2606533988
  - # 3
    frequency:    1.9850078728
  - # 4
    frequency:    3.5157478591
  - # 5
    frequency:    3.8511221510
  - # 6
    frequency:    5.1397483650
  - # 7
    frequency:    5.1953864817
  - # 8
    frequency:    5.6137277760
  - # 9
    frequency:    6.7838284958
  - # 10
    frequency:    7.0502359719
  - # 11
    frequency:   10.2414904869
  - # 12
    frequency:   12.8373661134
  - # 13
    frequency:   16.6523371771
  - # 14
    frequency:   16.7088285522
  - # 15
    frequency:   16.8979391580

- q-position: [    0.0959596,    0.0000000,    0.0000000 ]
  distance:    0.0337247
  band:
  - # 1
    frequency:    0.6495582972
  - # 2
    frequency:    1.3282244251
  - # 3
    frequency:    2.0895674871
  - # 4
    frequency:    3.5270948699
  - # 5
    frequency:    3.8921862769
  - # 6
    frequency:    5.1327804831
  - # 7
    frequency:    5.1826919760
  - # 8
    frequency:    5.6374206297
  - # 9
    frequency:    6.7929219117
  - # 10
    frequency:    7.0813089201
  - # 11
    frequency:   10.2282557250
  - # 12
    frequency:   12.7980593172
  - # 13
    frequency:   16.6676001904
  - # 14
    frequency:   16.7057149779
  - # 15
    frequency:   16.9211131851

- q-position: [    0.1010101,    0.0000000,    0.0000000 ]
  distance:    0.0354997
  band:
  - # 1
    frequency:    0.7105531497
  - # 2
    frequency:    1.3953865063
  - # 3
    frequency:    2.1931512173
  - # 4
    frequency:    3.5389270217
  - # 5
    frequency:    3.9338813506
  - # 6
    frequency:    5.1256450521
  - # 7
    frequency:    5.1694733685
  - # 8
    frequency:    5.6630134129
  - # 9
    frequency:    6.8021014944
  - # 10
    frequency:    7.1125229730
  - # 11
    frequency:   10.2145271457
  - # 12
    frequency:   12.7572868633
  - # 13
    frequency:   16.6826766144
  - # 14
    frequency:   16.6995378975
  - # 15
    frequency:   16.9467828977

- q-position: [    0.1060606,    0.0000000,    0.0000000 ]
  distance:    0.0372747
  band:
  - # 1
    frequency:    0.7731179898
  - # 2
    frequency:    1.4621139518
  - # 3
    frequency:    2.2956964715
  - # 4
    frequency:    3.5512232815
  - # 5
    frequency:    3.9760472206
  - # 6
    frequency:    5.1183703158
  - # 7
    frequency:    5.1559930359
  - # 8
    frequency:    5.6902719105
  - # 9
    frequency:    6.8113220705
  - # 10
    frequency:    7.1437808993
  - # 11
    frequency:   10.2003310422
  - # 12
    frequency:   12.7151421529
  - # 13
    frequency:   16.6911292849
  - # 14
    frequency:   16.6974533857
  - # 15
    frequency:   16.9739226094

- q-position: [    0.1111111,    0.0000000,    0.0000000 ]
  distance:    0.0390497
  band:
  - # 1
    frequency:    0.8371179756
  - # 2
    frequency:    1.5283800097
  - # 3
    frequency:    2.3971395605
  - # 4
    frequency:    3.5639614097
  - # 5
    frequency:    4.0185247215
  - # 6
    frequency:    5.1109850844
  - # 7
    frequency:    5.1424829498
  - # 8
    frequency:    5.7189911111
  - # 9
    frequency:    6.8205399981
  - # 10
    frequency:    7.1749944481
  - # 11
    frequency:   10.1856935426
  - # 12
    frequency:   12.6717206928
  - # 13
    frequency:   16.6810658663
  - # 14
    frequency:   16.7118218771
  - # 15
    frequency:   17.0017664809

- q-position: [    0.1161616,    0.0000000,    0.0000000 ]
  distance:    0.0408247
  band:
  - # 1
    frequency:    0.9024229752
  - # 2
    frequency:    1.5941567858
  - # 3
    frequency:    2.4974157846
  - # 4
    frequency:    3.5771179409
  - # 5
    frequency:    4.0611543275
  - # 6
    frequency:    5.1035187092
  - # 7
    frequency:    5.1291512000
  - # 8
    frequency:    5.7489908314
  - # 9
    frequency:    6.8297134685
  - # 10
    frequency:    7.2060837548
  - # 11
    frequency:   10.1706405585
  - # 12
    frequency:   12.6271197151
  - # 13
    frequency:   16.6697339002
  - # 14
    frequency:   16.7256788983
  - # 15
    frequency:   17.0297451395

- q-position: [    0.1212121,    0.0000000,    0.0000000 ]
  distance:    0.0425997
  band:
  - # 1
    frequency:    0.9689073124
  - # 2
    frequency:    1.6594151782
  - # 3
    frequency:    2.5964595341
  - # 4
    frequency:    3.5906681569
  - # 5
    frequency:    4.1037744812
  - # 6
    frequency:    5.0960010772
  - # 7
    frequency:    5.1161890787
  - # 8
    frequency:    5.7801109467
  - # 9
    frequency:    6.8388027784
  - # 10
    frequency:    7.2369767723
  - # 11
    frequency:   10.1551977487
  - # 12
    frequency:   12.5814377875
  - # 13
    frequency:   16.6573940028
  - # 14
    frequency:   16.7389276430
  - # 15
    frequency:   17.0574221838

- q-position: [    0.1262626,    0.0000000,    0.0000000 ]
  distance:    0.0443746
  band:
  - # 1
    frequency:    1.0364494729
  - # 2
    frequency:    1.7241248303
  - # 3
    frequency:    2.6942044015
  - # 4
    frequency:    3.6045860486
  - # 5
    frequency:    4.1462195819
  - # 6
    frequency:    5.0884626253
  - # 7
    frequency:    5.1037779718
  - # 8
    frequency:    5.8122070273
  - # 9
    frequency:    6.8477705716
  - # 10
    frequency:    7.2676087307
  - # 11
    frequency:   10.1393904974
  - # 12
    frequency:   12.5347744147
  - # 13
    frequency:   16.6442267297
  - # 14
    frequency:   16.7514785736
  - # 15
    frequency:   17.0844498581

- q-position: [    0.1313131,    0.0000000,    0.0000000 ]
  distance:    0.0461496
  band:
  - # 1
    frequency:    1.1049317858
  - # 2
    frequency:    1.7882541037
  - # 3
    frequency:    2.7905833002
  - # 4
    frequency:    3.6188442654
  - # 5
    frequency:    4.1883176257
  - # 6
    frequency:    5.0809343769
  - # 7
    frequency:    5.0920958323
  - # 8
    frequency:    5.8451466340
  - # 9
    frequency:    6.8565820485
  - # 10
    frequency:    7.2979216269
  - # 11
    frequency:   10.1232439023
  - # 12
    frequency:   12.4872296363
  - # 13
    frequency:   16.6303615445
  - # 14
    frequency:   16.7632502376
  - # 15
    frequency:   17.1105412585

- q-position: [    0.1363636,    0.0000000,    0.0000000 ]
  distance:    0.0479246
  band:
  - # 1
    frequency:    1.1742400953
  - # 2
    frequency:    1.8517700750
  - # 3
    frequency:    2.8855285845
  - # 4
    frequency:    3.6334140497
  - # 5
    frequency:    4.2298875256
  - # 6
    frequency:    5.0734479997
  - # 7
    frequency:    5.0813232276
  - # 8
    frequency:    5.8788062854
  - # 9
    frequency:    6.8652051440
  - # 10
    frequency:    7.3278637433
  - # 11
    frequency:   10.1067827711
  - # 12
    frequency:   12.4389036218
  - # 13
    frequency:   16.6158947499
  - # 14
    frequency:   16.7741700089
  - # 15
    frequency:   17.1354534869

- q-position: [    0.1414141,    0.0000000,    0.0000000 ]
  distance:    0.0496996
  band:
  - # 1
    frequency:    1.2442634289
  - # 2
    frequency:    1.9146385583
  - # 3
    frequency:    2.9789721635
  - # 4
    frequency:    3.6482651545
  - # 5
    frequency:    4.2707362096
  - # 6
    frequency:    5.0660358848
  - # 7
    frequency:    5.0716489715
  - # 8
    frequency:    5.9130690123
  - # 9
    frequency:    6.8736106725
  - # 10
    frequency:    7.3573891939
  - # 11
    frequency:   10.0900316213
  - # 12
    frequency:   12.3898962678
  - # 13
    frequency:   16.6009006198
  - # 14
    frequency:   16.7841747491
  - # 15
    frequency:   17.1589775151

- q-position: [    0.1464646,    0.0000000,    0.0000000 ]
  distance:    0.0514746
  band:
  - # 1
    frequency:    1.3148936716
  - # 2
    frequency:    1.9768241543
  - # 3
    frequency:    3.0708455981
  - # 4
    frequency:    3.6633657436
  - # 5
    frequency:    4.3106557312
  - # 6
    frequency:    5.0587312466
  - # 7
    frequency:    5.0632752369
  - # 8
    frequency:    5.9478223984
  - # 9
    frequency:    6.8817724413
  - # 10
    frequency:    7.3864574962
  - # 11
    frequency:   10.0730146801
  - # 12
    frequency:   12.3403067991
  - # 13
    frequency:   16.5854384131
  - # 14
    frequency:   16.7932113833
  - # 15
    frequency:   17.1809320678

- q-position: [    0.1515152,    0.0000000,    0.0000000 ]
  distance:    0.0532496
  band:
  - # 1
    frequency:    1.3860252496
  - # 2
    frequency:    2.0382903288
  - # 3
    frequency:    3.1610801679
  - # 4
    frequency:    3.6786822731
  - # 5
    frequency:    4.3494208609
  - # 6
    frequency:    5.0515682409
  - # 7
    frequency:    5.0564218070
  - # 8
    frequency:    5.9829570115
  - # 9
    frequency:    6.8896673320
  - # 10
    frequency:    7.4150331674
  - # 11
    frequency:   10.0557558801
  - # 12
    frequency:   12.2902333791
  - # 13
    frequency:   16.5695568832
  - # 14
    frequency:   16.8012373868
  - # 15
    frequency:   17.2011599115

- q-position: [    0.1565657,    0.0000000,    0.0000000 ]
  distance:    0.0550246
  band:
  - # 1
    frequency:    1.4575548269
  - # 2
    frequency:    2.0989995212
  - # 3
    frequency:    3.2496068905
  - # 4
    frequency:    3.6941793541
  - # 5
    frequency:    4.3867879858
  - # 6
    frequency:    5.0445820991
  - # 7
    frequency:    5.0513287437
  - # 8
    frequency:    6.0183651506
  - # 9
    frequency:    6.8972753512
  - # 10
    frequency:    7.4430853425
  - # 11
    frequency:   10.0382788459
  - # 12
    frequency:   12.2397727325
  - # 13
    frequency:   16.5532972390
  - # 14
    frequency:   16.8082211787
  - # 15
    frequency:   17.2195255877

- q-position: [    0.1616162,    0.0000000,    0.0000000 ]
  distance:    0.0567996
  band:
  - # 1
    frequency:    1.5293810157
  - # 2
    frequency:    2.1589132828
  - # 3
    frequency:    3.3363564695
  - # 4
    frequency:    3.7098195984
  - # 5
    frequency:    4.4224966408
  - # 6
    frequency:    5.0378092741
  - # 7
    frequency:    5.0482562442
  - # 8
    frequency:    6.0539398539
  - # 9
    frequency:    6.9045796512
  - # 10
    frequency:    7.4705874117
  - # 11
    frequency:   10.0206068688
  - # 12
    frequency:   12.1890197833
  - # 13
    frequency:   16.5366951348
  - # 14
    frequency:   16.8141424208
  - # 15
    frequency:   17.2359140121

- q-position: [    0.1666667,    0.0000000,    0.0000000 ]
  distance:    0.0585745
  band:
  - # 1
    frequency:    1.6014041042
  - # 2
    frequency:    2.2179924465
  - # 3
    frequency:    3.4212591421
  - # 4
    frequency:    3.7255634503
  - # 5
    frequency:    4.4562755196
  - # 6
    frequency:    5.0312875931
  - # 7
    frequency:    5.0474799171
  - # 8
    frequency:    6.0895741277
  - # 9
    frequency:    6.9115665221
  - # 10
    frequency:    7.4975166760
  - # 11
    frequency:   10.0027628641
  - # 12
    frequency:   12.1380673140
  - # 13
    frequency:   16.5197820351
  - # 14
    frequency:   16.8189922177
  - # 15
    frequency:   17.2502295885

- q-position: [    0.1717172,    0.0000000,    0.0000000 ]
  distance:    0.0603495
  band:
  - # 1
    frequency:    1.6735257992
  - # 2
    frequency:    2.2761973254
  - # 3
    frequency:    3.5042443845
  - # 4
    frequency:    3.7413690072
  - # 5
    frequency:    4.4878551113
  - # 6
    frequency:    5.0250564104
  - # 7
    frequency:    5.0492794087
  - # 8
    frequency:    6.1251603754
  - # 9
    frequency:    6.9182253565
  - # 10
    frequency:    7.5238540175
  - # 11
    frequency:    9.9847693077
  - # 12
    frequency:   12.0870056478
  - # 13
    frequency:   16.5025861744
  - # 14
    frequency:   16.8227732182
  - # 15
    frequency:   17.2623956189

- q-position: [    0.1767677,    0.0000000,    0.0000000 ]
  distance:    0.0621245
  band:
  - # 1
    frequency:    1.7456489868
  - # 2
    frequency:    2.3334879405
  - # 3
    frequency:    3.5852404229
  - # 4
    frequency:    3.7571918377
  - # 5
    frequency:    4.5169886289
  - # 6
    frequency:    5.0191567517
  - # 7
    frequency:    5.0539187883
  - # 8
    frequency:    6.1605900104
  - # 9
    frequency:    6.9245485892
  - # 10
    frequency:    7.5495835801
  - # 11
    frequency:    9.9666481505
  - # 12
    frequency:   12.0359223575
  - # 13
    frequency:   16.4851332474
  - # 14
    frequency:   16.8254996165
  - # 15
    frequency:   17.2723538691

- q-position: [    0.1818182,    0.0000000,    0.0000000 ]
  distance:    0.0638995
  band:
  - # 1
    frequency:    1.8176775095
  - # 2
    frequency:    2.3898242745
  - # 3
    frequency:    3.6641734780
  - # 4
    frequency:    3.7729848048
  - # 5
    frequency:    4.5434810101
  - # 6
    frequency:    5.0136314390
  - # 7
    frequency:    5.0616189987
  - # 8
    frequency:    6.1957532523
  - # 9
    frequency:    6.9305316122
  - # 10
    frequency:    7.5746924601
  - # 11
    frequency:    9.9484207065
  - # 12
    frequency:   11.9849020051
  - # 13
    frequency:   16.4674469196
  - # 14
    frequency:   16.8271970524
  - # 15
    frequency:   17.2800642000

- q-position: [    0.1868687,    0.0000000,    0.0000000 ]
  distance:    0.0656745
  band:
  - # 1
    frequency:    1.8895159621
  - # 2
    frequency:    2.4451665489
  - # 3
    frequency:    3.7409666443
  - # 4
    frequency:    3.7886979076
  - # 5
    frequency:    4.5672222976
  - # 6
    frequency:    5.0085251838
  - # 7
    frequency:    5.0725261680
  - # 8
    frequency:    6.2305391056
  - # 9
    frequency:    6.9361726681
  - # 10
    frequency:    7.5991703983
  - # 11
    frequency:    9.9301075158
  - # 12
    frequency:   11.9340259125
  - # 13
    frequency:   16.4495492153
  - # 14
    frequency:   16.8279024120
  - # 15
    frequency:   17.2855042053

- q-position: [    0.1919192,    0.0000000,    0.0000000 ]
  distance:    0.0674495
  band:
  - # 1
    frequency:    1.9610695047
  - # 2
    frequency:    2.4994755199
  - # 3
    frequency:    3.8042781548
  - # 4
    frequency:    3.8155382737
  - # 5
    frequency:    4.5882178148
  - # 6
    frequency:    5.0038846340
  - # 7
    frequency:    5.0866834997
  - # 8
    frequency:    6.2648355268
  - # 9
    frequency:    6.9414727241
  - # 10
    frequency:    7.6230094721
  - # 11
    frequency:    9.9117281816
  - # 12
    frequency:   11.8833719674
  - # 13
    frequency:   16.4314608243
  - # 14
    frequency:   16.8276635283
  - # 15
    frequency:   17.2886688135

- q-position: [    0.1969697,    0.0000000,    0.0000000 ]
  distance:    0.0692245
  band:
  - # 1
    frequency:    2.0322436985
  - # 2
    frequency:    2.5527127888
  - # 3
    frequency:    3.8196694912
  - # 4
    frequency:    3.8877996847
  - # 5
    frequency:    4.6066059203
  - # 6
    frequency:    4.9997583561
  - # 7
    frequency:    5.1040161334
  - # 8
    frequency:    6.2985297869
  - # 9
    frequency:    6.9464353273
  - # 10
    frequency:    7.6462037811
  - # 11
    frequency:    9.8933011835
  - # 12
    frequency:   11.8330144629
  - # 13
    frequency:   16.4132013516
  - # 14
    frequency:   16.8265387841
  - # 15
    frequency:   17.2895698288

- q-position: [    0.2020202,    0.0000000,    0.0000000 ]
  distance:    0.0709994
  band:
  - # 1
    frequency:    2.1029443622
  - # 2
    frequency:    2.6048411201
  - # 3
    frequency:    3.8348127959
  - # 4
    frequency:    3.9576519645
  - # 5
    frequency:    4.6226571750
  - # 6
    frequency:    4.9961967350
  - # 7
    frequency:    5.1243353714
  - # 8
    frequency:    6.3315090341
  - # 9
    frequency:    6.9510664448
  - # 10
    frequency:    7.6687491218
  - # 11
    frequency:    9.8748436724
  - # 12
    frequency:   11.7830239722
  - # 13
    frequency:   16.3947895307
  - # 14
    frequency:   16.8245966201
  - # 15
    frequency:   17.2882353892

- q-position: [    0.2070707,    0.0000000,    0.0000000 ]
  distance:    0.0727744
  band:
  - # 1
    frequency:    2.1730774566
  - # 2
    frequency:    2.6558247601
  - # 3
    frequency:    3.8496459789
  - # 4
    frequency:    4.0249815714
  - # 5
    frequency:    4.6367558202
  - # 6
    frequency:    4.9932517703
  - # 7
    frequency:    5.1473616581
  - # 8
    frequency:    6.3636610621
  - # 9
    frequency:    6.9553742910
  - # 10
    frequency:    7.6906426462
  - # 11
    frequency:    9.8563712509
  - # 12
    frequency:   11.7334672573
  - # 13
    frequency:   16.3762434119
  - # 14
    frequency:   16.8219149493
  - # 15
    frequency:   17.2847093312

- q-position: [    0.2121212,    0.0000000,    0.0000000 ]
  distance:    0.0745494
  band:
  - # 1
    frequency:    2.2425489988