nqpoint: 300    
npath: 3      
segment_nqpoint:
- 100
- 100
- 100
labels:
- [ 'G', 'M' ]
- [ 'M', 'K' ]
- [ 'K', 'G' ]
reciprocal_lattice:
- [   0.31670924,   0.18285217,   0.00000000 ] # a*
- [   0.00000000,   0.36570433,   0.00000000 ] # b*
- [   0.00000000,   0.00000000,   0.03970421 ] # c*
natom: 7      
lattice:
- [     3.157470198214763,     0.000000000000000,     0.000000000000000 ] # a
- [    -1.578735099107381,     2.734449403353735,     0.000000000000000 ] # b
- [     0.000000000000000,     0.000000000000000,    25.186242850409016 ] # c
points:
- symbol: C # 1
  coordinates: [  0.333332985432215,  0.666666983183674,  0.581169238859732 ]
  mass: 12.010700
- symbol: H # 2
  coordinates: [  0.666666984744047,  0.333332985985145,  0.357337934580181 ]
  mass: 1.007940
- symbol: N # 3
  coordinates: [  0.000000000000000,  0.000000000000000,  0.437373521814558 ]
  mass: 14.006700
- symbol: N # 4
  coordinates: [  0.333332985432215,  0.666666983183674,  0.531356178299129 ]
  mass: 14.006700
- symbol: S # 5
  coordinates: [  0.333332985432215,  0.666666983183674,  0.642662065419819 ]
  mass: 32.065000
- symbol: Ti # 6
  coordinates: [  0.333332985432215,  0.666666983183674,  0.395842890464958 ]
  mass: 47.867000
- symbol: Ti # 7
  coordinates: [  0.666666984744047,  0.333332985985145,  0.480330421749110 ]
  mass: 47.867000

phonon:
- q-position: [    0.0000000,    0.0000000,    0.0000000 ]
  distance:    0.0000000
  band:
  - # 1
    frequency:   -0.0000170885
  - # 2
    frequency:    0.0000002492
  - # 3
    frequency:    0.0000225484
  - # 4
    frequency:    1.1329072502
  - # 5
    frequency:    1.1329072504
  - # 6
    frequency:    5.0599052014
  - # 7
    frequency:    5.0599052014
  - # 8
    frequency:    7.0372987872
  - # 9
    frequency:    8.5919301215
  - # 10
    frequency:    8.5919301215
  - # 11
    frequency:   10.1842580718
  - # 12
    frequency:   13.6364834294
  - # 13
    frequency:   13.6364834294
  - # 14
    frequency:   16.2828936709
  - # 15
    frequency:   17.0187145667
  - # 16
    frequency:   17.0187145668
  - # 17
    frequency:   26.6772179235
  - # 18
    frequency:   26.6772179236
  - # 19
    frequency:   27.2261341127
  - # 20
    frequency:   29.1945945519
  - # 21
    frequency:   56.2224016269

- q-position: [    0.0050505,    0.0000000,    0.0000000 ]
  distance:    0.0018470
  band:
  - # 1
    frequency:    0.0031679170
  - # 2
    frequency:    0.0855446358
  - # 3
    frequency:    0.1511661780
  - # 4
    frequency:    1.1347799546
  - # 5
    frequency:    1.1400127158
  - # 6
    frequency:    5.0595546193
  - # 7
    frequency:    5.0603425554
  - # 8
    frequency:    7.0366863290
  - # 9
    frequency:    8.5917291485
  - # 10
    frequency:    8.5924471359
  - # 11
    frequency:   10.1838586287
  - # 12
    frequency:   13.6364780539
  - # 13
    frequency:   13.6368455275
  - # 14
    frequency:   16.2823183829
  - # 15
    frequency:   17.0184822044
  - # 16
    frequency:   17.0192708859
  - # 17
    frequency:   26.6774049014
  - # 18
    frequency:   26.6779347411
  - # 19
    frequency:   27.2259314924
  - # 20
    frequency:   29.1942124602
  - # 21
    frequency:   56.2218965488

- q-position: [    0.0101010,    0.0000000,    0.0000000 ]
  distance:    0.0036940
  band:
  - # 1
    frequency:    0.0125024317
  - # 2
    frequency:    0.1709958270
  - # 3
    frequency:    0.3016707169
  - # 4
    frequency:    1.1403841605
  - # 5
    frequency:    1.1611533995
  - # 6
    frequency:    5.0585030733
  - # 7
    frequency:    5.0616587580
  - # 8
    frequency:    7.0348519462
  - # 9
    frequency:    8.5911271656
  - # 10
    frequency:    8.5939935399
  - # 11
    frequency:   10.1826627498
  - # 12
    frequency:   13.6364621237
  - # 13
    frequency:   13.6379314603
  - # 14
    frequency:   16.2805946258
  - # 15
    frequency:   17.0177856467
  - # 16
    frequency:   17.0209343024
  - # 17
    frequency:   26.6779648095
  - # 18
    frequency:   26.6800838234
  - # 19
    frequency:   27.2253244809
  - # 20
    frequency:   29.1930671088
  - # 21
    frequency:   56.2203817620

- q-position: [    0.0151515,    0.0000000,    0.0000000 ]
  distance:    0.0055410
  band:
  - # 1
    frequency:    0.0275357654
  - # 2
    frequency:    0.2562579999
  - # 3
    frequency:    0.4507997145
  - # 4
    frequency:    1.1496793115
  - # 5
    frequency:    1.1958633159
  - # 6
    frequency:    5.0567511816
  - # 7
    frequency:    5.0638661336
  - # 8
    frequency:    7.0318046196
  - # 9
    frequency:    8.5901269741
  - # 10
    frequency:    8.5965554370
  - # 11
    frequency:   10.1806777793
  - # 12
    frequency:   13.6364362261
  - # 13
    frequency:   13.6397401410
  - # 14
    frequency:   16.2777286569
  - # 15
    frequency:   17.0166264736
  - # 16
    frequency:   17.0236883099
  - # 17
    frequency:   26.6788945766
  - # 18
    frequency:   26.6836610386
  - # 19
    frequency:   27.2243156365
  - # 20
    frequency:   29.1911612676
  - # 21
    frequency:   56.2178586088

- q-position: [    0.0202020,    0.0000000,    0.0000000 ]
  distance:    0.0073880
  band:
  - # 1
    frequency:    0.0476178307
  - # 2
    frequency:    0.3412311573
  - # 3
    frequency:    0.5977344262
  - # 4
    frequency:    1.1626016293
  - # 5
    frequency:    1.2435419767
  - # 6
    frequency:    5.0543000357
  - # 7
    frequency:    5.0669848999
  - # 8
    frequency:    7.0275593384
  - # 9
    frequency:    8.5887332204
  - # 10
    frequency:    8.6001097374
  - # 11
    frequency:   10.1779159334
  - # 12
    frequency:   13.6364013374
  - # 13
    frequency:   13.6422697467
  - # 14
    frequency:   16.2737306992
  - # 15
    frequency:   17.0150072930
  - # 16
    frequency:   17.0275057809
  - # 17
    frequency:   26.6801891000
  - # 18
    frequency:   26.6886594292
  - # 19
    frequency:   27.2229092560
  - # 20
    frequency:   29.1884995486
  - # 21
    frequency:   56.2143293255

- q-position: [    0.0252525,    0.0000000,    0.0000000 ]
  distance:    0.0092350
  band:
  - # 1
    frequency:    0.0720450237
  - # 2
    frequency:    0.4258082345
  - # 3
    frequency:    0.7415060915
  - # 4
    frequency:    1.1790696049
  - # 5
    frequency:    1.3036377579
  - # 6
    frequency:    5.0511512907
  - # 7
    frequency:    5.0710426893
  - # 8
    frequency:    7.0221371304
  - # 9
    frequency:    8.5869523618
  - # 10
    frequency:    8.6046242654
  - # 11
    frequency:   10.1743942638
  - # 12
    frequency:   13.6363588188
  - # 13
    frequency:   13.6455177038
  - # 14
    frequency:   16.2686146568
  - # 15
    frequency:   17.0129317037
  - # 16
    frequency:   17.0323495125
  - # 17
    frequency:   26.6818412697
  - # 18
    frequency:   26.6950691031
  - # 19
    frequency:   27.2211114281
  - # 20
    frequency:   29.1850883992
  - # 21
    frequency:   56.2097970416

- q-position: [    0.0303030,    0.0000000,    0.0000000 ]
  distance:    0.0110819
  band:
  - # 1
    frequency:    0.1001617663
  - # 2
    frequency:    0.5098719130
  - # 3
    frequency:    0.8809862830
  - # 4
    frequency:    1.1989912827
  - # 5
    frequency:    1.3757787300
  - # 6
    frequency:    5.0473072920
  - # 7
    frequency:    5.0760738919
  - # 8
    frequency:    7.0155651041
  - # 9
    frequency:    8.5847926194
  - # 10
    frequency:    8.6100579141
  - # 11
    frequency:   10.1701346037
  - # 12
    frequency:   13.6363104111
  - # 13
    frequency:   13.6494806667
  - # 14
    frequency:   16.2623977570
  - # 15
    frequency:   17.0104042429
  - # 16
    frequency:   17.0381729428
  - # 17
    frequency:   26.6838420025
  - # 18
    frequency:   26.7028770748
  - # 19
    frequency:   27.2189301153
  - # 20
    frequency:   29.1809360928
  - # 21
    frequency:   56.2042657784

- q-position: [    0.0353535,    0.0000000,    0.0000000 ]
  distance:    0.0129289
  band:
  - # 1
    frequency:    0.1314173453
  - # 2
    frequency:    0.5932906834
  - # 3
    frequency:    1.0149735720
  - # 4
    frequency:    1.2222730422
  - # 5
    frequency:    1.4597661924
  - # 6
    frequency:    5.0427712370
  - # 7
    frequency:    5.0821188307
  - # 8
    frequency:    7.0078765011
  - # 9
    frequency:    8.5822639176
  - # 10
    frequency:    8.6163608510
  - # 11
    frequency:   10.1651634972
  - # 12
    frequency:   13.6362582268
  - # 13
    frequency:   13.6541544935
  - # 14
    frequency:   16.2551001550
  - # 15
    frequency:   17.0074303202
  - # 16
    frequency:   17.0449209937
  - # 17
    frequency:   26.6861802843
  - # 18
    frequency:   26.7120670503
  - # 19
    frequency:   27.2163752725
  - # 20
    frequency:   29.1760527180
  - # 21
    frequency:   56.1977404471

- q-position: [    0.0404040,    0.0000000,    0.0000000 ]
  distance:    0.0147759
  band:
  - # 1
    frequency:    0.1653834511
  - # 2
    frequency:    0.6759139622
  - # 3
    frequency:    1.1424475864
  - # 4
    frequency:    1.2488295938
  - # 5
    frequency:    1.5553601800
  - # 6
    frequency:    5.0375473716
  - # 7
    frequency:    5.0892227860
  - # 8
    frequency:    6.9991107589
  - # 9
    frequency:    8.5793778104
  - # 10
    frequency:    8.6234747775
  - # 11
    frequency:   10.1595121063
  - # 12
    frequency:   13.6362047422
  - # 13
    frequency:   13.6595342181
  - # 14
    frequency:   16.2467445337
  - # 15
    frequency:   17.0040161380
  - # 16
    frequency:   17.0525310001
  - # 17
    frequency:   26.6888432227
  - # 18
    frequency:   26.7226191434
  - # 19
    frequency:   27.2134590165
  - # 20
    frequency:   29.1704501646
  - # 21
    frequency:   56.1902268469

- q-position: [    0.0454545,    0.0000000,    0.0000000 ]
  distance:    0.0166229
  band:
  - # 1
    frequency:    0.2017466248
  - # 2
    frequency:    0.7575661591
  - # 3
    frequency:    1.2629592888
  - # 4
    frequency:    1.2785948903
  - # 5
    frequency:    1.6618994598
  - # 6
    frequency:    5.0316412197
  - # 7
    frequency:    5.0974348872
  - # 8
    frequency:    6.9893135833
  - # 9
    frequency:    8.5761473958
  - # 10
    frequency:    8.6313332484
  - # 11
    frequency:   10.1532160948
  - # 12
    frequency:   13.6361527870
  - # 13
    frequency:   13.6656140217
  - # 14
    frequency:   16.2373557266
  - # 15
    frequency:   17.0001685989
  - # 16
    frequency:   17.0609336841
  - # 17
    frequency:   26.6918161073
  - # 18
    frequency:   26.7345095079
  - # 19
    frequency:   27.2101958641
  - # 20
    frequency:   29.1641421086
  - # 21
    frequency:   56.1817316618

- q-position: [    0.0505051,    0.0000000,    0.0000000 ]
  distance:    0.0184699
  band:
  - # 1
    frequency:    0.2402889148
  - # 2
    frequency:    0.8380398738
  - # 3
    frequency:    1.3115334749
  - # 4
    frequency:    1.3769070568
  - # 5
    frequency:    1.7780186907
  - # 6
    frequency:    5.0250598453
  - # 7
    frequency:    5.1068068938
  - # 8
    frequency:    6.9785370305
  - # 9
    frequency:    8.5725872167
  - # 10
    frequency:    8.6398620583
  - # 11
    frequency:   10.1463154817
  - # 12
    frequency:   13.6361055324
  - # 13
    frequency:   13.6723872033
  - # 14
    frequency:   16.2269603884
  - # 15
    frequency:   16.9958952017
  - # 16
    frequency:   17.0700541413
  - # 17
    frequency:   26.6950824788
  - # 18
    frequency:   26.7477098566
  - # 19
    frequency:   27.2066030694
  - # 20
    frequency:   29.1571439957
  - # 21
    frequency:   56.1722624582

- q-position: [    0.0555556,    0.0000000,    0.0000000 ]
  distance:    0.0203169
  band:
  - # 1
    frequency:    0.2808656107
  - # 2
    frequency:    0.9170890549
  - # 3
    frequency:    1.3476512423
  - # 4
    frequency:    1.4854175429
  - # 5
    frequency:    1.9017528271
  - # 6
    frequency:    5.0178121449
  - # 7
    frequency:    5.1173918901
  - # 8
    frequency:    6.9668396006
  - # 9
    frequency:    8.5687131516
  - # 10
    frequency:    8.6489796998
  - # 11
    frequency:   10.1388544607
  - # 12
    frequency:   13.6360664786
  - # 13
    frequency:   13.6798461519
  - # 14
    frequency:   16.2155867249
  - # 15
    frequency:   16.9912039267
  - # 16
    frequency:   17.0798128136
  - # 17
    frequency:   26.6986242060
  - # 18
    frequency:   26.7621868271
  - # 19
    frequency:   27.2027011044
  - # 20
    frequency:   29.1494730237
  - # 21
    frequency:   56.1618276809

- q-position: [    0.0606061,    0.0000000,    0.0000000 ]
  distance:    0.0221639
  band:
  - # 1
    frequency:    0.3233847230
  - # 2
    frequency:    0.9944242752
  - # 3
    frequency:    1.3870033705
  - # 4
    frequency:    1.5899076157
  - # 5
    frequency:    2.0309579506
  - # 6
    frequency:    5.0099091678
  - # 7
    frequency:    5.1292429228
  - # 8
    frequency:    6.9542863423
  - # 9
    frequency:    8.5645422925
  - # 10
    frequency:    8.6585979021
  - # 11
    frequency:   10.1308811757
  - # 12
    frequency:   13.6360394400
  - # 13
    frequency:   13.6879823212
  - # 14
    frequency:   16.2032642890
  - # 15
    frequency:   16.9861031105
  - # 16
    frequency:   17.0901264288
  - # 17
    frequency:   26.7024215707
  - # 18
    frequency:   26.7779011267
  - # 19
    frequency:   27.1985143516
  - # 20
    frequency:   29.1411481246
  - # 21
    frequency:   56.1504366491

- q-position: [    0.0656566,    0.0000000,    0.0000000 ]
  distance:    0.0240109
  band:
  - # 1
    frequency:    0.3677900346
  - # 2
    frequency:    1.0697144640
  - # 3
    frequency:    1.4296950717
  - # 4
    frequency:    1.6916753257
  - # 5
    frequency:    2.1637034505
  - # 6
    frequency:    5.0013644629
  - # 7
    frequency:    5.1424116080
  - # 8
    frequency:    6.9409489710
  - # 9
    frequency:    8.5600928139
  - # 10
    frequency:    8.6686222587
  - # 11
    frequency:   10.1224474454
  - # 12
    frequency:   13.6360285295
  - # 13
    frequency:   13.6967862075
  - # 14
    frequency:   16.1900238419
  - # 15
    frequency:   16.9806013136
  - # 16
    frequency:   17.1009088962
  - # 17
    frequency:   26.7064533588
  - # 18
    frequency:   26.7948063530
  - # 19
    frequency:   27.1940721161
  - # 20
    frequency:   29.1321899464
  - # 21
    frequency:   56.1380995525

- q-position: [    0.0707071,    0.0000000,    0.0000000 ]
  distance:    0.0258579
  band:
  - # 1
    frequency:    0.4140480001
  - # 2
    frequency:    1.1426020705
  - # 3
    frequency:    1.4758682370
  - # 4
    frequency:    1.7917140468
  - # 5
    frequency:    2.2984426638
  - # 6
    frequency:    4.9921944474
  - # 7
    frequency:    5.1569467435
  - # 8
    frequency:    6.9269060023
  - # 9
    frequency:    8.5553838309
  - # 10
    frequency:    8.6789529521
  - # 11
    frequency:   10.1136084251
  - # 12
    frequency:   13.6360381417
  - # 13
    frequency:   13.7062473312
  - # 14
    frequency:   16.1758972729
  - # 15
    frequency:   16.9747071812
  - # 16
    frequency:   17.1120721518
  - # 17
    frequency:   26.7106969586
  - # 18
    frequency:   26.8128473173
  - # 19
    frequency:   27.1894101337
  - # 20
    frequency:   29.1226208360
  - # 21
    frequency:   56.1248274458

- q-position: [    0.0757576,    0.0000000,    0.0000000 ]
  distance:    0.0277049
  band:
  - # 1
    frequency:    0.4621380694
  - # 2
    frequency:    1.2127394587
  - # 3
    frequency:    1.5256662535
  - # 4
    frequency:    1.8907052358
  - # 5
    frequency:    2.4340069192
  - # 6
    frequency:    4.9824187946
  - # 7
    frequency:    5.1728929575
  - # 8
    frequency:    6.9122429026
  - # 9
    frequency:    8.5504352500
  - # 10
    frequency:    8.6894855865
  - # 11
    frequency:   10.1044221947
  - # 12
    frequency:   13.6360729341
  - # 13
    frequency:   13.7163542241
  - # 14
    frequency:   16.1609175686
  - # 15
    frequency:   16.9684292979
  - # 16
    frequency:   17.1235269503
  - # 17
    frequency:   26.7151284651
  - # 18
    frequency:   26.8319575862
  - # 19
    frequency:   27.1845728598
  - # 20
    frequency:   29.1124648222
  - # 21
    frequency:   56.1106322433

- q-position: [    0.0808081,    0.0000000,    0.0000000 ]
  distance:    0.0295519
  band:
  - # 1
    frequency:    0.5120457858
  - # 2
    frequency:    1.2798486810
  - # 3
    frequency:    1.5791749452
  - # 4
    frequency:    1.9890837463
  - # 5
    frequency:    2.5695290158
  - # 6
    frequency:    4.9720608361
  - # 7
    frequency:    5.1902894298
  - # 8
    frequency:    6.8970522573
  - # 9
    frequency:    8.5452676111
  - # 10
    frequency:    8.7001121358
  - # 11
    frequency:   10.0949492603
  - # 12
    frequency:   13.6361378080
  - # 13
    frequency:   13.7270944205
  - # 14
    frequency:   16.1451188215
  - # 15
    frequency:   16.9617760410
  - # 16
    frequency:   17.1351836029
  - # 17
    frequency:   26.7197227895
  - # 18
    frequency:   26.8520557603
  - # 19
    frequency:   27.1796170274
  - # 20
    frequency:   29.1017476016
  - # 21
    frequency:   56.0955267134

- q-position: [    0.0858586,    0.0000000,    0.0000000 ]
  distance:    0.0313989
  band:
  - # 1
    frequency:    0.5637580135
  - # 2
    frequency:    1.3437912558
  - # 3
    frequency:    1.6363531100
  - # 4
    frequency:    2.0871108696
  - # 5
    frequency:    2.7043607417
  - # 6
    frequency:    4.9611479736
  - # 7
    frequency:    5.2091687237
  - # 8
    frequency:    6.8814339571
  - # 9
    frequency:    8.5399019246
  - # 10
    frequency:    8.7107220196
  - # 11
    frequency:   10.0852519570
  - # 12
    frequency:   13.6362378872
  - # 13
    frequency:   13.7384544533
  - # 14
    frequency:   16.1285362652
  - # 15
    frequency:   16.9547554305
  - # 16
    frequency:   17.1469526633
  - # 17
    frequency:   26.7244537733
  - # 18
    frequency:   26.8730396476
  - # 19
    frequency:   27.1746173153
  - # 20
    frequency:   29.0904965259
  - # 21
    frequency:   56.0795244714

- q-position: [    0.0909091,    0.0000000,    0.0000000 ]
  distance:    0.0332458
  band:
  - # 1
    frequency:    0.6172597437
  - # 2
    frequency:    1.4046168716
  - # 3
    frequency:    1.6969838219
  - # 4
    frequency:    2.1849325649
  - # 5
    frequency:    2.8380066966
  - # 6
    frequency:    4.9497120936
  - # 7
    frequency:    5.2295557652
  - # 8
    frequency:    6.8654954013
  - # 9
    frequency:    8.5343595028
  - # 10
    frequency:    8.7212033112
  - # 11
    frequency:   10.0753937419
  - # 12
    frequency:   13.6363784960
  - # 13
    frequency:   13.7504198549
  - # 14
    frequency:   16.1112063282
  - # 15
    frequency:   16.9473749812
  - # 16
    frequency:   17.1587455608
  - # 17
    frequency:   26.7292943077
  - # 18
    frequency:   26.8947768440
  - # 19
    frequency:   27.1696756196
  - # 20
    frequency:   29.0787405928
  - # 21
    frequency:   56.0626399730

- q-position: [    0.0959596,    0.0000000,    0.0000000 ]
  distance:    0.0350928
  band:
  - # 1
    frequency:    0.6725320398
  - # 2
    frequency:    1.4625606824
  - # 3
    frequency:    1.7606769140
  - # 4
    frequency:    2.2826204012
  - # 5
    frequency:    2.9700766172
  - # 6
    frequency:    4.9377899796
  - # 7
    frequency:    5.2514670102
  - # 8
    frequency:    6.8493517117
  - # 9
    frequency:    8.5286617884
  - # 10
    frequency:    8.7314440847
  - # 11
    frequency:   10.0654383683
  - # 12
    frequency:   13.6365651361
  - # 13
    frequency:   13.7629751615
  - # 14
    frequency:   16.0931666945
  - # 15
    frequency:   16.9396415572
  - # 16
    frequency:   17.1704751839
  - # 17
    frequency:   26.7342164550
  - # 18
    frequency:   26.9170890350
  - # 19
    frequency:   27.1649366156
  - # 20
    frequency:   29.0665104398
  - # 21
    frequency:   56.0448885062

- q-position: [    0.1010101,    0.0000000,    0.0000000 ]
  distance:    0.0369398
  band:
  - # 1
    frequency:    0.7295507907
  - # 2
    frequency:    1.5179872700
  - # 3
    frequency:    1.8269246352
  - # 4
    frequency:    2.3801987917
  - # 5
    frequency:    3.1002523757
  - # 6
    frequency:    4.9254237138
  - # 7
    frequency:    5.2749098416
  - # 8
    frequency:    6.8331259503
  - # 9
    frequency:    8.5228301816
  - # 10
    frequency:    8.7413339000
  - # 11
    frequency:   10.0554489368
  - # 12
    frequency:   13.6368034617
  - # 13
    frequency:   13.7761039212
  - # 14
    frequency:   16.0744563660
  - # 15
    frequency:   16.9315612312
  - # 16
    frequency:   17.1820564133
  - # 17
    frequency:   26.7391915748
  - # 18
    frequency:   26.9397252109
  - # 19
    frequency:   27.1606144205
  - # 20
    frequency:   29.0538383435
  - # 21
    frequency:   56.0262861832

- q-position: [    0.1060606,    0.0000000,    0.0000000 ]
  distance:    0.0387868
  band:
  - # 1
    frequency:    0.7882860268
  - # 2
    frequency:    1.5713111934
  - # 3
    frequency:    1.8951806116
  - # 4
    frequency:    2.4776626631
  - # 5
    frequency:    3.2282652931
  - # 6
    frequency:    4.9126610603
  - # 7
    frequency:    5.2998822365
  - # 8
    frequency:    6.8169493251
  - # 9
    frequency:    8.5168858674
  - # 10
    frequency:    8.7507654205
  - # 11
    frequency:   10.0454868266
  - # 12
    frequency:   13.6370992542
  - # 13
    frequency:   13.7897887033
  - # 14
    frequency:   16.0551157178
  - # 15
    frequency:   16.9231391516
  - # 16
    frequency:   17.1934066064
  - # 17
    frequency:   26.7441904511
  - # 18
    frequency:   26.9623156498
  - # 19
    frequency:   27.1570385035
  - # 20
    frequency:   29.0407582221
  - # 21
    frequency:   56.0068499316

- q-position: [    0.1111111,    0.0000000,    0.0000000 ]
  distance:    0.0406338
  band:
  - # 1
    frequency:    0.8487016205
  - # 2
    frequency:    1.6229293526
  - # 3
    frequency:    1.9649269300
  - # 4
    frequency:    2.5749887999
  - # 5
    frequency:    3.3538803508
  - # 6
    frequency:    4.8995558203
  - # 7
    frequency:    5.3263727500
  - # 8
    frequency:    6.8009613619
  - # 9
    frequency:    8.5108496441
  - # 10
    frequency:    8.7596361468
  - # 11
    frequency:   10.0356105162
  - # 12
    frequency:   13.6374583951
  - # 13
    frequency:   13.8040111105
  - # 14
    frequency:   16.0351865443
  - # 15
    frequency:   16.9143794181
  - # 16
    frequency:   17.2044460329
  - # 17
    frequency:   26.7491834225
  - # 18
    frequency:   26.9842956660
  - # 19
    frequency:   27.1547298499
  - # 20
    frequency:   29.0273056446
  - # 21
    frequency:   55.9865974846

- q-position: [    0.1161616,    0.0000000,    0.0000000 ]
  distance:    0.0424808
  band:
  - # 1
    frequency:    0.9107552442
  - # 2
    frequency:    1.6731819433
  - # 3
    frequency:    2.0357125962
  - # 4
    frequency:    2.6721430957
  - # 5
    frequency:    3.4768849249
  - # 6
    frequency:    4.8861681516
  - # 7
    frequency:    5.3543608566
  - # 8
    frequency:    6.7853100126
  - # 9
    frequency:    8.5047417570
  - # 10
    frequency:    8.7678502401
  - # 11
    frequency:   10.0258743175
  - # 12
    frequency:   13.6378868382
  - # 13
    frequency:   13.8187517899
  - # 14
    frequency:   16.0147120901
  - # 15
    frequency:   16.9052849701
  - # 16
    frequency:   17.2150982616
  - # 17
    frequency:   26.7541405129
  - # 18
    frequency:   27.0047976384
  - # 19
    frequency:   27.1545088617
  - # 20
    frequency:   29.0135178448
  - # 21
    frequency:   55.9655473706

- q-position: [    0.1212121,    0.0000000,    0.0000000 ]
  distance:    0.0443278
  band:
  - # 1
    frequency:    0.9743984964
  - # 2
    frequency:    1.7223396323
  - # 3
    frequency:    2.1071657637
  - # 4
    frequency:    2.7690851765
  - # 5
    frequency:    3.5970804763
  - # 6
    frequency:    4.8725648399
  - # 7
    frequency:    5.3838176911
  - # 8
    frequency:    6.7701516529
  - # 9
    frequency:    8.4985817367
  - # 10
    frequency:    8.7753203992
  - # 11
    frequency:   10.0163270556
  - # 12
    frequency:   13.6383905804
  - # 13
    frequency:   13.8339904444
  - # 14
    frequency:   15.9937370641
  - # 15
    frequency:   16.8958574880
  - # 16
    frequency:   17.2252905004
  - # 17
    frequency:   26.7590315624
  - # 18
    frequency:   27.0225751598
  - # 19
    frequency:   27.1575711590
  - # 20
    frequency:   28.9994337420
  - # 21
    frequency:   55.9437189029

- q-position: [    0.1262626,    0.0000000,    0.0000000 ]
  distance:    0.0461748
  band:
  - # 1
    frequency:    1.0395771293
  - # 2
    frequency:    1.7706068584
  - # 3
    frequency:    2.1789898412
  - # 4
    frequency:    2.8657713375
  - # 5
    frequency:    3.7142761906
  - # 6
    frequency:    4.8588195129
  - # 7
    frequency:    5.4147072221
  - # 8
    frequency:    6.7556509152
  - # 9
    frequency:    8.4923882451
  - # 10
    frequency:    8.7819697356
  - # 11
    frequency:   10.0070107413
  - # 12
    frequency:   13.6389756320
  - # 13
    frequency:   13.8497058423
  - # 14
    frequency:   15.9723076354
  - # 15
    frequency:   16.8860973103
  - # 16
    frequency:   17.2349538889
  - # 17
    frequency:   26.7638263598
  - # 18
    frequency:   27.0361948409
  - # 19
    frequency:   27.1652957469
  - # 20
    frequency:   28.9850939667
  - # 21
    frequency:   55.9211321673

- q-position: [    0.1313131,    0.0000000,    0.0000000 ]
  distance:    0.0480218
  band:
  - # 1
    frequency:    1.1062313355
  - # 2
    frequency:    1.8181321204
  - # 3
    frequency:    2.2509526318
  - # 4
    frequency:    2.9621563944
  - # 5
    frequency:    3.8282839507
  - # 6
    frequency:    4.8450127845
  - # 7
    frequency:    5.4469878764
  - # 8
    frequency:    6.7419802788
  - # 9
    frequency:    8.4861789313
  - # 10
    frequency:    8.7877335883
  - # 11
    frequency:    9.9979592954
  - # 12
    frequency:   13.6396479855
  - # 13
    frequency:   13.8658758248
  - # 14
    frequency:   15.9504714076
  - # 15
    frequency:   16.8760033685
  - # 16
    frequency:   17.2440237460
  - # 17
    frequency:   26.7684947729
  - # 18
    frequency:   27.0447352719
  - # 19
    frequency:   27.1785460451
  - # 20
    frequency:   28.9705408929
  - # 21
    frequency:   55.8978080102

- q-position: [    0.1363636,    0.0000000,    0.0000000 ]
  distance:    0.0498688
  band:
  - # 1
    frequency:    1.1742960584
  - # 2
    frequency:    1.8650196937
  - # 3
    frequency:    2.3228740682
  - # 4
    frequency:    3.0581948337
  - # 5
    frequency:    3.9389142976
  - # 6
    frequency:    4.8312323198
  - # 7
    frequency:    5.4806146038
  - # 8
    frequency:    6.7293193295
  - # 9
    frequency:    8.4799702977
  - # 10
    frequency:    8.7925612014
  - # 11
    frequency:    9.9891973916
  - # 12
    frequency:   13.6404135839
  - # 13
    frequency:   13.8824773100
  - # 14
    frequency:   15.9282773736
  - # 15
    frequency:   16.8655731415
  - # 16
    frequency:   17.2524397726
  - # 17
    frequency:   26.7730068791
  - # 18
    frequency:   27.0484436050
  - # 19
    frequency:   27.1970133195
  - # 20
    frequency:   28.9558186741
  - # 21
    frequency:   55.8737680251

- q-position: [    0.1414141,    0.0000000,    0.0000000 ]
  distance:    0.0517158
  band:
  - # 1
    frequency:    1.2437013053
  - # 2
    frequency:    1.9113402137
  - # 3
    frequency:    2.3946151106
  - # 4
    frequency:    3.1538415097
  - # 5
    frequency:    4.0459732459
  - # 6
    frequency:    4.8175728061
  - # 7
    frequency:    5.5155413239
  - # 8
    frequency:    6.7178535800
  - # 9
    frequency:    8.4737775787
  - # 10
    frequency:    8.7964171904
  - # 11
    frequency:    9.9807394891
  - # 12
    frequency:   13.6412782886
  - # 13
    frequency:   13.8994862947
  - # 14
    frequency:   15.9057758468
  - # 15
    frequency:   16.8548026299
  - # 16
    frequency:   17.2601462140
  - # 17
    frequency:   26.7773330934
  - # 18
    frequency:   27.0484292188
  - # 19
    frequency:   27.2195230538
  - # 20
    frequency:   28.9409732839
  - # 21
    frequency:   55.8490345388

- q-position: [    0.1464646,    0.0000000,    0.0000000 ]
  distance:    0.0535628
  band:
  - # 1
    frequency:    1.3143724446
  - # 2
    frequency:    1.9571393107
  - # 3
    frequency:    2.4660686259
  - # 4
    frequency:    3.2490520463
  - # 5
    frequency:    4.1492599982
  - # 6
    frequency:    4.8041358211
  - # 7
    frequency:    5.5517236222
  - # 8
    frequency:    6.7077727399
  - # 9
    frequency:    8.4676146329
  - # 10
    frequency:    8.7992827189
  - # 11
    frequency:    9.9725891256
  - # 12
    frequency:   13.6422478459
  - # 13
    frequency:   13.9168778518
  - # 14
    frequency:   15.8830183712
  - # 15
    frequency:   16.8436863525
  - # 16
    frequency:   17.2670919819
  - # 17
    frequency:   26.7814442956
  - # 18
    frequency:   27.0458816160
  - # 19
    frequency:   27.2448171110
  - # 20
    frequency:   28.9260525569
  - # 21
    frequency:   55.8236305967

- q-position: [    0.1515152,    0.0000000,    0.0000000 ]
  distance:    0.0554097
  band:
  - # 1
    frequency:    1.3862304762
  - # 2
    frequency:    2.0024442971
  - # 3
    frequency:    2.5371522500
  - # 4
    frequency:    3.3437830497
  - # 5
    frequency:    4.2485657658
  - # 6
    frequency:    4.7910295858
  - # 7
    frequency:    5.5891214590
  - # 8
    frequency:    6.6992683247
  - # 9
    frequency:    8.4614938503
  - # 10
    frequency:    8.8011563196
  - # 11
    frequency:    9.9647385312
  - # 12
    frequency:   13.6433278539
  - # 13
    frequency:   13.9346261247
  - # 14
    frequency:   15.8600576084
  - # 15
    frequency:   16.8322173661
  - # 16
    frequency:   17.2732307409
  - # 17
    frequency:   26.7853119539
  - # 18
    frequency:   27.0416888294
  - # 19
    frequency:   27.2719354124
  - # 20
    frequency:   28.9111062280
  - # 21
    frequency:   55.7975799471
