nqpoint: 300    
npath: 3      
segment_nqpoint:
- 100
- 100
- 100
labels:
- [ 'G', 'M' ]
- [ 'M', 'K' ]
- [ 'K', 'G' ]
reciprocal_lattice:
- [   0.29846557,   0.17231918,   0.00000000 ] # a*
- [   0.00000000,   0.34463836,   0.00000000 ] # b*
- [   0.00000000,   0.00000000,   0.03936682 ] # c*
natom: 7      
lattice:
- [     3.350470158678458,     0.000000000000000,     0.000000000000000 ] # a
- [    -1.675235079339229,     2.901592272030186,     0.000000000000000 ] # b
- [     0.000000000000000,     0.000000000000000,    25.402103871941002 ] # c
points:
- symbol: C # 1
  coordinates: [  0.000000000000000,  0.000000000000000,  0.443618427589268 ]
  mass: 12.010700
- symbol: C # 2
  coordinates: [  0.333332985432215,  0.666666983183674,  0.598258075092889 ]
  mass: 12.010700
- symbol: H # 3
  coordinates: [  0.666666984744047,  0.333332985985145,  0.354301362019913 ]
  mass: 1.007940
- symbol: N # 4
  coordinates: [  0.333332985432215,  0.666666983183674,  0.549190519079908 ]
  mass: 14.006700
- symbol: O # 5
  coordinates: [  0.333332985432215,  0.666666983183674,  0.645698637980087 ]
  mass: 15.999400
- symbol: Zr # 6
  coordinates: [  0.333332985432215,  0.666666983183674,  0.393794874656167 ]
  mass: 91.224000
- symbol: Zr # 7
  coordinates: [  0.666666984744047,  0.333332985985145,  0.491846430318186 ]
  mass: 91.224000

phonon:
- q-position: [    0.0000000,    0.0000000,    0.0000000 ]
  distance:    0.0000000
  band:
  - # 1
    frequency:   -0.0000169036
  - # 2
    frequency:   -0.0000000928
  - # 3
    frequency:    0.0000144243
  - # 4
    frequency:    1.2527408979
  - # 5
    frequency:    1.2527408979
  - # 6
    frequency:    4.9332690957
  - # 7
    frequency:    4.9332690957
  - # 8
    frequency:    6.2308061024
  - # 9
    frequency:    6.5131543609
  - # 10
    frequency:    6.5131543609
  - # 11
    frequency:    9.0826561285
  - # 12
    frequency:   16.4893378059
  - # 13
    frequency:   17.0273656027
  - # 14
    frequency:   17.0273656027
  - # 15
    frequency:   17.4625020121
  - # 16
    frequency:   17.4625020121
  - # 17
    frequency:   26.9366537185
  - # 18
    frequency:   30.2099860314
  - # 19
    frequency:   30.2099860315
  - # 20
    frequency:   38.4449206018
  - # 21
    frequency:   69.0402578713

- q-position: [    0.0050505,    0.0000000,    0.0000000 ]
  distance:    0.0017406
  band:
  - # 1
    frequency:    0.0015441036
  - # 2
    frequency:    0.0473869400
  - # 3
    frequency:    0.1107315774
  - # 4
    frequency:    1.2521259244
  - # 5
    frequency:    1.2539626002
  - # 6
    frequency:    4.9333063353
  - # 7
    frequency:    4.9341498006
  - # 8
    frequency:    6.2294060167
  - # 9
    frequency:    6.5133957638
  - # 10
    frequency:    6.5151211104
  - # 11
    frequency:    9.0820952917
  - # 12
    frequency:   16.4888744761
  - # 13
    frequency:   17.0274542130
  - # 14
    frequency:   17.0275652300
  - # 15
    frequency:   17.4621375734
  - # 16
    frequency:   17.4623426357
  - # 17
    frequency:   26.9360264245
  - # 18
    frequency:   30.2091302230
  - # 19
    frequency:   30.2092097822
  - # 20
    frequency:   38.4449096392
  - # 21
    frequency:   69.0390973961

- q-position: [    0.0101010,    0.0000000,    0.0000000 ]
  distance:    0.0034812
  band:
  - # 1
    frequency:    0.0061715803
  - # 2
    frequency:    0.0948637765
  - # 3
    frequency:    0.2212481225
  - # 4
    frequency:    1.2502829764
  - # 5
    frequency:    1.2576515331
  - # 6
    frequency:    4.9334183361
  - # 7
    frequency:    4.9367866255
  - # 8
    frequency:    6.2253274176
  - # 9
    frequency:    6.5141198140
  - # 10
    frequency:    6.5208999965
  - # 11
    frequency:    9.0804138443
  - # 12
    frequency:   16.4874859930
  - # 13
    frequency:   17.0277189988
  - # 14
    frequency:   17.0281622794
  - # 15
    frequency:   17.4610457464
  - # 16
    frequency:   17.4618656840
  - # 17
    frequency:   26.9341471636
  - # 18
    frequency:   30.2065643950
  - # 19
    frequency:   30.2068831051
  - # 20
    frequency:   38.4448767906
  - # 21
    frequency:   69.0356181295

- q-position: [    0.0151515,    0.0000000,    0.0000000 ]
  distance:    0.0052218
  band:
  - # 1
    frequency:    0.0138676562
  - # 2
    frequency:    0.1425192749
  - # 3
    frequency:    0.3313110617
  - # 4
    frequency:    1.2472180454
  - # 5
    frequency:    1.2638844580
  - # 6
    frequency:    4.9336059507
  - # 7
    frequency:    4.9411637611
  - # 8
    frequency:    6.2188972678
  - # 9
    frequency:    6.5153260280
  - # 10
    frequency:    6.5301649375
  - # 11
    frequency:    9.0776149707
  - # 12
    frequency:   16.4851768645
  - # 13
    frequency:   17.0281568111
  - # 14
    frequency:   17.0291512379
  - # 15
    frequency:   17.4592310145
  - # 16
    frequency:   17.4610747184
  - # 17
    frequency:   26.9310237800
  - # 18
    frequency:   30.2022933474
  - # 19
    frequency:   30.2030122052
  - # 20
    frequency:   38.4448221743
  - # 21
    frequency:   69.0298265425

- q-position: [    0.0202020,    0.0000000,    0.0000000 ]
  distance:    0.0069624
  band:
  - # 1
    frequency:    0.0246081953
  - # 2
    frequency:    0.1904398844
  - # 3
    frequency:    0.4406293915
  - # 4
    frequency:    1.2429413731
  - # 5
    frequency:    1.2728083233
  - # 6
    frequency:    4.9338706231
  - # 7
    frequency:    4.9472550558
  - # 8
    frequency:    6.2105587413
  - # 9
    frequency:    6.5170135711
  - # 10
    frequency:    6.5424742017
  - # 11
    frequency:    9.0737039625
  - # 12
    frequency:   16.4819545676
  - # 13
    frequency:   17.0287623523
  - # 14
    frequency:   17.0305228650
  - # 15
    frequency:   17.4567009050
  - # 16
    frequency:   17.4599757706
  - # 17
    frequency:   26.9266692823
  - # 18
    frequency:   30.1963251070
  - # 19
    frequency:   30.1976073996
  - # 20
    frequency:   38.4447459871
  - # 21
    frequency:   69.0217334012

- q-position: [    0.0252525,    0.0000000,    0.0000000 ]
  distance:    0.0087030
  band:
  - # 1
    frequency:    0.0383602460
  - # 2
    frequency:    0.2387084604
  - # 3
    frequency:    0.5488184089
  - # 4
    frequency:    1.2374678752
  - # 5
    frequency:    1.2846741367
  - # 6
    frequency:    4.9342144212
  - # 7
    frequency:    4.9550243058
  - # 8
    frequency:    6.2007801751
  - # 9
    frequency:    6.5191812151
  - # 10
    frequency:    6.5573614198
  - # 11
    frequency:    9.0686881946
  - # 12
    frequency:   16.4778294951
  - # 13
    frequency:   17.0295281016
  - # 14
    frequency:   17.0322641137
  - # 15
    frequency:   17.4534660723
  - # 16
    frequency:   17.4585774866
  - # 17
    frequency:   26.9211017477
  - # 18
    frequency:   30.1886709677
  - # 19
    frequency:   30.1906830810
  - # 20
    frequency:   38.4446485033
  - # 21
    frequency:   69.0113537383

- q-position: [    0.0303030,    0.0000000,    0.0000000 ]
  distance:    0.0104436
  band:
  - # 1
    frequency:    0.0550827823
  - # 2
    frequency:    0.2874028026
  - # 3
    frequency:    0.6553354322
  - # 4
    frequency:    1.2308178247
  - # 5
    frequency:    1.2998966221
  - # 6
    frequency:    4.9346400810
  - # 7
    frequency:    4.9644256521
  - # 8
    frequency:    6.1899941341
  - # 9
    frequency:    6.5218272806
  - # 10
    frequency:    6.5743964714
  - # 11
    frequency:    9.0625770923
  - # 12
    frequency:   16.4728148810
  - # 13
    frequency:   17.0304442056
  - # 14
    frequency:   17.0343580194
  - # 15
    frequency:   17.4495404192
  - # 16
    frequency:   17.4568913265
  - # 17
    frequency:   26.9143441880
  - # 18
    frequency:   30.1793455442
  - # 19
    frequency:   30.1822576664
  - # 20
    frequency:   38.4445300748
  - # 21
    frequency:   68.9987068129

- q-position: [    0.0353535,    0.0000000,    0.0000000 ]
  distance:    0.0121842
  band:
  - # 1
    frequency:    0.0747275355
  - # 2
    frequency:    0.3365938884
  - # 3
    frequency:    0.7593766838
  - # 4
    frequency:    1.2230179123
  - # 5
    frequency:    1.3191545411
  - # 6
    frequency:    4.9351510597
  - # 7
    frequency:    4.9754040717
  - # 8
    frequency:    6.1785704230
  - # 9
    frequency:    6.5249495649
  - # 10
    frequency:    6.5932124150
  - # 11
    frequency:    9.0553820902
  - # 12
    frequency:   16.4669267071
  - # 13
    frequency:   17.0314983329
  - # 14
    frequency:   17.0367835552
  - # 15
    frequency:   17.4449412592
  - # 16
    frequency:   17.4549318211
  - # 17
    frequency:   26.9064243811
  - # 18
    frequency:   30.1683668393
  - # 19
    frequency:   30.1723535318
  - # 20
    frequency:   38.4443911292
  - # 21
    frequency:   68.9838160600

- q-position: [    0.0404040,    0.0000000,    0.0000000 ]
  distance:    0.0139248
  band:
  - # 1
    frequency:    0.0972398560
  - # 2
    frequency:    0.3863435919
  - # 3
    frequency:    0.8597181840
  - # 4
    frequency:    1.2141028884
  - # 5
    frequency:    1.3435482039
  - # 6
    frequency:    4.9357515954
  - # 7
    frequency:    4.9878959546
  - # 8
    frequency:    6.1668121808
  - # 9
    frequency:    6.5285452586
  - # 10
    frequency:    6.6135093288
  - # 11
    frequency:    9.0471165821
  - # 12
    frequency:   16.4601835915
  - # 13
    frequency:   17.0326754852
  - # 14
    frequency:   17.0395154543
  - # 15
    frequency:   17.4396895247
  - # 16
    frequency:   17.4527168811
  - # 17
    frequency:   26.8973746672
  - # 18
    frequency:   30.1557563214
  - # 19
    frequency:   30.1609969330
  - # 20
    frequency:   38.4442321693
  - # 21
    frequency:   68.9667090280

- q-position: [    0.0454545,    0.0000000,    0.0000000 ]
  distance:    0.0156654
  band:
  - # 1
    frequency:    0.1225595502
  - # 2
    frequency:    0.4367015308
  - # 3
    frequency:    0.9545125435
  - # 4
    frequency:    1.2041181426
  - # 5
    frequency:    1.3748018508
  - # 6
    frequency:    4.9364467697
  - # 7
    frequency:    5.0018297540
  - # 8
    frequency:    6.1549631995
  - # 9
    frequency:    6.5326108513
  - # 10
    frequency:    6.6350469229
  - # 11
    frequency:    9.0377958635
  - # 12
    frequency:   16.4526066597
  - # 13
    frequency:   17.0339577612
  - # 14
    frequency:   17.0425240009
  - # 15
    frequency:   17.4338100276
  - # 16
    frequency:   17.4502681566
  - # 17
    frequency:   26.8872317138
  - # 18
    frequency:   30.1415390112
  - # 19
    frequency:   30.1482179119
  - # 20
    frequency:   38.4440537712
  - # 21
    frequency:   68.9474173059

- q-position: [    0.0505051,    0.0000000,    0.0000000 ]
  distance:    0.0174060
  band:
  - # 1
    frequency:    0.1506216531
  - # 2
    frequency:    0.4877003941
  - # 3
    frequency:    1.0411917645
  - # 4
    frequency:    1.1931238659
  - # 5
    frequency:    1.4153605070
  - # 6
    frequency:    4.9372425716
  - # 7
    frequency:    5.0171266957
  - # 8
    frequency:    6.1432187577
  - # 9
    frequency:    6.5371420302
  - # 10
    frequency:    6.6576336366
  - # 11
    frequency:    9.0274370674
  - # 12
    frequency:   16.4442194011
  - # 13
    frequency:   17.0353240654
  - # 14
    frequency:   17.0457747925
  - # 15
    frequency:   17.4273317794
  - # 16
    frequency:   17.4476114387
  - # 17
    frequency:   26.8760362506
  - # 18
    frequency:   30.1257435746
  - # 19
    frequency:   30.1340501907
  - # 20
    frequency:   38.4438565828
  - # 21
    frequency:   68.9259764397

- q-position: [    0.0555556,    0.0000000,    0.0000000 ]
  distance:    0.0191466
  band:
  - # 1
    frequency:    0.1813571096
  - # 2
    frequency:    0.5393485401
  - # 3
    frequency:    1.1169313995
  - # 4
    frequency:    1.1812020092
  - # 5
    frequency:    1.4679257580
  - # 6
    frequency:    4.9381459567
  - # 7
    frequency:    5.0337015389
  - # 8
    frequency:    6.1317361935
  - # 9
    frequency:    6.5421335739
  - # 10
    frequency:    6.6811159953
  - # 11
    frequency:    9.0160590931
  - # 12
    frequency:   16.4350475113
  - # 13
    frequency:   17.0367497544
  - # 14
    frequency:   17.0492284821
  - # 15
    frequency:   17.4202883781
  - # 16
    frequency:   17.4447770955
  - # 17
    frequency:   26.8638327774
  - # 18
    frequency:   30.1084024185
  - # 19
    frequency:   30.1185310523
  - # 20
    frequency:   38.4436413219
  - # 21
    frequency:   68.9024258384

- q-position: [    0.0606061,    0.0000000,    0.0000000 ]
  distance:    0.0208872
  band:
  - # 1
    frequency:    0.2146933529
  - # 2
    frequency:    0.5916174710
  - # 3
    frequency:    1.1684684274
  - # 4
    frequency:    1.1800752124
  - # 5
    frequency:    1.5340311684
  - # 6
    frequency:    4.9391649010
  - # 7
    frequency:    5.0514633755
  - # 8
    frequency:    6.1206438369
  - # 9
    frequency:    6.5475792437
  - # 10
    frequency:    6.7053696127
  - # 11
    frequency:    9.0036825298
  - # 12
    frequency:   16.4251187237
  - # 13
    frequency:   17.0382062130
  - # 14
    frequency:   17.0528405118
  - # 15
    frequency:   17.4127184696
  - # 16
    frequency:   17.4418005238
  - # 17
    frequency:   26.8506692466
  - # 18
    frequency:   30.0895517877
  - # 19
    frequency:   30.1017012079
  - # 20
    frequency:   38.4434087737
  - # 21
    frequency:   68.8768086694

- q-position: [    0.0656566,    0.0000000,    0.0000000 ]
  distance:    0.0226278
  band:
  - # 1
    frequency:    0.2505547762
  - # 2
    frequency:    0.6444192074
  - # 3
    frequency:    1.1550951919
  - # 4
    frequency:    1.2314661786
  - # 5
    frequency:    1.6127114204
  - # 6
    frequency:    4.9403084422
  - # 7
    frequency:    5.0703164639
  - # 8
    frequency:    6.1100480643
  - # 9
    frequency:    6.5534716758
  - # 10
    frequency:    6.7302920708
  - # 11
    frequency:    8.9903295759
  - # 12
    frequency:   16.4144626302
  - # 13
    frequency:   17.0396603553
  - # 14
    frequency:   17.0565608614
  - # 15
    frequency:   17.4046662910
  - # 16
    frequency:   17.4387225930
  - # 17
    frequency:   26.8365967247
  - # 18
    frequency:   30.0692318592
  - # 19
    frequency:   30.0836046539
  - # 20
    frequency:   38.4431597892
  - # 21
    frequency:   68.8491717447

- q-position: [    0.0707071,    0.0000000,    0.0000000 ]
  distance:    0.0243684
  band:
  - # 1
    frequency:    0.2888631027
  - # 2
    frequency:    0.6975625312
  - # 3
    frequency:    1.1413540998
  - # 4
    frequency:    1.2738812037
  - # 5
    frequency:    1.7010677382
  - # 6
    frequency:    4.9415867080
  - # 7
    frequency:    5.0901610903
  - # 8
    frequency:    6.1000386853
  - # 9
    frequency:    6.5598022772
  - # 10
    frequency:    6.7557974681
  - # 11
    frequency:    8.9760239537
  - # 12
    frequency:   16.4031104951
  - # 13
    frequency:   17.0410740457
  - # 14
    frequency:   17.0603338418
  - # 15
    frequency:   17.3961822956
  - # 16
    frequency:   17.4355900460
  - # 17
    frequency:   26.8216690340
  - # 18
    frequency:   30.0474868317
  - # 19
    frequency:   30.0642885159
  - # 20
    frequency:   38.4428952817
  - # 21
    frequency:   68.8195653971

- q-position: [    0.0757576,    0.0000000,    0.0000000 ]
  distance:    0.0261090
  band:
  - # 1
    frequency:    0.3295376634
  - # 2
    frequency:    0.7506620908
  - # 3
    frequency:    1.1277073900
  - # 4
    frequency:    1.3103424113
  - # 5
    frequency:    1.7959567181
  - # 6
    frequency:    4.9430109254
  - # 7
    frequency:    5.1108944584
  - # 8
    frequency:    6.0906929834
  - # 9
    frequency:    6.5665611276
  - # 10
    frequency:    6.7818123112
  - # 11
    frequency:    8.9607908218
  - # 12
    frequency:   16.3910950623
  - # 13
    frequency:   17.0424034480
  - # 14
    frequency:   17.0640979827
  - # 15
    frequency:   17.3873238577
  - # 16
    frequency:   17.4324558046
  - # 17
    frequency:   26.8059423780
  - # 18
    frequency:   30.0243650059
  - # 19
    frequency:   30.0438028828
  - # 20
    frequency:   38.4426162243
  - # 21
    frequency:   68.7880433470

- q-position: [    0.0808081,    0.0000000,    0.0000000 ]
  distance:    0.0278496
  band:
  - # 1
    frequency:    0.3724955900
  - # 2
    frequency:    0.8029357941
  - # 3
    frequency:    1.1150102421
  - # 4
    frequency:    1.3431605646
  - # 5
    frequency:    1.8949469852
  - # 6
    frequency:    4.9445934099
  - # 7
    frequency:    5.1324116101
  - # 8
    frequency:    6.0820787135
  - # 9
    frequency:    6.5737368906
  - # 10
    frequency:    6.8082724361
  - # 11
    frequency:    8.9446566859
  - # 12
    frequency:   16.3784503589
  - # 13
    frequency:   17.0435983179
  - # 14
    frequency:   17.0677860787
  - # 15
    frequency:   17.3781560370
  - # 16
    frequency:   17.4293791137
  - # 17
    frequency:   26.7894749538
  - # 18
    frequency:   29.9999188549
  - # 19
    frequency:   30.0222006308
  - # 20
    frequency:   38.4423236472
  - # 21
    frequency:   68.7546625608

- q-position: [    0.0858586,    0.0000000,    0.0000000 ]
  distance:    0.0295902
  band:
  - # 1
    frequency:    0.4176519333
  - # 2
    frequency:    0.8527324288
  - # 3
    frequency:    1.1049831226
  - # 4
    frequency:    1.3738596410
  - # 5
    frequency:    1.9963946548
  - # 6
    frequency:    4.9463475307
  - # 7
    frequency:    5.1546063840
  - # 8
    frequency:    6.0742563052
  - # 9
    frequency:    6.5813167366
  - # 10
    frequency:    6.8351207047
  - # 11
    frequency:    8.9276493084
  - # 12
    frequency:   16.3652114968
  - # 13
    frequency:   17.0446012813
  - # 14
    frequency:   17.0713254774
  - # 15
    frequency:   17.3687523612
  - # 16
    frequency:   17.4264254353
  - # 17
    frequency:   26.7723265534
  - # 18
    frequency:   29.9742050798
  - # 19
    frequency:   29.9995372368
  - # 20
    frequency:   38.4420186337
  - # 21
    frequency:   68.7194831009

- q-position: [    0.0909091,    0.0000000,    0.0000000 ]
  distance:    0.0313308
  band:
  - # 1
    frequency:    0.4649197130
  - # 2
    frequency:    0.8965168339
  - # 3
    frequency:    1.1012266567
  - # 4
    frequency:    1.4033956199
  - # 5
    frequency:    2.0992245421
  - # 6
    frequency:    4.9482876505
  - # 7
    frequency:    5.1773724209
  - # 8
    frequency:    6.0672804541
  - # 9
    frequency:    6.5892862782
  - # 10
    frequency:    6.8623052784
  - # 11
    frequency:    8.9097976189
  - # 12
    frequency:   16.3514144738
  - # 13
    frequency:   17.0453471731
  - # 14
    frequency:   17.0746387111
  - # 15
    frequency:   17.3591955530
  - # 16
    frequency:   17.4236659895
  - # 17
    frequency:   26.7545581571
  - # 18
    frequency:   29.9472846498
  - # 19
    frequency:   29.9758705844
  - # 20
    frequency:   38.4417023170
  - # 21
    frequency:   68.6825679670

- q-position: [    0.0959596,    0.0000000,    0.0000000 ]
  distance:    0.0330714
  band:
  - # 1
    frequency:    0.5142099024
  - # 2
    frequency:    0.9278631858
  - # 3
    frequency:    1.1102284700
  - # 4
    frequency:    1.4323654423
  - # 5
    frequency:    2.2027211744
  - # 6
    frequency:    4.9504290386
  - # 7
    frequency:    5.2006042320
  - # 8
    frequency:    6.0612012332
  - # 9
    frequency:    6.5976295224
  - # 10
    frequency:    6.8897783218
  - # 11
    frequency:    8.8911316256
  - # 12
    frequency:   16.3370959770
  - # 13
    frequency:   17.0457625634
  - # 14
    frequency:   17.0776445815
  - # 15
    frequency:   17.3495780715
  - # 16
    frequency:   17.4211768287
  - # 17
    frequency:   26.7362315216
  - # 18
    frequency:   29.9192228232
  - # 19
    frequency:   29.9512607608
  - # 20
    frequency:   38.4413758762
  - # 21
    frequency:   68.6439829306

- q-position: [    0.1010101,    0.0000000,    0.0000000 ]
  distance:    0.0348120
  band:
  - # 1
    frequency:    0.5654313477
  - # 2
    frequency:    0.9410105353
  - # 3
    frequency:    1.1378078695
  - # 4
    frequency:    1.4611475689
  - # 5
    frequency:    2.3063881920
  - # 6
    frequency:    4.9527877554
  - # 7
    frequency:    5.2241983432
  - # 8
    frequency:    6.0560648172
  - # 9
    frequency:    6.6063288380
  - # 10
    frequency:    6.9174950252
  - # 11
    frequency:    8.8716823305
  - # 12
    frequency:   16.3222931895
  - # 13
    frequency:   17.0457656637
  - # 14
    frequency:   17.0802597995
  - # 15
    frequency:   17.3400022771
  - # 16
    frequency:   17.4190373419
  - # 17
    frequency:   26.7174087659
  - # 18
    frequency:   29.8900891480
  - # 19
    frequency:   29.9257698474
  - # 20
    frequency:   38.4410405328
  - # 21
    frequency:   68.6037963624

- q-position: [    0.1060606,    0.0000000,    0.0000000 ]
  distance:    0.0365526
  band:
  - # 1
    frequency:    0.6184906182
  - # 2
    frequency:    0.9381665878
  - # 3
    frequency:    1.1818123799
  - # 4
    frequency:    1.4899877811
  - # 5
    frequency:    2.4098625136
  - # 6
    frequency:    4.9553805107
  - # 7
    frequency:    5.2480545323
  - # 8
    frequency:    6.0519138773
  - # 9
    frequency:    6.6153649423
  - # 10
    frequency:    6.9454128692
  - # 11
    frequency:    8.8514816480
  - # 12
    frequency:   16.3070436023
  - # 13
    frequency:   17.0452668854
  - # 14
    frequency:   17.0824012445
  - # 15
    frequency:   17.3305799435
  - # 16
    frequency:   17.4173281214
  - # 17
    frequency:   26.6981519562
  - # 18
    frequency:   29.8599574399
  - # 19
    frequency:   29.8994617025
  - # 20
    frequency:   38.4406975458
  - # 21
    frequency:   68.5620790527

- q-position: [    0.1111111,    0.0000000,    0.0000000 ]
  distance:    0.0382932
  band:
  - # 1
    frequency:    0.6732917793
  - # 2
    frequency:    0.9257460638
  - # 3
    frequency:    1.2358798100
  - # 4
    frequency:    1.5190505138
  - # 5
    frequency:    2.5128630027
  - # 6
    frequency:    4.9582244952
  - # 7
    frequency:    5.2720771726
  - # 8
    frequency:    6.0487876899
  - # 9
    frequency:    6.6247169048
  - # 10
    frequency:    6.9734910683
  - # 11
    frequency:    8.8305623291
  - # 12
    frequency:   16.2913848337
  - # 13
    frequency:   17.0441703924
  - # 14
    frequency:   17.0839888371
  - # 15
    frequency:   17.3214307776
  - # 16
    frequency:   17.4161281947
  - # 17
    frequency:   26.6785226938
  - # 18
    frequency:   29.8289057360
  - # 19
    frequency:   29.8724017401
  - # 20
    frequency:   38.4403482078
  - # 21
    frequency:   68.5189040263

- q-position: [    0.1161616,    0.0000000,    0.0000000 ]
  distance:    0.0400337
  band:
  - # 1
    frequency:    0.7297360743
  - # 2
    frequency:    0.9081387688
  - # 3
    frequency:    1.2956707328
  - # 4
    frequency:    1.5484498835
  - # 5
    frequency:    2.6151594991
  - # 6
    frequency:    4.9613371864
  - # 7
    frequency:    5.2961766908
  - # 8
    frequency:    6.0467219880
  - # 9
    frequency:    6.6343621704
  - # 10
    frequency:    7.0016901521
  - # 11
    frequency:    8.8089578931
  - # 12
    frequency:   16.2753544572
  - # 13
    frequency:   17.0423770107
  - # 14
    frequency:   17.0849489093
  - # 15
    frequency:   17.3126795791
  - # 16
    frequency:   17.4155117379
  - # 17
    frequency:   26.6585817076
  - # 18
    frequency:   29.7970162239
  - # 19
    frequency:   29.8446567030
  - # 20
    frequency:   38.4399938400
  - # 21
    frequency:   68.4743463517

- q-position: [    0.1212121,    0.0000000,    0.0000000 ]
  distance:    0.0417743
  band:
  - # 1
    frequency:    0.7877214959
  - # 2
    frequency:    0.8875433039
  - # 3
    frequency:    1.3590354627
  - # 4
    frequency:    1.5782689043
  - # 5
    frequency:    2.7165537601
  - # 6
    frequency:    4.9647361333
  - # 7
    frequency:    5.3202711360
  - # 8
    frequency:    6.0457485802
  - # 9
    frequency:    6.6442766008
  - # 10
    frequency:    7.0299716492
  - # 11
    frequency:    8.7867025675
  - # 12
    frequency:   16.2589898396
  - # 13
    frequency:   17.0397887747
  - # 14
    frequency:   17.0852178241
  - # 15
    frequency:   17.3044517615
  - # 16
    frequency:   17.4155445157
  - # 17
    frequency:   26.6383884537
  - # 18
    frequency:   29.7643751435
  - # 19
    frequency:   29.8162944320
  - # 20
    frequency:   38.4396357877
  - # 21
    frequency:   68.4284829453

- q-position: [    0.1262626,    0.0000000,    0.0000000 ]
  distance:    0.0435149
  band:
  - # 1
    frequency:    0.8471422218
  - # 2
    frequency:    0.8650623051
  - # 3
    frequency:    1.4249196615
  - # 4
    frequency:    1.6085717924
  - # 5
    frequency:    2.8168674560
  - # 6
    frequency:    4.9684387220
  - # 7
    frequency:    5.3442878430
  - # 8
    frequency:    6.0458947699
  - # 9
    frequency:    6.6544345329
  - # 10
    frequency:    7.0582978479
  - # 11
    frequency:    8.7638312388
  - # 12
    frequency:   16.2423279914
  - # 13
    frequency:   17.0363151330
  - # 14
    frequency:   17.0847454742
  - # 15
    frequency:   17.2968672077
  - # 16
    frequency:   17.4162804158
  - # 17
    frequency:   26.6180007245
  - # 18
    frequency:   29.7310726619
  - # 19
    frequency:   29.7873836325
  - # 20
    frequency:   38.4392754154
  - # 21
    frequency:   68.3813923723

- q-position: [    0.1313131,    0.0000000,    0.0000000 ]
  distance:    0.0452555
  band:
  - # 1
    frequency:    0.8413062155
  - # 2
    frequency:    0.9078878780
  - # 3
    frequency:    1.4927615885
  - # 4
    frequency:    1.6394121885
  - # 5
    frequency:    2.9159344452
  - # 6
    frequency:    4.9724619253
  - # 7
    frequency:    5.3681651498
  - # 8
    frequency:    6.0471826145
  - # 9
    frequency:    6.6648088554
  - # 10
    frequency:    7.0866316144
  - # 11
    frequency:    8.7403794157
  - # 12
    frequency:   16.2254054290
  - # 13
    frequency:   17.0318803936
  - # 14
    frequency:   17.0834982236
  - # 15
    frequency:   17.2900328808
  - # 16
    frequency:   17.4177585156
  - # 17
    frequency:   26.5974742698
  - # 18
    frequency:   29.6972027206
  - # 19
    frequency:   29.7579936390
  - # 20
    frequency:   38.4389141012
  - # 21
    frequency:   68.3331546427

- q-position: [    0.1363636,    0.0000000,    0.0000000 ]
  distance:    0.0469961
  band:
  - # 1
    frequency:    0.8166580688
  - # 2
    frequency:    0.9698425867
  - # 3
    frequency:    1.5622285387
  - # 4
    frequency:    1.6708389738
  - # 5
    frequency:    3.0135957233
  - # 6
    frequency:    4.9768220428
  - # 7
    frequency:    5.3918541065
  - # 8
    frequency:    6.0496280844
  - # 9
    frequency:    6.6753710997
  - # 10
    frequency:    7.1149362499
  - # 11
    frequency:    8.7163832071
  - # 12
    frequency:   16.2082580518
  - # 13
    frequency:   17.0264314346
  - # 14
    frequency:   17.0814608763
  - # 15
    frequency:   17.2840351585
  - # 16
    frequency:   17.4200010945
  - # 17
    frequency:   26.5768624330
  - # 18
    frequency:   29.6628628541
  - # 19
    frequency:   29.7281941782
  - # 20
    frequency:   38.4385532323
  - # 21
    frequency:   68.2838510051

- q-position: [    0.1414141,    0.0000000,    0.0000000 ]
  distance:    0.0487367
  band:
  - # 1
    frequency:    0.7913913205
  - # 2
    frequency:    1.0328837410
  - # 3
    frequency:    1.6331004566
  - # 4
    frequency:    1.7029007038
  - # 5
    frequency:    3.1096961051
  - # 6
    frequency:    4.9815344338
  - # 7
    frequency:    5.4153200810
  - # 8
    frequency:    6.0532401988
  - # 9
    frequency:    6.6860915460
  - # 10
    frequency:    7.1431753755
  - # 11
    frequency:    8.6918793183
  - # 12
    frequency:   16.1909210341
  - # 13
    frequency:   17.0199442792
  - # 14
    frequency:   17.0786373897
  - # 15
    frequency:   17.2789332935
  - # 16
    frequency:   17.4230128733
  - # 17
    frequency:   26.5562158040
  - # 18
    frequency:   29.6281539795
  - # 19
    frequency:   29.6980551326
  - # 20
    frequency:   38.4381941988
  - # 21
    frequency:   68.2335637383

- q-position: [    0.1464646,    0.0000000,    0.0000000 ]
  distance:    0.0504773
  band:
  - # 1
    frequency:    0.7657260829
  - # 2
    frequency:    1.0968804373
  - # 3
    frequency:    1.7052153897
  - # 4
    frequency:    1.7356493202
  - # 5
    frequency:    3.2040820839
  - # 6
    frequency:    4.9866132495
  - # 7
    frequency:    5.4385441416
  - # 8
    frequency:    6.0580202337
  - # 9
    frequency:    6.6969393419
  - # 10
    frequency:    7.1713128296
  - # 11
    frequency:    8.6669050673
  - # 12
    frequency:   16.1734287311
  - # 13
    frequency:   17.0124280938
  - # 14
    frequency:   17.0750502580
  - # 15
    frequency:   17.2747554372
  - # 16
    frequency:   17.4267815587
  - # 17
    frequency:   26.5355818924
  - # 18
    frequency:   29.5931801576
  - # 19
    frequency:   29.6676463039
  - # 20
    frequency:   38.4378383892
  - # 21
    frequency:   68.1823759408

- q-position: [    0.1515152,    0.0000000,    0.0000000 ]
  distance:    0.0522179
  band:
  - # 1
    frequency:    0.7398583211
  - # 2
    frequency:    1.1616914848
  - # 3
    frequency:    1.7691435871
  - # 4
    frequency:    1.7784422397
  - # 5
    frequency:    3.2966005395
  - # 6
    frequency:    4.9920711695
  - # 7
    frequency:    5.4615240741
  - # 8
    frequency:    6.0639611133
  - # 9
    frequency:    6.7078826319
  - # 10
    frequency:    7.1993125697
  - # 11
    frequency:    8.6414984259
  - # 12
    frequency:   16.1558146023
  - # 13
    frequency:   17.0039256729
  - # 14
    frequency:   17.0707387111
  - # 15
    frequency:   17.2714981599
  - # 16
    frequency:   17.4312795448
  - # 17
    frequency:   26.5150048234
  - # 18
    frequency:   29.5580483243
  - # 19
    frequency:   29.6370371791
  - # 20
    frequency:   38.4374871841
  - # 21
    frequency:   68.1303713194
