nqpoint: 300    
npath: 3      
segment_nqpoint:
- 100
- 100
- 100
labels:
- [ 'G', 'M' ]
- [ 'M', 'K' ]
- [ 'K', 'G' ]
reciprocal_lattice:
- [   0.29846557,   0.17231918,   0.00000000 ] # a*
- [   0.00000000,   0.34463836,   0.00000000 ] # b*
- [   0.00000000,   0.00000000,   0.03936682 ] # c*
natom: 7      
lattice:
- [     3.350470158678458,     0.000000000000000,     0.000000000000000 ] # a
- [    -1.675235079339229,     2.901592272030186,     0.000000000000000 ] # b
- [     0.000000000000000,     0.000000000000000,    25.402103871941002 ] # c
points:
- symbol: C # 1
  coordinates: [  0.000000000000000,  0.000000000000000,  0.443618427589268 ]
  mass: 12.010700
- symbol: C # 2
  coordinates: [  0.333332985432215,  0.666666983183674,  0.598258075092889 ]
  mass: 12.010700
- symbol: H # 3
  coordinates: [  0.666666984744047,  0.333332985985145,  0.354301362019913 ]
  mass: 1.007940
- symbol: N # 4
  coordinates: [  0.333332985432215,  0.666666983183674,  0.549190519079908 ]
  mass: 14.006700
- symbol: O # 5
  coordinates: [  0.333332985432215,  0.666666983183674,  0.645698637980087 ]
  mass: 15.999400
- symbol: Zr # 6
  coordinates: [  0.333332985432215,  0.666666983183674,  0.393794874656167 ]
  mass: 91.224000
- symbol: Zr # 7
  coordinates: [  0.666666984744047,  0.333332985985145,  0.491846430318186 ]
  mass: 91.224000

phonon:
- q-position: [    0.0000000,    0.0000000,    0.0000000 ]
  distance:    0.0000000
  band:
  - # 1
    frequency:   -1.0022902493
  - # 2
    frequency:   -1.0022902493
  - # 3
    frequency:   -0.0000023521
  - # 4
    frequency:   -0.0000002862
  - # 5
    frequency:    0.0000021483
  - # 6
    frequency:    4.8272798328
  - # 7
    frequency:    4.8272798328
  - # 8
    frequency:    6.2582194673
  - # 9
    frequency:    6.3318089309
  - # 10
    frequency:    6.3318089309
  - # 11
    frequency:    9.0266288834
  - # 12
    frequency:   16.4806505165
  - # 13
    frequency:   16.6496306489
  - # 14
    frequency:   16.6496306489
  - # 15
    frequency:   17.2480799596
  - # 16
    frequency:   17.2480799596
  - # 17
    frequency:   26.6873752932
  - # 18
    frequency:   28.5304478078
  - # 19
    frequency:   28.5304478078
  - # 20
    frequency:   38.4460195881
  - # 21
    frequency:   69.1927257160

- q-position: [    0.0050505,    0.0000000,    0.0000000 ]
  distance:    0.0017406
  band:
  - # 1
    frequency:   -1.0014775272
  - # 2
    frequency:   -1.0005990848
  - # 3
    frequency:   -0.2802525509
  - # 4
    frequency:    0.0828751916
  - # 5
    frequency:    0.3072564498
  - # 6
    frequency:    4.8275705344
  - # 7
    frequency:    4.8282514947
  - # 8
    frequency:    6.2556530700
  - # 9
    frequency:    6.3322712297
  - # 10
    frequency:    6.3354249295
  - # 11
    frequency:    9.0262859019
  - # 12
    frequency:   16.4802270303
  - # 13
    frequency:   16.6512520014
  - # 14
    frequency:   16.6512714988
  - # 15
    frequency:   17.2482577067
  - # 16
    frequency:   17.2484641975
  - # 17
    frequency:   26.6874554251
  - # 18
    frequency:   28.5307890478
  - # 19
    frequency:   28.5313441919
  - # 20
    frequency:   38.4460071724
  - # 21
    frequency:   69.1912072937

- q-position: [    0.0101010,    0.0000000,    0.0000000 ]
  distance:    0.0034812
  band:
  - # 1
    frequency:   -0.9990669222
  - # 2
    frequency:   -0.9955383407
  - # 3
    frequency:   -0.3781338966
  - # 4
    frequency:    0.1658558032
  - # 5
    frequency:    0.4544293765
  - # 6
    frequency:    4.8284415238
  - # 7
    frequency:    4.8311610288
  - # 8
    frequency:    6.2490704852
  - # 9
    frequency:    6.3336558847
  - # 10
    frequency:    6.3451514560
  - # 11
    frequency:    9.0252564074
  - # 12
    frequency:   16.4789603969
  - # 13
    frequency:   16.6560997458
  - # 14
    frequency:   16.6561768847
  - # 15
    frequency:   17.2487918318
  - # 16
    frequency:   17.2496158328
  - # 17
    frequency:   26.6876928558
  - # 18
    frequency:   28.5318103916
  - # 19
    frequency:   28.5340293475
  - # 20
    frequency:   38.4459699685
  - # 21
    frequency:   69.1866566508

- q-position: [    0.0151515,    0.0000000,    0.0000000 ]
  distance:    0.0052218
  band:
  - # 1
    frequency:   -0.9951367687
  - # 2
    frequency:   -0.9871445057
  - # 3
    frequency:   -0.4415228074
  - # 4
    frequency:    0.2490275410
  - # 5
    frequency:    0.5814518697
  - # 6
    frequency:    4.8298894560
  - # 7
    frequency:    4.8359921453
  - # 8
    frequency:    6.2403739460
  - # 9
    frequency:    6.3359562100
  - # 10
    frequency:    6.3590717841
  - # 11
    frequency:    9.0235387602
  - # 12
    frequency:   16.4768612377
  - # 13
    frequency:   16.6641250441
  - # 14
    frequency:   16.6642962925
  - # 15
    frequency:   17.2496850494
  - # 16
    frequency:   17.2515316588
  - # 17
    frequency:   26.6880787239
  - # 18
    frequency:   28.5335047258
  - # 19
    frequency:   28.5384913149
  - # 20
    frequency:   38.4459081060
  - # 21
    frequency:   69.1790876343

- q-position: [    0.0202020,    0.0000000,    0.0000000 ]
  distance:    0.0069624
  band:
  - # 1
    frequency:   -0.9898041483
  - # 2
    frequency:   -0.9754736326
  - # 3
    frequency:   -0.4855801915
  - # 4
    frequency:    0.3324406040
  - # 5
    frequency:    0.7005717865
  - # 6
    frequency:    4.8319087604
  - # 7
    frequency:    4.8427179062
  - # 8
    frequency:    6.2308206575
  - # 9
    frequency:    6.3391611862
  - # 10
    frequency:    6.3759048660
  - # 11
    frequency:    9.0211302613
  - # 12
    frequency:   16.4739449087
  - # 13
    frequency:   16.6752468329
  - # 14
    frequency:   16.6755482887
  - # 15
    frequency:   17.2509420970
  - # 16
    frequency:   17.2542064246
  - # 17
    frequency:   26.6885983760
  - # 18
    frequency:   28.5358602489
  - # 19
    frequency:   28.5447102592
  - # 20
    frequency:   38.4458218009
  - # 21
    frequency:   69.1685232398

- q-position: [    0.0252525,    0.0000000,    0.0000000 ]
  distance:    0.0087030
  band:
  - # 1
    frequency:   -0.9832079761
  - # 2
    frequency:   -0.9605975796
  - # 3
    frequency:   -0.5163358359
  - # 4
    frequency:    0.4161006833
  - # 5
    frequency:    0.8161459642
  - # 6
    frequency:    4.8344916493
  - # 7
    frequency:    4.8513010355
  - # 8
    frequency:    6.2210317999
  - # 9
    frequency:    6.3432556427
  - # 10
    frequency:    6.3949967855
  - # 11
    frequency:    9.0180272032
  - # 12
    frequency:   16.4702292916
  - # 13
    frequency:   16.6893523003
  - # 14
    frequency:   16.6898233375
  - # 15
    frequency:   17.2525700680
  - # 16
    frequency:   17.2576329739
  - # 17
    frequency:   26.6892315363
  - # 18
    frequency:   28.5388605502
  - # 19
    frequency:   28.5526586174
  - # 20
    frequency:   38.4457113559
  - # 21
    frequency:   69.1549954882

- q-position: [    0.0303030,    0.0000000,    0.0000000 ]
  distance:    0.0104436
  band:
  - # 1
    frequency:   -0.9754909337
  - # 2
    frequency:   -0.9426040989
  - # 3
    frequency:   -0.5367801247
  - # 4
    frequency:    0.4999678204
  - # 5
    frequency:    0.9301356216
  - # 6
    frequency:    4.8376281319
  - # 7
    frequency:    4.8616943395
  - # 8
    frequency:    6.2112899852
  - # 9
    frequency:    6.3482205009
  - # 10
    frequency:    6.4160239205
  - # 11
    frequency:    9.0142249393
  - # 12
    frequency:   16.4657332530
  - # 13
    frequency:   16.7062975100
  - # 14
    frequency:   16.7069861819
  - # 15
    frequency:   17.2545789051
  - # 16
    frequency:   17.2618024358
  - # 17
    frequency:   26.6899525433
  - # 18
    frequency:   28.5424847208
  - # 19
    frequency:   28.5623013005
  - # 20
    frequency:   38.4455771603
  - # 21
    frequency:   69.1385452542

- q-position: [    0.0353535,    0.0000000,    0.0000000 ]
  distance:    0.0121842
  band:
  - # 1
    frequency:   -0.9667838161
  - # 2
    frequency:   -0.9216034780
  - # 3
    frequency:   -0.5484253532
  - # 4
    frequency:    0.5839621976
  - # 5
    frequency:    1.0434935307
  - # 6
    frequency:    4.8413060361
  - # 7
    frequency:    4.8738412228
  - # 8
    frequency:    6.2017190743
  - # 9
    frequency:    6.3540330710
  - # 10
    frequency:    6.4388138859
  - # 11
    frequency:    9.0097179715
  - # 12
    frequency:   16.4604759653
  - # 13
    frequency:   16.7259081253
  - # 14
    frequency:   16.7268775789
  - # 15
    frequency:   17.2569820824
  - # 16
    frequency:   17.2667044656
  - # 17
    frequency:   26.6907306470
  - # 18
    frequency:   28.5467074941
  - # 19
    frequency:   28.5735959493
  - # 20
    frequency:   38.4454196901
  - # 21
    frequency:   69.1192220472

- q-position: [    0.0404040,    0.0000000,    0.0000000 ]
  distance:    0.0139248
  band:
  - # 1
    frequency:   -0.9571946706
  - # 2
    frequency:   -0.8977422677
  - # 3
    frequency:   -0.5518547066
  - # 4
    frequency:    0.6679744546
  - # 5
    frequency:    1.1566739599
  - # 6
    frequency:    4.8455110422
  - # 7
    frequency:    4.8876762856
  - # 8
    frequency:    6.1923704131
  - # 9
    frequency:    6.3606673912
  - # 10
    frequency:    6.4632601764
  - # 11
    frequency:    9.0045000549
  - # 12
    frequency:   16.4544768510
  - # 13
    frequency:   16.7479801752
  - # 14
    frequency:   16.7493156145
  - # 15
    frequency:   17.2597975149
  - # 16
    frequency:   17.2723275303
  - # 17
    frequency:   26.6915303644
  - # 18
    frequency:   28.5514994151
  - # 19
    frequency:   28.5864932397
  - # 20
    frequency:   38.4452395081
  - # 21
    frequency:   69.0970837474

- q-position: [    0.0454545,    0.0000000,    0.0000000 ]
  distance:    0.0156654
  band:
  - # 1
    frequency:   -0.9468034513
  - # 2
    frequency:   -0.8712200112
  - # 3
    frequency:   -0.5469254982
  - # 4
    frequency:    0.7518776078
  - # 5
    frequency:    1.2698634202
  - # 6
    frequency:    4.8502267294
  - # 7
    frequency:    4.9031259835
  - # 8
    frequency:    6.1832636731
  - # 9
    frequency:    6.3680945954
  - # 10
    frequency:    6.4892822993
  - # 11
    frequency:    8.9985643174
  - # 12
    frequency:   16.4477558076
  - # 13
    frequency:   16.7722807878
  - # 14
    frequency:   16.7740969226
  - # 15
    frequency:   17.2630487440
  - # 16
    frequency:   17.2786592365
  - # 17
    frequency:   26.6923118892
  - # 18
    frequency:   28.5568270369
  - # 19
    frequency:   28.6009372349
  - # 20
    frequency:   38.4450372635
  - # 21
    frequency:   69.0721962973

- q-position: [    0.0505051,    0.0000000,    0.0000000 ]
  distance:    0.0174060
  band:
  - # 1
    frequency:   -0.9356614543
  - # 2
    frequency:   -0.8422957436
  - # 3
    frequency:   -0.5328110281
  - # 4
    frequency:    0.8355381025
  - # 5
    frequency:    1.3830991310
  - # 6
    frequency:    4.8554346393
  - # 7
    frequency:    4.9201093338
  - # 8
    frequency:    6.1744068782
  - # 9
    frequency:    6.3762832999
  - # 10
    frequency:    6.5168067876
  - # 11
    frequency:    8.9919033928
  - # 12
    frequency:   16.4403334669
  - # 13
    frequency:   16.7985488094
  - # 14
    frequency:   16.8009980350
  - # 15
    frequency:   17.2667664534
  - # 16
    frequency:   17.2856866919
  - # 17
    frequency:   26.6930315481
  - # 18
    frequency:   28.5626531424
  - # 19
    frequency:   28.6168657787
  - # 20
    frequency:   38.4448136920
  - # 21
    frequency:   69.0446333518

- q-position: [    0.0555556,    0.0000000,    0.0000000 ]
  distance:    0.0191466
  band:
  - # 1
    frequency:   -0.9237940003
  - # 2
    frequency:   -0.8112571673
  - # 3
    frequency:   -0.5079313452
  - # 4
    frequency:    0.9188245183
  - # 5
    frequency:    1.4963345347
  - # 6
    frequency:    4.8611143588
  - # 7
    frequency:    4.9385386504
  - # 8
    frequency:    6.1658065566
  - # 9
    frequency:    6.3851999934
  - # 10
    frequency:    6.5457581324
  - # 11
    frequency:    8.9845095663
  - # 12
    frequency:   16.4322313728
  - # 13
    frequency:   16.8264952233
  - # 14
    frequency:   16.8297769624
  - # 15
    frequency:   17.2709903733
  - # 16
    frequency:   17.2933968917
  - # 17
    frequency:   26.6936423000
  - # 18
    frequency:   28.5689369906
  - # 19
    frequency:   28.6342109269
  - # 20
    frequency:   38.4445696146
  - # 21
    frequency:   69.0144758879

- q-position: [    0.0606061,    0.0000000,    0.0000000 ]
  distance:    0.0208872
  band:
  - # 1
    frequency:   -0.9112047165
  - # 2
    frequency:   -0.7783178860
  - # 3
    frequency:   -0.4697218503
  - # 4
    frequency:    1.0016134685
  - # 5
    frequency:    1.6094769711
  - # 6
    frequency:    4.8672436239
  - # 7
    frequency:    4.9583202903
  - # 8
    frequency:    6.1574729469
  - # 9
    frequency:    6.3948094222
  - # 10
    frequency:    6.5760546776
  - # 11
    frequency:    8.9763749298
  - # 12
    frequency:   16.4234720497
  - # 13
    frequency:   16.8558033016
  - # 14
    frequency:   16.8601750232
  - # 15
    frequency:   17.2757716043
  - # 16
    frequency:   17.3017771144
  - # 17
    frequency:   26.6940942711
  - # 18
    frequency:   28.5756345833
  - # 19
    frequency:   28.6528994104
  - # 20
    frequency:   38.4443059374
  - # 21
    frequency:   68.9818117788

- q-position: [    0.0656566,    0.0000000,    0.0000000 ]
  distance:    0.0226278
  band:
  - # 1
    frequency:   -0.8978801126
  - # 2
    frequency:   -0.7434345886
  - # 3
    frequency:   -0.4139108346
  - # 4
    frequency:    1.0837929540
  - # 5
    frequency:    1.7224096589
  - # 6
    frequency:    4.8737984475
  - # 7
    frequency:    4.9793554012
  - # 8
    frequency:    6.1494225978
  - # 9
    frequency:    6.4050749578
  - # 10
    frequency:    6.6076071188
  - # 11
    frequency:    8.9674915448
  - # 12
    frequency:   16.4140789776
  - # 13
    frequency:   16.8861284890
  - # 14
    frequency:   16.8919189007
  - # 15
    frequency:   17.2811753347
  - # 16
    frequency:   17.3108152978
  - # 17
    frequency:   26.6943353184
  - # 18
    frequency:   28.5826989520
  - # 19
    frequency:   28.6728531261
  - # 20
    frequency:   38.4440236498
  - # 21
    frequency:   68.9467353324

- q-position: [    0.0707071,    0.0000000,    0.0000000 ]
  distance:    0.0243684
  band:
  - # 1
    frequency:   -0.8837936346
  - # 2
    frequency:   -0.7061037634
  - # 3
    frequency:   -0.3317915608
  - # 4
    frequency:    1.1652637739
  - # 5
    frequency:    1.8350044734
  - # 6
    frequency:    4.8807532712
  - # 7
    frequency:    5.0015406568
  - # 8
    frequency:    6.1416795391
  - # 9
    frequency:    6.4159589399
  - # 10
    frequency:    6.6403184056
  - # 11
    frequency:    8.9578516125
  - # 12
    frequency:   16.4040765021
  - # 13
    frequency:   16.9170981657
  - # 14
    frequency:   16.9247229224
  - # 15
    frequency:   17.2872837676
  - # 16
    frequency:   17.3205003501
  - # 17
    frequency:   26.6943116153
  - # 18
    frequency:   28.5900804614
  - # 19
    frequency:   28.6939896494
  - # 20
    frequency:   38.4437238230
  - # 21
    frequency:   68.9093467999

- q-position: [    0.0757576,    0.0000000,    0.0000000 ]
  distance:    0.0261090
  band:
  - # 1
    frequency:   -0.8689088114
  - # 2
    frequency:   -0.6652296438
  - # 3
    frequency:   -0.1937104335
  - # 4
    frequency:    1.2459396437
  - # 5
    frequency:    1.9471292163
  - # 6
    frequency:    4.8880811426
  - # 7
    frequency:    5.0247689762
  - # 8
    frequency:    6.1342756527
  - # 9
    frequency:    6.4274229875
  - # 10
    frequency:    6.6740844019
  - # 11
    frequency:    8.9474476474
  - # 12
    frequency:   16.3934897059
  - # 13
    frequency:   16.9483117503
  - # 14
    frequency:   16.9582915784
  - # 15
    frequency:   17.2941987668
  - # 16
    frequency:   17.3308223196
  - # 17
    frequency:   26.6939682523
  - # 18
    frequency:   28.5977271274
  - # 19
    frequency:   28.7162227647
  - # 20
    frequency:   38.4434076076
  - # 21
    frequency:   68.8697518555

- q-position: [    0.0808081,    0.0000000,    0.0000000 ]
  distance:    0.0278496
  band:
  - # 1
    frequency:   -0.8531814026
  - # 2
    frequency:   -0.6190644123
  - # 3
    frequency:    0.2131049673
  - # 4
    frequency:    1.3257465689
  - # 5
    frequency:    2.0586515712
  - # 6
    frequency:    4.8957539166
  - # 7
    frequency:    5.0489302244
  - # 8
    frequency:    6.1272505937
  - # 9
    frequency:    6.4394282736
  - # 10
    frequency:    6.7087949355
  - # 11
    frequency:    8.9362726551
  - # 12
    frequency:   16.3823442624
  - # 13
    frequency:   16.9793421690
  - # 14
    frequency:   16.9923223564
  - # 15
    frequency:   17.3020431644
  - # 16
    frequency:   17.3417723021
  - # 17
    frequency:   26.6932498448
  - # 18
    frequency:   28.6055849480
  - # 19
    frequency:   28.7394630068
  - # 20
    frequency:   38.4430762311
  - # 21
    frequency:   68.8280610528

- q-position: [    0.0858586,    0.0000000,    0.0000000 ]
  distance:    0.0295902
  band:
  - # 1
    frequency:   -0.8365606089
  - # 2
    frequency:   -0.5650679944
  - # 3
    frequency:    0.3710510074
  - # 4
    frequency:    1.4046218630
  - # 5
    frequency:    2.1694410690
  - # 6
    frequency:    4.9037424814
  - # 7
    frequency:    5.0739118985
  - # 8
    frequency:    6.1206514582
  - # 9
    frequency:    6.4519357603
  - # 10
    frequency:    6.7443350230
  - # 11
    frequency:    8.9243203103
  - # 12
    frequency:   16.3706662853
  - # 13
    frequency:   17.0097406149
  - # 14
    frequency:   17.0265090350
  - # 15
    frequency:   17.3109587747
  - # 16
    frequency:   17.3533419009
  - # 17
    frequency:   26.6921011412
  - # 18
    frequency:   28.6135982421
  - # 19
    frequency:   28.7636182110
  - # 20
    frequency:   38.4427309940
  - # 21
    frequency:   68.7843892597

- q-position: [    0.0909091,    0.0000000,    0.0000000 ]
  distance:    0.0313308
  band:
  - # 1
    frequency:   -0.8189894563
  - # 2
    frequency:   -0.4993805775
  - # 3
    frequency:    0.4881637502
  - # 4
    frequency:    1.4825130587
  - # 5
    frequency:    2.2793698718
  - # 6
    frequency:    4.9120170070
  - # 7
    frequency:    5.0995998103
  - # 8
    frequency:    6.1145323100
  - # 9
    frequency:    6.4649063939
  - # 10
    frequency:    6.7805861408
  - # 11
    frequency:    8.9115851358
  - # 12
    frequency:   16.3584821840
  - # 13
    frequency:   17.0390476322
  - # 14
    frequency:   17.0605456692
  - # 15
    frequency:   17.3210980547
  - # 16
    frequency:   17.3655219746
  - # 17
    frequency:   26.6904676247
  - # 18
    frequency:   28.6217099970
  - # 19
    frequency:   28.7885940657
  - # 20
    frequency:   38.4423732660
  - # 21
    frequency:   68.7388550762

- q-position: [    0.0959596,    0.0000000,    0.0000000 ]
  distance:    0.0330714
  band:
  - # 1
    frequency:   -0.8004044605
  - # 2
    frequency:   -0.4150999796
  - # 3
    frequency:    0.5886200511
  - # 4
    frequency:    1.5593768517
  - # 5
    frequency:    2.3883128694
  - # 6
    frequency:    4.9205472136
  - # 7
    frequency:    5.1258787822
  - # 8
    frequency:    6.1089536198
  - # 9
    frequency:    6.4783012591
  - # 10
    frequency:    6.8174274657
  - # 11
    frequency:    8.8980626805
  - # 12
    frequency:   16.3458185282
  - # 13
    frequency:   17.0668142397
  - # 14
    frequency:   17.0941315853
  - # 15
    frequency:   17.3326056690
  - # 16
    frequency:   17.3783003255
  - # 17
    frequency:   26.6882961006
  - # 18
    frequency:   28.6298622190
  - # 19
    frequency:   28.8142946636
  - # 20
    frequency:   38.4420044812
  - # 21
    frequency:   68.6915802402

- q-position: [    0.1010101,    0.0000000,    0.0000000 ]
  distance:    0.0348120
  band:
  - # 1
    frequency:   -0.7807346286
  - # 2
    frequency:   -0.2951082042
  - # 3
    frequency:    0.6793596293
  - # 4
    frequency:    1.6351781403
  - # 5
    frequency:    2.4961473865
  - # 6
    frequency:    4.9293026577
  - # 7
    frequency:    5.1526333816
  - # 8
    frequency:    6.1039816366
  - # 9
    frequency:    6.4920816966
  - # 10
    frequency:    6.8547370405
  - # 11
    frequency:    8.8837496955
  - # 12
    frequency:   16.3327019277
  - # 13
    frequency:   17.0926355473
  - # 14
    frequency:   17.1269777615
  - # 15
    frequency:   17.3455874828
  - # 16
    frequency:   17.3916579290
  - # 17
    frequency:   26.6855352639
  - # 18
    frequency:   28.6379962865
  - # 19
    frequency:   28.8406230488
  - # 20
    frequency:   38.4416261324
  - # 21
    frequency:   68.6426890230

- q-position: [    0.1060606,    0.0000000,    0.0000000 ]
  distance:    0.0365526
  band:
  - # 1
    frequency:   -0.7598997965
  - # 2
    frequency:    0.0843276577
  - # 3
    frequency:    0.7635087338
  - # 4
    frequency:    1.7098891852
  - # 5
    frequency:    2.6027526844
  - # 6
    frequency:    4.9382530327
  - # 7
    frequency:    5.1797487263
  - # 8
    frequency:    6.0996876835
  - # 9
    frequency:    6.5062093838
  - # 10
    frequency:    6.8923928432
  - # 11
    frequency:    8.8686443085
  - # 12
    frequency:   16.3191589252
  - # 13
    frequency:   17.1161942514
  - # 14
    frequency:   17.1588149077
  - # 15
    frequency:   17.3600695772
  - # 16
    frequency:   17.4055633697
  - # 17
    frequency:   26.6821362407
  - # 18
    frequency:   28.6460533026
  - # 19
    frequency:   28.8674817554
  - # 20
    frequency:   38.4412397648
  - # 21
    frequency:   68.5923076200

- q-position: [    0.1111111,    0.0000000,    0.0000000 ]
  distance:    0.0382932
  band:
  - # 1
    frequency:   -0.7378082208
  - # 2
    frequency:    0.3331524238
  - # 3
    frequency:    0.8427922732
  - # 4
    frequency:    1.7834888849
  - # 5
    frequency:    2.7080093651
  - # 6
    frequency:    4.9473684796
  - # 7
    frequency:    5.2071114015
  - # 8
    frequency:    6.0961473506
  - # 9
    frequency:    6.5206463856
  - # 10
    frequency:    6.9302737485
  - # 11
    frequency:    8.8527461963
  - # 12
    frequency:   16.3052159057
  - # 13
    frequency:   17.1373028649
  - # 14
    frequency:   17.1894032811
  - # 15
    frequency:   17.3759584118
  - # 16
    frequency:   17.4199654280
  - # 17
    frequency:   26.6780530969
  - # 18
    frequency:   28.6539744440
  - # 19
    frequency:   28.8947733347
  - # 20
    frequency:   38.4408469692
  - # 21
    frequency:   68.5405635412

- q-position: [    0.1161616,    0.0000000,    0.0000000 ]
  distance:    0.0400337
  band:
  - # 1
    frequency:   -0.7143532413
  - # 2
    frequency:    0.4744805939
  - # 3
    frequency:    0.9182833182
  - # 4
    frequency:    1.8559621550
  - # 5
    frequency:    2.8117987435
  - # 6
    frequency:    4.9566199038
  - # 7
    frequency:    5.2346105350
  - # 8
    frequency:    6.0934395437
  - # 9
    frequency:    6.5353551773
  - # 10
    frequency:    6.9682603803
  - # 11
    frequency:    8.8360567551
  - # 12
    frequency:   16.2908990199
  - # 13
    frequency:   17.1559272128
  - # 14
    frequency:   17.2185436712
  - # 15
    frequency:   17.3930195889
  - # 16
    frequency:   17.4347843703
  - # 17
    frequency:   26.6732433103
  - # 18
    frequency:   28.6617013060
  - # 19
    frequency:   28.9224008696
  - # 20
    frequency:   38.4404493744
  - # 21
    frequency:   68.4875850032

- q-position: [    0.1212121,    0.0000000,    0.0000000 ]
  distance:    0.0417743
  band:
  - # 1
    frequency:   -0.6894086856
  - # 2
    frequency:    0.5916217071
  - # 3
    frequency:    0.9907051057
  - # 4
    frequency:    1.9272993947
  - # 5
    frequency:    2.9140022307
  - # 6
    frequency:    4.9659792941
  - # 7
    frequency:    5.2621390794
  - # 8
    frequency:    6.0916453382
  - # 9
    frequency:    6.5502986453
  - # 10
    frequency:    7.0062358600
  - # 11
    frequency:    8.8185792694
  - # 12
    frequency:   16.2762341224
  - # 13
    frequency:   17.1721780022
  - # 14
    frequency:   17.2460880834
  - # 15
    frequency:   17.4108883955
  - # 16
    frequency:   17.4499033960
  - # 17
    frequency:   26.6676682008
  - # 18
    frequency:   28.6691762392
  - # 19
    frequency:   28.9502684723
  - # 20
    frequency:   38.4400486384
  - # 21
    frequency:   68.4335003298

- q-position: [    0.1262626,    0.0000000,    0.0000000 ]
  distance:    0.0435149
  band:
  - # 1
    frequency:   -0.6628224708
  - # 2
    frequency:    0.6971604889
  - # 3
    frequency:    1.0605745186
  - # 4
    frequency:    1.9974960235
  - # 5
    frequency:    3.0145007520
  - # 6
    frequency:    4.9754200368
  - # 7
    frequency:    5.2895953502
  - # 8
    frequency:    6.0908465833
  - # 9
    frequency:    6.5654400702
  - # 10
    frequency:    7.0440864552
  - # 11
    frequency:    8.8003190815
  - # 12
    frequency:   16.2612467235
  - # 13
    frequency:   17.1862725948
  - # 14
    frequency:   17.2719477602
  - # 15
    frequency:   17.4291099864
  - # 16
    frequency:   17.4651625918
  - # 17
    frequency:   26.6612933152
  - # 18
    frequency:   28.6763426769
  - # 19
    frequency:   28.9782817646
  - # 20
    frequency:   38.4396464400
  - # 21
    frequency:   68.3784373625

- q-position: [    0.1313131,    0.0000000,    0.0000000 ]
  distance:    0.0452555
  band:
  - # 1
    frequency:   -0.6344074862
  - # 2
    frequency:    0.7959159523
  - # 3
    frequency:    1.1282789619
  - # 4
    frequency:    2.0665520752
  - # 5
    frequency:    3.1131742254
  - # 6
    frequency:    4.9849172220
  - # 7
    frequency:    5.3168848546
  - # 8
    frequency:    6.0911242098
  - # 9
    frequency:    6.5807430965
  - # 10
    frequency:    7.0817021381
  - # 11
    frequency:    8.7812837617
  - # 12
    frequency:   16.2459619532
  - # 13
    frequency:   17.1984835257
  - # 14
    frequency:   17.2960958974
  - # 15
    frequency:   17.4471926530
  - # 16
    frequency:   17.4803580248
  - # 17
    frequency:   26.6540887633
  - # 18
    frequency:   28.6831454520
  - # 19
    frequency:   29.0063483391
  - # 20
    frequency:   38.4392444693
  - # 21
    frequency:   68.3225228863

- q-position: [    0.1363636,    0.0000000,    0.0000000 ]
  distance:    0.0469961
  band:
  - # 1
    frequency:   -0.6039282035
  - # 2
    frequency:    0.8902676905
  - # 3
    frequency:    1.1941219017
  - # 4
    frequency:    2.1344718373
  - # 5
    frequency:    3.2099011179
  - # 6
    frequency:    4.9944479351
  - # 7
    frequency:    5.3439224261
  - # 8
    frequency:    6.0925562089
  - # 9
    frequency:    6.5961716944
  - # 10
    frequency:    7.1189770603
  - # 11
    frequency:    8.7614832825
  - # 12
    frequency:   16.2304045373
  - # 13
    frequency:   17.2090923848
  - # 14
    frequency:   17.3185632894
  - # 15
    frequency:   17.4646555560
  - # 16
    frequency:   17.4952477289
  - # 17
    frequency:   26.6460295025
  - # 18
    frequency:   28.6895311002
  - # 19
    frequency:   29.0343781991
  - # 20
    frequency:   38.4388444174
  - # 21
    frequency:   68.2658820743

- q-position: [    0.1414141,    0.0000000,    0.0000000 ]
  distance:    0.0487367
  band:
  - # 1
    frequency:   -0.5710802489
  - # 2
    frequency:    0.9815459094
  - # 3
    frequency:    1.2583527230
  - # 4
    frequency:    2.2012635285
  - # 5
    frequency:    3.3045581061
  - # 6
    frequency:    5.0039915278
  - # 7
    frequency:    5.3706346401
  - # 8
    frequency:    6.0952152829
  - # 9
    frequency:    6.6116901166
  - # 10
    frequency:    7.1558099522
  - # 11
    frequency:    8.7409301989
  - # 12
    frequency:   16.2145987839
  - # 13
    frequency:   17.2183591234
  - # 14
    frequency:   17.3394271053
  - # 15
    frequency:   17.4810608524
  - # 16
    frequency:   17.5095643748
  - # 17
    frequency:   26.6370955706
  - # 18
    frequency:   28.6954481492
  - # 19
    frequency:   29.0622841766
  - # 20
    frequency:   38.4384479670
  - # 21
    frequency:   68.2086379539

- q-position: [    0.1464646,    0.0000000,    0.0000000 ]
  distance:    0.0504773
  band:
  - # 1
    frequency:   -0.5354577605
  - # 2
    frequency:    1.0705402017
  - # 3
    frequency:    1.3211889782
  - # 4
    frequency:    2.2669390066
  - # 5
    frequency:    3.3970198689
  - # 6
    frequency:    5.0135298634
  - # 7
    frequency:    5.3969624321
  - # 8
    frequency:    6.0991662144
  - # 9
    frequency:    6.6272628553
  - # 10
    frequency:    7.1921044517
  - # 11
    frequency:    8.7196398382
  - # 12
    frequency:   16.1985685796
  - # 13
    frequency:   17.2265071930
  - # 14
    frequency:   17.3587951079
  - # 15
    frequency:   17.4960298073
  - # 16
    frequency:   17.5230323050
  - # 17
    frequency:   26.6272722639
  - # 18
    frequency:   28.7008473918
  - # 19
    frequency:   29.0899823276
  - # 20
    frequency:   38.4380567813
  - # 21
    frequency:   68.1509108991

- q-position: [    0.1515152,    0.0000000,    0.0000000 ]
  distance:    0.0522179
  band:
  - # 1
    frequency:   -0.4964981294
  - # 2
    frequency:    1.1577209836
  - # 3
    frequency:    1.3828362078
  - # 4
    frequency:    2.3315135048
  - # 5
    frequency:    3.4871590520
  - # 6
    frequency:    5.0230475298
  - # 7
    frequency:    5.4228637723
  - # 8
    frequency:    6.1044630612
  - # 9
    frequency:    6.6428546015
  - # 10
    frequency:    7.2277693678
  - # 11
    frequency:    8.6976305033
  - # 12
    frequency:   16.1823373939
  - # 13
    frequency:   17.2337199691
  - # 14
    frequency:   17.3767886994
  - # 15
    frequency:   17.5092474318
  - # 16
    frequency:   17.5353855397
  - # 17
    frequency:   26.6165502617
  - # 18
    frequency:   28.7056821415
  - # 19
    frequency:   29.1173923029
  - # 20
    frequency:   38.4376724945
  - # 21
    frequency:   68.0928181516
