nqpoint: 300    
npath: 3      
segment_nqpoint:
- 100
- 100
- 100
labels:
- [ 'G', 'M' ]
- [ 'M', 'K' ]
- [ 'K', 'G' ]
reciprocal_lattice:
- [   0.31533094,   0.18205640,   0.00000000 ] # a*
- [   0.00000000,   0.36411281,   0.00000000 ] # b*
- [   0.00000000,   0.00000000,   0.03950961 ] # c*
natom: 6      
lattice:
- [     3.171271430302355,     0.000000000000000,     0.000000000000000 ] # a
- [    -1.585635715151178,     2.746401620937583,     0.000000000000000 ] # b
- [     0.000000000000000,     0.000000000000000,    25.310300835489905 ] # c
points:
- symbol: C # 1
  coordinates: [  0.000000000000000,  0.000000000000000,  0.466657640033703 ]
  mass: 12.010700
- symbol: Cl # 2
  coordinates: [  0.666666984744047,  0.333332985985145,  0.355586449110090 ]
  mass: 35.453000
- symbol: O # 3
  coordinates: [  0.333332985432215,  0.666666983183674,  0.644413550889910 ]
  mass: 15.999400
- symbol: P # 4
  coordinates: [  0.333332985432215,  0.666666983183674,  0.585519111830963 ]
  mass: 30.973762
- symbol: Ti # 5
  coordinates: [  0.333332985432215,  0.666666983183674,  0.421856445257478 ]
  mass: 47.867000
- symbol: Ti # 6
  coordinates: [  0.666666984744047,  0.333332985985145,  0.511716609293427 ]
  mass: 47.867000

phonon:
- q-position: [    0.0000000,    0.0000000,    0.0000000 ]
  distance:    0.0000000
  band:
  - # 1
    frequency:   -3.3348263389
  - # 2
    frequency:   -3.3348263389
  - # 3
    frequency:   -0.0000005816
  - # 4
    frequency:   -0.0000002528
  - # 5
    frequency:   -0.0000001095
  - # 6
    frequency:    4.2164287335
  - # 7
    frequency:    4.2164287335
  - # 8
    frequency:    5.5151176260
  - # 9
    frequency:    5.5151176260
  - # 10
    frequency:    5.7657891731
  - # 11
    frequency:    7.4395299293
  - # 12
    frequency:    7.4395299293
  - # 13
    frequency:    9.6682774659
  - # 14
    frequency:   12.3248658708
  - # 15
    frequency:   17.3944783052
  - # 16
    frequency:   17.8999046299
  - # 17
    frequency:   17.8999046299
  - # 18
    frequency:   34.5512806268

- q-position: [    0.0050505,    0.0000000,    0.0000000 ]
  distance:    0.0018390
  band:
  - # 1
    frequency:   -3.3336986213
  - # 2
    frequency:   -3.3304492325
  - # 3
    frequency:   -0.1241358062
  - # 4
    frequency:    0.0943984426
  - # 5
    frequency:    0.1761941578
  - # 6
    frequency:    4.2170555069
  - # 7
    frequency:    4.2185280902
  - # 8
    frequency:    5.5087089555
  - # 9
    frequency:    5.5152875969
  - # 10
    frequency:    5.7720927855
  - # 11
    frequency:    7.4399404370
  - # 12
    frequency:    7.4400284501
  - # 13
    frequency:    9.6680490749
  - # 14
    frequency:   12.3236713293
  - # 15
    frequency:   17.3942839516
  - # 16
    frequency:   17.9003322688
  - # 17
    frequency:   17.9004819965
  - # 18
    frequency:   34.5510154201

- q-position: [    0.0101010,    0.0000000,    0.0000000 ]
  distance:    0.0036779
  band:
  - # 1
    frequency:   -3.3303187238
  - # 2
    frequency:   -3.3173222362
  - # 3
    frequency:   -0.1446688294
  - # 4
    frequency:    0.1886693269
  - # 5
    frequency:    0.2890989346
  - # 6
    frequency:    4.2189311676
  - # 7
    frequency:    4.2248071643
  - # 8
    frequency:    5.4911322937
  - # 9
    frequency:    5.5157983799
  - # 10
    frequency:    5.7893626835
  - # 11
    frequency:    7.4411736151
  - # 12
    frequency:    7.4415201090
  - # 13
    frequency:    9.6673648667
  - # 14
    frequency:   12.3200913968
  - # 15
    frequency:   17.3936975474
  - # 16
    frequency:   17.9016075046
  - # 17
    frequency:   17.9022064768
  - # 18
    frequency:   34.5502203660

- q-position: [    0.0151515,    0.0000000,    0.0000000 ]
  distance:    0.0055169
  band:
  - # 1
    frequency:   -3.3246964934
  - # 2
    frequency:   -3.2954587132
  - # 3
    frequency:   -0.1425985552
  - # 4
    frequency:    0.2826869532
  - # 5
    frequency:    0.4021318330
  - # 6
    frequency:    4.2220417787
  - # 7
    frequency:    4.2352091973
  - # 8
    frequency:    5.4657616448
  - # 9
    frequency:    5.5166525674
  - # 10
    frequency:    5.8142503197
  - # 11
    frequency:    7.4432343124
  - # 12
    frequency:    7.4439932277
  - # 13
    frequency:    9.6662277488
  - # 14
    frequency:   12.3141371255
  - # 15
    frequency:   17.3927092628
  - # 16
    frequency:   17.9037073850
  - # 17
    frequency:   17.9050551603
  - # 18
    frequency:   34.5488971604

- q-position: [    0.0202020,    0.0000000,    0.0000000 ]
  distance:    0.0073558
  band:
  - # 1
    frequency:   -3.3168486091
  - # 2
    frequency:   -3.2648822678
  - # 3
    frequency:   -0.1240213748
  - # 4
    frequency:    0.3763292753
  - # 5
    frequency:    0.5174489606
  - # 6
    frequency:    4.2263642530
  - # 7
    frequency:    4.2496403075
  - # 8
    frequency:    5.4355490708
  - # 9
    frequency:    5.5178544205
  - # 10
    frequency:    5.8438468259
  - # 11
    frequency:    7.4461302286
  - # 12
    frequency:    7.4474284477
  - # 13
    frequency:    9.6646426123
  - # 14
    frequency:   12.3058268530
  - # 15
    frequency:   17.3913033589
  - # 16
    frequency:   17.9065939589
  - # 17
    frequency:   17.9089897080
  - # 18
    frequency:   34.5470486222

- q-position: [    0.0252525,    0.0000000,    0.0000000 ]
  distance:    0.0091948
  band:
  - # 1
    frequency:   -3.3067989680
  - # 2
    frequency:   -3.2256288109
  - # 3
    frequency:   -0.0811896660
  - # 4
    frequency:    0.4694795728
  - # 5
    frequency:    0.6348382312
  - # 6
    frequency:    4.2318665641
  - # 7
    frequency:    4.2679703846
  - # 8
    frequency:    5.4024558375
  - # 9
    frequency:    5.5194097816
  - # 10
    frequency:    5.8762530907
  - # 11
    frequency:    7.4498713526
  - # 12
    frequency:    7.4517988891
  - # 13
    frequency:    9.6626163969
  - # 14
    frequency:   12.2951860802
  - # 15
    frequency:   17.3894590809
  - # 16
    frequency:   17.9102147255
  - # 17
    frequency:   17.9139561852
  - # 18
    frequency:   34.5446786826

- q-position: [    0.0303030,    0.0000000,    0.0000000 ]
  distance:    0.0110337
  band:
  - # 1
    frequency:   -3.2945791969
  - # 2
    frequency:   -3.1777495684
  - # 3
    frequency:    0.0784268194
  - # 4
    frequency:    0.5620279454
  - # 5
    frequency:    0.7539371386
  - # 6
    frequency:    4.2385080466
  - # 7
    frequency:    4.2900339778
  - # 8
    frequency:    5.3676997087
  - # 9
    frequency:    5.5213259564
  - # 10
    frequency:    5.9103343431
  - # 11
    frequency:    7.4544692041
  - # 12
    frequency:    7.4570703701
  - # 13
    frequency:    9.6601581791
  - # 14
    frequency:   12.2822473026
  - # 15
    frequency:   17.3871517750
  - # 16
    frequency:   17.9145032537
  - # 17
    frequency:   17.9198849422
  - # 18
    frequency:   34.5417923693

- q-position: [    0.0353535,    0.0000000,    0.0000000 ]
  distance:    0.0128727
  band:
  - # 1
    frequency:   -3.2802292628
  - # 2
    frequency:   -3.1213151208
  - # 3
    frequency:    0.1526496426
  - # 4
    frequency:    0.6538725824
  - # 5
    frequency:    0.8745183598
  - # 6
    frequency:    4.2462397827
  - # 7
    frequency:    4.3156307939
  - # 8
    frequency:    5.3320602187
  - # 9
    frequency:    5.5236115707
  - # 10
    frequency:    5.9454176268
  - # 11
    frequency:    7.4599359006
  - # 12
    frequency:    7.4632016879
  - # 13
    frequency:    9.6572792774
  - # 14
    frequency:   12.2670497966
  - # 15
    frequency:   17.3843541216
  - # 16
    frequency:   17.9193799638
  - # 17
    frequency:   17.9266906346
  - # 18
    frequency:   34.5383957873

- q-position: [    0.0404040,    0.0000000,    0.0000000 ]
  distance:    0.0147116
  band:
  - # 1
    frequency:   -3.2637981499
  - # 2
    frequency:   -3.0564205261
  - # 3
    frequency:    0.2133514256
  - # 4
    frequency:    0.7449207698
  - # 5
    frequency:    0.9964875889
  - # 6
    frequency:    4.2550050802
  - # 7
    frequency:    4.3445252582
  - # 8
    frequency:    5.2960777182
  - # 9
    frequency:    5.5262764047
  - # 10
    frequency:    5.9810967299
  - # 11
    frequency:    7.4662830849
  - # 12
    frequency:    7.4701449590
  - # 13
    frequency:    9.6539933715
  - # 14
    frequency:   12.2496393652
  - # 15
    frequency:   17.3810373795
  - # 16
    frequency:   17.9247530595
  - # 17
    frequency:   17.9342724657
  - # 18
    frequency:   34.5344960949

- q-position: [    0.0454545,    0.0000000,    0.0000000 ]
  distance:    0.0165506
  band:
  - # 1
    frequency:   -3.2453445675
  - # 2
    frequency:   -2.9831914787
  - # 3
    frequency:    0.2712824762
  - # 4
    frequency:    0.8350896099
  - # 5
    frequency:    1.1198472359
  - # 6
    frequency:    4.2647400388
  - # 7
    frequency:    4.3764443411
  - # 8
    frequency:    5.2601688882
  - # 9
    frequency:    5.5293312123
  - # 10
    frequency:    6.0171224906
  - # 11
    frequency:    7.4735207509
  - # 12
    frequency:    7.4778460161
  - # 13
    frequency:    9.6503166284
  - # 14
    frequency:   12.2300680450
  - # 15
    frequency:   17.3771725486
  - # 16
    frequency:   17.9305195978
  - # 17
    frequency:   17.9425147208
  - # 18
    frequency:   34.5301014762

- q-position: [    0.0505051,    0.0000000,    0.0000000 ]
  distance:    0.0183895
  band:
  - # 1
    frequency:   -3.2249376508
  - # 2
    frequency:   -2.9017912557
  - # 3
    frequency:    0.3292743135
  - # 4
    frequency:    0.9243064366
  - # 5
    frequency:    1.2446649448
  - # 6
    frequency:    4.2753742036
  - # 7
    frequency:    4.4110724388
  - # 8
    frequency:    5.2246958153
  - # 9
    frequency:    5.5327875293
  - # 10
    frequency:    6.0533424290
  - # 11
    frequency:    7.4816560148
  - # 12
    frequency:    7.4862448620
  - # 13
    frequency:    9.6462678297
  - # 14
    frequency:   12.2083937791
  - # 15
    frequency:   17.3727313862
  - # 16
    frequency:   17.9365666822
  - # 17
    frequency:   17.9512876304
  - # 18
    frequency:   34.5252211093

- q-position: [    0.0555556,    0.0000000,    0.0000000 ]
  distance:    0.0202285
  band:
  - # 1
    frequency:   -3.2026576159
  - # 2
    frequency:   -2.8124278547
  - # 3
    frequency:    0.3885563330
  - # 4
    frequency:    1.0125089245
  - # 5
    frequency:    1.3710484319
  - # 6
    frequency:    4.2868313022
  - # 7
    frequency:    4.4480413435
  - # 8
    frequency:    5.1900131813
  - # 9
    frequency:    5.5366574764
  - # 10
    frequency:    6.0896669768
  - # 11
    frequency:    7.4906918815
  - # 12
    frequency:    7.4952761753
  - # 13
    frequency:    9.6418684924
  - # 14
    frequency:   12.1846800592
  - # 15
    frequency:   17.3676872363
  - # 16
    frequency:   17.9427727638
  - # 17
    frequency:   17.9604485746
  - # 18
    frequency:   34.5198651315

- q-position: [    0.0606061,    0.0000000,    0.0000000 ]
  distance:    0.0220674
  band:
  - # 1
    frequency:   -3.1785963299
  - # 2
    frequency:   -2.7153601932
  - # 3
    frequency:    0.4497807729
  - # 4
    frequency:    1.0996448987
  - # 5
    frequency:    1.4991229073
  - # 6
    frequency:    4.2990300578
  - # 7
    frequency:    4.4869119946
  - # 8
    frequency:    5.1565090683
  - # 9
    frequency:    5.5409535615
  - # 10
    frequency:    6.1260500049
  - # 11
    frequency:    7.5006260614
  - # 12
    frequency:    7.5048698683
  - # 13
    frequency:    9.6371429752
  - # 14
    frequency:   12.1589955425
  - # 15
    frequency:   17.3620156620
  - # 16
    frequency:   17.9490090336
  - # 17
    frequency:   17.9698436083
  - # 18
    frequency:   34.5140446004

- q-position: [    0.0656566,    0.0000000,    0.0000000 ]
  distance:    0.0239064
  band:
  - # 1
    frequency:   -3.1528577586
  - # 2
    frequency:   -2.6109015167
  - # 3
    frequency:    0.5133334628
  - # 4
    frequency:    1.1856718651
  - # 5
    frequency:    1.6290078532
  - # 6
    frequency:    4.3118850698
  - # 7
    frequency:    4.5271422835
  - # 8
    frequency:    5.1246515213
  - # 9
    frequency:    5.5456884856
  - # 10
    frequency:    6.1624771640
  - # 11
    frequency:    7.5114498949
  - # 12
    frequency:    7.5149516916
  - # 13
    frequency:    9.6321185623
  - # 14
    frequency:   12.1314136462
  - # 15
    frequency:   17.3556948894
  - # 16
    frequency:   17.9551408882
  - # 17
    frequency:   17.9793092689
  - # 18
    frequency:   34.5077714525

- q-position: [    0.0707071,    0.0000000,    0.0000000 ]
  distance:    0.0257453
  band:
  - # 1
    frequency:   -3.1255582566
  - # 2
    frequency:   -2.4994173231
  - # 3
    frequency:    0.5794592901
  - # 4
    frequency:    1.2705562871
  - # 5
    frequency:    1.7607913967
  - # 6
    frequency:    4.3253077493
  - # 7
    frequency:    4.5680311281
  - # 8
    frequency:    5.0950540934
  - # 9
    frequency:    5.5508749549
  - # 10
    frequency:    6.1989585595
  - # 11
    frequency:    7.5231474410
  - # 12
    frequency:    7.5254438842
  - # 13
    frequency:    9.6268255151
  - # 14
    frequency:   12.1020121267
  - # 15
    frequency:   17.3487060911
  - # 16
    frequency:   17.9610294527
  - # 17
    frequency:   17.9886746083
  - # 18
    frequency:   34.5010584581

- q-position: [    0.0757576,    0.0000000,    0.0000000 ]
  distance:    0.0275843
  band:
  - # 1
    frequency:   -3.0968266657
  - # 2
    frequency:   -2.3813143215
  - # 3
    frequency:    0.6483221169
  - # 4
    frequency:    1.3542726479
  - # 5
    frequency:    1.8945022548
  - # 6
    frequency:    4.3392072976
  - # 7
    frequency:    4.6086235635
  - # 8
    frequency:    5.0685775519
  - # 9
    frequency:    5.5565255017
  - # 10
    frequency:    6.2355238368
  - # 11
    frequency:    7.5356947841
  - # 12
    frequency:    7.5362658638
  - # 13
    frequency:    9.6212970828
  - # 14
    frequency:   12.0708726452
  - # 15
    frequency:   17.3410335405
  - # 16
    frequency:   17.9665331416
  - # 17
    frequency:   17.9977633899
  - # 18
    frequency:   34.4939191743

- q-position: [    0.0808081,    0.0000000,    0.0000000 ]
  distance:    0.0294233
  band:
  - # 1
    frequency:   -3.0668041933
  - # 2
    frequency:   -2.2570164724
  - # 3
    frequency:    0.7200357768
  - # 4
    frequency:    1.4368023399
  - # 5
    frequency:    2.0300811829
  - # 6
    frequency:    4.3534917099
  - # 7
    frequency:    4.6475606336
  - # 8
    frequency:    5.0464851039
  - # 9
    frequency:    5.5626523155
  - # 10
    frequency:    6.2722185640
  - # 11
    frequency:    7.5473349527
  - # 12
    frequency:    7.5490596091
  - # 13
    frequency:    9.6155694616
  - # 14
    frequency:   12.0380803283
  - # 15
    frequency:   17.3326646728
  - # 16
    frequency:   17.9715092424
  - # 17
    frequency:   18.0063963852
  - # 18
    frequency:   34.4863678950

- q-position: [    0.0858586,    0.0000000,    0.0000000 ]
  distance:    0.0312622
  band:
  - # 1
    frequency:   -3.0356440432
  - # 2
    frequency:   -2.1269241383
  - # 3
    frequency:    0.7946792862
  - # 4
    frequency:    1.5181324320
  - # 5
    frequency:    2.1673557238
  - # 6
    frequency:    4.3680687903
  - # 7
    frequency:    4.6828911654
  - # 8
    frequency:    5.0306347906
  - # 9
    frequency:    5.5692670846
  - # 10
    frequency:    6.3091012473
  - # 11
    frequency:    7.5585671353
  - # 12
    frequency:    7.5632010844
  - # 13
    frequency:    9.6096816924
  - # 14
    frequency:   12.0037233245
  - # 15
    frequency:   17.3235900843
  - # 16
    frequency:   17.9758155035
  - # 17
    frequency:   18.0143937135
  - # 18
    frequency:   34.4784195989

- q-position: [    0.0909091,    0.0000000,    0.0000000 ]
  distance:    0.0331012
  band:
  - # 1
    frequency:   -3.0035107801
  - # 2
    frequency:   -1.9913524908
  - # 3
    frequency:    0.8723011453
  - # 4
    frequency:    1.5982543666
  - # 5
    frequency:    2.3060231760
  - # 6
    frequency:    4.3828471597
  - # 7
    frequency:    4.7120172151
  - # 8
    frequency:    5.0235377757
  - # 9
    frequency:    5.5763808477
  - # 10
    frequency:    6.3462405604
  - # 11
    frequency:    7.5698778392
  - # 12
    frequency:    7.5780700875
  - # 13
    frequency:    9.6036754867
  - # 14
    frequency:   11.9678923649
  - # 15
    frequency:   17.3138034973
  - # 16
    frequency:   17.9793117117
  - # 17
    frequency:   18.0215771735
  - # 18
    frequency:   34.4700898956

- q-position: [    0.0959596,    0.0000000,    0.0000000 ]
  distance:    0.0349401
  band:
  - # 1
    frequency:   -2.9705794119
  - # 2
    frequency:   -1.8504441890
  - # 3
    frequency:    0.9529142733
  - # 4
    frequency:    1.6771626444
  - # 5
    frequency:    2.4456462792
  - # 6
    frequency:    4.3977372423
  - # 7
    frequency:    4.7322599882
  - # 8
    frequency:    5.0277961184
  - # 9
    frequency:    5.5840038564
  - # 10
    frequency:    6.3837125278
  - # 11
    frequency:    7.5811827337
  - # 12
    frequency:    7.5936097911
  - # 13
    frequency:    9.5975949715
  - # 14
    frequency:   11.9306803302
  - # 15
    frequency:   17.3033017096
  - # 16
    frequency:   17.9818612432
  - # 17
    frequency:   18.0277725248
  - # 18
    frequency:   34.4613949705

- q-position: [    0.1010101,    0.0000000,    0.0000000 ]
  distance:    0.0367791
  band:
  - # 1
    frequency:   -2.9370341832
  - # 2
    frequency:   -1.7040460604
  - # 3
    frequency:    1.0364819986
  - # 4
    frequency:    1.7548535502
  - # 5
    frequency:    2.5856637798
  - # 6
    frequency:    4.4126522145
  - # 7
    frequency:    4.7423437677
  - # 8
    frequency:    5.0446228284
  - # 9
    frequency:    5.5921454451
  - # 10
    frequency:    6.4215974983
  - # 11
    frequency:    7.5923985380
  - # 12
    frequency:    7.6097566205
  - # 13
    frequency:    9.5914863421
  - # 14
    frequency:   11.8921818304
  - # 15
    frequency:   17.2920845428
  - # 16
    frequency:   17.9833325748
  - # 17
    frequency:   18.0328116862
  - # 18
    frequency:   34.4523515281

- q-position: [    0.1060606,    0.0000000,    0.0000000 ]
  distance:    0.0386180
  band:
  - # 1
    frequency:   -2.9030670809
  - # 2
    frequency:   -1.5515246592
  - # 3
    frequency:    1.1228960913
  - # 4
    frequency:    1.8313239770
  - # 5
    frequency:    2.7254143541
  - # 6
    frequency:    4.4275089032
  - # 7
    frequency:    4.7434854194
  - # 8
    frequency:    5.0727569337
  - # 9
    frequency:    5.6008139101
  - # 10
    frequency:    6.4599768225
  - # 11
    frequency:    7.6034438304
  - # 12
    frequency:    7.6264415777
  - # 13
    frequency:    9.5853974177
  - # 14
    frequency:   11.8524927998
  - # 15
    frequency:   17.2801547964
  - # 16
    frequency:   17.9836007408
  - # 17
    frequency:   18.0365348248
  - # 18
    frequency:   34.4429767342

- q-position: [    0.1111111,    0.0000000,    0.0000000 ]
  distance:    0.0404570
  band:
  - # 1
    frequency:   -2.8688760616
  - # 2
    frequency:   -1.3914594750
  - # 3
    frequency:    1.2119502004
  - # 4
    frequency:    1.9065703950
  - # 5
    frequency:    2.8641687923
  - # 6
    frequency:    4.4422286223
  - # 7
    frequency:    4.7385251098
  - # 8
    frequency:    5.1093382068
  - # 9
    frequency:    5.6100163962
  - # 10
    frequency:    6.4989292122
  - # 11
    frequency:    7.6142398484
  - # 12
    frequency:    7.6435919184
  - # 13
    frequency:    9.5793770924
  - # 14
    frequency:   11.8117101129
  - # 15
    frequency:   17.2675182114
  - # 16
    frequency:   17.9825487254
  - # 17
    frequency:   18.0387923177
  - # 18
    frequency:   34.4332881577

- q-position: [    0.1161616,    0.0000000,    0.0000000 ]
  distance:    0.0422959
  band:
  - # 1
    frequency:   -2.8346630220
  - # 2
    frequency:   -1.2210599934
  - # 3
    frequency:    1.3033159633
  - # 4
    frequency:    1.9805880127
  - # 5
    frequency:    3.0011634134
  - # 6
    frequency:    4.4567379375
  - # 7
    frequency:    4.7303286584
  - # 8
    frequency:    5.1515114032
  - # 9
    frequency:    5.6197587908
  - # 10
    frequency:    6.5385268134
  - # 11
    frequency:    7.6247112713
  - # 12
    frequency:    7.6611331551
  - # 13
    frequency:    9.5734746805
  - # 14
    frequency:   11.7699312241
  - # 15
    frequency:   17.2541834430
  - # 16
    frequency:   17.9800687773
  - # 17
    frequency:   18.0394465721
  - # 18
    frequency:   34.4233037122

- q-position: [    0.1212121,    0.0000000,    0.0000000 ]
  distance:    0.0441349
  band:
  - # 1
    frequency:   -2.8006315424
  - # 2
    frequency:   -1.0348649411
  - # 3
    frequency:    1.3965327147
  - # 4
    frequency:    2.0533701616
  - # 5
    frequency:    3.1356280657
  - # 6
    frequency:    4.4709693525
  - # 7
    frequency:    4.7210740845
  - # 8
    frequency:    5.1971477172
  - # 9
    frequency:    5.6300456266
  - # 10
    frequency:    6.5788310853
  - # 11
    frequency:    7.6347869742
  - # 12
    frequency:    7.6789913504
  - # 13
    frequency:    9.5677391587
  - # 14
    frequency:   11.7272538347
  - # 15
    frequency:   17.2401620384
  - # 16
    frequency:   17.9760636381
  - # 17
    frequency:   18.0383736960
  - # 18
    frequency:   34.4130415969

- q-position: [    0.1262626,    0.0000000,    0.0000000 ]
  distance:    0.0459738
  band:
  - # 1
    frequency:   -2.7669844424
  - # 2
    frequency:   -0.8210851283
  - # 3
    frequency:    1.4910216235
  - # 4
    frequency:    2.1249079309
  - # 5
    frequency:    3.2668042485
  - # 6
    frequency:    4.4848619107
  - # 7
    frequency:    4.7122829677
  - # 8
    frequency:    5.2448230559
  - # 9
    frequency:    5.6408799945
  - # 10
    frequency:    6.6198886226
  - # 11
    frequency:    7.6444007441
  - # 12
    frequency:    7.6970956550
  - # 13
    frequency:    9.5622183129
  - # 14
    frequency:   11.6837755895
  - # 15
    frequency:   17.2254684164
  - # 16
    frequency:   17.9704476752
  - # 17
    frequency:   18.0354650112
  - # 18
    frequency:   34.4025202386

- q-position: [    0.1313131,    0.0000000,    0.0000000 ]
  distance:    0.0478128
  band:
  - # 1
    frequency:   -2.7339211981
  - # 2
    frequency:   -0.5458474328
  - # 3
    frequency:    1.5861282430
  - # 4
    frequency:    2.1951900620
  - # 5
    frequency:    3.3939517194
  - # 6
    frequency:    4.4983617106
  - # 7
    frequency:    4.7050421723
  - # 8
    frequency:    5.2936076757
  - # 9
    frequency:    5.6522634690
  - # 10
    frequency:    6.6617271075
  - # 11
    frequency:    7.6534919481
  - # 12
    frequency:    7.7153810349
  - # 13
    frequency:    9.5569578046
  - # 14
    frequency:   11.6395938063
  - # 15
    frequency:   17.2101198431
  - # 16
    frequency:   17.9631479106
  - # 17
    frequency:   18.0306284079
  - # 18
    frequency:   34.3917582330

- q-position: [    0.1363636,    0.0000000,    0.0000000 ]
  distance:    0.0496517
  band:
  - # 1
    frequency:   -2.7016352765
  - # 2
    frequency:    0.2471890137
  - # 3
    frequency:    1.6811855038
  - # 4
    frequency:    2.2642031024
  - # 5
    frequency:    3.5163445082
  - # 6
    frequency:    4.5114223305
  - # 7
    frequency:    4.7001919671
  - # 8
    frequency:    5.3428908786
  - # 9
    frequency:    5.6641960478
  - # 10
    frequency:    6.7043516048
  - # 11
    frequency:    7.6620061433
  - # 12
    frequency:    7.7337911194
  - # 13
    frequency:    9.5520001795
  - # 14
    frequency:   11.5948052386
  - # 15
    frequency:   17.1941363962
  - # 16
    frequency:   17.9541049391
  - # 17
    frequency:   18.0237895359
  - # 18
    frequency:   34.3807742882

- q-position: [    0.1414141,    0.0000000,    0.0000000 ]
  distance:    0.0514907
  band:
  - # 1
    frequency:   -2.6703114469
  - # 2
    frequency:    0.6376556313
  - # 3
    frequency:    1.7755793848
  - # 4
    frequency:    2.3319318038
  - # 5
    frequency:    3.6332593479
  - # 6
    frequency:    4.5240051660
  - # 7
    frequency:    4.6984513942
  - # 8
    frequency:    5.3922687716
  - # 9
    frequency:    5.6766761111
  - # 10
    frequency:    6.7477414283
  - # 11
    frequency:    7.6698956218
  - # 12
    frequency:    7.7522810927
  - # 13
    frequency:    9.5473838486
  - # 14
    frequency:   11.5495058727
  - # 15
    frequency:   17.1775409125
  - # 16
    frequency:   17.9432737295
  - # 17
    frequency:   18.0148928346
  - # 18
    frequency:   34.3695871677

- q-position: [    0.1464646,    0.0000000,    0.0000000 ]
  distance:    0.0533297
  band:
  - # 1
    frequency:   -2.6401231335
  - # 2
    frequency:    0.8614762439
  - # 3
    frequency:    1.8687989340
  - # 4
    frequency:    2.3983597373
  - # 5
    frequency:    3.7439617700
  - # 6
    frequency:    4.5360796784
  - # 7
    frequency:    4.7004959773
  - # 8
    frequency:    5.4414769327
  - # 9
    frequency:    5.6897004019
  - # 10
    frequency:    6.7918477975
  - # 11
    frequency:    7.6771198798
  - # 12
    frequency:    7.7708205296
  - # 13
    frequency:    9.5431420799
  - # 14
    frequency:   11.5037907597
  - # 15
    frequency:   17.1603589114
  - # 16
    frequency:   17.9306243036
  - # 17
    frequency:   18.0039024004
  - # 18
    frequency:   34.3582156358

- q-position: [    0.1515152,    0.0000000,    0.0000000 ]
  distance:    0.0551686
  band:
  - # 1
    frequency:   -2.6112298717
  - # 2
    frequency:    1.0348888238
  - # 3
    frequency:    1.9604608424
  - # 4
    frequency:    2.4634700899
  - # 5
    frequency:    3.8476985697
  - # 6
    frequency:    4.5476235591
  - # 7
    frequency:    4.7069993961
  - # 8
    frequency:    5.4903495827
  - # 9
    frequency:    5.7032640315
  - # 10
    frequency:    6.8365924775
  - # 11
    frequency:    7.6836460069
  - # 12
    frequency:    7.7893960615
  - # 13
    frequency:    9.5393020453
  - # 14
    frequency:   11.4577538801
  - # 15
    frequency:   17.1426184863
  - # 16
    frequency:   17.9161422877
  - # 17
    frequency:   17.9908026945
  - # 18
    frequency:   34.3466784036

- q-position: [    0.1565657,    0.0000000,    0.0000000 ]
  distance:    0.0570076
  band:
  - # 1
    frequency:   -2.5837749311
  - # 2
    frequency:    1.1815183297
  - # 3
    frequency:    2.0503096146
  - # 4
    frequency:    2.5272465954
  - # 5
    frequency:    3.9437108099
  - # 6
    frequency:    4.5586228130
  - # 7
    frequency:    4.7186383515
  - # 8
    frequency:    5.5387933382
  - # 9
    frequency:    5.7173605124
  - # 10
    frequency:    6.8818675468
  - # 11
    frequency:    7.6894489877
  - # 12
    frequency:    7.8080137287
  - # 13
    frequency:    9.5358839732
  - # 14
    frequency:   11.4114880401
  - # 15
    frequency:   17.1243501568
  - # 16
    frequency:   17.8998293337
  - # 17
    frequency:   17.9755990919
  - # 18
    frequency:   34.3349940775

- q-position: [    0.1616162,    0.0000000,    0.0000000 ]
  distance:    0.0588465
  band:
  - # 1
    frequency:   -2.5578831632
  - # 2
    frequency:    1.3112584462
  - # 3
    frequency:    2.1382011725
  - # 4
    frequency:    2.5896745507
  - # 5
    frequency:    4.0312873606
  - # 6
    frequency:    4.5690717662
  - # 7
    frequency:    4.7360485488
  - # 8
    frequency:    5.5867686195
  - # 9
    frequency:    5.7319818199
  - # 10
    frequency:    6.9275363957
  - # 11
    frequency:    7.6945119113
  - # 12
    frequency:    7.8267008465
  - # 13
    frequency:    9.5329004570
  - # 14
    frequency:   11.3650847954
  - # 15
    frequency:   17.1055866745
  - # 16
    frequency:   17.8817034060
  - # 17
    frequency:   17.9583182770
  - # 18
    frequency:   34.3231811089

- q-position: [    0.1666667,    0.0000000,    0.0000000 ]
  distance:    0.0606855
  band:
  - # 1
    frequency:   -2.5336591258
  - # 2
    frequency:    1.4293278434
  - # 3
    frequency:    2.2240789506
  - # 4
    frequency:    2.6507418656
  - # 5
    frequency:    4.1098774006
  - # 6
    frequency:    4.5789730051
  - # 7
    frequency:    4.7597178672
  - # 8
    frequency:    5.6342748489
  - # 9
    frequency:    5.7471184838
  - # 10
    frequency:    6.9734360073
  - # 11
    frequency:    7.6988260867
  - # 12
    frequency:    7.8455071761
  - # 13
    frequency:    9.5303559704
  - # 14
    frequency:   11.3186344002
  - # 15
    frequency:   17.0863627722
  - # 16
    frequency:   17.8617989316
  - # 17
    frequency:   17.9390084872
  - # 18
    frequency:   34.3112577463

- q-position: [    0.1717172,    0.0000000,    0.0000000 ]
  distance:    0.0625244
  band:
  - # 1
    frequency:   -2.5111855298
  - # 2
    frequency:    1.5388171779
  - # 3
    frequency:    2.3079493475
  - # 4
    frequency:    2.7104400926
  - # 5
    frequency:    4.1792566321
  - # 6
    frequency:    4.5883372546
  - # 7
    frequency:    4.7898244183
  - # 8
    frequency:    5.6813373721
  - # 9
    frequency:    5.7627597076
  - # 10
    frequency:    7.0193805559
  - # 11
    frequency:    7.7023910608
  - # 12
    frequency:    7.8645051513
  - # 13
    frequency:    9.5282466340
  - # 14
    frequency:   11.2722257736
  - # 15
    frequency:   17.0667148490
  - # 16
    frequency:   17.8401668123
  - # 17
    frequency:   17.9177396129
  - # 18
    frequency:   34.2992419894

- q-position: [    0.1767677,    0.0000000,    0.0000000 ]
  distance:    0.0643634
  band:
  - # 1
    frequency:   -2.4905220466
  - # 2
    frequency:    1.6416805803
  - # 3
    frequency:    2.3898603909
  - # 4
    frequency:    2.7687653905
  - # 5
    frequency:    4.2396906648
  - # 6
    frequency:    4.5971832040
  - # 7
    frequency:    4.8260772399
  - # 8
    frequency:    5.7279951238
  - # 9
    frequency:    5.7788935147
  - # 10
    frequency:    7.0651663433
  - # 11
    frequency:    7.7052145392
  - # 12
    frequency:    7.8837888810
  - # 13
    frequency:    9.5265602675
  - # 14