nqpoint: 300    
npath: 3      
segment_nqpoint:
- 100
- 100
- 100
labels:
- [ 'G', 'M' ]
- [ 'M', 'K' ]
- [ 'K', 'G' ]
reciprocal_lattice:
- [   0.27472324,   0.15861153,   0.00000000 ] # a*
- [   0.00000000,   0.31722307,   0.00000000 ] # b*
- [   0.00000000,   0.00000000,   0.04101562 ] # c*
natom: 6      
lattice:
- [     3.640027015955178,     0.000000000000000,     0.000000000000000 ] # a
- [    -1.820013507977588,     3.152355866289163,     0.000000000000000 ] # b
- [     0.000000000000000,     0.000000000000000,    24.380956469464426 ] # c
points:
- symbol: C # 1
  coordinates: [  0.000000000000000,  0.000000000000000,  0.467478568344342 ]
  mass: 12.010700
- symbol: H # 2
  coordinates: [  0.666666984744048,  0.333332985985145,  0.369140563097757 ]
  mass: 1.007940
- symbol: N # 3
  coordinates: [  0.333332985432215,  0.666666983183674,  0.577774424210598 ]
  mass: 14.006700
- symbol: O # 4
  coordinates: [  0.333332985432215,  0.666666983183674,  0.630859436902243 ]
  mass: 15.999400
- symbol: Y # 5
  coordinates: [  0.333332985432215,  0.666666983183674,  0.411986243023042 ]
  mass: 88.905850
- symbol: Y # 6
  coordinates: [  0.666666984744048,  0.333332985985145,  0.524897633831747 ]
  mass: 88.905850

phonon:
- q-position: [    0.0000000,    0.0000000,    0.0000000 ]
  distance:    0.0000000
  band:
  - # 1
    frequency:   -0.0000135458
  - # 2
    frequency:   -0.0000000333
  - # 3
    frequency:    0.0000158270
  - # 4
    frequency:    2.9813349498
  - # 5
    frequency:    2.9813349498
  - # 6
    frequency:    4.2483992701
  - # 7
    frequency:    4.2483992701
  - # 8
    frequency:    5.5472068549
  - # 9
    frequency:    6.3758112595
  - # 10
    frequency:    7.8460154988
  - # 11
    frequency:    7.8460154988
  - # 12
    frequency:    9.7458884534
  - # 13
    frequency:    9.7458884534
  - # 14
    frequency:   15.1966360366
  - # 15
    frequency:   23.5110572936
  - # 16
    frequency:   23.5110572937
  - # 17
    frequency:   24.5447343253
  - # 18
    frequency:   43.5218550252

- q-position: [    0.0050505,    0.0000000,    0.0000000 ]
  distance:    0.0016021
  band:
  - # 1
    frequency:    0.0009191467
  - # 2
    frequency:    0.0437555340
  - # 3
    frequency:    0.0827953994
  - # 4
    frequency:    2.9814451169
  - # 5
    frequency:    2.9821988762
  - # 6
    frequency:    4.2478233313
  - # 7
    frequency:    4.2482219323
  - # 8
    frequency:    5.5471957628
  - # 9
    frequency:    6.3754510878
  - # 10
    frequency:    7.8448772769
  - # 11
    frequency:    7.8451937140
  - # 12
    frequency:    9.7459962074
  - # 13
    frequency:    9.7475279420
  - # 14
    frequency:   15.1951271485
  - # 15
    frequency:   23.5111639699
  - # 16
    frequency:   23.5116806126
  - # 17
    frequency:   24.5442047785
  - # 18
    frequency:   43.5211329644

- q-position: [    0.0101010,    0.0000000,    0.0000000 ]
  distance:    0.0032043
  band:
  - # 1
    frequency:    0.0036736761
  - # 2
    frequency:    0.0875403743
  - # 3
    frequency:    0.1655804135
  - # 4
    frequency:    2.9817756552
  - # 5
    frequency:    2.9847854838
  - # 6
    frequency:    4.2460983582
  - # 7
    frequency:    4.2476901195
  - # 8
    frequency:    5.5471628141
  - # 9
    frequency:    6.3743707697
  - # 10
    frequency:    7.8414635100
  - # 11
    frequency:    7.8427326607
  - # 12
    frequency:    9.7463195978
  - # 13
    frequency:    9.7524408841
  - # 14
    frequency:   15.1906060908
  - # 15
    frequency:   23.5114835540
  - # 16
    frequency:   23.5135336481
  - # 17
    frequency:   24.5426306512
  - # 18
    frequency:   43.5189677929

- q-position: [    0.0151515,    0.0000000,    0.0000000 ]
  distance:    0.0048064
  band:
  - # 1
    frequency:    0.0082571959
  - # 2
    frequency:    0.1313835638
  - # 3
    frequency:    0.2483447649
  - # 4
    frequency:    2.9823266723
  - # 5
    frequency:    2.9890792449
  - # 6
    frequency:    4.2432329504
  - # 7
    frequency:    4.2468044278
  - # 8
    frequency:    5.5471089886
  - # 9
    frequency:    6.3725708748
  - # 10
    frequency:    7.8357768986
  - # 11
    frequency:    7.8386452366
  - # 12
    frequency:    9.7468590087
  - # 13
    frequency:    9.7606107484
  - # 14
    frequency:   15.1830896360
  - # 15
    frequency:   23.5120147133
  - # 16
    frequency:   23.5165654170
  - # 17
    frequency:   24.5400557479
  - # 18
    frequency:   43.5153625409

- q-position: [    0.0202020,    0.0000000,    0.0000000 ]
  distance:    0.0064085
  band:
  - # 1
    frequency:    0.0146588066
  - # 2
    frequency:    0.1753136261
  - # 3
    frequency:    0.3310783811
  - # 4
    frequency:    2.9830983363
  - # 5
    frequency:    2.9950542306
  - # 6
    frequency:    4.2392416752
  - # 7
    frequency:    4.2455658326
  - # 8
    frequency:    5.5470359102
  - # 9
    frequency:    6.3700522862
  - # 10
    frequency:    7.8278219564
  - # 11
    frequency:    7.8329529169
  - # 12
    frequency:    9.7476150798
  - # 13
    frequency:    9.7720101137
  - # 14
    frequency:   15.1726055816
  - # 15
    frequency:   23.5127552323
  - # 16
    frequency:   23.5206902267
  - # 17
    frequency:   24.5365539472
  - # 18
    frequency:   43.5103222520

- q-position: [    0.0252525,    0.0000000,    0.0000000 ]
  distance:    0.0080107
  band:
  - # 1
    frequency:    0.0228635305
  - # 2
    frequency:    0.2193583069
  - # 3
    frequency:    0.4137714917
  - # 4
    frequency:    2.9840908584
  - # 5
    frequency:    3.0026740231
  - # 6
    frequency:    4.2341454288
  - # 7
    frequency:    4.2439756604
  - # 8
    frequency:    5.5469458325
  - # 9
    frequency:    6.3668161044
  - # 10
    frequency:    7.8176050300
  - # 11
    frequency:    7.8256857219
  - # 12
    frequency:    9.7485887045
  - # 13
    frequency:    9.7866008613
  - # 14
    frequency:   15.1591925203
  - # 15
    frequency:   23.5137020218
  - # 16
    frequency:   23.5257866449
  - # 17
    frequency:   24.5322304552
  - # 18
    frequency:   43.5038539722

- q-position: [    0.0303030,    0.0000000,    0.0000000 ]
  distance:    0.0096128
  band:
  - # 1
    frequency:    0.0328525802
  - # 2
    frequency:    0.2635443203
  - # 3
    frequency:    0.4964147132
  - # 4
    frequency:    2.9853044693
  - # 5
    frequency:    3.0118915618
  - # 6
    frequency:    4.2279719590
  - # 7
    frequency:    4.2420355508
  - # 8
    frequency:    5.5468416211
  - # 9
    frequency:    6.3628635218
  - # 10
    frequency:    7.8051343267
  - # 11
    frequency:    7.8168821659
  - # 12
    frequency:    9.7497810278
  - # 13
    frequency:    9.8043344383
  - # 14
    frequency:   15.1428995255
  - # 15
    frequency:   23.5148511299
  - # 16
    frequency:   23.5316961720
  - # 17
    frequency:   24.5272234340
  - # 18
    frequency:   43.4959667352

- q-position: [    0.0353535,    0.0000000,    0.0000000 ]
  distance:    0.0112150
  band:
  - # 1
    frequency:    0.0446036856
  - # 2
    frequency:    0.3078970997
  - # 3
    frequency:    0.5789991215
  - # 4
    frequency:    2.9867393873
  - # 5
    frequency:    3.0226488950
  - # 6
    frequency:    4.2207565694
  - # 7
    frequency:    4.2397474084
  - # 8
    frequency:    5.5467267301
  - # 9
    frequency:    6.3581956735
  - # 10
    frequency:    7.7904199503
  - # 11
    frequency:    7.8065891841
  - # 12
    frequency:    9.7511934433
  - # 13
    frequency:    9.8251521860
  - # 14
    frequency:   15.1237857638
  - # 15
    frequency:   23.5161977581
  - # 16
    frequency:   23.5382217751
  - # 17
    frequency:   24.5217058424
  - # 18
    frequency:   43.4866715438

- q-position: [    0.0404040,    0.0000000,    0.0000000 ]
  distance:    0.0128171
  band:
  - # 1
    frequency:    0.0580914675
  - # 2
    frequency:    0.3524405542
  - # 3
    frequency:    0.6615163085
  - # 4
    frequency:    2.9883957799
  - # 5
    frequency:    3.0348767989
  - # 6
    frequency:    4.2125430299
  - # 7
    frequency:    4.2371133446
  - # 8
    frequency:    5.5466051774
  - # 9
    frequency:    6.3528134763
  - # 10
    frequency:    7.7734739465
  - # 11
    frequency:    7.7948620320
  - # 12
    frequency:    9.7528275893
  - # 13
    frequency:    9.8489857237
  - # 14
    frequency:   15.1019200411
  - # 15
    frequency:   23.5177362796
  - # 16
    frequency:   23.5451265448
  - # 17
    frequency:   24.5158872145
  - # 18
    frequency:   43.4759813461

- q-position: [    0.0454545,    0.0000000,    0.0000000 ]
  distance:    0.0144192
  band:
  - # 1
    frequency:    0.0732878454
  - # 2
    frequency:    0.3971968321
  - # 3
    frequency:    0.7439584209
  - # 4
    frequency:    2.9902737174
  - # 5
    frequency:    3.0484942168
  - # 6
    frequency:    4.2033847261
  - # 7
    frequency:    4.2341356115
  - # 8
    frequency:    5.5464815153
  - # 9
    frequency:    6.3467174633
  - # 10
    frequency:    7.7543103569
  - # 11
    frequency:    7.7817641514
  - # 12
    frequency:    9.7546853430
  - # 13
    frequency:    9.8757573825
  - # 14
    frequency:   15.0773802957
  - # 15
    frequency:   23.5194602612
  - # 16
    frequency:   23.5521328823
  - # 17
    frequency:   24.5100149591
  - # 18
    frequency:   43.4639110092

- q-position: [    0.0505051,    0.0000000,    0.0000000 ]
  distance:    0.0160214
  band:
  - # 1
    frequency:    0.0901624655
  - # 2
    frequency:    0.4421860910
  - # 3
    frequency:    0.8263181784
  - # 4
    frequency:    2.9923731185
  - # 5
    frequency:    3.0634074647
  - # 6
    frequency:    4.1933460882
  - # 7
    frequency:    4.2308165261
  - # 8
    frequency:    5.5463608009
  - # 9
    frequency:    6.3399076284
  - # 10
    frequency:    7.7329452833
  - # 11
    frequency:    7.7673669946
  - # 12
    frequency:    9.7567688144
  - # 13
    frequency:    9.9053806780
  - # 14
    frequency:   15.0502530509
  - # 15
    frequency:   23.5213624885
  - # 16
    frequency:   23.5589228118
  - # 17
    frequency:   24.5043745723
  - # 18
    frequency:   43.4504772881

- q-position: [    0.0555556,    0.0000000,    0.0000000 ]
  distance:    0.0176235
  band:
  - # 1
    frequency:    0.1086831383
  - # 2
    frequency:    0.4874262757
  - # 3
    frequency:    0.9085888693
  - # 4
    frequency:    2.9946936885
  - # 5
    frequency:    3.0795091410
  - # 6
    frequency:    4.1825043483
  - # 7
    frequency:    4.2271583889
  - # 8
    frequency:    5.5462485649
  - # 9
    frequency:    6.3323832901
  - # 10
    frequency:    7.7093969611
  - # 11
    frequency:    7.7517498014
  - # 12
    frequency:    9.7590803379
  - # 13
    frequency:    9.9377608126
  - # 14
    frequency:   15.0206328377
  - # 15
    frequency:   23.5234349939
  - # 16
    frequency:   23.5651402109
  - # 17
    frequency:   24.4992879579
  - # 18
    frequency:   43.4356987903

- q-position: [    0.0606061,    0.0000000,    0.0000000 ]
  distance:    0.0192256
  band:
  - # 1
    frequency:    0.1288162727
  - # 2
    frequency:    0.5329329049
  - # 3
    frequency:    0.9907643228
  - # 4
    frequency:    2.9972348486
  - # 5
    frequency:    3.0966766718
  - # 6
    frequency:    4.1709516810
  - # 7
    frequency:    4.2231633943
  - # 8
    frequency:    5.5461507789
  - # 9
    frequency:    6.3241429894
  - # 10
    frequency:    7.6836858449
  - # 11
    frequency:    7.7349993181
  - # 12
    frequency:    9.7616224632
  - # 13
    frequency:    9.9727951994
  - # 14
    frequency:   14.9886216021
  - # 15
    frequency:   23.5256690884
  - # 16
    frequency:   23.5703959152
  - # 17
    frequency:   24.4951088887
  - # 18
    frequency:   43.4195959381

- q-position: [    0.0656566,    0.0000000,    0.0000000 ]
  distance:    0.0208278
  band:
  - # 1
    frequency:    0.1505272972
  - # 2
    frequency:    0.5787188656
  - # 3
    frequency:    1.0728388546
  - # 4
    frequency:    2.9999956576
  - # 5
    frequency:    3.1147704223
  - # 6
    frequency:    4.1587977879
  - # 7
    frequency:    4.2188335363
  - # 8
    frequency:    5.5460738230
  - # 9
    frequency:    6.3151844312
  - # 10
    frequency:    7.6558347042
  - # 11
    frequency:    7.7172094527
  - # 12
    frequency:    9.7643979441
  - # 13
    frequency:   10.0103739973
  - # 14
    frequency:   14.9543281082
  - # 15
    frequency:   23.5280553953
  - # 16
    frequency:   23.5742766678
  - # 17
    frequency:   24.4922146238
  - # 18
    frequency:   43.4021909258

- q-position: [    0.0707071,    0.0000000,    0.0000000 ]
  distance:    0.0224299
  band:
  - # 1
    frequency:    0.1737810598
  - # 2
    frequency:    0.6247942167
  - # 3
    frequency:    1.1548071855
  - # 4
    frequency:    3.0029747248
  - # 5
    frequency:    3.1336313101
  - # 6
    frequency:    4.1461729787
  - # 7
    frequency:    4.2141705078
  - # 8
    frequency:    5.5460244512
  - # 9
    frequency:    6.3055044831
  - # 10
    frequency:    7.6258687314
  - # 11
    frequency:    7.6984808568
  - # 12
    frequency:    9.7674097259
  - # 13
    frequency:   10.0503806500
  - # 14
    frequency:   14.9178673483
  - # 15
    frequency:   23.5305838877
  - # 16
    frequency:   23.5763586139
  - # 17
    frequency:   24.4909929730
  - # 18
    frequency:   43.3835076745

- q-position: [    0.0757576,    0.0000000,    0.0000000 ]
  distance:    0.0240321
  band:
  - # 1
    frequency:    0.1985421998
  - # 2
    frequency:    0.6711660001
  - # 3
    frequency:    1.2366643318
  - # 4
    frequency:    3.0061701158
  - # 5
    frequency:    3.1530778785
  - # 6
    frequency:    4.1332317857
  - # 7
    frequency:    4.2091755966
  - # 8
    frequency:    5.5460097555
  - # 9
    frequency:    6.2950992418
  - # 10
    frequency:    7.5938156628
  - # 11
    frequency:    7.6789204251
  - # 12
    frequency:    9.7706609319
  - # 13
    frequency:   10.0926924206
  - # 14
    frequency:   14.8793599708
  - # 15
    frequency:   23.5332439287
  - # 16
    frequency:   23.5762253660
  - # 17
    frequency:   24.4918247715
  - # 18
    frequency:   43.3635717830

- q-position: [    0.0808081,    0.0000000,    0.0000000 ]
  distance:    0.0256342
  band:
  - # 1
    frequency:    0.2247754865
  - # 2
    frequency:    0.7178380606
  - # 3
    frequency:    1.3184054633
  - # 4
    frequency:    3.0095792489
  - # 5
    frequency:    3.1729028376
  - # 6
    frequency:    4.1201570974
  - # 7
    frequency:    4.2038495768
  - # 8
    frequency:    5.5460371266
  - # 9
    frequency:    6.2839641773
  - # 10
    frequency:    7.5597059120
  - # 11
    frequency:    7.6586407073
  - # 12
    frequency:    9.7741548485
  - # 13
    frequency:   10.1371809142
  - # 14
    frequency:   14.8389317341
  - # 15
    frequency:   23.5360243131
  - # 16
    frequency:   23.5734895616
  - # 17
    frequency:   24.4950628350
  - # 18
    frequency:   43.3424104755

- q-position: [    0.0858586,    0.0000000,    0.0000000 ]
  distance:    0.0272363
  band:
  - # 1
    frequency:    0.2524461208
  - # 2
    frequency:    0.7648108724
  - # 3
    frequency:    1.4000257295
  - # 4
    frequency:    3.0131987857
  - # 5
    frequency:    3.1928691830
  - # 6
    frequency:    4.1071647000
  - # 7
    frequency:    4.1981925965
  - # 8
    frequency:    5.5461142096
  - # 9
    frequency:    6.2720943637
  - # 10
    frequency:    7.5235727181
  - # 11
    frequency:    7.6377592250
  - # 12
    frequency:    9.7778949087
  - # 13
    frequency:   10.1837125849
  - # 14
    frequency:   14.7967129950
  - # 15
    frequency:   23.5389133135
  - # 16
    frequency:   23.5678155351
  - # 17
    frequency:   24.5010097661
  - # 18
    frequency:   43.3200525469

- q-position: [    0.0909091,    0.0000000,    0.0000000 ]
  distance:    0.0288385
  band:
  - # 1
    frequency:    0.2815199972
  - # 2
    frequency:    0.8120813729
  - # 3
    frequency:    1.4815200474
  - # 4
    frequency:    3.0170245128
  - # 5
    frequency:    3.2127061742
  - # 6
    frequency:    4.0945079420
  - # 7
    frequency:    4.1922040628
  - # 8
    frequency:    5.5462488519
  - # 9
    frequency:    6.2594848042
  - # 10
    frequency:    7.4854523083
  - # 11
    frequency:    7.6163976901
  - # 12
    frequency:    9.7818846760
  - # 13
    frequency:   10.2321492179
  - # 14
    frequency:   14.7528382383
  - # 15
    frequency:   23.5418987273
  - # 16
    frequency:   23.5589397071
  - # 17
    frequency:   24.5098980033
  - # 18
    frequency:   43.2965283042

- q-position: [    0.0959596,    0.0000000,    0.0000000 ]
  distance:    0.0304406
  band:
  - # 1
    frequency:    0.3119639255
  - # 2
    frequency:    0.8596428008
  - # 3
    frequency:    1.5628828482
  - # 4
    frequency:    3.0210512185
  - # 5
    frequency:    3.2321057465
  - # 6
    frequency:    4.0824819525
  - # 7
    frequency:    4.1858825235
  - # 8
    frequency:    5.5464490405
  - # 9
    frequency:    6.2461308545
  - # 10
    frequency:    7.4453840776
  - # 11
    frequency:    7.5946811231
  - # 12
    frequency:    9.7861278265
  - # 13
    frequency:   10.2823483865
  - # 14
    frequency:   14.7074456513
  - # 15
    frequency:   23.5449679264
  - # 16
    frequency:   23.5466851219
  - # 17
    frequency:   24.5218756767
  - # 18
    frequency:   43.2718695063

- q-position: [    0.1010101,    0.0000000,    0.0000000 ]
  distance:    0.0320427
  band:
  - # 1
    frequency:    0.3437458086
  - # 2
    frequency:    0.9074845393
  - # 3
    frequency:    1.6441077731
  - # 4
    frequency:    3.0252725623
  - # 5
    frequency:    3.2507203541
  - # 6
    frequency:    4.0714264173
  - # 7
    frequency:    4.1792255457
  - # 8
    frequency:    5.5467228239
  - # 9
    frequency:    6.2320287463
  - # 10
    frequency:    7.4034107848
  - # 11
    frequency:    7.5727368756
  - # 12
    frequency:    9.7906281315
  - # 13
    frequency:   10.3341638758
  - # 14
    frequency:   14.6606767492
  - # 15
    frequency:   23.5309675570
  - # 16
    frequency:   23.5481079090
  - # 17
    frequency:   24.5370008444
  - # 18
    frequency:   43.2461093006

- q-position: [    0.1060606,    0.0000000,    0.0000000 ]
  distance:    0.0336449
  band:
  - # 1
    frequency:    0.3768347789
  - # 2
    frequency:    0.9555919609
  - # 3
    frequency:    1.7251873075
  - # 4
    frequency:    3.0296809399
  - # 5
    frequency:    3.2681637974
  - # 6
    frequency:    4.0617253716
  - # 7
    frequency:    4.1722295924
  - # 8
    frequency:    5.5470782139
  - # 9
    frequency:    6.2171762108
  - # 10
    frequency:    7.3595787675
  - # 11
    frequency:    7.5506935619
  - # 12
    frequency:    9.7953894398
  - # 13
    frequency:   10.3874460725
  - # 14
    frequency:   14.6126760528
  - # 15
    frequency:   23.5117925223
  - # 16
    frequency:   23.5513053536
  - # 17
    frequency:   24.5552447888
  - # 18
    frequency:   43.2192821575

- q-position: [    0.1111111,    0.0000000,    0.0000000 ]
  distance:    0.0352470
  band:
  - # 1
    frequency:    0.4112012894
  - # 2
    frequency:    1.0039462726
  - # 3
    frequency:    1.8061123351
  - # 4
    frequency:    3.0342673439
  - # 5
    frequency:    3.2840171530
  - # 6
    frequency:    4.0538019045
  - # 7
    frequency:    4.1648898951
  - # 8
    frequency:    5.5475230611
  - # 9
    frequency:    6.2015731961
  - # 10
    frequency:    7.3139381778
  - # 11
    frequency:    7.5286799157
  - # 12
    frequency:    9.8004156599
  - # 13
    frequency:   10.4420423162
  - # 14
    frequency:   14.5635908208
  - # 15
    frequency:   23.4892445356
  - # 16
    frequency:   23.5545466741
  - # 17
    frequency:   24.5765029869
  - # 18
    frequency:   43.1914238026

- q-position: [    0.1161616,    0.0000000,    0.0000000 ]
  distance:    0.0368491
  band:
  - # 1
    frequency:    0.4468171595
  - # 2
    frequency:    1.0525243591
  - # 3
    frequency:    1.8868715849
  - # 4
    frequency:    3.0390212198
  - # 5
    frequency:    3.2978422130
  - # 6
    frequency:    4.0481053931
  - # 7
    frequency:    4.1572003241
  - # 8
    frequency:    5.5480648951
  - # 9
    frequency:    6.1852226698
  - # 10
    frequency:    7.2665432396
  - # 11
    frequency:    7.5068235873
  - # 12
    frequency:    9.8057107429
  - # 13
    frequency:   10.4977972088
  - # 14
    frequency:   14.5135708386
  - # 15
    frequency:   23.4634714787
  - # 16
    frequency:   23.5578180770
  - # 17
    frequency:   24.6006109491
  - # 18
    frequency:   43.1625711475

- q-position: [    0.1212121,    0.0000000,    0.0000000 ]
  distance:    0.0384513
  band:
  - # 1
    frequency:    0.4836555742
  - # 2
    frequency:    1.1012986203
  - # 3
    frequency:    1.9674509269
  - # 4
    frequency:    3.0439303205
  - # 5
    frequency:    3.3092043405
  - # 6
    frequency:    4.0450893991
  - # 7
    frequency:    4.1491532565
  - # 8
    frequency:    5.5487107198
  - # 9
    frequency:    6.1681314964
  - # 10
    frequency:    7.2174525302
  - # 11
    frequency:    7.4852499099
  - # 12
    frequency:    9.8112786654
  - # 13
    frequency:   10.5545528807
  - # 14
    frequency:   14.4627682635
  - # 15
    frequency:   23.4346672207
  - # 16
    frequency:   23.5611056191
  - # 17
    frequency:   24.6273617412
  - # 18
    frequency:   43.1327622182

- q-position: [    0.1262626,    0.0000000,    0.0000000 ]
  distance:    0.0400534
  band:
  - # 1
    frequency:    0.5216910330
  - # 2
    frequency:    1.1502368001
  - # 3
    frequency:    2.0478324480
  - # 4
    frequency:    3.0489805576
  - # 5
    frequency:    3.3177048095
  - # 6
    frequency:    4.0451802242
  - # 7
    frequency:    4.1407394416
  - # 8
    frequency:    5.5494667512
  - # 9
    frequency:    6.1503113740
  - # 10
    frequency:    7.1667292879
  - # 11
    frequency:    7.4640806627
  - # 12
    frequency:    9.8171234138
  - # 13
    frequency:   10.6121492096
  - # 14
    frequency:   14.4113375261
  - # 15
    frequency:   23.4030551542
  - # 16
    frequency:   23.5643952676
  - # 17
    frequency:   24.6565225468
  - # 18
    frequency:   43.1020360824

- q-position: [    0.1313131,    0.0000000,    0.0000000 ]
  distance:    0.0416556
  band:
  - # 1
    frequency:    0.5608992477
  - # 2
    frequency:    1.1993018031
  - # 3
    frequency:    2.1279931970
  - # 4
    frequency:    3.0541558513
  - # 5
    frequency:    3.3230194075
  - # 6
    frequency:    4.0487394547
  - # 7
    frequency:    4.1319478659
  - # 8
    frequency:    5.5503380801
  - # 9
    frequency:    6.1317798181
  - # 10
    frequency:    7.1144417475
  - # 11
    frequency:    7.4434328687
  - # 12
    frequency:    9.8232489680
  - # 13
    frequency:   10.6704239898
  - # 14
    frequency:   14.3594352884
  - # 15
    frequency:   23.3688742978
  - # 16
    frequency:   23.5676729598
  - # 17
    frequency:   24.6878486157
  - # 18
    frequency:   43.0704327751

- q-position: [    0.1363636,    0.0000000,    0.0000000 ]
  distance:    0.0432577
  band:
  - # 1
    frequency:    0.6012569833
  - # 2
    frequency:    1.2484514922
  - # 3
    frequency:    2.2079034139
  - # 4
    frequency:    3.0594379788
  - # 5
    frequency:    3.3249363570
  - # 6
    frequency:    4.0560276173
  - # 7
    frequency:    4.1227656190
  - # 8
    frequency:    5.5513282373
  - # 9
    frequency:    6.1125611801
  - # 10
    frequency:    7.0606635066
  - # 11
    frequency:    7.4234176646
  - # 12
    frequency:    9.8296592869
  - # 13
    frequency:   10.7292130513
  - # 14
    frequency:   14.3072204563
  - # 15
    frequency:   23.3323686244
  - # 16
    frequency:   23.5709246639
  - # 17
    frequency:   24.7210939451
  - # 18
    frequency:   43.0379932238

- q-position: [    0.1414141,    0.0000000,    0.0000000 ]
  distance:    0.0448598
  band:
  - # 1
    frequency:    0.6427418397
  - # 2
    frequency:    1.2976384627
  - # 3
    frequency:    2.2875239230
  - # 4
    frequency:    3.0648064214
  - # 5
    frequency:    3.3233846776
  - # 6
    frequency:    4.0671781431
  - # 7
    frequency:    4.1131777649
  - # 8
    frequency:    5.5524386338
  - # 9
    frequency:    6.0926876990
  - # 10
    frequency:    7.0054739226
  - # 11
    frequency:    7.4041392823
  - # 12
    frequency:    9.8363582936
  - # 13
    frequency:   10.7883503248
  - # 14
    frequency:   14.2548542469
  - # 15
    frequency:   23.2937795433
  - # 16
    frequency:   23.5741364403
  - # 17
    frequency:   24.7560187648
  - # 18
    frequency:   43.0047591720

- q-position: [    0.1464646,    0.0000000,    0.0000000 ]
  distance:    0.0464620
  band:
  - # 1
    frequency:    0.6853319696
  - # 2
    frequency:    1.3468097859
  - # 3
    frequency:    2.3668021245
  - # 4
    frequency:    3.0702382093
  - # 5
    frequency:    3.3184461025
  - # 6
    frequency:    4.0821890871
  - # 7
    frequency:    4.1031672227
  - # 8
    frequency:    5.5536678333
  - # 9
    frequency:    6.0722005952
  - # 10
    frequency:    6.9489585447
  - # 11
    frequency:    7.3856941805
  - # 12
    frequency:    9.8433498618
  - # 13
    frequency:   10.8476678529
  - # 14
    frequency:   14.2025003054
  - # 15
    frequency:   23.2533410592
  - # 16
    frequency:   23.5772945028
  - # 17
    frequency:   24.7923943088
  - # 18
    frequency:   42.9707731022

- q-position: [    0.1515152,    0.0000000,    0.0000000 ]
  distance:    0.0480641
  band:
  - # 1
    frequency:    0.7290057269
  - # 2
    frequency:    1.3959067120
  - # 3
    frequency:    2.4456655311
  - # 4
    frequency:    3.0757077632
  - # 5
    frequency:    3.3103496511
  - # 6
    frequency:    4.0927146662
  - # 7
    frequency:    4.1009345555
  - # 8
    frequency:    5.5550106055
  - # 9
    frequency:    6.0511512360
  - # 10
    frequency:    6.8912095769
  - # 11
    frequency:    7.3681703565
  - # 12
    frequency:    9.8506378013
  - # 13
    frequency:   10.9069957489
  - # 14
    frequency:   14.1503248709
  - # 15
    frequency:   23.2112769913
  - # 16
    frequency:   23.5803852797
  - # 17
    frequency:   24.8300054920
  - # 18
    frequency:   42.9360781591

- q-position: [    0.1565657,    0.0000000,    0.0000000 ]
  distance:    0.0496662
  band:
  - # 1
    frequency:    0.7737412421
  - # 2
    frequency:    1.4448643233
  - # 3
    frequency:    2.5240107968
  - # 4
    frequency:    3.0811867309
  - # 5
    frequency:    3.2994553654
  - # 6
    frequency:    4.0817984533
  - # 7
    frequency:    4.1231913849
  - # 8
    frequency:    5.5564566845
  - # 9
    frequency:    6.0296024301
  - # 10
    frequency:    6.8323263762
  - # 11
    frequency:    7.3516468657
  - # 12
    frequency:    9.8582258451
  - # 13
    frequency:   10.9661621034
  - # 14
    frequency:   14.0984969838
  - # 15
    frequency:   23.1677996560
  - # 16
    frequency:   23.5833954742
  - # 17
    frequency:   24.8686520910
  - # 18
    frequency:   42.9007180710

- q-position: [    0.1616162,    0.0000000,    0.0000000 ]
  distance:    0.0512684
  band:
  - # 1
    frequency:    0.8195159207
  - # 2
    frequency:    1.4936111240
  - # 3
    frequency:    2.6016840124
  - # 4
    frequency:    3.0866438149
  - # 5
    frequency:    3.2862397303
  - # 6
    frequency:    4.0703946023
  - # 7
    frequency:    4.1486727838
  - # 8
    frequency:    5.5579891310
  - # 9
    frequency:    6.0076299479
  - # 10
    frequency:    6.7724159778
  - # 11
    frequency:    7.3361935604
  - # 12
    frequency:    9.8661176347
  - # 13
    frequency:   11.0249928465
  - # 14
    frequency:   14.0471887264
  - # 15
    frequency:   23.1231095171
  - # 16
    frequency:   23.5863121244
  - # 17
    frequency:   24.9081489294
  - # 18
    frequency:   42.8647370729

- q-position: [    0.1666667,    0.0000000,    0.0000000 ]
  distance:    0.0528705
  band:
  - # 1
    frequency:    0.8663058586
  - # 2
    frequency:    1.5420685523
  - # 3
    frequency:    2.6784429960
  - # 4
    frequency:    3.0920445886
  - # 5
    frequency:    3.2713001791
  - # 6
    frequency:    4.0584768375
  - # 7
    frequency:    4.1770608118
  - # 8
    frequency:    5.5595821591
  - # 9
    frequency:    5.9853244090
  - # 10
    frequency:    6.7115936460
  - # 11
    frequency:    7.3218710539
  - # 12
    frequency:    9.8743167059
  - # 13
    frequency:   11.0833115739
  - # 14
    frequency:   13.9965754866
  - # 15
    frequency:   23.0773954261
  - # 16
    frequency:   23.5891226620
  - # 17
    frequency:   24.9483254469
  - # 18
    frequency:   42.8281798283

- q-position: [    0.1717172,    0.0000000,    0.0000000 ]
  distance:    0.0544726
  band:
  - # 1
    frequency:    0.9140851728
  - # 2
    frequency:    1.5901503943
  - # 3
    frequency:    2.7538797807
  - # 4
    frequency:    3.0973512933
  - # 5
    frequency:    3.2554057125
  - # 6
    frequency:    4.0460167365
  - # 7
    frequency:    4.2080324780
  - # 8
    frequency:    5.5611982416
  - # 9
    frequency:    5.9627937419
  - # 10
    frequency:    6.6499834381
  - # 11
    frequency:    7.3087309003
  - # 12
    frequency:    9.8828264731
  - # 13
    frequency:   11.1409393531
  - # 14
    frequency:   13.9468362230
  - # 15
    frequency:   23.0308351860
  - # 16
    frequency:   23.5918149697
  - # 17
    frequency:   24.9890249227
  - # 18
    frequency:   42.7910913519

- q-position: [    0.1767677,    0.0000000,    0.0000000 ]
  distance:    0.0560748
  band:
  - # 1
    frequency:    0.9628252442
  - # 2
    frequency:    1.6377620774
  - # 3
    frequency:    2.8272483791
  - # 4
    frequency:    3.1025226102
  - # 5
    frequency:    3.2396503518
  - # 6
    frequency:    4.0329840196
  - # 7
    frequency:    4.2412776713
  - # 8
    frequency:    5.5627842512
  - # 9
    frequency:    5.9401664817
  - # 10
    frequency:    6.5877187693
  - # 11
    frequency:    7.2968159720
  - # 12
    frequency:    9.8916502125
  - # 13
    frequency:   11.1976945333
  - # 14