nqpoint: 300    
npath: 3      
segment_nqpoint:
- 100
- 100
- 100
labels:
- [ 'G', 'M' ]
- [ 'M', 'K' ]
- [ 'K', 'G' ]
reciprocal_lattice:
- [   0.29641873,   0.17113743,   0.00000000 ] # a*
- [   0.00000000,   0.34227486,   0.00000000 ] # b*
- [   0.00000000,   0.00000000,   0.03872621 ] # c*
natom: 6      
lattice:
- [     3.373606016746285,     0.000000000000000,     0.000000000000000 ] # a
- [    -1.686803008373142,     2.921628512860551,     0.000000000000000 ] # b
- [     0.000000000000000,     0.000000000000000,    25.822305681333432 ] # c
points:
- symbol: C # 1
  coordinates: [  0.000000000000000,  0.000000000000000,  0.466700942289229 ]
  mass: 12.010700
- symbol: Cl # 2
  coordinates: [  0.666666984744048,  0.333332985985145,  0.348535878672754 ]
  mass: 35.453000
- symbol: O # 3
  coordinates: [  0.333332985432215,  0.666666983183674,  0.651464121327246 ]
  mass: 15.999400
- symbol: P # 4
  coordinates: [  0.333332985432215,  0.666666983183674,  0.593649562558450 ]
  mass: 30.973762
- symbol: Zr # 5
  coordinates: [  0.333332985432215,  0.666666983183674,  0.418469951735116 ]
  mass: 91.224000
- symbol: Zr # 6
  coordinates: [  0.666666984744048,  0.333332985985145,  0.516344480272952 ]
  mass: 91.224000

phonon:
- q-position: [    0.0000000,    0.0000000,    0.0000000 ]
  distance:    0.0000000
  band:
  - # 1
    frequency:   -3.1675551260
  - # 2
    frequency:   -3.1675551260
  - # 3
    frequency:   -0.0000077016
  - # 4
    frequency:   -0.0000002280
  - # 5
    frequency:    0.0000054482
  - # 6
    frequency:    2.9247348983
  - # 7
    frequency:    2.9247348983
  - # 8
    frequency:    4.4129298122
  - # 9
    frequency:    4.4129298122
  - # 10
    frequency:    4.5518686952
  - # 11
    frequency:    5.7362314264
  - # 12
    frequency:    5.7362314264
  - # 13
    frequency:    7.9707505204
  - # 14
    frequency:    9.2248061167
  - # 15
    frequency:   15.0136892429
  - # 16
    frequency:   16.5246427462
  - # 17
    frequency:   16.5246427462
  - # 18
    frequency:   34.2100771539

- q-position: [    0.0050505,    0.0000000,    0.0000000 ]
  distance:    0.0017287
  band:
  - # 1
    frequency:   -3.1682465292
  - # 2
    frequency:   -3.1667227881
  - # 3
    frequency:    0.0020018783
  - # 4
    frequency:    0.0617111889
  - # 5
    frequency:    0.0882296829
  - # 6
    frequency:    2.9253241085
  - # 7
    frequency:    2.9264967623
  - # 8
    frequency:    4.4062384278
  - # 9
    frequency:    4.4128477519
  - # 10
    frequency:    4.5593160154
  - # 11
    frequency:    5.7361628294
  - # 12
    frequency:    5.7367874914
  - # 13
    frequency:    7.9705044181
  - # 14
    frequency:    9.2245020583
  - # 15
    frequency:   15.0135467609
  - # 16
    frequency:   16.5238535183
  - # 17
    frequency:   16.5242509984
  - # 18
    frequency:   34.2098616034

- q-position: [    0.0101010,    0.0000000,    0.0000000 ]
  distance:    0.0034573
  band:
  - # 1
    frequency:   -3.1703162639
  - # 2
    frequency:   -3.1642386390
  - # 3
    frequency:    0.0079910962
  - # 4
    frequency:    0.1233828489
  - # 5
    frequency:    0.1765365988
  - # 6
    frequency:    2.9270899221
  - # 7
    frequency:    2.9317629638
  - # 8
    frequency:    4.3893372064
  - # 9
    frequency:    4.4126027306
  - # 10
    frequency:    4.5784861076
  - # 11
    frequency:    5.7359586185
  - # 12
    frequency:    5.7384569928
  - # 13
    frequency:    7.9697666019
  - # 14
    frequency:    9.2235906320
  - # 15
    frequency:   15.0131194048
  - # 16
    frequency:   16.5214883985
  - # 17
    frequency:   16.5230761714
  - # 18
    frequency:   34.2092153117

- q-position: [    0.0151515,    0.0000000,    0.0000000 ]
  distance:    0.0051860
  band:
  - # 1
    frequency:   -3.1737510121
  - # 2
    frequency:   -3.1601411830
  - # 3
    frequency:    0.0179188943
  - # 4
    frequency:    0.1849767917
  - # 5
    frequency:    0.2649967851
  - # 6
    frequency:    2.9300268925
  - # 7
    frequency:    2.9404757494
  - # 8
    frequency:    4.3672584730
  - # 9
    frequency:    4.4121982235
  - # 10
    frequency:    4.6043500534
  - # 11
    frequency:    5.7356235131
  - # 12
    frequency:    5.7412437994
  - # 13
    frequency:    7.9685385508
  - # 14
    frequency:    9.2220740699
  - # 15
    frequency:   15.0124074452
  - # 16
    frequency:   16.5175550698
  - # 17
    frequency:   16.5211195181
  - # 18
    frequency:   34.2081393563

- q-position: [    0.0202020,    0.0000000,    0.0000000 ]
  distance:    0.0069146
  band:
  - # 1
    frequency:   -3.1785289292
  - # 2
    frequency:   -3.1544942834
  - # 3
    frequency:    0.0317058903
  - # 4
    frequency:    0.2464574469
  - # 5
    frequency:    0.3536838371
  - # 6
    frequency:    2.9341259552
  - # 7
    frequency:    2.9525402044
  - # 8
    frequency:    4.3430895982
  - # 9
    frequency:    4.4116400085
  - # 10
    frequency:    4.6338268856
  - # 11
    frequency:    5.7351653110
  - # 12
    frequency:    5.7451541886
  - # 13
    frequency:    7.9668227523
  - # 14
    frequency:    9.2199560417
  - # 15
    frequency:   15.0114113347
  - # 16
    frequency:   16.5120663117
  - # 17
    frequency:   16.5183831381
  - # 18
    frequency:   34.2066355306

- q-position: [    0.0252525,    0.0000000,    0.0000000 ]
  distance:    0.0086433
  band:
  - # 1
    frequency:   -3.1846201482
  - # 2
    frequency:   -3.1473866622
  - # 3
    frequency:    0.0492447081
  - # 4
    frequency:    0.3077930203
  - # 5
    frequency:    0.4426675618
  - # 6
    frequency:    2.9393744483
  - # 7
    frequency:    2.9678260856
  - # 8
    frequency:    4.3183648984
  - # 9
    frequency:    4.4109361454
  - # 10
    frequency:    4.6653927846
  - # 11
    frequency:    5.7345947873
  - # 12
    frequency:    5.7501965876
  - # 13
    frequency:    7.9646227368
  - # 14
    frequency:    9.2172415815
  - # 15
    frequency:   15.0101317112
  - # 16
    frequency:   16.5050399604
  - # 17
    frequency:   16.5148699942
  - # 18
    frequency:   34.2047063386

- q-position: [    0.0303030,    0.0000000,    0.0000000 ]
  distance:    0.0103720
  band:
  - # 1
    frequency:   -3.1919874439
  - # 2
    frequency:   -3.1389311311
  - # 3
    frequency:    0.0704033679
  - # 4
    frequency:    0.3689564814
  - # 5
    frequency:    0.5320124987
  - # 6
    frequency:    2.9457561408
  - # 7
    frequency:    2.9861700595
  - # 8
    frequency:    4.2938810575
  - # 9
    frequency:    4.4100969465
  - # 10
    frequency:    4.6982672100
  - # 11
    frequency:    5.7339255550
  - # 12
    frequency:    5.7563812063
  - # 13
    frequency:    7.9619431241
  - # 14
    frequency:    9.2139369848
  - # 15
    frequency:   15.0085694024
  - # 16
    frequency:   16.4964988542
  - # 17
    frequency:   16.5105839360
  - # 18
    frequency:   34.2023549882

- q-position: [    0.0353535,    0.0000000,    0.0000000 ]
  distance:    0.0121006
  band:
  - # 1
    frequency:   -3.2005870175
  - # 2
    frequency:   -3.1292634943
  - # 3
    frequency:    0.0950291759
  - # 4
    frequency:    0.4299263430
  - # 5
    frequency:    0.6217762904
  - # 6
    frequency:    2.9532512697
  - # 7
    frequency:    3.0073780755
  - # 8
    frequency:    4.2701061915
  - # 9
    frequency:    4.4091349381
  - # 10
    frequency:    4.7320058570
  - # 11
    frequency:    5.7331738902
  - # 12
    frequency:    5.7637195564
  - # 13
    frequency:    7.9587896827
  - # 14
    frequency:    9.2100496802
  - # 15
    frequency:   15.0067254329
  - # 16
    frequency:   16.4864707613
  - # 17
    frequency:   16.5055297288
  - # 18
    frequency:   34.1995853837

- q-position: [    0.0404040,    0.0000000,    0.0000000 ]
  distance:    0.0138293
  band:
  - # 1
    frequency:   -3.2103693614
  - # 2
    frequency:   -3.1185410542
  - # 3
    frequency:    0.1229528625
  - # 4
    frequency:    0.4906872046
  - # 5
    frequency:    0.7120079079
  - # 6
    frequency:    2.9618365860
  - # 7
    frequency:    3.0312276022
  - # 8
    frequency:    4.2473580759
  - # 9
    frequency:    4.4080648125
  - # 10
    frequency:    4.7663249283
  - # 11
    frequency:    5.7323585239
  - # 12
    frequency:    5.7722238544
  - # 13
    frequency:    7.9551694005
  - # 14
    frequency:    9.2055880763
  - # 15
    frequency:   15.0046010349
  - # 16
    frequency:   16.4749882919
  - # 17
    frequency:   16.4997130886
  - # 18
    frequency:   34.1964021149

- q-position: [    0.0454545,    0.0000000,    0.0000000 ]
  distance:    0.0155579
  band:
  - # 1
    frequency:   -3.2212801588
  - # 2
    frequency:   -3.1069406547
  - # 3
    frequency:    0.1539927314
  - # 4
    frequency:    0.5512300491
  - # 5
    frequency:    0.8027457633
  - # 6
    frequency:    2.9714854088
  - # 7
    frequency:    3.0574694827
  - # 8
    frequency:    4.2258849528
  - # 9
    frequency:    4.4069033716
  - # 10
    frequency:    4.8010233018
  - # 11
    frequency:    5.7315004039
  - # 12
    frequency:    5.7819063068
  - # 13
    frequency:    7.9510905655
  - # 14
    frequency:    9.2005613865
  - # 15
    frequency:   15.0021976620
  - # 16
    frequency:   16.4620887926
  - # 17
    frequency:   16.4931407215
  - # 18
    frequency:   34.1928104455

- q-position: [    0.0505051,    0.0000000,    0.0000000 ]
  distance:    0.0172866
  band:
  - # 1
    frequency:   -3.2332611800
  - # 2
    frequency:   -3.0946562061
  - # 3
    frequency:    0.1879586299
  - # 4
    frequency:    0.6115522913
  - # 5
    frequency:    0.8940157703
  - # 6
    frequency:    2.9821676888
  - # 7
    frequency:    3.0858292356
  - # 8
    frequency:    4.2059054564
  - # 9
    frequency:    4.4056694605
  - # 10
    frequency:    4.8359460246
  - # 11
    frequency:    5.7306224311
  - # 12
    frequency:    5.7927782801
  - # 13
    frequency:    7.9465628559
  - # 14
    frequency:    9.1949794350
  - # 15
    frequency:   14.9995170083
  - # 16
    frequency:   16.4478142236
  - # 17
    frequency:   16.4858203684
  - # 18
    frequency:   34.1888162996

- q-position: [    0.0555556,    0.0000000,    0.0000000 ]
  distance:    0.0190153
  band:
  - # 1
    frequency:   -3.2462511378
  - # 2
    frequency:   -3.0818956619
  - # 3
    frequency:    0.2246555972
  - # 4
    frequency:    0.6716575903
  - # 5
    frequency:    0.9858294409
  - # 6
    frequency:    2.9938500798
  - # 7
    frequency:    3.1160077268
  - # 8
    frequency:    4.1876304264
  - # 9
    frequency:    4.4043838923
  - # 10
    frequency:    4.8709662845
  - # 11
    frequency:    5.7297491725
  - # 12
    frequency:    5.8048493638
  - # 13
    frequency:    7.9415974364
  - # 14
    frequency:    9.1888524472
  - # 15
    frequency:   14.9965610335
  - # 16
    frequency:   16.4322110163
  - # 17
    frequency:   16.4777608522
  - # 18
    frequency:   34.1844262460

- q-position: [    0.0606061,    0.0000000,    0.0000000 ]
  distance:    0.0207439
  band:
  - # 1
    frequency:   -3.2601864744
  - # 2
    frequency:   -3.0688774487
  - # 3
    frequency:    0.2638871030
  - # 4
    frequency:    0.7315554468
  - # 5
    frequency:    1.0781821289
  - # 6
    frequency:    3.0064960187
  - # 7
    frequency:    3.1476812787
  - # 8
    frequency:    4.1712760777
  - # 9
    frequency:    4.4030693649
  - # 10
    frequency:    4.9059762148
  - # 11
    frequency:    5.7289065580
  - # 12
    frequency:    5.8181263446
  - # 13
    frequency:    7.9362070593
  - # 14
    frequency:    9.1821908280
  - # 15
    frequency:   14.9933319938
  - # 16
    frequency:   16.4153299143
  - # 17
    frequency:   16.4689721292
  - # 18
    frequency:   34.1796474820

- q-position: [    0.0656566,    0.0000000,    0.0000000 ]
  distance:    0.0224726
  band:
  - # 1
    frequency:   -3.2750020580
  - # 2
    frequency:   -3.0558263990
  - # 3
    frequency:    0.3054578301
  - # 4
    frequency:    0.7912606124
  - # 5
    frequency:    1.1710515432
  - # 6
    frequency:    3.0200658123
  - # 7
    frequency:    3.1805014728
  - # 8
    frequency:    4.1570725471
  - # 9
    frequency:    4.4017503693
  - # 10
    frequency:    4.9408821938
  - # 11
    frequency:    5.7281215634
  - # 12
    frequency:    5.8326121167
  - # 13
    frequency:    7.9304061680
  - # 14
    frequency:    9.1750049329
  - # 15
    frequency:   14.9898324814
  - # 16
    frequency:   16.3972257930
  - # 17
    frequency:   16.4594653415
  - # 18
    frequency:   34.1744878141

- q-position: [    0.0707071,    0.0000000,    0.0000000 ]
  distance:    0.0242013
  band:
  - # 1
    frequency:   -3.2906317770
  - # 2
    frequency:   -3.0429692807
  - # 3
    frequency:    0.3491759925
  - # 4
    frequency:    0.8507923454
  - # 5
    frequency:    1.2643966517
  - # 6
    frequency:    3.0345167314
  - # 7
    frequency:    3.2140951634
  - # 8
    frequency:    4.1452693634
  - # 9
    frequency:    4.4004530911
  - # 10
    frequency:    4.9756025430
  - # 11
    frequency:    5.7274218841
  - # 12
    frequency:    5.8483045689
  - # 13
    frequency:    7.9242109984
  - # 14
    frequency:    9.1673048357
  - # 15
    frequency:   14.9860654710
  - # 16
    frequency:   16.3779574616
  - # 17
    frequency:   16.4492528710
  - # 18
    frequency:   34.1689556387

- q-position: [    0.0757576,    0.0000000,    0.0000000 ]
  distance:    0.0259299
  band:
  - # 1
    frequency:   -3.3070090256
  - # 2
    frequency:   -3.0305300716
  - # 3
    frequency:    0.3948552033
  - # 4
    frequency:    0.9101735466
  - # 5
    frequency:    1.3581570799
  - # 6
    frequency:    3.0498031097
  - # 7
    frequency:    3.2480655555
  - # 8
    frequency:    4.1361380663
  - # 9
    frequency:    4.3992053077
  - # 10
    frequency:    5.0100665373
  - # 11
    frequency:    5.7268356063
  - # 12
    frequency:    5.8651954955
  - # 13
    frequency:    7.9176396759
  - # 14
    frequency:    9.1591000983
  - # 15
    frequency:   14.9820343755
  - # 16
    frequency:   16.3575874437
  - # 17
    frequency:   16.4383483940
  - # 18
    frequency:   34.1630599202

- q-position: [    0.0808081,    0.0000000,    0.0000000 ]
  distance:    0.0276586
  band:
  - # 1
    frequency:   -3.3240670827
  - # 2
    frequency:   -3.0187251631
  - # 3
    frequency:    0.4423159199
  - # 4
    frequency:    0.9694298134
  - # 5
    frequency:    1.4522530719
  - # 6
    frequency:    3.0658764474
  - # 7
    frequency:    3.2819956001
  - # 8
    frequency:    4.1299713314
  - # 9
    frequency:    4.3980362794
  - # 10
    frequency:    5.0442141186
  - # 11
    frequency:    5.7263908780
  - # 12
    frequency:    5.8832695918
  - # 13
    frequency:    7.9107123029
  - # 14
    frequency:    9.1503995463
  - # 15
    frequency:   14.9777431101
  - # 16
    frequency:   16.3361817394
  - # 17
    frequency:   16.4267669348
  - # 18
    frequency:   34.1568101684

- q-position: [    0.0858586,    0.0000000,    0.0000000 ]
  distance:    0.0293872
  band:
  - # 1
    frequency:   -3.3417393907
  - # 2
    frequency:   -3.0077587052
  - # 3
    frequency:    0.4913865012
  - # 4
    frequency:    1.0285884458
  - # 5
    frequency:    1.5465860319
  - # 6
    frequency:    3.0826855190
  - # 7
    frequency:    3.3154553379
  - # 8
    frequency:    4.1270773573
  - # 9
    frequency:    4.3969766398
  - # 10
    frequency:    5.0779959404
  - # 11
    frequency:    5.7261155849
  - # 12
    frequency:    5.9025035998
  - # 13
    frequency:    7.9034510332
  - # 14
    frequency:    9.1412110574
  - # 15
    frequency:   14.9731961652
  - # 16
    frequency:   16.3138095675
  - # 17
    frequency:   16.4145249173
  - # 18
    frequency:   34.1502164145

- q-position: [    0.0909091,    0.0000000,    0.0000000 ]
  distance:    0.0311159
  band:
  - # 1
    frequency:   -3.3599597444
  - # 2
    frequency:   -2.9978183080
  - # 3
    frequency:    0.5419039121
  - # 4
    frequency:    1.0876774383
  - # 5
    frequency:    1.6410396103
  - # 6
    frequency:    3.1001764825
  - # 7
    frequency:    3.3480149586
  - # 8
    frequency:    4.1277680068
  - # 9
    frequency:    4.3960582840
  - # 10
    frequency:    5.1113735033
  - # 11
    frequency:    5.7260370368
  - # 12
    frequency:    5.9228656680
  - # 13
    frequency:    7.8958801274
  - # 14
    frequency:    9.1315413656
  - # 15
    frequency:   14.9683986858
  - # 16
    frequency:   16.2905430888
  - # 17
    frequency:   16.4016402147
  - # 18
    frequency:   34.1432891855

- q-position: [    0.0959596,    0.0000000,    0.0000000 ]
  distance:    0.0328446
  band:
  - # 1
    frequency:   -3.3786624056
  - # 2
    frequency:   -2.9890712993
  - # 3
    frequency:    0.5937141120
  - # 4
    frequency:    1.1467244883
  - # 5
    frequency:    1.7354812351
  - # 6
    frequency:    3.1182929925
  - # 7
    frequency:    3.3792649001
  - # 8
    frequency:    4.1323395705
  - # 9
    frequency:    4.3953142565
  - # 10
    frequency:    5.1443192149
  - # 11
    frequency:    5.7261816653
  - # 12
    frequency:    5.9443149874
  - # 13
    frequency:    7.8880259849
  - # 14
    frequency:    9.1213958878
  - # 15
    frequency:   14.9633565586
  - # 16
    frequency:   16.2664571129
  - # 17
    frequency:   16.3881321946
  - # 18
    frequency:   34.1360394783

- q-position: [    0.1010101,    0.0000000,    0.0000000 ]
  distance:    0.0345732
  band:
  - # 1
    frequency:   -3.3977821571
  - # 2
    frequency:   -2.9816616961
  - # 3
    frequency:    0.6466721591
  - # 4
    frequency:    1.2057560464
  - # 5
    frequency:    1.8297639478
  - # 6
    frequency:    3.1369763150
  - # 7
    frequency:    3.4088428870
  - # 8
    frequency:    4.1410464084
  - # 9
    frequency:    4.3947786410
  - # 10
    frequency:    5.1768162669
  - # 11
    frequency:    5.7265747402
  - # 12
    frequency:    5.9668017479
  - # 13
    frequency:    7.8799171472
  - # 14
    frequency:    9.1107785760
  - # 15
    frequency:   14.9580765020
  - # 16
    frequency:   16.2416287880
  - # 17
    frequency:   16.3740217606
  - # 18
    frequency:   34.1284787315

- q-position: [    0.1060606,    0.0000000,    0.0000000 ]
  distance:    0.0363019
  band:
  - # 1
    frequency:   -3.4172543127
  - # 2
    frequency:   -2.9757079992
  - # 3
    frequency:    0.7006420682
  - # 4
    frequency:    1.2647964313
  - # 5
    frequency:    1.9237283598
  - # 6
    frequency:    3.1561654470
  - # 7
    frequency:    3.4364653008
  - # 8
    frequency:    4.1540702015
  - # 9
    frequency:    4.3944864499
  - # 10
    frequency:    5.2088582612
  - # 11
    frequency:    5.7272401042
  - # 12
    frequency:    5.9902674414
  - # 13
    frequency:    7.8715842665
  - # 14
    frequency:    9.0996918007
  - # 15
    frequency:   14.9525661577
  - # 16
    frequency:   16.2161372784
  - # 17
    frequency:   16.3593313867
  - # 18
    frequency:   34.1206187979

- q-position: [    0.1111111,    0.0000000,    0.0000000 ]
  distance:    0.0380305
  band:
  - # 1
    frequency:   -3.4370146997
  - # 2
    frequency:   -2.9713018554
  - # 3
    frequency:    0.7554964570
  - # 4
    frequency:    1.3238670266
  - # 5
    frequency:    2.0172045371
  - # 6
    frequency:    3.1757972422
  - # 7
    frequency:    3.4619573393
  - # 8
    frequency:    4.1714904701
  - # 9
    frequency:    4.3944735149
  - # 10
    frequency:    5.2404485616
  - # 11
    frequency:    5.7281999308
  - # 12
    frequency:    6.0146455116
  - # 13
    frequency:    7.8630600354
  - # 14
    frequency:    9.0881362677
  - # 15
    frequency:   14.9468341801
  - # 16
    frequency:   16.1900634313
  - # 17
    frequency:   16.3440851467
  - # 18
    frequency:   34.1124719145

- q-position: [    0.1161616,    0.0000000,    0.0000000 ]
  distance:    0.0397592
  band:
  - # 1
    frequency:   -3.4569996269
  - # 2
    frequency:   -2.9685075777
  - # 3
    frequency:    0.8111160191
  - # 4
    frequency:    1.3829855713
  - # 5
    frequency:    2.1100136174
  - # 6
    frequency:    3.1958065475
  - # 7
    frequency:    3.4852746057
  - # 8
    frequency:    4.1932638166
  - # 9
    frequency:    4.3947763751
  - # 10
    frequency:    5.2715993776
  - # 11
    frequency:    5.7294745070
  - # 12
    frequency:    6.0398623274
  - # 13
    frequency:    7.8543790723
  - # 14
    frequency:    9.0761109734
  - # 15
    frequency:   14.9408903175
  - # 16
    frequency:   16.1634894384
  - # 17
    frequency:   16.3283087346
  - # 18
    frequency:   34.1040506729

- q-position: [    0.1212121,    0.0000000,    0.0000000 ]
  distance:    0.0414879
  band:
  - # 1
    frequency:   -3.4771458522
  - # 2
    frequency:   -2.9673624623
  - # 3
    frequency:    0.8673888679
  - # 4
    frequency:    1.4421655536
  - # 5
    frequency:    2.2019689845
  - # 6
    frequency:    3.2161263556
  - # 7
    frequency:    3.5065097853
  - # 8
    frequency:    4.2192183281
  - # 9
    frequency:    4.3954321611
  - # 10
    frequency:    5.3023306214
  - # 11
    frequency:    5.7310820418
  - # 12
    frequency:    6.0658384279
  - # 13
    frequency:    7.8455777579
  - # 14
    frequency:    9.0636131989
  - # 15
    frequency:   14.9347454816
  - # 16
    frequency:   16.1364984954
  - # 17
    frequency:   16.3120294776
  - # 18
    frequency:   34.0953679888

- q-position: [    0.1262626,    0.0000000,    0.0000000 ]
  distance:    0.0432165
  band:
  - # 1
    frequency:   -3.4973905601
  - # 2
    frequency:   -2.9678778052
  - # 3
    frequency:    0.9242097903
  - # 4
    frequency:    1.5014157097
  - # 5
    frequency:    2.2928768543
  - # 6
    frequency:    3.2366879805
  - # 7
    frequency:    3.5258822406
  - # 8
    frequency:    4.2490653966
  - # 9
    frequency:    4.3964784696
  - # 10
    frequency:    5.3326685963
  - # 11
    frequency:    5.7330385031
  - # 12
    frequency:    6.0924899756
  - # 13
    frequency:    7.8366940198
  - # 14
    frequency:    9.0506385461
  - # 15
    frequency:   14.9284117958
  - # 16
    frequency:   16.1091744674
  - # 17
    frequency:   16.2952763389
  - # 18
    frequency:   34.0864370704

- q-position: [    0.1313131,    0.0000000,    0.0000000 ]
  distance:    0.0449452
  band:
  - # 1
    frequency:   -3.5176713574
  - # 2
    frequency:   -2.9700405019
  - # 3
    frequency:    0.9814794576
  - # 4
    frequency:    1.5607396280
  - # 5
    frequency:    2.3825361606
  - # 6
    frequency:    3.2574212665
  - # 7
    frequency:    3.5437138121
  - # 8
    frequency:    4.2824257461
  - # 9
    frequency:    4.3979532224
  - # 10
    frequency:    5.3626445908
  - # 11
    frequency:    5.7353574825
  - # 12
    frequency:    6.1197303370
  - # 13
    frequency:    7.8277670628
  - # 14
    frequency:    9.0371810160
  - # 15
    frequency:   14.9219026171
  - # 16
    frequency:   16.0816015656
  - # 17
    frequency:   16.2780799111
  - # 18
    frequency:   34.0772713874

- q-position: [    0.1363636,    0.0000000,    0.0000000 ]
  distance:    0.0466738
  band:
  - # 1
    frequency:   -3.5379262941
  - # 2
    frequency:   -2.9738151034
  - # 3
    frequency:    1.0391036313
  - # 4
    frequency:    1.6201354525
  - # 5
    frequency:    2.4707376750
  - # 6
    frequency:    3.2782548401
  - # 7
    frequency:    3.5603979499
  - # 8
    frequency:    4.3188626044
  - # 9
    frequency:    4.3998945036
  - # 10
    frequency:    5.3922934535
  - # 11
    frequency:    5.7380500885
  - # 12
    frequency:    6.1474717115
  - # 13
    frequency:    7.8188370424
  - # 14
    frequency:    9.0232331295
  - # 15
    frequency:   14.9152325221
  - # 16
    frequency:   16.0538640434
  - # 17
    frequency:   16.2604723979
  - # 18
    frequency:   34.0678846386

- q-position: [    0.1414141,    0.0000000,    0.0000000 ]
  distance:    0.0484025
  band:
  - # 1
    frequency:   -3.5580939125
  - # 2
    frequency:   -2.9791462072
  - # 3
    frequency:    1.0969924022
  - # 4
    frequency:    1.6795956791
  - # 5
    frequency:    2.5572623509
  - # 6
    frequency:    3.2991164196
  - # 7
    frequency:    3.5763698060
  - # 8
    frequency:    4.3579144199
  - # 9
    frequency:    4.4023403645
  - # 10
    frequency:    5.4216522224
  - # 11
    frequency:    5.7411248691
  - # 12
    frequency:    6.1756267327
  - # 13
    frequency:    7.8099446827
  - # 14
    frequency:    9.0087860892
  - # 15
    frequency:   14.9084172472
  - # 16
    frequency:   16.0260459214
  - # 17
    frequency:   16.2424875855
  - # 18
    frequency:   34.0582907201

- q-position: [    0.1464646,    0.0000000,    0.0000000 ]
  distance:    0.0501312
  band:
  - # 1
    frequency:   -3.5781133273
  - # 2
    frequency:   -2.9859610699
  - # 3
    frequency:    1.1550594939
  - # 4
    frequency:    1.7391070330
  - # 5
    frequency:    2.6418789662
  - # 6
    frequency:    3.3199331942
  - # 7
    frequency:    3.5920826176
  - # 8
    frequency:    4.3991217497
  - # 9
    frequency:    4.4053285882
  - # 10
    frequency:    5.4507588683
  - # 11
    frequency:    5.7445877604
  - # 12
    frequency:    6.2041099756
  - # 13
    frequency:    7.8011308399
  - # 14
    frequency:    8.9938299820
  - # 15
    frequency:   14.9014735760
  - # 16
    frequency:   15.9982307484
  - # 17
    frequency:   16.2241608003
  - # 18
    frequency:   34.0485036930

- q-position: [    0.1515152,    0.0000000,    0.0000000 ]
  distance:    0.0518598
  band:
  - # 1
    frequency:   -3.5979243358
  - # 2
    frequency:   -2.9941723442
  - # 3
    frequency:    1.2132216538
  - # 4
    frequency:    1.7986504137
  - # 5
    frequency:    2.7243412863
  - # 6
    frequency:    3.3406322895
  - # 7
    frequency:    3.6079924211
  - # 8
    frequency:    4.4088964032
  - # 9
    frequency:    4.4420461033
  - # 10
    frequency:    5.4796511990
  - # 11
    frequency:    5.7484420637
  - # 12
    frequency:    6.2328393181
  - # 13
    frequency:    7.7924360150
  - # 14
    frequency:    8.9783540188
  - # 15
    frequency:   14.8944191610
  - # 16
    frequency:   15.9705014093
  - # 17
    frequency:   16.2055288554
  - # 18
    frequency:   34.0385377512

- q-position: [    0.1565657,    0.0000000,    0.0000000 ]
  distance:    0.0535885
  band:
  - # 1
    frequency:   -3.6174675564
  - # 2
    frequency:   -3.0036808570
  - # 3
    frequency:    1.2713981505
  - # 4
    frequency:    1.8582008940
  - # 5
    frequency:    2.8043852172
  - # 6
    frequency:    3.3611413331
  - # 7
    frequency:    3.6245503584
  - # 8
    frequency:    4.4130801365
  - # 9
    frequency:    4.4862810534
  - # 10
    frequency:    5.5083659551
  - # 11
    frequency:    5.7526884470
  - # 12
    frequency:    6.2617371167
  - # 13
    frequency:    7.7838998227
  - # 14
    frequency:    8.9623468091
  - # 15
    frequency:   14.8872722746
  - # 16
    frequency:   15.9429399889
  - # 17
    frequency:   16.1866299829
  - # 18
    frequency:   34.0284071895

- q-position: [    0.1616162,    0.0000000,    0.0000000 ]
  distance:    0.0553171
  band:
  - # 1
    frequency:   -3.6366845936
  - # 2
    frequency:   -3.0143783591
  - # 3
    frequency:    1.3295103855
  - # 4
    frequency:    1.9177277560
  - # 5
    frequency:    2.8817268434
  - # 6
    frequency:    3.3813891334
  - # 7
    frequency:    3.6422000892
  - # 8
    frequency:    4.4179147995
  - # 9
    frequency:    4.5314572476
  - # 10
    frequency:    5.5369381105
  - # 11
    frequency:    5.7573249699
  - # 12
    frequency:    6.2907311736
  - # 13
    frequency:    7.7755604227
  - # 14
    frequency:    8.9457966670
  - # 15
    frequency:   14.8800514791
  - # 16
    frequency:   15.9156276975
  - # 17
    frequency:   16.1675037541
  - # 18
    frequency:   34.0181263712

- q-position: [    0.1666667,    0.0000000,    0.0000000 ]
  distance:    0.0570458
  band:
  - # 1
    frequency:   -3.6555182236
  - # 2
    frequency:   -3.0261501929
  - # 3
    frequency:    1.3874816241
  - # 4
    frequency:    1.9771945481
  - # 5
    frequency:    2.9560628921
  - # 6
    frequency:    3.4013064825
  - # 7
    frequency:    3.6613768604
  - # 8
    frequency:    4.4234336013
  - # 9
    frequency:    4.5772432634
  - # 10
    frequency:    5.5654003802
  - # 11
    frequency:    5.7623471309
  - # 12
    frequency:    6.3197554792
  - # 13
    frequency:    7.7674539251
  - # 14
    frequency:    8.9286919446
  - # 15
    frequency:   14.8727752100
  - # 16
    frequency:   15.8886448689
  - # 17
    frequency:   16.1481909847
  - # 18
    frequency:   34.0077096975

- q-position: [    0.1717172,    0.0000000,    0.0000000 ]
  distance:    0.0587745
  band:
  - # 1
    frequency:   -3.6739125978
  - # 2
    frequency:   -3.0388778332
  - # 3
    frequency:    1.4452368449
  - # 4
    frequency:    2.0365591451
  - # 5
    frequency:    3.0270760119
  - # 6
    frequency:    3.4208270913
  - # 7
    frequency:    3.6825041844
  - # 8
    frequency:    4.4296673896
  - # 9
    frequency:    4.6233439940
  - # 10
    frequency:    5.5937829209
  - # 11
    frequency:    5.7677479337
  - # 12
    frequency:    6.3487507269
  - # 13
    frequency:    7.7596137826
  - # 14
    frequency:    8.9110213895
  - # 15
    frequency:   14.8654612721
  - # 16
    frequency:   15.8620710322
  - # 17
    frequency:   16.1287336282
  - # 18
    frequency:   33.9971715755

- q-position: [    0.1767677,    0.0000000,    0.0000000 ]
  distance:    0.0605031
  band:
  - # 1
    frequency:   -3.6918134573
  - # 2
    frequency:   -3.0524412675
  - # 3
    frequency:    1.5027027020
  - # 4
    frequency:    2.0957737954
  - # 5
    frequency:    3.0944480450
  - # 6
    frequency:    3.4398886558
  - # 7
    frequency:    3.7059837340
  - # 8
    frequency:    4.4366440262
  - # 9
    frequency:    4.6694978024
  - # 10
    frequency:    5.6221132046
  - # 11
    frequency:    5.7735179717
  - # 12
    frequency:    6.3776646002
  - # 13
    frequency:    7.7520701830
  - # 14