nqpoint: 300    
npath: 3      
segment_nqpoint:
- 100
- 100
- 100
labels:
- [ 'G', 'M' ]
- [ 'M', 'K' ]
- [ 'K', 'G' ]
reciprocal_lattice:
- [   0.29542653,   0.17056458,   0.00000000 ] # a*
- [   0.00000000,   0.34112917,   0.00000000 ] # b*
- [   0.00000000,   0.00000000,   0.03701914 ] # c*
natom: 8      
lattice:
- [     3.384936404480381,     0.000000000000000,     0.000000000000000 ] # a
- [    -1.692468202240190,     2.931440916477345,     0.000000000000000 ] # b
- [     0.000000000000000,     0.000000000000000,    27.013050678223493 ] # c
points:
- symbol: C # 1
  coordinates: [  0.000000000000000,  0.000000000000000,  0.464493220904779 ]
  mass: 12.010700
- symbol: C # 2
  coordinates: [  0.333332985432215,  0.666666983183674,  0.609296845862763 ]
  mass: 12.010700
- symbol: H # 3
  coordinates: [  0.666666984744047,  0.333332985985145,  0.333172291689932 ]
  mass: 1.007940
- symbol: N # 4
  coordinates: [  0.333332985432215,  0.666666983183674,  0.562931327495240 ]
  mass: 14.006700
- symbol: O # 5
  coordinates: [  0.666666984744047,  0.333332985985145,  0.369696853620715 ]
  mass: 15.999400
- symbol: S # 6
  coordinates: [  0.333332985432215,  0.666666983183674,  0.666827708310068 ]
  mass: 32.065000
- symbol: Zr # 7
  coordinates: [  0.333332985432215,  0.666666983183674,  0.419586954467197 ]
  mass: 91.224000
- symbol: Zr # 8
  coordinates: [  0.666666984744047,  0.333332985985145,  0.511060054911708 ]
  mass: 91.224000

phonon:
- q-position: [    0.0000000,    0.0000000,    0.0000000 ]
  distance:    0.0000000
  band:
  - # 1
    frequency:   -0.0000012911
  - # 2
    frequency:    0.0000000800
  - # 3
    frequency:    0.0000013798
  - # 4
    frequency:    0.7053797792
  - # 5
    frequency:    0.7053797792
  - # 6
    frequency:    4.6298318390
  - # 7
    frequency:    4.6298318390
  - # 8
    frequency:    5.5604183129
  - # 9
    frequency:    6.5322955721
  - # 10
    frequency:    6.5322955721
  - # 11
    frequency:    7.0038020108
  - # 12
    frequency:    7.0038020108
  - # 13
    frequency:    7.8914155021
  - # 14
    frequency:   11.7158500198
  - # 15
    frequency:   13.9401662898
  - # 16
    frequency:   13.9401662898
  - # 17
    frequency:   14.1268461698
  - # 18
    frequency:   14.1268461698
  - # 19
    frequency:   16.0147219433
  - # 20
    frequency:   17.1651677729
  - # 21
    frequency:   17.1651677729
  - # 22
    frequency:   27.0909347561
  - # 23
    frequency:   57.7778375932
  - # 24
    frequency:  111.8687603453

- q-position: [    0.0050505,    0.0000000,    0.0000000 ]
  distance:    0.0017229
  band:
  - # 1
    frequency:   -0.1349739231
  - # 2
    frequency:    0.0693808421
  - # 3
    frequency:    0.1678108885
  - # 4
    frequency:    0.7071160652
  - # 5
    frequency:    0.7120045688
  - # 6
    frequency:    4.6301329166
  - # 7
    frequency:    4.6303565153
  - # 8
    frequency:    5.5603146129
  - # 9
    frequency:    6.5327678863
  - # 10
    frequency:    6.5330679893
  - # 11
    frequency:    7.0038120429
  - # 12
    frequency:    7.0043548311
  - # 13
    frequency:    7.8913455003
  - # 14
    frequency:   11.7157711120
  - # 15
    frequency:   13.9403020918
  - # 16
    frequency:   13.9404448296
  - # 17
    frequency:   14.1265485906
  - # 18
    frequency:   14.1272564622
  - # 19
    frequency:   16.0148602699
  - # 20
    frequency:   17.1658042294
  - # 21
    frequency:   17.1658394202
  - # 22
    frequency:   27.0908735819
  - # 23
    frequency:   57.7768026719
  - # 24
    frequency:  111.8684291224

- q-position: [    0.0101010,    0.0000000,    0.0000000 ]
  distance:    0.0034457
  band:
  - # 1
    frequency:   -0.1724128581
  - # 2
    frequency:    0.1386645144
  - # 3
    frequency:    0.2638679428
  - # 4
    frequency:    0.7123163474
  - # 5
    frequency:    0.7314424662
  - # 6
    frequency:    4.6310336085
  - # 7
    frequency:    4.6319277986
  - # 8
    frequency:    5.5600057213
  - # 9
    frequency:    6.5341819330
  - # 10
    frequency:    6.5353811880
  - # 11
    frequency:    7.0038424565
  - # 12
    frequency:    7.0060101699
  - # 13
    frequency:    7.8911339064
  - # 14
    frequency:   11.7155323522
  - # 15
    frequency:   13.9407086019
  - # 16
    frequency:   13.9412776636
  - # 17
    frequency:   14.1256626326
  - # 18
    frequency:   14.1284860094
  - # 19
    frequency:   16.0152732453
  - # 20
    frequency:   17.1677084995
  - # 21
    frequency:   17.1678507794
  - # 22
    frequency:   27.0906899771
  - # 23
    frequency:   57.7737003122
  - # 24
    frequency:  111.8674370903

- q-position: [    0.0151515,    0.0000000,    0.0000000 ]
  distance:    0.0051686
  band:
  - # 1
    frequency:   -0.1918817309
  - # 2
    frequency:    0.2077437827
  - # 3
    frequency:    0.3563730758
  - # 4
    frequency:    0.7209582920
  - # 5
    frequency:    0.7625457589
  - # 6
    frequency:    4.6325263297
  - # 7
    frequency:    4.6345374683
  - # 8
    frequency:    5.5594982337
  - # 9
    frequency:    6.5365290236
  - # 10
    frequency:    6.5392230720
  - # 11
    frequency:    7.0038942229
  - # 12
    frequency:    7.0087586830
  - # 13
    frequency:    7.8907759882
  - # 14
    frequency:   11.7151276368
  - # 15
    frequency:   13.9413831552
  - # 16
    frequency:   13.9426563479
  - # 17
    frequency:   14.1242087828
  - # 18
    frequency:   14.1305308212
  - # 19
    frequency:   16.0159548858
  - # 20
    frequency:   17.1708653268
  - # 21
    frequency:   17.1711910567
  - # 22
    frequency:   27.0903836973
  - # 23
    frequency:   57.7685377159
  - # 24
    frequency:  111.8657891488

- q-position: [    0.0202020,    0.0000000,    0.0000000 ]
  distance:    0.0068915
  band:
  - # 1
    frequency:   -0.2017648632
  - # 2
    frequency:    0.2764895694
  - # 3
    frequency:    0.4492335172
  - # 4
    frequency:    0.7330161469
  - # 5
    frequency:    0.8038227771
  - # 6
    frequency:    4.6345985603
  - # 7
    frequency:    4.6381718745
  - # 8
    frequency:    5.5588030459
  - # 9
    frequency:    6.5397946766
  - # 10
    frequency:    6.5445736869
  - # 11
    frequency:    7.0039690251
  - # 12
    frequency:    7.0125848683
  - # 13
    frequency:    7.8902639726
  - # 14
    frequency:   11.7145468120
  - # 15
    frequency:   13.9423213841
  - # 16
    frequency:   13.9445665118
  - # 17
    frequency:   14.1222216827
  - # 18
    frequency:   14.1333842502
  - # 19
    frequency:   16.0168953146
  - # 20
    frequency:   17.1752494248
  - # 21
    frequency:   17.1758421146
  - # 22
    frequency:   27.0899543412
  - # 23
    frequency:   57.7613268510
  - # 24
    frequency:  111.8634934325

- q-position: [    0.0252525,    0.0000000,    0.0000000 ]
  distance:    0.0086144
  band:
  - # 1
    frequency:   -0.2045884654
  - # 2
    frequency:    0.3447354351
  - # 3
    frequency:    0.5428104375
  - # 4
    frequency:    0.7484785887
  - # 5
    frequency:    0.8537911228
  - # 6
    frequency:    4.6372330273
  - # 7
    frequency:    4.6428120133
  - # 8
    frequency:    5.5579352186
  - # 9
    frequency:    6.5439586161
  - # 10
    frequency:    6.5514055190
  - # 11
    frequency:    7.0040693547
  - # 12
    frequency:    7.0174671703
  - # 13
    frequency:    7.8895872131
  - # 14
    frequency:   11.7137757048
  - # 15
    frequency:   13.9435173237
  - # 16
    frequency:   13.9469873874
  - # 17
    frequency:   14.1197508796
  - # 18
    frequency:   14.1370370005
  - # 19
    frequency:   16.0180809042
  - # 20
    frequency:   17.1808256864
  - # 21
    frequency:   17.1817782648
  - # 22
    frequency:   27.0894013595
  - # 23
    frequency:   57.7520843999
  - # 24
    frequency:  111.8605612630

- q-position: [    0.0303030,    0.0000000,    0.0000000 ]
  distance:    0.0103372
  band:
  - # 1
    frequency:   -0.2008007002
  - # 2
    frequency:    0.4122557912
  - # 3
    frequency:    0.6367033876
  - # 4
    frequency:    0.7673752239
  - # 5
    frequency:    0.9111928819
  - # 6
    frequency:    4.6404079524
  - # 7
    frequency:    4.6484336240
  - # 8
    frequency:    5.5569138100
  - # 9
    frequency:    6.5489947689
  - # 10
    frequency:    6.5596838932
  - # 11
    frequency:    7.0041986461
  - # 12
    frequency:    7.0233781184
  - # 13
    frequency:    7.8887324234
  - # 14
    frequency:   11.7127961698
  - # 15
    frequency:   13.9449635482
  - # 16
    frequency:   13.9498911055
  - # 17
    frequency:   14.1168618877
  - # 18
    frequency:   14.1414771457
  - # 19
    frequency:   16.0194944730
  - # 20
    frequency:   17.1875494768
  - # 21
    frequency:   17.1889660048
  - # 22
    frequency:   27.0887240678
  - # 23
    frequency:   57.7408316857
  - # 24
    frequency:  111.8570070826

- q-position: [    0.0353535,    0.0000000,    0.0000000 ]
  distance:    0.0120601
  band:
  - # 1
    frequency:   -0.1896901731
  - # 2
    frequency:    0.4787351219
  - # 3
    frequency:    0.7303461967
  - # 4
    frequency:    0.7898132254
  - # 5
    frequency:    0.9750718111
  - # 6
    frequency:    4.6440973626
  - # 7
    frequency:    4.6550073069
  - # 8
    frequency:    5.5557616914
  - # 9
    frequency:    6.5548712593
  - # 10
    frequency:    6.5693674544
  - # 11
    frequency:    7.0043614499
  - # 12
    frequency:    7.0302844944
  - # 13
    frequency:    7.8876839724
  - # 14
    frequency:   11.7115861568
  - # 15
    frequency:   13.9466513289
  - # 16
    frequency:   13.9532417219
  - # 17
    frequency:   14.1136375659
  - # 18
    frequency:   14.1466901634
  - # 19
    frequency:   16.0211155322
  - # 20
    frequency:   17.1953670077
  - # 21
    frequency:   17.1973637248
  - # 22
    frequency:   27.0879216622
  - # 23
    frequency:   57.7275945803
  - # 24
    frequency:  111.8528483700

- q-position: [    0.0404040,    0.0000000,    0.0000000 ]
  distance:    0.0137830
  band:
  - # 1
    frequency:   -0.1692368723
  - # 2
    frequency:    0.5437275579
  - # 3
    frequency:    0.8160237664
  - # 4
    frequency:    0.8231569428
  - # 5
    frequency:    1.0447569328
  - # 6
    frequency:    4.6482714567
  - # 7
    frequency:    4.6624986527
  - # 8
    frequency:    5.5545053662
  - # 9
    frequency:    6.5615504003
  - # 10
    frequency:    6.5804087116
  - # 11
    frequency:    7.0045636420
  - # 12
    frequency:    7.0381475194
  - # 13
    frequency:    7.8864242373
  - # 14
    frequency:   11.7101198041
  - # 15
    frequency:   13.9485708042
  - # 16
    frequency:   13.9569939492
  - # 17
    frequency:   14.1101797978
  - # 18
    frequency:   14.1526589896
  - # 19
    frequency:   16.0229205776
  - # 20
    frequency:   17.2042157905
  - # 21
    frequency:   17.2069214140
  - # 22
    frequency:   27.0869932384
  - # 23
    frequency:   57.7124033920
  - # 24
    frequency:  111.8481055381

- q-position: [    0.0454545,    0.0000000,    0.0000000 ]
  distance:    0.0155059
  band:
  - # 1
    frequency:   -0.1343735777
  - # 2
    frequency:    0.6066159730
  - # 3
    frequency:    0.8464083819
  - # 4
    frequency:    0.9146011305
  - # 5
    frequency:    1.1197849517
  - # 6
    frequency:    4.6528970214
  - # 7
    frequency:    4.6708683787
  - # 8
    frequency:    5.5531748114
  - # 9
    frequency:    6.5689886813
  - # 10
    frequency:    6.5927546265
  - # 11
    frequency:    7.0048126702
  - # 12
    frequency:    7.0469230536
  - # 13
    frequency:    7.8849340128
  - # 14
    frequency:   11.7083675623
  - # 15
    frequency:   13.9507111531
  - # 16
    frequency:   13.9610916188
  - # 17
    frequency:   14.1066114086
  - # 18
    frequency:   14.1593640976
  - # 19
    frequency:   16.0248834193
  - # 20
    frequency:   17.2140251669
  - # 21
    frequency:   17.2175803982
  - # 22
    frequency:   27.0859378143
  - # 23
    frequency:   57.6952927344
  - # 24
    frequency:  111.8428018155

- q-position: [    0.0505051,    0.0000000,    0.0000000 ]
  distance:    0.0172287
  band:
  - # 1
    frequency:   -0.0629109211
  - # 2
    frequency:    0.6666076231
  - # 3
    frequency:    0.8815478340
  - # 4
    frequency:    1.0042636392
  - # 5
    frequency:    1.1997804211
  - # 6
    frequency:    4.6579378885
  - # 7
    frequency:    4.6800724663
  - # 8
    frequency:    5.5518033562
  - # 9
    frequency:    6.5771367515
  - # 10
    frequency:    6.6063472277
  - # 11
    frequency:    7.0051178338
  - # 12
    frequency:    7.0565617993
  - # 13
    frequency:    7.8831929701
  - # 14
    frequency:   11.7062963575
  - # 15
    frequency:   13.9530607636
  - # 16
    frequency:   13.9654660271
  - # 17
    frequency:   14.1030781250
  - # 18
    frequency:   14.1667836032
  - # 19
    frequency:   16.0269755423
  - # 20
    frequency:   17.2247169123
  - # 21
    frequency:   17.2292731420
  - # 22
    frequency:   27.0847543540
  - # 23
    frequency:   57.6763013777
  - # 24
    frequency:  111.8369631115

- q-position: [    0.0555556,    0.0000000,    0.0000000 ]
  distance:    0.0189516
  band:
  - # 1
    frequency:    0.1181081986
  - # 2
    frequency:    0.7228477737
  - # 3
    frequency:    0.9220918823
  - # 4
    frequency:    1.0919298077
  - # 5
    frequency:    1.2843271925
  - # 6
    frequency:    4.6633554257
  - # 7
    frequency:    4.6900622951
  - # 8
    frequency:    5.5504276125
  - # 9
    frequency:    6.5859393999
  - # 10
    frequency:    6.6211242346
  - # 11
    frequency:    7.0054905939
  - # 12
    frequency:    7.0670094983
  - # 13
    frequency:    7.8811801636
  - # 14
    frequency:   11.7038697996
  - # 15
    frequency:   13.9556073920
  - # 16
    frequency:   13.9700345942
  - # 17
    frequency:   14.0997501094
  - # 18
    frequency:   14.1748933955
  - # 19
    frequency:   16.0291664862
  - # 20
    frequency:   17.2362059101
  - # 21
    frequency:   17.2419231461
  - # 22
    frequency:   27.0834417964
  - # 23
    frequency:   57.6554720828
  - # 24
    frequency:  111.8306178657

- q-position: [    0.0606061,    0.0000000,    0.0000000 ]
  distance:    0.0206745
  band:
  - # 1
    frequency:    0.1896943507
  - # 2
    frequency:    0.7747198795
  - # 3
    frequency:    0.9684614201
  - # 4
    frequency:    1.1776251522
  - # 5
    frequency:    1.3728898809
  - # 6
    frequency:    4.6691090521
  - # 7
    frequency:    4.7007847699
  - # 8
    frequency:    5.5490874638
  - # 9
    frequency:    6.5953355347
  - # 10
    frequency:    6.6370196768
  - # 11
    frequency:    7.0059449090
  - # 12
    frequency:    7.0782071163
  - # 13
    frequency:    7.8788745793
  - # 14
    frequency:   11.7010484427
  - # 15
    frequency:   13.9583383073
  - # 16
    frequency:   13.9747007790
  - # 17
    frequency:   14.0968220870
  - # 18
    frequency:   14.1836672920
  - # 19
    frequency:   16.0314242345
  - # 20
    frequency:   17.2484008893
  - # 21
    frequency:   17.2554449676
  - # 22
    frequency:   27.0819990838
  - # 23
    frequency:   57.6328514191
  - # 24
    frequency:  111.8237968843

- q-position: [    0.0656566,    0.0000000,    0.0000000 ]
  distance:    0.0223974
  band:
  - # 1
    frequency:    0.2499675259
  - # 2
    frequency:    0.8221979898
  - # 3
    frequency:    1.0204974373
  - # 4
    frequency:    1.2615732349
  - # 5
    frequency:    1.4648261869
  - # 6
    frequency:    4.6751567699
  - # 7
    frequency:    4.7121824432
  - # 8
    frequency:    5.5478261161
  - # 9
    frequency:    6.6052581683
  - # 10
    frequency:    6.6539644995
  - # 11
    frequency:    7.0064975857
  - # 12
    frequency:    7.0900910060
  - # 13
    frequency:    7.8762557223
  - # 14
    frequency:   11.6977901078
  - # 15
    frequency:   13.9612404215
  - # 16
    frequency:   13.9793569937
  - # 17
    frequency:   14.0945102934
  - # 18
    frequency:   14.1930772132
  - # 19
    frequency:   16.0337156022
  - # 20
    frequency:   17.2612052216
  - # 21
    frequency:   17.2697443846
  - # 22
    frequency:   27.0804251943
  - # 23
    frequency:   57.6084895684
  - # 24
    frequency:  111.8165331629

- q-position: [    0.0707071,    0.0000000,    0.0000000 ]
  distance:    0.0241202
  band:
  - # 1
    frequency:    0.3062740416
  - # 2
    frequency:    0.8659050690
  - # 3
    frequency:    1.0774033012
  - # 4
    frequency:    1.3440949407
  - # 5
    frequency:    1.5594651831
  - # 6
    frequency:    4.6814557047
  - # 7
    frequency:    4.7241936335
  - # 8
    frequency:    5.5466902070
  - # 9
    frequency:    6.6156344184
  - # 10
    frequency:    6.6718871450
  - # 11
    frequency:    7.0071686324
  - # 12
    frequency:    7.1025930426
  - # 13
    frequency:    7.8733042389
  - # 14
    frequency:   11.6940502708
  - # 15
    frequency:   13.9643004049
  - # 16
    frequency:   13.9838931198
  - # 17
    frequency:   14.0930436151
  - # 18
    frequency:   14.2030933728
  - # 19
    frequency:   16.0360066120
  - # 20
    frequency:   17.2745177719
  - # 21
    frequency:   17.2847187212
  - # 22
    frequency:   27.0787191749
  - # 23
    frequency:   57.5824401133
  - # 24
    frequency:  111.8088616971

- q-position: [    0.0757576,    0.0000000,    0.0000000 ]
  distance:    0.0258431
  band:
  - # 1
    frequency:    0.3609860956
  - # 2
    frequency:    0.9067921724
  - # 3
    frequency:    1.1380656092
  - # 4
    frequency:    1.4255111045
  - # 5
    frequency:    1.6561878316
  - # 6
    frequency:    4.6879626453
  - # 7
    frequency:    4.7367525498
  - # 8
    frequency:    5.5457299637
  - # 9
    frequency:    6.6263855421
  - # 10
    frequency:    6.6907141056
  - # 11
    frequency:    7.0079815928
  - # 12
    frequency:    7.1156407260
  - # 13
    frequency:    7.8700025712
  - # 14
    frequency:   11.6897825248
  - # 15
    frequency:   13.9675047871
  - # 16
    frequency:   13.9882132824
  - # 17
    frequency:   14.0926462485
  - # 18
    frequency:   14.2136844761
  - # 19
    frequency:   16.0382628484
  - # 20
    frequency:   17.2882337923
  - # 21
    frequency:   17.3002573409
  - # 22
    frequency:   27.0768801758
  - # 23
    frequency:   57.5547598152
  - # 24
    frequency:  111.8008192836

- q-position: [    0.0808081,    0.0000000,    0.0000000 ]
  distance:    0.0275660
  band:
  - # 1
    frequency:    0.4151864843
  - # 2
    frequency:    0.9457687269
  - # 3
    frequency:    1.2014235328
  - # 4
    frequency:    1.5060867312
  - # 5
    frequency:    1.7544700172
  - # 6
    frequency:    4.6946345763
  - # 7
    frequency:    4.7497894337
  - # 8
    frequency:    5.5449993939
  - # 9
    frequency:    6.6374270315
  - # 10
    frequency:    6.7103704433
  - # 11
    frequency:    7.0089638298
  - # 12
    frequency:    7.1291572445
  - # 13
    frequency:    7.8663356408
  - # 14
    frequency:   11.6849391176
  - # 15
    frequency:   13.9708400473
  - # 16
    frequency:   13.9922611699
  - # 17
    frequency:   14.0935115819
  - # 18
    frequency:   14.2248179234
  - # 19
    frequency:   16.0404497840
  - # 20
    frequency:   17.3022458541
  - # 21
    frequency:   17.3162423090
  - # 22
    frequency:   27.0749074862
  - # 23
    frequency:   57.5255083798
  - # 24
    frequency:  111.7924443113

- q-position: [    0.0858586,    0.0000000,    0.0000000 ]
  distance:    0.0292889
  band:
  - # 1
    frequency:    0.4694549355
  - # 2
    frequency:    0.9835291265
  - # 3
    frequency:    1.2666415919
  - # 4
    frequency:    1.5860153717
  - # 5
    frequency:    1.8538884304
  - # 6
    frequency:    4.7014291963
  - # 7
    frequency:    4.7632307396
  - # 8
    frequency:    5.5445564877
  - # 9
    frequency:    6.6486688101
  - # 10
    frequency:    6.7307802739
  - # 11
    frequency:    7.0101467159
  - # 12
    frequency:    7.1430614978
  - # 13
    frequency:    7.8622915604
  - # 14
    frequency:   11.6794715670
  - # 15
    frequency:   13.9742926943
  - # 16
    frequency:   13.9960484665
  - # 17
    frequency:   14.0957727313
  - # 18
    frequency:   14.2364600114
  - # 19
    frequency:   16.0425330723
  - # 20
    frequency:   17.3164448079
  - # 21
    frequency:   17.3325492174
  - # 22
    frequency:   27.0728005701
  - # 23
    frequency:   57.4947482131
  - # 24
    frequency:  111.7837765448

- q-position: [    0.0909091,    0.0000000,    0.0000000 ]
  distance:    0.0310117
  band:
  - # 1
    frequency:    0.5241293701
  - # 2
    frequency:    1.0205441829
  - # 3
    frequency:    1.3331174290
  - # 4
    frequency:    1.6654258379
  - # 5
    frequency:    1.9541063144
  - # 6
    frequency:    4.7083054151
  - # 7
    frequency:    4.7769993770
  - # 8
    frequency:    5.5444634005
  - # 9
    frequency:    6.6600155856
  - # 10
    frequency:    6.7518672120
  - # 11
    frequency:    7.0115656697
  - # 12
    frequency:    7.1572680759
  - # 13
    frequency:    7.8578623716
  - # 14
    frequency:   11.6733313508
  - # 15
    frequency:   13.9778493395
  - # 16
    frequency:   13.9996748349
  - # 17
    frequency:   14.0994813014
  - # 18
    frequency:   14.2485761287
  - # 19
    frequency:   16.0444788033
  - # 20
    frequency:   17.3307207624
  - # 21
    frequency:   17.3490481583
  - # 22
    frequency:   27.0705591025
  - # 23
    frequency:   57.4625441700
  - # 24
    frequency:  111.7748569018

- q-position: [    0.0959596,    0.0000000,    0.0000000 ]
  distance:    0.0327346
  band:
  - # 1
    frequency:    0.5794149882
  - # 2
    frequency:    1.0571129598
  - # 3
    frequency:    1.4004291409
  - # 4
    frequency:    1.7443963692
  - # 5
    frequency:    2.0548533877
  - # 6
    frequency:    4.7152238249
  - # 7
    frequency:    4.7910150505
  - # 8
    frequency:    5.5447865810
  - # 9
    frequency:    6.6713674341
  - # 10
    frequency:    6.7735547759
  - # 11
    frequency:    7.0132599626
  - # 12
    frequency:    7.1716871945
  - # 13
    frequency:    7.8530448078
  - # 14
    frequency:   11.6664706639
  - # 15
    frequency:   13.9814967654
  - # 16
    frequency:   14.0033283172
  - # 17
    frequency:   14.1046055194
  - # 18
    frequency:   14.2611309433
  - # 19
    frequency:   16.0462537233
  - # 20
    frequency:   17.3449640727
  - # 21
    frequency:   17.3656048278
  - # 22
    frequency:   27.0681830053
  - # 23
    frequency:   57.4289632955
  - # 24
    frequency:  111.7657272250

- q-position: [    0.1010101,    0.0000000,    0.0000000 ]
  distance:    0.0344575
  band:
  - # 1
    frequency:    0.6354370567
  - # 2
    frequency:    1.0934173487
  - # 3
    frequency:    1.4682798683
  - # 4
    frequency:    1.8229686581
  - # 5
    frequency:    2.1559071188
  - # 6
    frequency:    4.7221471395
  - # 7
    frequency:    4.8051947357
  - # 8
    frequency:    5.5455968020
  - # 9
    frequency:    6.6826207028
  - # 10
    frequency:    6.7957667500
  - # 11
    frequency:    7.0152722016
  - # 12
    frequency:    7.1862245888
  - # 13
    frequency:    7.8478410801
  - # 14
    frequency:   11.6588432315
  - # 15
    frequency:   13.9852219890
  - # 16
    frequency:   14.0072648708
  - # 17
    frequency:   14.1110490504
  - # 18
    frequency:   14.2740885775
  - # 19
    frequency:   16.0478254200
  - # 20
    frequency:   17.3590663276
  - # 21
    frequency:   17.3820817379
  - # 22
    frequency:   27.0656724828
  - # 23
    frequency:   57.3940745604
  - # 24
    frequency:  111.7564300518

- q-position: [    0.1060606,    0.0000000,    0.0000000 ]
  distance:    0.0361804
  band:
  - # 1
    frequency:    0.6922693234
  - # 2
    frequency:    1.1295631396
  - # 3
    frequency:    1.5364559279
  - # 4
    frequency:    1.9011591476
  - # 5
    frequency:    2.2570776376
  - # 6
    frequency:    4.7290405989
  - # 7
    frequency:    4.8194533395
  - # 8
    frequency:    5.5469690460
  - # 9
    frequency:    6.6936693340
  - # 10
    frequency:    6.8184275006
  - # 11
    frequency:    7.0176473867
  - # 12
    frequency:    7.2007813722
  - # 13
    frequency:    7.8422596818
  - # 14
    frequency:   11.6504051616
  - # 15
    frequency:   13.9890123232
  - # 16
    frequency:   14.0117769895
  - # 17
    frequency:   14.1186805735
  - # 18
    frequency:   14.2874127721
  - # 19
    frequency:   16.0491624760
  - # 20
    frequency:   17.3729213269
  - # 21
    frequency:   17.3983395093
  - # 22
    frequency:   27.0630280555
  - # 23
    frequency:   57.3579485943
  - # 24
    frequency:  111.7470083806

- q-position: [    0.1111111,    0.0000000,    0.0000000 ]
  distance:    0.0379032
  band:
  - # 1
    frequency:    0.7499506179
  - # 2
    frequency:    1.1656076240
  - # 3
    frequency:    1.6047984749
  - # 4
    frequency:    1.9789673382
  - # 5
    frequency:    2.3581963264
  - # 6
    frequency:    4.7358723339
  - # 7
    frequency:    4.8337045929
  - # 8
    frequency:    5.5489821960
  - # 9
    frequency:    6.7044067005
  - # 10
    frequency:    6.8414622427
  - # 11
    frequency:    7.0204314447
  - # 12
    frequency:    7.2152538713
  - # 13
    frequency:    7.8363162027
  - # 14
    frequency:   11.6411158137
  - # 15
    frequency:   13.9928554359
  - # 16
    frequency:   14.0171639899
  - # 17
    frequency:   14.1273615828
  - # 18
    frequency:   14.3010670361
  - # 19
    frequency:   16.0502345970
  - # 20
    frequency:   17.3864260375
  - # 21
    frequency:   17.4142382197
  - # 22
    frequency:   27.0602505928
  - # 23
    frequency:   57.3206574160
  - # 24
    frequency:  111.7375054382

- q-position: [    0.1161616,    0.0000000,    0.0000000 ]
  distance:    0.0396261
  band:
  - # 1
    frequency:    0.8084952081
  - # 2
    frequency:    1.2015773859
  - # 3
    frequency:    1.6731850513
  - # 4
    frequency:    2.0563816210
  - # 5
    frequency:    2.4591074062
  - # 6
    frequency:    4.7426136898
  - # 7
    frequency:    4.8478622266
  - # 8
    frequency:    5.5517184818
  - # 9
    frequency:    6.7147280168
  - # 10
    frequency:    6.8647972513
  - # 11
    frequency:    7.0236691772
  - # 12
    frequency:    7.2295334600
  - # 13
    frequency:    7.8300341388
  - # 14
    frequency:   11.6309386581
  - # 15
    frequency:   13.9967394070
  - # 16
    frequency:   14.0237108548
  - # 17
    frequency:   14.1369655602
  - # 18
    frequency:   14.3150147860
  - # 19
    frequency:   16.0510127184
  - # 20
    frequency:   17.3994815199
  - # 21
    frequency:   17.4296387799
  - # 22
    frequency:   27.0573413446
  - # 23
    frequency:   57.2822741630
  - # 24
    frequency:  111.7279644470

- q-position: [    0.1212121,    0.0000000,    0.0000000 ]
  distance:    0.0413490
  band:
  - # 1
    frequency:    0.8678996170
  - # 2
    frequency:    1.2374796294
  - # 3
    frequency:    1.7415176772
  - # 4
    frequency:    2.1333832772
  - # 5
    frequency:    2.5596617579
  - # 6
    frequency:    4.7492395050
  - # 7
    frequency:    4.8618414706
  - # 8
    frequency:    5.5552626426
  - # 9
    frequency:    6.7245333190
  - # 10
    frequency:    6.8883600089
  - # 11
    frequency:    7.0274016244
  - # 12
    frequency:    7.2435064276
  - # 13
    frequency:    7.8234456693
  - # 14
    frequency:   11.6198420961
  - # 15
    frequency:   14.0006527840
  - # 16
    frequency:   14.0316758285
  - # 17
    frequency:   14.1473883790
  - # 18
    frequency:   14.3292194730
  - # 19
    frequency:   16.0514690984
  - # 20
    frequency:   17.4119938147
  - # 21
    frequency:   17.4444043113
  - # 22
    frequency:   27.0543019689
  - # 23
    frequency:   57.2428728230
  - # 24
    frequency:  111.7184283960

- q-position: [    0.1262626,    0.0000000,    0.0000000 ]
  distance:    0.0430719
  band:
  - # 1
    frequency:    0.9281473083
  - # 2
    frequency:    1.2733093959
  - # 3
    frequency:    1.8097151313
  - # 4
    frequency:    2.2099491838
  - # 5
    frequency:    2.6597123438
  - # 6
    frequency:    4.7557283447
  - # 7
    frequency:    4.8755609010
  - # 8
    frequency:    5.5597007819
  - # 9
    frequency:    6.7337308985
  - # 10
    frequency:    6.9120792801
  - # 11
    frequency:    7.0316629580
  - # 12
    frequency:    7.2570539395
  - # 13
    frequency:    7.8165923561
  - # 14
    frequency:   11.6078002089
  - # 15
    frequency:   14.0045846343
  - # 16
    frequency:   14.0412836156
  - # 17
    frequency:   14.1585531323
  - # 18
    frequency:   14.3436447004
  - # 19
    frequency:   16.0515774012
  - # 20
    frequency:   17.4238747814
  - # 21
    frequency:   17.4584015018
  - # 22
    frequency:   27.0511345588
  - # 23
    frequency:   57.2025279670
  - # 24
    frequency:  111.7089398152

- q-position: [    0.1313131,    0.0000000,    0.0000000 ]
  distance:    0.0447947
  band:
  - # 1
    frequency:    0.9892120245
  - # 2
    frequency:    1.3090541909
  - # 3
    frequency:    1.8777078971
  - # 4
    frequency:    2.2860536303
  - # 5
    frequency:    2.7591107560
  - # 6
    frequency:    4.7620626866
  - # 7
    frequency:    4.8889446317
  - # 8
    frequency:    5.5651189189
  - # 9
    frequency:    6.7422409417
  - # 10
    frequency:    6.9358850940
  - # 11
    frequency:    7.0364771507
  - # 12
    frequency:    7.2700521768
  - # 13
    frequency:    7.8095256962
  - # 14
    frequency:   11.5947934053
  - # 15
    frequency:   14.0085245962
  - # 16
    frequency:   14.0527206263
  - # 17
    frequency:   14.1704129968
  - # 18
    frequency:   14.3582543343
  - # 19
    frequency:   16.0513127765
  - # 20
    frequency:   17.4350428798
  - # 21
    frequency:   17.4715019174
  - # 22
    frequency:   27.0478416648
  - # 23
    frequency:   57.1613144872
  - # 24
    frequency:  111.6995405551

- q-position: [    0.1363636,    0.0000000,    0.0000000 ]
  distance:    0.0465176
  band:
  - # 1
    frequency:    1.0510602336
  - # 2
    frequency:    1.3446969717
  - # 3
    frequency:    1.9454348184
  - # 4
    frequency:    2.3616695315
  - # 5
    frequency:    2.8577045541
  - # 6
    frequency:    4.7682290602
  - # 7