nqpoint: 300    
npath: 3      
segment_nqpoint:
- 100
- 100
- 100
labels:
- [ 'G', 'M' ]
- [ 'M', 'K' ]
- [ 'K', 'G' ]
reciprocal_lattice:
- [   0.31025528,   0.17912597,   0.00000000 ] # a*
- [   0.00000000,   0.35825193,   0.00000000 ] # b*
- [   0.00000000,   0.00000000,   0.03579765 ] # c*
natom: 8      
lattice:
- [     3.223152282244321,     0.000000000000000,     0.000000000000000 ] # a
- [    -1.611576141122161,     2.791331756694404,     0.000000000000000 ] # b
- [     0.000000000000000,     0.000000000000000,    27.934793040225326 ] # c
points:
- symbol: C # 1
  coordinates: [  0.333332985432215,  0.666666983183674,  0.635191640772945 ]
  mass: 12.010700
- symbol: N # 2
  coordinates: [  0.000000000000000,  0.000000000000000,  0.478702009655820 ]
  mass: 14.006700
- symbol: N # 3
  coordinates: [  0.333332985432215,  0.666666983183674,  0.677821131982605 ]
  mass: 14.006700
- symbol: O # 4
  coordinates: [  0.666666984744047,  0.333332985985145,  0.322178868017395 ]
  mass: 15.999400
- symbol: P # 5
  coordinates: [  0.666666984744047,  0.333332985985145,  0.375593874107989 ]
  mass: 30.973762
- symbol: S # 6
  coordinates: [  0.333332985432215,  0.666666983183674,  0.574940171582223 ]
  mass: 32.065000
- symbol: Ti # 7
  coordinates: [  0.333332985432215,  0.666666983183674,  0.441477847229933 ]
  mass: 47.867000
- symbol: Ti # 8
  coordinates: [  0.666666984744047,  0.333332985985145,  0.519405624913266 ]
  mass: 47.867000

phonon:
- q-position: [    0.0000000,    0.0000000,    0.0000000 ]
  distance:    0.0000000
  band:
  - # 1
    frequency:   -0.0000011462
  - # 2
    frequency:    0.0000009056
  - # 3
    frequency:    0.0000022336
  - # 4
    frequency:    1.0522759121
  - # 5
    frequency:    1.0522759121
  - # 6
    frequency:    1.3626299031
  - # 7
    frequency:    1.3626299031
  - # 8
    frequency:    4.6941271752
  - # 9
    frequency:    4.6941271752
  - # 10
    frequency:    5.2231517815
  - # 11
    frequency:    5.3685504060
  - # 12
    frequency:    5.3685504060
  - # 13
    frequency:    8.3189894138
  - # 14
    frequency:    8.3189894138
  - # 15
    frequency:    9.0815898068
  - # 16
    frequency:   11.1316134265
  - # 17
    frequency:   11.1316134265
  - # 18
    frequency:   11.2640304379
  - # 19
    frequency:   13.9275840639
  - # 20
    frequency:   15.7307301765
  - # 21
    frequency:   15.7307301765
  - # 22
    frequency:   19.6980661367
  - # 23
    frequency:   34.2850179977
  - # 24
    frequency:   64.6432682812

- q-position: [    0.0050505,    0.0000000,    0.0000000 ]
  distance:    0.0018094
  band:
  - # 1
    frequency:   -0.2462782651
  - # 2
    frequency:    0.0393535056
  - # 3
    frequency:    0.2638373668
  - # 4
    frequency:    1.0527092965
  - # 5
    frequency:    1.0559983647
  - # 6
    frequency:    1.3636298684
  - # 7
    frequency:    1.3662797941
  - # 8
    frequency:    4.6939478776
  - # 9
    frequency:    4.6947336976
  - # 10
    frequency:    5.2197006876
  - # 11
    frequency:    5.3685078223
  - # 12
    frequency:    5.3719085822
  - # 13
    frequency:    8.3187378415
  - # 14
    frequency:    8.3187903470
  - # 15
    frequency:    9.0813870102
  - # 16
    frequency:   11.1309744731
  - # 17
    frequency:   11.1314635831
  - # 18
    frequency:   11.2641520049
  - # 19
    frequency:   13.9269494178
  - # 20
    frequency:   15.7304602482
  - # 21
    frequency:   15.7305524285
  - # 22
    frequency:   19.6979400500
  - # 23
    frequency:   34.2848308821
  - # 24
    frequency:   64.6431611127

- q-position: [    0.0101010,    0.0000000,    0.0000000 ]
  distance:    0.0036187
  band:
  - # 1
    frequency:   -0.3342312315
  - # 2
    frequency:    0.0785630641
  - # 3
    frequency:    0.3841808369
  - # 4
    frequency:    1.0540259255
  - # 5
    frequency:    1.0670652926
  - # 6
    frequency:    1.3666296804
  - # 7
    frequency:    1.3771559322
  - # 8
    frequency:    4.6934117064
  - # 9
    frequency:    4.6965479000
  - # 10
    frequency:    5.2102150849
  - # 11
    frequency:    5.3683802935
  - # 12
    frequency:    5.3811255331
  - # 13
    frequency:    8.3179884784
  - # 14
    frequency:    8.3181934646
  - # 15
    frequency:    9.0807774719
  - # 16
    frequency:   11.1290699458
  - # 17
    frequency:   11.1310145453
  - # 18
    frequency:   11.2645043908
  - # 19
    frequency:   13.9250503364
  - # 20
    frequency:   15.7296518829
  - # 21
    frequency:   15.7300197806
  - # 22
    frequency:   19.6975621136
  - # 23
    frequency:   34.2842699025
  - # 24
    frequency:   64.6428398941

- q-position: [    0.0151515,    0.0000000,    0.0000000 ]
  distance:    0.0054281
  band:
  - # 1
    frequency:   -0.3905500256
  - # 2
    frequency:    0.1174825834
  - # 3
    frequency:    0.4831969581
  - # 4
    frequency:    1.0562744336
  - # 5
    frequency:    1.0851869902
  - # 6
    frequency:    1.3716295362
  - # 7
    frequency:    1.3950420666
  - # 8
    frequency:    4.6925238083
  - # 9
    frequency:    4.6995533913
  - # 10
    frequency:    5.1965173136
  - # 11
    frequency:    5.3681684708
  - # 12
    frequency:    5.3944094825
  - # 13
    frequency:    8.3167572578
  - # 14
    frequency:    8.3171997265
  - # 15
    frequency:    9.0797578153
  - # 16
    frequency:   11.1259346397
  - # 17
    frequency:   11.1302677944
  - # 18
    frequency:   11.2650528767
  - # 19
    frequency:   13.9219013363
  - # 20
    frequency:   15.7283093269
  - # 21
    frequency:   15.7291340161
  - # 22
    frequency:   19.6969332978
  - # 23
    frequency:   34.2833361589
  - # 24
    frequency:   64.6423054854

- q-position: [    0.0202020,    0.0000000,    0.0000000 ]
  distance:    0.0072374
  band:
  - # 1
    frequency:   -0.4272091249
  - # 2
    frequency:    0.1559620374
  - # 3
    frequency:    0.5717900938
  - # 4
    frequency:    1.0595332400
  - # 5
    frequency:    1.1099166572
  - # 6
    frequency:    1.3786311892
  - # 7
    frequency:    1.4195920271
  - # 8
    frequency:    4.6912926975
  - # 9
    frequency:    4.7037218336
  - # 10
    frequency:    5.1802763727
  - # 11
    frequency:    5.3678733855
  - # 12
    frequency:    5.4101432618
  - # 13
    frequency:    8.3150703143
  - # 14
    frequency:    8.3158107545
  - # 15
    frequency:    9.0783226375
  - # 16
    frequency:   11.1216199637
  - # 17
    frequency:   11.1292258101
  - # 18
    frequency:   11.2657462602
  - # 19
    frequency:   13.9175264339
  - # 20
    frequency:   15.7264396201
  - # 21
    frequency:   15.7278980919
  - # 22
    frequency:   19.6960552150
  - # 23
    frequency:   34.2820314801
  - # 24
    frequency:   64.6415593147

- q-position: [    0.0252525,    0.0000000,    0.0000000 ]
  distance:    0.0090468
  band:
  - # 1
    frequency:   -0.4484712096
  - # 2
    frequency:    0.1938464081
  - # 3
    frequency:    0.6541124193
  - # 4
    frequency:    1.0639065980
  - # 5
    frequency:    1.1406963111
  - # 6
    frequency:    1.3876398651
  - # 7
    frequency:    1.4503501095
  - # 8
    frequency:    4.6897301607
  - # 9
    frequency:    4.7090113231
  - # 10
    frequency:    5.1626693374
  - # 11
    frequency:    5.3674963726
  - # 12
    frequency:    5.4272243221
  - # 13
    frequency:    8.3129633654
  - # 14
    frequency:    8.3140288637
  - # 15
    frequency:    9.0764648339
  - # 16
    frequency:   11.1161862821
  - # 17
    frequency:   11.1278920872
  - # 18
    frequency:   11.2665246324
  - # 19
    frequency:   13.9119588802
  - # 20
    frequency:   15.7240525388
  - # 21
    frequency:   15.7263161162
  - # 22
    frequency:   19.6949301127
  - # 23
    frequency:   34.2803584158
  - # 24
    frequency:   64.6406033710

- q-position: [    0.0303030,    0.0000000,    0.0000000 ]
  distance:    0.0108561
  band:
  - # 1
    frequency:   -0.4560543181
  - # 2
    frequency:    0.2309757674
  - # 3
    frequency:    0.7323443536
  - # 4
    frequency:    1.0695190504
  - # 5
    frequency:    1.1769074478
  - # 6
    frequency:    1.3986665492
  - # 7
    frequency:    1.4867774495
  - # 8
    frequency:    4.6878511250
  - # 9
    frequency:    4.7153639357
  - # 10
    frequency:    5.1444850003
  - # 11
    frequency:    5.3670389679
  - # 12
    frequency:    5.4449632861
  - # 13
    frequency:    8.3104808745
  - # 14
    frequency:    8.3118571060
  - # 15
    frequency:    9.0741760293
  - # 16
    frequency:   11.1096954006
  - # 17
    frequency:   11.1262711581
  - # 18
    frequency:   11.2673270591
  - # 19
    frequency:   13.9052407909
  - # 20
    frequency:   15.7211605175
  - # 21
    frequency:   15.7243933147
  - # 22
    frequency:   19.6935608632
  - # 23
    frequency:   34.2783202270
  - # 24
    frequency:   64.6394401948

- q-position: [    0.0353535,    0.0000000,    0.0000000 ]
  distance:    0.0126655
  band:
  - # 1
    frequency:   -0.4503724304
  - # 2
    frequency:    0.2671869178
  - # 3
    frequency:    0.8078709862
  - # 4
    frequency:    1.0765082357
  - # 5
    frequency:    1.2179179040
  - # 6
    frequency:    1.4117303482
  - # 7
    frequency:    1.5282819668
  - # 8
    frequency:    4.6856734894
  - # 9
    frequency:    4.7227022446
  - # 10
    frequency:    5.1262801417
  - # 11
    frequency:    5.3665027864
  - # 12
    frequency:    5.4629308299
  - # 13
    frequency:    8.3076750177
  - # 14
    frequency:    8.3092993239
  - # 15
    frequency:    9.0714470934
  - # 16
    frequency:   11.1022045063
  - # 17
    frequency:   11.1243686202
  - # 18
    frequency:   11.2680978586
  - # 19
    frequency:   13.8974226779
  - # 20
    frequency:   15.7177785479
  - # 21
    frequency:   15.7221359867
  - # 22
    frequency:   19.6919509523
  - # 23
    frequency:   34.2759208727
  - # 24
    frequency:   64.6380728646

- q-position: [    0.0404040,    0.0000000,    0.0000000 ]
  distance:    0.0144748
  band:
  - # 1
    frequency:   -0.4308176013
  - # 2
    frequency:    0.3023169688
  - # 3
    frequency:    0.8816908733
  - # 4
    frequency:    1.0850159976
  - # 5
    frequency:    1.2631188521
  - # 6
    frequency:    1.4268606319
  - # 7
    frequency:    1.5742488386
  - # 8
    frequency:    4.6832179210
  - # 9
    frequency:    4.7309245772
  - # 10
    frequency:    5.1084883084
  - # 11
    frequency:    5.3658893868
  - # 12
    frequency:    5.4808532576
  - # 13
    frequency:    8.3046044874
  - # 14
    frequency:    8.3063602138
  - # 15
    frequency:    9.0682687171
  - # 16
    frequency:   11.0937620335
  - # 17
    frequency:   11.1221911684
  - # 18
    frequency:   11.2687910018
  - # 19
    frequency:   13.8885628830
  - # 20
    frequency:   15.7139240578
  - # 21
    frequency:   15.7195514495
  - # 22
    frequency:   19.6901044632
  - # 23
    frequency:   34.2731649947
  - # 24
    frequency:   64.6365049814

- q-position: [    0.0454545,    0.0000000,    0.0000000 ]
  distance:    0.0162842
  band:
  - # 1
    frequency:   -0.3954978994
  - # 2
    frequency:    0.3362090775
  - # 3
    frequency:    0.9545856075
  - # 4
    frequency:    1.0951778550
  - # 5
    frequency:    1.3119492825
  - # 6
    frequency:    1.4440986842
  - # 7
    frequency:    1.6240683865
  - # 8
    frequency:    4.6805076189
  - # 9
    frequency:    4.7398987936
  - # 10
    frequency:    5.0914861145
  - # 11
    frequency:    5.3652001305
  - # 12
    frequency:    5.4985519745
  - # 13
    frequency:    8.3013331617
  - # 14
    frequency:    8.3030453962
  - # 15
    frequency:    9.0646320252
  - # 16
    frequency:   11.0844053227
  - # 17
    frequency:   11.1197466305
  - # 18
    frequency:   11.2693727696
  - # 19
    frequency:   13.8787269212
  - # 20
    frequency:   15.7096167688
  - # 21
    frequency:   15.7166479696
  - # 22
    frequency:   19.6880260605
  - # 23
    frequency:   34.2700578988
  - # 24
    frequency:   64.6347406513

- q-position: [    0.0505051,    0.0000000,    0.0000000 ]
  distance:    0.0180935
  band:
  - # 1
    frequency:   -0.3400314687
  - # 2
    frequency:    0.3687202792
  - # 3
    frequency:    1.0271980250
  - # 4
    frequency:    1.1071111616
  - # 5
    frequency:    1.3639085085
  - # 6
    frequency:    1.4634986112
  - # 7
    frequency:    1.6771589041
  - # 8
    frequency:    4.6775680470
  - # 9
    frequency:    4.7494545601
  - # 10
    frequency:    5.0756343575
  - # 11
    frequency:    5.3644360410
  - # 12
    frequency:    5.5159096032
  - # 13
    frequency:    8.2979286762
  - # 14
    frequency:    8.2993614917
  - # 15
    frequency:    9.0605291986
  - # 16
    frequency:   11.0741596700
  - # 17
    frequency:   11.1170440056
  - # 18
    frequency:   11.2698230690
  - # 19
    frequency:   13.8679867403
  - # 20
    frequency:   15.7048785351
  - # 21
    frequency:   15.7134346805
  - # 22
    frequency:   19.6857209699
  - # 23
    frequency:   34.2666055346
  - # 24
    frequency:   64.6327844645

- q-position: [    0.0555556,    0.0000000,    0.0000000 ]
  distance:    0.0199029
  band:
  - # 1
    frequency:   -0.2525311668
  - # 2
    frequency:    0.3997308832
  - # 3
    frequency:    1.1000700668
  - # 4
    frequency:    1.1209027248
  - # 5
    frequency:    1.4185592925
  - # 6
    frequency:    1.4851272572
  - # 7
    frequency:    1.7329831418
  - # 8
    frequency:    4.6744266413
  - # 9
    frequency:    4.7593746878
  - # 10
    frequency:    5.0613052270
  - # 11
    frequency:    5.3635976730
  - # 12
    frequency:    5.5328509009
  - # 13
    frequency:    8.2944609323
  - # 14
    frequency:    8.2953162009
  - # 15
    frequency:    9.0559540862
  - # 16
    frequency:   11.0630383499
  - # 17
    frequency:   11.1140935022
  - # 18
    frequency:   11.2701358198
  - # 19
    frequency:   13.8564199047
  - # 20
    frequency:   15.6997331637
  - # 21
    frequency:   15.7099214869
  - # 22
    frequency:   19.6831949577
  - # 23
    frequency:   34.2628144721
  - # 24
    frequency:   64.6306414726

- q-position: [    0.0606061,    0.0000000,    0.0000000 ]
  distance:    0.0217122
  band:
  - # 1
    frequency:   -0.0404663993
  - # 2
    frequency:    0.4291543681
  - # 3
    frequency:    1.1365971927
  - # 4
    frequency:    1.1736597976
  - # 5
    frequency:    1.4755249174
  - # 6
    frequency:    1.5090628871
  - # 7
    frequency:    1.7910584748
  - # 8
    frequency:    4.6711124949
  - # 9
    frequency:    4.7693875274
  - # 10
    frequency:    5.0489002819
  - # 11
    frequency:    5.3626849962
  - # 12
    frequency:    5.5493318209
  - # 13
    frequency:    8.2909183844
  - # 14
    frequency:    8.2910005747
  - # 15
    frequency:    9.0509027847
  - # 16
    frequency:   11.0510432944
  - # 17
    frequency:   11.1109065774
  - # 18
    frequency:   11.2703187302
  - # 19
    frequency:   13.8441087148
  - # 20
    frequency:   15.6942062178
  - # 21
    frequency:   15.7061189539
  - # 22
    frequency:   19.6804543069
  - # 23
    frequency:   34.2586918769
  - # 24
    frequency:   64.6283171638

- q-position: [    0.0656566,    0.0000000,    0.0000000 ]
  distance:    0.0235216
  band:
  - # 1
    frequency:    0.2642650160
  - # 2
    frequency:    0.4569462430
  - # 3
    frequency:    1.1541879625
  - # 4
    frequency:    1.2483456005
  - # 5
    frequency:    1.5344832025
  - # 6
    frequency:    1.5353924133
  - # 7
    frequency:    1.8509618057
  - # 8
    frequency:    4.6676560256
  - # 9
    frequency:    4.7791651754
  - # 10
    frequency:    5.0388580337
  - # 11
    frequency:    5.3616973020
  - # 12
    frequency:    5.5653331324
  - # 13
    frequency:    8.2861781425
  - # 14
    frequency:    8.2876174729
  - # 15
    frequency:    9.0453741703
  - # 16
    frequency:   11.0381662257
  - # 17
    frequency:   11.1074959721
  - # 18
    frequency:   11.2703926522
  - # 19
    frequency:   13.8311392735
  - # 20
    frequency:   15.6883248055
  - # 21
    frequency:   15.7020381830
  - # 22
    frequency:   19.6775057927
  - # 23
    frequency:   34.2542454823
  - # 24
    frequency:   64.6258174361

- q-position: [    0.0707071,    0.0000000,    0.0000000 ]
  distance:    0.0253309
  band:
  - # 1
    frequency:    0.3867453300
  - # 2
    frequency:    0.4831101702
  - # 3
    frequency:    1.1736124680
  - # 4
    frequency:    1.3244216568
  - # 5
    frequency:    1.5642070258
  - # 6
    frequency:    1.5951596421
  - # 7
    frequency:    1.9123307916
  - # 8
    frequency:    4.6640886342
  - # 9
    frequency:    4.7883362890
  - # 10
    frequency:    5.0316442926
  - # 11
    frequency:    5.3606331370
  - # 12
    frequency:    5.5808566532
  - # 13
    frequency:    8.2811068899
  - # 14
    frequency:    8.2843792364
  - # 15
    frequency:    9.0393703706
  - # 16
    frequency:   11.0243901392
  - # 17
    frequency:   11.1038757434
  - # 18
    frequency:   11.2703906171
  - # 19
    frequency:   13.8176005157
  - # 20
    frequency:   15.6821173540
  - # 21
    frequency:   15.6976906733
  - # 22
    frequency:   19.6743566559
  - # 23
    frequency:   34.2494835608
  - # 24
    frequency:   64.6231485687

- q-position: [    0.0757576,    0.0000000,    0.0000000 ]
  distance:    0.0271403
  band:
  - # 1
    frequency:    0.4862394520
  - # 2
    frequency:    0.5076999266
  - # 3
    frequency:    1.1947532569
  - # 4
    frequency:    1.4020879915
  - # 5
    frequency:    1.5955962530
  - # 6
    frequency:    1.6573209729
  - # 7
    frequency:    1.9748630776
  - # 8
    frequency:    4.6604423575
  - # 9
    frequency:    4.7965250765
  - # 10
    frequency:    5.0277147961
  - # 11
    frequency:    5.3594902691
  - # 12
    frequency:    5.5959230180
  - # 13
    frequency:    8.2757174246
  - # 14
    frequency:    8.2813497936
  - # 15
    frequency:    9.0328971656
  - # 16
    frequency:   11.0096910837
  - # 17
    frequency:   11.1000612901
  - # 18
    frequency:   11.2703565904
  - # 19
    frequency:   13.8035832161
  - # 20
    frequency:   15.6756133736
  - # 21
    frequency:   15.6930881712
  - # 22
    frequency:   19.6710145747
  - # 23
    frequency:   34.2444148927
  - # 24
    frequency:   64.6203171916

- q-position: [    0.0808081,    0.0000000,    0.0000000 ]
  distance:    0.0289497
  band:
  - # 1
    frequency:    0.5308165296
  - # 2
    frequency:    0.5738269654
  - # 3
    frequency:    1.2174452732
  - # 4
    frequency:    1.4814384904
  - # 5
    frequency:    1.6296407409
  - # 6
    frequency:    1.7207697895
  - # 7
    frequency:    2.0383150203
  - # 8
    frequency:    4.6567495244
  - # 9
    frequency:    4.8034224544
  - # 10
    frequency:    5.0274447517
  - # 11
    frequency:    5.3582656891
  - # 12
    frequency:    5.6105703626
  - # 13
    frequency:    8.2700239864
  - # 14
    frequency:    8.2785880611
  - # 15
    frequency:    9.0259643140
  - # 16
    frequency:   10.9940402104
  - # 17
    frequency:   11.0960693706
  - # 18
    frequency:   11.2703439642
  - # 19
    frequency:   13.7891789945
  - # 20
    frequency:   15.6688432121
  - # 21
    frequency:   15.6882425086
  - # 22
    frequency:   19.6674876354
  - # 23
    frequency:   34.2390487341
  - # 24
    frequency:   64.6173302544

- q-position: [    0.0858586,    0.0000000,    0.0000000 ]
  distance:    0.0307590
  band:
  - # 1
    frequency:    0.5526008405
  - # 2
    frequency:    0.6535134030
  - # 3
    frequency:    1.2414884548
  - # 4
    frequency:    1.5624501722
  - # 5
    frequency:    1.6664043671
  - # 6
    frequency:    1.7853403620
  - # 7
    frequency:    2.1025010711
  - # 8
    frequency:    4.6530424211
  - # 9
    frequency:    4.8088742585
  - # 10
    frequency:    5.0310407807
  - # 11
    frequency:    5.3569556492
  - # 12
    frequency:    5.6248535557
  - # 13
    frequency:    8.2640423040
  - # 14
    frequency:    8.2761467289
  - # 15
    frequency:    9.0185857993
  - # 16
    frequency:   10.9774060544
  - # 17
    frequency:   11.0919181109
  - # 18
    frequency:   11.2704138079
  - # 19
    frequency:   13.7744793374
  - # 20
    frequency:   15.6618378028
  - # 21
    frequency:   15.6831654317
  - # 22
    frequency:   19.6637843012
  - # 23
    frequency:   34.2333947835
  - # 24
    frequency:   64.6141949930

- q-position: [    0.0909091,    0.0000000,    0.0000000 ]
  distance:    0.0325684
  band:
  - # 1
    frequency:    0.5732228488
  - # 2
    frequency:    0.7272955798
  - # 3
    frequency:    1.2666635877
  - # 4
    frequency:    1.6449761695
  - # 5
    frequency:    1.7059265931
  - # 6
    frequency:    1.8508954771
  - # 7
    frequency:    2.1672946613
  - # 8
    frequency:    4.6493529731
  - # 9
    frequency:    4.8129444946
  - # 10
    frequency:    5.0384775072
  - # 11
    frequency:    5.3555557404
  - # 12
    frequency:    5.6388437499
  - # 13
    frequency:    8.2577896262
  - # 14
    frequency:    8.2740711812
  - # 15
    frequency:    9.0107799953
  - # 16
    frequency:   10.9597569922
  - # 17
    frequency:   11.0876269998
  - # 18
    frequency:   11.2706329182
  - # 19
    frequency:   13.7595746572
  - # 20
    frequency:   15.6546284092
  - # 21
    frequency:   15.6778684243
  - # 22
    frequency:   19.6599133797
  - # 23
    frequency:   34.2274631464
  - # 24
    frequency:   64.6109188964

- q-position: [    0.0959596,    0.0000000,    0.0000000 ]
  distance:    0.0343777
  band:
  - # 1
    frequency:    0.5928693305
  - # 2
    frequency:    0.7963978719
  - # 3
    frequency:    1.2927487355
  - # 4
    frequency:    1.7287435709
  - # 5
    frequency:    1.7482160994
  - # 6
    frequency:    1.9173237641
  - # 7
    frequency:    2.2326311075
  - # 8
    frequency:    4.6457124487
  - # 9
    frequency:    4.8159119544
  - # 10
    frequency:    5.0495006113
  - # 11
    frequency:    5.3540610087
  - # 12
    frequency:    5.6526281048
  - # 13
    frequency:    8.2512847364
  - # 14
    frequency:    8.2723985731
  - # 15
    frequency:    9.0025697510
  - # 16
    frequency:   10.9410637924
  - # 17
    frequency:   11.0832168714
  - # 18
    frequency:   11.2710717339
  - # 19
    frequency:   13.7445534090
  - # 20
    frequency:   15.6472463687
  - # 21
    frequency:   15.6723625255
  - # 22
    frequency:   19.6558839894
  - # 23
    frequency:   34.2212643005
  - # 24
    frequency:   64.6075096724

- q-position: [    0.1010101,    0.0000000,    0.0000000 ]
  distance:    0.0361871
  band:
  - # 1
    frequency:    0.6117315781
  - # 2
    frequency:    0.8616999045
  - # 3
    frequency:    1.3195336802
  - # 4
    frequency:    1.7932466324
  - # 5
    frequency:    1.8133563633
  - # 6
    frequency:    1.9845363374
  - # 7
    frequency:    2.2985126612
  - # 8
    frequency:    4.6421511897
  - # 9
    frequency:    4.8182004929
  - # 10
    frequency:    5.0636961507
  - # 11
    frequency:    5.3524661070
  - # 12
    frequency:    5.6663095775
  - # 13
    frequency:    8.2445479465
  - # 14
    frequency:    8.2711570777
  - # 15
    frequency:    8.9939823962
  - # 16
    frequency:   10.9213021560
  - # 17
    frequency:   11.0787098706
  - # 18
    frequency:   11.2718022026
  - # 19
    frequency:   13.7295012839
  - # 20
    frequency:   15.6397228382
  - # 21
    frequency:   15.6666581488
  - # 22
    frequency:   19.6517055242
  - # 23
    frequency:   34.2148090589
  - # 24
    frequency:   64.6039752121

- q-position: [    0.1060606,    0.0000000,    0.0000000 ]
  distance:    0.0379964
  band:
  - # 1
    frequency:    0.6299945161
  - # 2
    frequency:    0.9239101504
  - # 3
    frequency:    1.3468305630
  - # 4
    frequency:    1.8409556165
  - # 5
    frequency:    1.8983042727
  - # 6
    frequency:    2.0524603645
  - # 7
    frequency:    2.3650151823
  - # 8
    frequency:    4.6386983740
  - # 9
    frequency:    4.8202857523
  - # 10
    frequency:    5.0805834345
  - # 11
    frequency:    5.3507654831
  - # 12
    frequency:    5.6800066993
  - # 13
    frequency:    8.2376010690
  - # 14
    frequency:    8.2703653136
  - # 15
    frequency:    8.9850496679
  - # 16
    frequency:   10.9004551266
  - # 17
    frequency:   11.0741294021
  - # 18
    frequency:   11.2728957005
  - # 19
    frequency:   13.7145004975
  - # 20
    frequency:   15.6320885458
  - # 21
    frequency:   15.6607649025
  - # 22
    frequency:   19.6473876166
  - # 23
    frequency:   34.2081085337
  - # 24
    frequency:   64.6003235556

- q-position: [    0.1111111,    0.0000000,    0.0000000 ]
  distance:    0.0398058
  band:
  - # 1
    frequency:    0.6478279750
  - # 2
    frequency:    0.9836410339
  - # 3
    frequency:    1.3744799815
  - # 4
    frequency:    1.8912455586
  - # 5
    frequency:    1.9829811905
  - # 6
    frequency:    2.1210250557
  - # 7
    frequency:    2.4322947372
  - # 8
    frequency:    4.6353818126
  - # 9
    frequency:    4.8226216025
  - # 10
    frequency:    5.0996882401
  - # 11
    frequency:    5.3489535977
  - # 12
    frequency:    5.6938532664
  - # 13
    frequency:    8.2304673654
  - # 14
    frequency:    8.2700319615
  - # 15
    frequency:    8.9758075617
  - # 16
    frequency:   10.8785152594
  - # 17
    frequency:   11.0695000605
  - # 18
    frequency:   11.2744211031
  - # 19
    frequency:   13.6996291886
  - # 20
    frequency:   15.6243735503
  - # 21
    frequency:   15.6546914168
  - # 22
    frequency:   19.6429400992
  - # 23
    frequency:   34.2011740990
  - # 24
    frequency:   64.5965628559

- q-position: [    0.1161616,    0.0000000,    0.0000000 ]
  distance:    0.0416151
  band:
  - # 1
    frequency:    0.6653803776
  - # 2
    frequency:    1.0414412725
  - # 3
    frequency:    1.4023528054
  - # 4
    frequency:    1.9439877670
  - # 5
    frequency:    2.0667216857
  - # 6
    frequency:    2.1901331556
  - # 7
    frequency:    2.5005904057
  - # 8
    frequency:    4.6322277831
  - # 9
    frequency:    4.8256014506
  - # 10
    frequency:    5.1205812799
  - # 11
    frequency:    5.3470251703
  - # 12
    frequency:    5.7079978632
  - # 13
    frequency:    8.2231714684
  - # 14
    frequency:    8.2701555740
  - # 15
    frequency:    8.9662961054
  - # 16
    frequency:   10.8554864474
  - # 17
    frequency:   11.0648475403
  - # 18
    frequency:   11.2764430933
  - # 19
    frequency:   13.6849609377
  - # 20
    frequency:   15.6166070125
  - # 21
    frequency:   15.6484451815
  - # 22
    frequency:   19.6383729650
  - # 23
    frequency:   34.1940173536
  - # 24
    frequency:   64.5927013448

- q-position: [    0.1212121,    0.0000000,    0.0000000 ]
  distance:    0.0434245
  band:
  - # 1
    frequency:    0.6827747233
  - # 2
    frequency:    1.0978087764
  - # 3
    frequency:    1.4303486540
  - # 4
    frequency:    1.9990275794
  - # 5
    frequency:    2.1488668294
  - # 6
    frequency:    2.2596118753
  - # 7
    frequency:    2.5702167690
  - # 8
    frequency:    4.6292608999
  - # 9
    frequency:    4.8295473418
  - # 10
    frequency:    5.1428890693
  - # 11
    frequency:    5.3449754473
  - # 12
    frequency:    5.7226031243
  - # 13
    frequency:    8.2157392791
  - # 14
    frequency:    8.2707245778
  - # 15
    frequency:    8.9565590585
  - # 16
    frequency:   10.8313853359
  - # 17
    frequency:   11.0601985260
  - # 18
    frequency:   11.2790207654
  - # 19
    frequency:   13.6705644153
  - # 20
    frequency:   15.6088169808
  - # 21
    frequency:   15.6420323957
  - # 22
    frequency:   19.6336963259
  - # 23
    frequency:   34.1866500846
  - # 24
    frequency:   64.5887472978

- q-position: [    0.1262626,    0.0000000,    0.0000000 ]
  distance:    0.0452338
  band:
  - # 1
    frequency:    0.7001065426
  - # 2
    frequency:    1.1531947899
  - # 3
    frequency:    1.4583922513
  - # 4
    frequency:    2.0561902149
  - # 5
    frequency:    2.2288611088
  - # 6
    frequency:    2.3291498250
  - # 7
    frequency:    2.6415371774
  - # 8
    frequency:    4.6265040211
  - # 9
    frequency:    4.8347140907
  - # 10
    frequency:    5.1662900514
  - # 11
    frequency:    5.3428004860
  - # 12
    frequency:    5.7378446116
  - # 13
    frequency:    8.2081978373
  - # 14
    frequency:    8.2717174684
  - # 15
    frequency:    8.9466435338
  - # 16
    frequency:   10.8062422856
  - # 17
    frequency:   11.0555805615
  - # 18
    frequency:   11.2822065588
  - # 19
    frequency:   13.6565031582
  - # 20
    frequency:   15.6010301935
  - # 21
    frequency:   15.6354578357
  - # 22
    frequency:   19.6289203693
  - # 23
    frequency:   34.1790842309
  - # 24
    frequency:   64.5847090003

- q-position: [    0.1313131,    0.0000000,    0.0000000 ]
  distance:    0.0470432
  band:
  - # 1
    frequency:    0.7174434214
  - # 2
    frequency:    1.2080043653
  - # 3
    frequency:    1.4864288019
  - # 4
    frequency:    2.1152864911
  - # 5
    frequency:    2.3063520420
  - # 6
    frequency:    2.3982557769
  - # 7
    frequency:    2.7149103881
  - # 8
    frequency:    4.6239781890
  - # 9
    frequency:    4.8412989269
  - # 10
    frequency:    5.1905056155
  - # 11
    frequency:    5.3404974497
  - # 12
    frequency:    5.7539091581
  - # 13
    frequency:    8.2005751651
  - # 14
    frequency:    8.2731031931
  - # 15
    frequency:    8.9365995406
  - # 16
    frequency:   10.7801018778
  - # 17
    frequency:   11.0510218984
  - # 18
    frequency:   11.2860455212
  - # 19
    frequency:   13.6428354756
  - # 20
    frequency:   15.5932719017
  - # 21
    frequency:   15.6287247424
  - # 22
    frequency:   19.6240553140
  - # 23
    frequency:   34.1713318468
  - # 24
    frequency:   64.5805947145

- q-position: [    0.1363636,    0.0000000,    0.0000000 ]
  distance:    0.0488525
  band:
  - # 1
    frequency:    0.7348256970
  - # 2
    frequency:    1.2625956049
  - # 3
    frequency:    1.5144192626
  - # 4
    frequency:    2.1761178917
  - # 5
    frequency:    2.3812329710
  - # 6
    frequency:    2.4662966939
  - # 7