nqpoint: 300    
npath: 3      
segment_nqpoint:
- 100
- 100
- 100
labels:
- [ 'G', 'M' ]
- [ 'M', 'K' ]
- [ 'K', 'G' ]
reciprocal_lattice:
- [   0.30511131,   0.17615610,   0.00000000 ] # a*
- [   0.00000000,   0.35231220,   0.00000000 ] # b*
- [   0.00000000,   0.00000000,   0.03952334 ] # c*
natom: 7      
lattice:
- [     3.277492382360940,     0.000000000000000,     0.000000000000000 ] # a
- [    -1.638746191180470,     2.838391663835293,     0.000000000000000 ] # b
- [     0.000000000000000,     0.000000000000000,    25.301508250920044 ] # c
points:
- symbol: C # 1
  coordinates: [  0.333332985432215,  0.666666983183674,  0.596863803550078 ]
  mass: 12.010700
- symbol: H # 2
  coordinates: [  0.666666984744048,  0.333332985985145,  0.355710019764246 ]
  mass: 1.007940
- symbol: N # 3
  coordinates: [  0.000000000000000,  0.000000000000000,  0.490188342305396 ]
  mass: 14.006700
- symbol: N # 4
  coordinates: [  0.333332985432215,  0.666666983183674,  0.644289980235754 ]
  mass: 14.006700
- symbol: O # 5
  coordinates: [  0.666666984744048,  0.333332985985145,  0.394636892287236 ]
  mass: 15.999400
- symbol: Sc # 6
  coordinates: [  0.333332985432215,  0.666666983183674,  0.442906439015776 ]
  mass: 44.955912
- symbol: Sc # 7
  coordinates: [  0.666666984744048,  0.333332985985145,  0.539756807352596 ]
  mass: 44.955912

phonon:
- q-position: [    0.0000000,    0.0000000,    0.0000000 ]
  distance:    0.0000000
  band:
  - # 1
    frequency:   -1.3906831634
  - # 2
    frequency:   -1.3906831634
  - # 3
    frequency:   -0.0000015433
  - # 4
    frequency:   -0.0000008435
  - # 5
    frequency:    0.0000006161
  - # 6
    frequency:    4.9554870092
  - # 7
    frequency:    4.9554870092
  - # 8
    frequency:    7.0043889364
  - # 9
    frequency:    8.5359812561
  - # 10
    frequency:    8.5359812561
  - # 11
    frequency:    8.7542360156
  - # 12
    frequency:    8.7542360156
  - # 13
    frequency:   10.3324588462
  - # 14
    frequency:   12.5775223064
  - # 15
    frequency:   12.5775223064
  - # 16
    frequency:   12.9592155127
  - # 17
    frequency:   13.7301654234
  - # 18
    frequency:   13.7301654234
  - # 19
    frequency:   14.4124613522
  - # 20
    frequency:   61.7393036597
  - # 21
    frequency:  113.4397268848

- q-position: [    0.0050505,    0.0000000,    0.0000000 ]
  distance:    0.0017794
  band:
  - # 1
    frequency:   -1.3904532750
  - # 2
    frequency:   -1.3903583535
  - # 3
    frequency:   -0.0961608671
  - # 4
    frequency:    0.0877752321
  - # 5
    frequency:    0.1777575647
  - # 6
    frequency:    4.9557682002
  - # 7
    frequency:    4.9571159653
  - # 8
    frequency:    7.0044206053
  - # 9
    frequency:    8.5361713576
  - # 10
    frequency:    8.5366897979
  - # 11
    frequency:    8.7542934817
  - # 12
    frequency:    8.7544805084
  - # 13
    frequency:   10.3317528881
  - # 14
    frequency:   12.5767677717
  - # 15
    frequency:   12.5777133718
  - # 16
    frequency:   12.9586151520
  - # 17
    frequency:   13.7298236109
  - # 18
    frequency:   13.7303678949
  - # 19
    frequency:   14.4121101178
  - # 20
    frequency:   61.7391976585
  - # 21
    frequency:  113.4376804183

- q-position: [    0.0101010,    0.0000000,    0.0000000 ]
  distance:    0.0035587
  band:
  - # 1
    frequency:   -1.3897667853
  - # 2
    frequency:   -1.3894357357
  - # 3
    frequency:   -0.1040275975
  - # 4
    frequency:    0.1755543458
  - # 5
    frequency:    0.3167797036
  - # 6
    frequency:    4.9566132104
  - # 7
    frequency:    4.9619885724
  - # 8
    frequency:    7.0045157937
  - # 9
    frequency:    8.5367397533
  - # 10
    frequency:    8.5388094300
  - # 11
    frequency:    8.7544643171
  - # 12
    frequency:    8.7552152984
  - # 13
    frequency:   10.3296414694
  - # 14
    frequency:   12.5744870364
  - # 15
    frequency:   12.5782885454
  - # 16
    frequency:   12.9568212745
  - # 17
    frequency:   13.7288200968
  - # 18
    frequency:   13.7309715814
  - # 19
    frequency:   14.4110556619
  - # 20
    frequency:   61.7388799474
  - # 21
    frequency:  113.4315528736

- q-position: [    0.0151515,    0.0000000,    0.0000000 ]
  distance:    0.0053381
  band:
  - # 1
    frequency:   -1.3886331320
  - # 2
    frequency:   -1.3880585419
  - # 3
    frequency:   -0.0992635859
  - # 4
    frequency:    0.2633406067
  - # 5
    frequency:    0.4601312109
  - # 6
    frequency:    4.9580263224
  - # 7
    frequency:    4.9700623845
  - # 8
    frequency:    7.0046750526
  - # 9
    frequency:    8.5376807447
  - # 10
    frequency:    8.5423222286
  - # 11
    frequency:    8.7547438558
  - # 12
    frequency:    8.7564443085
  - # 13
    frequency:   10.3261438261
  - # 14
    frequency:   12.5706299677
  - # 15
    frequency:   12.5792537056
  - # 16
    frequency:   12.9538554425
  - # 17
    frequency:   13.7272193168
  - # 18
    frequency:   13.7319653549
  - # 19
    frequency:   14.4092959284
  - # 20
    frequency:   61.7383514031
  - # 21
    frequency:  113.4213797417

- q-position: [    0.0202020,    0.0000000,    0.0000000 ]
  distance:    0.0071174
  band:
  - # 1
    frequency:   -1.3870677577
  - # 2
    frequency:   -1.3864308869
  - # 3
    frequency:   -0.0849122681
  - # 4
    frequency:    0.3511361073
  - # 5
    frequency:    0.6058387413
  - # 6
    frequency:    4.9600145749
  - # 7
    frequency:    4.9812677633
  - # 8
    frequency:    7.0048993219
  - # 9
    frequency:    8.5389849259
  - # 10
    frequency:    8.5471985012
  - # 11
    frequency:    8.7551243967
  - # 12
    frequency:    8.7581740378
  - # 13
    frequency:   10.3212915902
  - # 14
    frequency:   12.5651171787
  - # 15
    frequency:   12.5806184693
  - # 16
    frequency:   12.9497534131
  - # 17
    frequency:   13.7251242712
  - # 18
    frequency:   13.7333308539
  - # 19
    frequency:   14.4068281420
  - # 20
    frequency:   61.7376134822
  - # 21
    frequency:  113.4072199285

- q-position: [    0.0252525,    0.0000000,    0.0000000 ]
  distance:    0.0088968
  band:
  - # 1
    frequency:   -1.3850917217
  - # 2
    frequency:   -1.3847826573
  - # 3
    frequency:   -0.0522102713
  - # 4
    frequency:    0.4389413118
  - # 5
    frequency:    0.7527429679
  - # 6
    frequency:    4.9625876173
  - # 7
    frequency:    4.9955094781
  - # 8
    frequency:    7.0051899594
  - # 9
    frequency:    8.5406393168
  - # 10
    frequency:    8.5533970417
  - # 11
    frequency:    8.7555953166
  - # 12
    frequency:    8.7604135171
  - # 13
    frequency:   10.3151281701
  - # 14
    frequency:   12.5578461495
  - # 15
    frequency:   12.5823959281
  - # 16
    frequency:   12.9445648504
  - # 17
    frequency:   13.7226701334
  - # 18
    frequency:   13.7350427570
  - # 19
    frequency:   14.4036497074
  - # 20
    frequency:   61.7366682155
  - # 21
    frequency:  113.3891553880

- q-position: [    0.0303030,    0.0000000,    0.0000000 ]
  distance:    0.0106761
  band:
  - # 1
    frequency:   -1.3833421109
  - # 2
    frequency:   -1.3827312256
  - # 3
    frequency:    0.0639765942
  - # 4
    frequency:    0.5267547295
  - # 5
    frequency:    0.9002151066
  - # 6
    frequency:    4.9657575094
  - # 7
    frequency:    5.0126688333
  - # 8
    frequency:    7.0055487823
  - # 9
    frequency:    8.5426275411
  - # 10
    frequency:    8.5608654564
  - # 11
    frequency:    8.7561432274
  - # 12
    frequency:    8.7631742710
  - # 13
    frequency:   10.3077079262
  - # 14
    frequency:   12.5486994875
  - # 15
    frequency:   12.5846022914
  - # 16
    frequency:   12.9383529021
  - # 17
    frequency:   13.7200157187
  - # 18
    frequency:   13.7370691544
  - # 19
    frequency:   14.3997593283
  - # 20
    frequency:   61.7355181987
  - # 21
    frequency:  113.3672906116

- q-position: [    0.0353535,    0.0000000,    0.0000000 ]
  distance:    0.0124555
  band:
  - # 1
    frequency:   -1.3823209871
  - # 2
    frequency:   -1.3800171019
  - # 3
    frequency:    0.1179226498
  - # 4
    frequency:    0.6145727191
  - # 5
    frequency:    1.0478466451
  - # 6
    frequency:    4.9695384715
  - # 7
    frequency:    5.0326062261
  - # 8
    frequency:    7.0059781142
  - # 9
    frequency:    8.5449300410
  - # 10
    frequency:    8.5695405276
  - # 11
    frequency:    8.7567521779
  - # 12
    frequency:    8.7664703148
  - # 13
    frequency:   10.2990951786
  - # 14
    frequency:   12.5375549265
  - # 15
    frequency:   12.5872564479
  - # 16
    frequency:   12.9311936493
  - # 17
    frequency:   13.7173332676
  - # 18
    frequency:   13.7393720106
  - # 19
    frequency:   14.3951582350
  - # 20
    frequency:   61.7341665817
  - # 21
    frequency:  113.3417519777

- q-position: [    0.0404040,    0.0000000,    0.0000000 ]
  distance:    0.0142348
  band:
  - # 1
    frequency:   -1.3819098379
  - # 2
    frequency:   -1.3769843049
  - # 3
    frequency:    0.1657699206
  - # 4
    frequency:    0.7023894080
  - # 5
    frequency:    1.1953312444
  - # 6
    frequency:    4.9739465881
  - # 7
    frequency:    5.0551640235
  - # 8
    frequency:    7.0064808389
  - # 9
    frequency:    8.5475243186
  - # 10
    frequency:    8.5793485752
  - # 11
    frequency:    8.7574039000
  - # 12
    frequency:    8.7703182222
  - # 13
    frequency:   10.2893630894
  - # 14
    frequency:   12.5242964574
  - # 15
    frequency:   12.5903794594
  - # 16
    frequency:   12.9231754733
  - # 17
    frequency:   13.7147971578
  - # 18
    frequency:   13.7419077060
  - # 19
    frequency:   14.3898514113
  - # 20
    frequency:   61.7326170549
  - # 21
    frequency:  113.3126869637

- q-position: [    0.0454545,    0.0000000,    0.0000000 ]
  distance:    0.0160142
  band:
  - # 1
    frequency:   -1.3822782600
  - # 2
    frequency:   -1.3736714293
  - # 3
    frequency:    0.2136693849
  - # 4
    frequency:    0.7901967004
  - # 5
    frequency:    1.3424203686
  - # 6
    frequency:    4.9789994730
  - # 7
    frequency:    5.0801696445
  - # 8
    frequency:    7.0070604551
  - # 9
    frequency:    8.5503851928
  - # 10
    frequency:    8.5902057645
  - # 11
    frequency:    8.7580780979
  - # 12
    frequency:    8.7747373051
  - # 13
    frequency:   10.2785924623
  - # 14
    frequency:   12.5088257758
  - # 15
    frequency:   12.5939940007
  - # 16
    frequency:   12.9143984306
  - # 17
    frequency:   13.7125723074
  - # 18
    frequency:   13.7446276468
  - # 19
    frequency:   14.3838487292
  - # 20
    frequency:   61.7308738336
  - # 21
    frequency:  113.2802632274

- q-position: [    0.0505051,    0.0000000,    0.0000000 ]
  distance:    0.0177935
  band:
  - # 1
    frequency:   -1.3835753477
  - # 2
    frequency:   -1.3701202692
  - # 3
    frequency:    0.2632682205
  - # 4
    frequency:    0.8779843448
  - # 5
    frequency:    1.4889042229
  - # 6
    frequency:    4.9847159001
  - # 7
    frequency:    5.1074387407
  - # 8
    frequency:    7.0077211300
  - # 9
    frequency:    8.5534850569
  - # 10
    frequency:    8.6020183052
  - # 11
    frequency:    8.7587527835
  - # 12
    frequency:    8.7797499595
  - # 13
    frequency:   10.2668704990
  - # 14
    frequency:   12.4910730776
  - # 15
    frequency:   12.5981237611
  - # 16
    frequency:   12.9049737588
  - # 17
    frequency:   13.7108031187
  - # 18
    frequency:   13.7474789309
  - # 19
    frequency:   14.3771659240
  - # 20
    frequency:   61.7289416403
  - # 21
    frequency:  113.2446675628

- q-position: [    0.0555556,    0.0000000,    0.0000000 ]
  distance:    0.0195729
  band:
  - # 1
    frequency:   -1.3859279180
  - # 2
    frequency:   -1.3663754152
  - # 3
    frequency:    0.3151696242
  - # 4
    frequency:    0.9657400355
  - # 5
    frequency:    1.6346014230
  - # 6
    frequency:    4.9911154078
  - # 7
    frequency:    5.1367783772
  - # 8
    frequency:    7.0084677467
  - # 9
    frequency:    8.5567941257
  - # 10
    frequency:    8.6146824861
  - # 11
    frequency:    8.7594046565
  - # 12
    frequency:    8.7853822244
  - # 13
    frequency:   10.2542895479
  - # 14
    frequency:   12.4710062003
  - # 15
    frequency:   12.6027928214
  - # 16
    frequency:   12.8950236466
  - # 17
    frequency:   13.7096038167
  - # 18
    frequency:   13.7504050594
  - # 19
    frequency:   14.3698253723
  - # 20
    frequency:   61.7268256849
  - # 21
    frequency:  113.2061047359

- q-position: [    0.0606061,    0.0000000,    0.0000000 ]
  distance:    0.0213523
  band:
  - # 1
    frequency:   -1.3894362183
  - # 2
    frequency:   -1.3624838838
  - # 3
    frequency:    0.3695636874
  - # 4
    frequency:    1.0534495280
  - # 5
    frequency:    1.7793520192
  - # 6
    frequency:    4.9982178835
  - # 7
    frequency:    5.1679901330
  - # 8
    frequency:    7.0093059408
  - # 9
    frequency:    8.5602806540
  - # 10
    frequency:    8.6280845020
  - # 11
    frequency:    8.7600095341
  - # 12
    frequency:    8.7916645944
  - # 13
    frequency:   10.2409458742
  - # 14
    frequency:   12.4486372356
  - # 15
    frequency:   12.6080250191
  - # 16
    frequency:   12.8846813686
  - # 17
    frequency:   13.7090509180
  - # 18
    frequency:   13.7533466831
  - # 19
    frequency:   14.3618566648
  - # 20
    frequency:   61.7245316428
  - # 21
    frequency:  113.1647962093

- q-position: [    0.0656566,    0.0000000,    0.0000000 ]
  distance:    0.0231316
  band:
  - # 1
    frequency:   -1.3941682440
  - # 2
    frequency:   -1.3584947698
  - # 3
    frequency:    0.4264317249
  - # 4
    frequency:    1.1410967563
  - # 5
    frequency:    1.9230122062
  - # 6
    frequency:    5.0060431362
  - # 7
    frequency:    5.2008730617
  - # 8
    frequency:    7.0102421219
  - # 9
    frequency:    8.5639111132
  - # 10
    frequency:    8.6421000718
  - # 11
    frequency:    8.7605428313
  - # 12
    frequency:    8.7986330837
  - # 13
    frequency:   10.2269384715
  - # 14
    frequency:   12.4240260186
  - # 15
    frequency:   12.6138433142
  - # 16
    frequency:   12.8740918162
  - # 17
    frequency:   13.7091783326
  - # 18
    frequency:   13.7562423747
  - # 19
    frequency:   14.3532969879
  - # 20
    frequency:   61.7220656315
  - # 21
    frequency:  113.1209787634

- q-position: [    0.0707071,    0.0000000,    0.0000000 ]
  distance:    0.0249110
  band:
  - # 1
    frequency:   -1.4001543720
  - # 2
    frequency:   -1.3544589094
  - # 3
    frequency:    0.4856368375
  - # 4
    frequency:    1.2286639449
  - # 5
    frequency:    2.0654501721
  - # 6
    frequency:    5.0146104635
  - # 7
    frequency:    5.2352264664
  - # 8
    frequency:    7.0112834750
  - # 9
    frequency:    8.5676503100
  - # 10
    frequency:    8.6565939285
  - # 11
    frequency:    8.7609800978
  - # 12
    frequency:    8.8063304582
  - # 13
    frequency:   10.2123679289
  - # 14
    frequency:   12.3972802929
  - # 15
    frequency:   12.6202691633
  - # 16
    frequency:   12.8634123711
  - # 17
    frequency:   13.7099752924
  - # 18
    frequency:   13.7590294195
  - # 19
    frequency:   14.3441913467
  - # 20
    frequency:   61.7194341861
  - # 21
    frequency:  113.0749030225

- q-position: [    0.0757576,    0.0000000,    0.0000000 ]
  distance:    0.0266903
  band:
  - # 1
    frequency:   -1.4073838961
  - # 2
    frequency:   -1.3504285509
  - # 3
    frequency:    0.5469744306
  - # 4
    frequency:    1.3161317153
  - # 5
    frequency:    2.2065428434
  - # 6
    frequency:    5.0239382215
  - # 7
    frequency:    5.2708524666
  - # 8
    frequency:    7.0124379356
  - # 9
    frequency:    8.5714614307
  - # 10
    frequency:    8.6714194165
  - # 11
    frequency:    8.7612976165
  - # 12
    frequency:    8.8148073979
  - # 13
    frequency:   10.1973353626
  - # 14
    frequency:   12.3685527480
  - # 15
    frequency:   12.6273219105
  - # 16
    frequency:   12.8528139897
  - # 17
    frequency:   13.7113869727
  - # 18
    frequency:   13.7616446188
  - # 19
    frequency:   14.3345926718
  - # 20
    frequency:   61.7166442319
  - # 21
    frequency:  113.0268318958

- q-position: [    0.0808081,    0.0000000,    0.0000000 ]
  distance:    0.0284697
  band:
  - # 1
    frequency:   -1.4158044641
  - # 2
    frequency:   -1.3464570266
  - # 3
    frequency:    0.6102052780
  - # 4
    frequency:    1.4034791848
  - # 5
    frequency:    2.3461733478
  - # 6
    frequency:    5.0340434035
  - # 7
    frequency:    5.3075583476
  - # 8
    frequency:    7.0137141355
  - # 9
    frequency:    8.5753059977
  - # 10
    frequency:    8.6864186662
  - # 11
    frequency:    8.7614730693
  - # 12
    frequency:    8.8241231192
  - # 13
    frequency:   10.1819414117
  - # 14
    frequency:   12.3380354585
  - # 15
    frequency:   12.6350181982
  - # 16
    frequency:   12.8424823271
  - # 17
    frequency:   13.7133173947
  - # 18
    frequency:   13.7640251019
  - # 19
    frequency:   14.3245618505
  - # 20
    frequency:   61.7137030572
  - # 21
    frequency:  112.9770389441

- q-position: [    0.0858586,    0.0000000,    0.0000000 ]
  distance:    0.0302490
  band:
  - # 1
    frequency:   -1.4253246309
  - # 2
    frequency:   -1.3425984265
  - # 3
    frequency:    0.6750789639
  - # 4
    frequency:    1.4906840616
  - # 5
    frequency:    2.4842290392
  - # 6
    frequency:    5.0449412350
  - # 7
    frequency:    5.3451586949
  - # 8
    frequency:    7.0151213127
  - # 9
    frequency:    8.5791437223
  - # 10
    frequency:    8.7014241030
  - # 11
    frequency:    8.7614862781
  - # 12
    frequency:    8.8343446920
  - # 13
    frequency:   10.1662853014
  - # 14
    frequency:   12.3059524461
  - # 15
    frequency:   12.6433714024
  - # 16
    frequency:   12.8326187210
  - # 17
    frequency:   13.7156340241
  - # 18
    frequency:   13.7661091425
  - # 19
    frequency:   14.3141677199
  - # 20
    frequency:   61.7106182843
  - # 21
    frequency:  112.9258066817

- q-position: [    0.0909091,    0.0000000,    0.0000000 ]
  distance:    0.0320284
  band:
  - # 1
    frequency:   -1.4358190392
  - # 2
    frequency:   -1.3389072751
  - # 3
    frequency:    0.7413506329
  - # 4
    frequency:    1.5777227347
  - # 5
    frequency:    2.6205999501
  - # 6
    frequency:    5.0566447923
  - # 7
    frequency:    5.3834773292
  - # 8
    frequency:    7.0166691827
  - # 9
    frequency:    8.5829322445
  - # 10
    frequency:    8.7162622627
  - # 11
    frequency:    8.7613200259
  - # 12
    frequency:    8.8455440792
  - # 13
    frequency:   10.1504639698
  - # 14
    frequency:   12.2725511425
  - # 15
    frequency:   12.6523910900
  - # 16
    frequency:   12.8234408838
  - # 17
    frequency:   13.7181734274
  - # 18
    frequency:   13.7678369796
  - # 19
    frequency:   14.3034870382
  - # 20
    frequency:   61.7073978390
  - # 21
    frequency:  112.8734248262

- q-position: [    0.0959596,    0.0000000,    0.0000000 ]
  distance:    0.0338077
  band:
  - # 1
    frequency:   -1.4471353024
  - # 2
    frequency:   -1.3354382164
  - # 3
    frequency:    0.8087923739
  - # 4
    frequency:    1.6645703624
  - # 5
    frequency:    2.7551775577
  - # 6
    frequency:    5.0691646488
  - # 7
    frequency:    5.4223490582
  - # 8
    frequency:    7.0183677684
  - # 9
    frequency:    8.5866267508
  - # 10
    frequency:    8.7307607296
  - # 11
    frequency:    8.7609609630
  - # 12
    frequency:    8.8577920650
  - # 13
    frequency:   10.1345712594
  - # 14
    frequency:   12.2380934686
  - # 15
    frequency:   12.6620824994
  - # 16
    frequency:   12.8151831845
  - # 17
    frequency:   13.7207474124
  - # 18
    frequency:   13.7691516415
  - # 19
    frequency:   14.2926044255
  - # 20
    frequency:   61.7040499205
  - # 21
    frequency:  112.8201885073

- q-position: [    0.1010101,    0.0000000,    0.0000000 ]
  distance:    0.0355871
  band:
  - # 1
    frequency:   -1.4591015502
  - # 2
    frequency:   -1.3322457094
  - # 3
    frequency:    0.8772001633
  - # 4
    frequency:    1.7512009563
  - # 5
    frequency:    2.8878537747
  - # 6
    frequency:    5.0825085566
  - # 7
    frequency:    5.4616212695
  - # 8
    frequency:    7.0202271862
  - # 9
    frequency:    8.5901794704
  - # 10
    frequency:    8.7447581681
  - # 11
    frequency:    8.7604005936
  - # 12
    frequency:    8.8711490891
  - # 13
    frequency:   10.1186971786
  - # 14
    frequency:   12.2028471177
  - # 15
    frequency:   12.6724460402
  - # 16
    frequency:   12.8080964308
  - # 17
    frequency:   13.7231492213
  - # 18
    frequency:   13.7699997737
  - # 19
    frequency:   14.2816122287
  - # 20
    frequency:   61.7005829692
  - # 21
    frequency:  112.7663964469

- q-position: [    0.1060606,    0.0000000,    0.0000000 ]
  distance:    0.0373664
  band:
  - # 1
    frequency:   -1.4715337497
  - # 2
    frequency:   -1.3293837404
  - # 3
    frequency:    0.9463972640
  - # 4
    frequency:    1.8375874637
  - # 5
    frequency:    3.0185200987
  - # 6
    frequency:    5.0966811674
  - # 7
    frequency:    5.5011553840
  - # 8
    frequency:    7.0222573886
  - # 9
    frequency:    8.5935390625
  - # 10
    frequency:    8.7581158387
  - # 11
    frequency:    8.7596363308
  - # 12
    frequency:    8.8856545691
  - # 13
    frequency:   10.1029272423
  - # 14
    frequency:   12.1670774814
  - # 15
    frequency:   12.6834768071
  - # 16
    frequency:   12.8024470810
  - # 17
    frequency:   13.7251595346
  - # 18
    frequency:   13.7703324710
  - # 19
    frequency:   14.2706102186
  - # 20
    frequency:   61.6970056349
  - # 21
    frequency:  112.7123491232

- q-position: [    0.1111111,    0.0000000,    0.0000000 ]
  distance:    0.0391458
  band:
  - # 1
    frequency:   -1.4842421961
  - # 2
    frequency:   -1.3269055563
  - # 3
    frequency:    1.0162349851
  - # 4
    frequency:    1.9237018447
  - # 5
    frequency:    3.1470668726
  - # 6
    frequency:    5.1116837967
  - # 7
    frequency:    5.5408281868
  - # 8
    frequency:    7.0244678659
  - # 9
    frequency:    8.5966499282
  - # 10
    frequency:    8.7586725855
  - # 11
    frequency:    8.7707274218
  - # 12
    frequency:    8.9013178544
  - # 13
    frequency:   10.0873419102
  - # 14
    frequency:   12.1310405177
  - # 15
    frequency:   12.6951641050
  - # 16
    frequency:   12.7985158150
  - # 17
    frequency:   13.7265522371
  - # 18
    frequency:   13.7701061169
  - # 19
    frequency:   14.2597049805
  - # 20
    frequency:   61.6933267442
  - # 21
    frequency:  112.6583469311

- q-position: [    0.1161616,    0.0000000,    0.0000000 ]
  distance:    0.0409252
  band:
  - # 1
    frequency:   -1.4970368736
  - # 2
    frequency:   -1.3248634220
  - # 3
    frequency:    1.0865916418
  - # 4
    frequency:    2.0095151458
  - # 5
    frequency:    3.2733826251
  - # 6
    frequency:    5.1275142360
  - # 7
    frequency:    5.5805330478
  - # 8
    frequency:    7.0268673124
  - # 9
    frequency:    8.5994515112
  - # 10
    frequency:    8.7575218243
  - # 11
    frequency:    8.7825237704
  - # 12
    frequency:    8.9181141472
  - # 13
    frequency:   10.0720161507
  - # 14
    frequency:   12.0949767531
  - # 15
    frequency:   12.7074909774
  - # 16
    frequency:   12.7965953911
  - # 17
    frequency:   13.7271000625
  - # 18
    frequency:   13.7692832314
  - # 19
    frequency:   14.2490088156
  - # 20
    frequency:   61.6895552677
  - # 21
    frequency:  112.6046883527

- q-position: [    0.1212121,    0.0000000,    0.0000000 ]
  distance:    0.0427045
  band:
  - # 1
    frequency:   -1.5097316338
  - # 2
    frequency:   -1.3233084042
  - # 3
    frequency:    1.1573704236
  - # 4
    frequency:    2.0949975674
  - # 5
    frequency:    3.3973534748
  - # 6
    frequency:    5.1441666137
  - # 7
    frequency:    5.6201810314
  - # 8
    frequency:    7.0294632644
  - # 9
    frequency:    8.6018777022
  - # 10
    frequency:    8.7562054852
  - # 11
    frequency:    8.7934710721
  - # 12
    frequency:    8.9359868541
  - # 13
    frequency:   10.0570191705
  - # 14
    frequency:   12.0591065233
  - # 15
    frequency:   12.7204337325
  - # 16
    frequency:   12.7969877095
  - # 17
    frequency:   13.7265803482
  - # 18
    frequency:   13.7678333298
  - # 19
    frequency:   14.2386379570
  - # 20
    frequency:   61.6857002870
  - # 21
    frequency:  112.5516681492

- q-position: [    0.1262626,    0.0000000,    0.0000000 ]
  distance:    0.0444839
  band:
  - # 1
    frequency:   -1.5221472985
  - # 2
    frequency:   -1.3222901843
  - # 3
    frequency:    1.2284967065
  - # 4
    frequency:    2.1801185261
  - # 5
    frequency:    3.5188625952
  - # 6
    frequency:    5.1616313091
  - # 7
    frequency:    5.6597018856
  - # 8
    frequency:    7.0322617229
  - # 9
    frequency:    8.6038565189
  - # 10
    frequency:    8.7547545778
  - # 11
    frequency:    8.8035637622
  - # 12
    frequency:    8.9548549609
  - # 13
    frequency:   10.0424143571
  - # 14
    frequency:   12.0236264983
  - # 15
    frequency:   12.7339614610
  - # 16
    frequency:   12.7999999995
  - # 17
    frequency:   13.7247811686
  - # 18
    frequency:   13.7657337948
  - # 19
    frequency:   14.2287099376
  - # 20
    frequency:   61.6817709618
  - # 21
    frequency:  112.4995755888

- q-position: [    0.1313131,    0.0000000,    0.0000000 ]
  distance:    0.0462632
  band:
  - # 1
    frequency:   -1.5341138783
  - # 2
    frequency:   -1.3218568986
  - # 3
    frequency:    1.2999151814
  - # 4
    frequency:    2.2648467130
  - # 5
    frequency:    3.6377897522
  - # 6
    frequency:    5.1798949169
  - # 7
    frequency:    5.6990448843
  - # 8
    frequency:    7.0352667759
  - # 9
    frequency:    8.6053103078
  - # 10
    frequency:    8.7532097261
  - # 11
    frequency:    8.8128153687
  - # 12
    frequency:    8.9746221757
  - # 13
    frequency:   10.0282594990
  - # 14
    frequency:   11.9887074886
  - # 15
    frequency:   12.7480355389
  - # 16
    frequency:   12.8059400543
  - # 17
    frequency:   13.7215080615
  - # 18
    frequency:   13.7629707644
  - # 19
    frequency:   14.2193400495
  - # 20
    frequency:   61.6777764973
  - # 21
    frequency:  112.4486927220

- q-position: [    0.1363636,    0.0000000,    0.0000000 ]
  distance:    0.0480426
  band:
  - # 1
    frequency:   -1.5454721164
  - # 2
    frequency:   -1.3220550052
  - # 3
    frequency:    1.3715870306
  - # 4
    frequency:    2.3491501462
  - # 5
    frequency:    3.7540109377
  - # 6
    frequency:    5.1989402652
  - # 7
    frequency:    5.7381794800
  - # 8
    frequency:    7.0384802416
  - # 9
    frequency:    8.6061567693
  - # 10
    frequency:    8.7516203522
  - # 11
    frequency:    8.8212503154
  - # 12
    frequency:    8.9951847285
  - # 13
    frequency:   10.0146073491
  - # 14
    frequency:   11.9544934819
  - # 15
    frequency:   12.7626091096
  - # 16
    frequency:   12.8151104342
  - # 17
    frequency:   13.7165914240
  - # 18
    frequency:   13.7595400367
  - # 19
    frequency:   14.2106370273
  - # 20
    frequency:   61.6737261112
  - # 21
    frequency:  112.3992927164

- q-position: [    0.1414141,    0.0000000,    0.0000000 ]
  distance:    0.0498219
  band:
  - # 1
    frequency:   -1.5560745543
  - # 2
    frequency:   -1.3229291744
  - # 3
    frequency:    1.4434872788
  - # 4
    frequency:    2.4329962231
  - # 5
    frequency:    3.8673981426
  - # 6
    frequency:    5.2187464826
  - # 7
    frequency:    5.7770957054
  - # 8
    frequency:    7.0419013550
  - # 9
    frequency:    8.6063111095
  - # 10
    frequency:    8.7500427007
  - # 11
    frequency:    8.8288982755
  - # 12
    frequency:    9.0164361487
  - # 13
    frequency:   10.0015066124
  - # 14
    frequency:   11.9211018175
  - # 15
    frequency:   12.7776265412
  - # 16
    frequency:   12.8278015529
  - # 17
    frequency:   13.7098944624
  - # 18
    frequency:   13.7554479920
  - # 19
    frequency:   14.2026983303
  - # 20
    frequency:   61.6696290020
  - # 21
    frequency:  112.3516382646

- q-position: [    0.1464646,    0.0000000,    0.0000000 ]
  distance:    0.0516013
  band:
  - # 1
    frequency:   -1.5657862820
  - # 2
    frequency:   -1.3245221989
  - # 3
    frequency:    1.5156023736
  - # 4
    frequency:    2.5163517718
  - # 5
    frequency:    3.9778193273
  - # 6
    frequency:    5.2392891150
  - # 7
    frequency:    5.8158042407
  - # 8
    frequency:    7.0455265247
  - # 9
    frequency:    8.6056895161
  - # 10
    frequency:    8.7485365079
  - # 11
    frequency:    8.8357912043
  - # 12
    frequency:    9.0382688044
  - # 13
    frequency:    9.9890034348
  - # 14
    frequency:   11.8886243554
  - # 15
    frequency:   12.7930228571
  - # 16
    frequency:   12.8442835087
  - # 17
    frequency:   13.7013214345
  - # 18
    frequency:   13.7507125301
  - # 19
    frequency:   14.1956056432
  - # 20
    frequency:   61.6654943169
  - # 21
    frequency:  112.3059800746

- q-position: [    0.1515152,    0.0000000,    0.0000000 ]
  distance:    0.0533806
  band:
  - # 1
    frequency:   -1.5744854994
  - # 2
    frequency:   -1.3268749187
  - # 3
    frequency:    1.5879280064
  - # 4
    frequency:    2.5991831053
  - # 5
    frequency:    4.0851386690
  - # 6
    frequency:    5.2605402860
  - # 7
    frequency:    5.8543360424
  - # 8
    frequency:    7.0493491900
  - # 9
    frequency:    8.6042138879
  - # 10
    frequency:    8.7471603859
  - # 11
    frequency:    8.8419623616
  - # 12
    frequency:    9.0605728095
  - # 13
    frequency:    9.9771434706
  - # 14
    frequency:   11.8571294591
  - # 15
    frequency:   12.8087231421
  - # 16
    frequency:   12.8647963907
  - # 17
    frequency:   13.6908259486
  - # 18
    frequency:   13.7453640155
  - # 19
    frequency:   14.1894213585
  - # 20
    frequency:   61.6613311210
  - # 21
    frequency:  112.2625554545
