nqpoint: 300    
npath: 3      
segment_nqpoint:
- 100
- 100
- 100
labels:
- [ 'G', 'M' ]
- [ 'M', 'K' ]
- [ 'K', 'G' ]
reciprocal_lattice:
- [   0.26676686,   0.15401792,   0.00000000 ] # a*
- [   0.00000000,   0.30803583,   0.00000000 ] # b*
- [   0.00000000,   0.00000000,   0.03869544 ] # c*
natom: 7      
lattice:
- [     3.748591622443567,     0.000000000000000,     0.000000000000000 ] # a
- [    -1.874295811221783,     3.246375573457655,     0.000000000000000 ] # b
- [     0.000000000000000,     0.000000000000000,    25.842838646122736 ] # c
points:
- symbol: C # 1
  coordinates: [  0.333332985432215,  0.666666983183674,  0.605382410812665 ]
  mass: 12.010700
- symbol: Cl # 2
  coordinates: [  0.666666984744047,  0.333332985985145,  0.348258955730093 ]
  mass: 35.453000
- symbol: N # 3
  coordinates: [  0.000000000000000,  0.000000000000000,  0.518827152226126 ]
  mass: 14.006700
- symbol: N # 4
  coordinates: [  0.333332985432215,  0.666666983183674,  0.651741044269907 ]
  mass: 14.006700
- symbol: O # 5
  coordinates: [  0.666666984744047,  0.333332985985145,  0.452147193914261 ]
  mass: 15.999400
- symbol: Y # 6
  coordinates: [  0.333332985432215,  0.666666983183674,  0.424678975081569 ]
  mass: 88.905850
- symbol: Y # 7
  coordinates: [  0.666666984744047,  0.333332985985145,  0.545764519738178 ]
  mass: 88.905850

phonon:
- q-position: [    0.0000000,    0.0000000,    0.0000000 ]
  distance:    0.0000000
  band:
  - # 1
    frequency:   -2.5998032494
  - # 2
    frequency:   -2.5998032494
  - # 3
    frequency:   -1.2317008396
  - # 4
    frequency:   -1.2317008395
  - # 5
    frequency:   -0.0000129426
  - # 6
    frequency:   -0.0000003152
  - # 7
    frequency:    0.0000138273
  - # 8
    frequency:    1.7217989953
  - # 9
    frequency:    1.7217989954
  - # 10
    frequency:    2.9540918888
  - # 11
    frequency:    5.5905187320
  - # 12
    frequency:    5.5905187321
  - # 13
    frequency:    6.5085476151
  - # 14
    frequency:    7.5449117395
  - # 15
    frequency:    9.0814888953
  - # 16
    frequency:    9.0814888953
  - # 17
    frequency:    9.9997231851
  - # 18
    frequency:   12.8496298963
  - # 19
    frequency:   12.8496298963
  - # 20
    frequency:   13.4159158726
  - # 21
    frequency:   62.8080863067

- q-position: [    0.0050505,    0.0000000,    0.0000000 ]
  distance:    0.0015557
  band:
  - # 1
    frequency:   -2.6001029961
  - # 2
    frequency:   -2.5993458689
  - # 3
    frequency:   -1.2315372502
  - # 4
    frequency:   -1.2296839384
  - # 5
    frequency:    0.0015512526
  - # 6
    frequency:    0.0386715568
  - # 7
    frequency:    0.0821505741
  - # 8
    frequency:    1.7226222774
  - # 9
    frequency:    1.7235964479
  - # 10
    frequency:    2.9534448290
  - # 11
    frequency:    5.5904643801
  - # 12
    frequency:    5.5910085831
  - # 13
    frequency:    6.5082554623
  - # 14
    frequency:    7.5432356226
  - # 15
    frequency:    9.0777225443
  - # 16
    frequency:    9.0811715360
  - # 17
    frequency:   10.0042761743
  - # 18
    frequency:   12.8486958146
  - # 19
    frequency:   12.8494995857
  - # 20
    frequency:   13.4171818988
  - # 21
    frequency:   62.8080460088

- q-position: [    0.0101010,    0.0000000,    0.0000000 ]
  distance:    0.0031115
  band:
  - # 1
    frequency:   -2.6010008207
  - # 2
    frequency:   -2.5979779039
  - # 3
    frequency:   -1.2310474591
  - # 4
    frequency:   -1.2236253821
  - # 5
    frequency:    0.0061886137
  - # 6
    frequency:    0.0773139398
  - # 7
    frequency:    0.1643007422
  - # 8
    frequency:    1.7250904732
  - # 9
    frequency:    1.7289565547
  - # 10
    frequency:    2.9515090116
  - # 11
    frequency:    5.5903016292
  - # 12
    frequency:    5.5924743601
  - # 13
    frequency:    6.5073805619
  - # 14
    frequency:    7.5382143995
  - # 15
    frequency:    9.0666816531
  - # 16
    frequency:    9.0802194531
  - # 17
    frequency:   10.0176734503
  - # 18
    frequency:   12.8459242730
  - # 19
    frequency:   12.8491088197
  - # 20
    frequency:   13.4209504036
  - # 21
    frequency:   62.8079251894

- q-position: [    0.0151515,    0.0000000,    0.0000000 ]
  distance:    0.0046672
  band:
  - # 1
    frequency:   -2.6024924905
  - # 2
    frequency:   -2.5957118174
  - # 3
    frequency:   -1.2302343910
  - # 4
    frequency:   -1.2135011695
  - # 5
    frequency:    0.0138648492
  - # 6
    frequency:    0.1158983468
  - # 7
    frequency:    0.2464486241
  - # 8
    frequency:    1.7291986246
  - # 9
    frequency:    1.7377835890
  - # 10
    frequency:    2.9483008189
  - # 11
    frequency:    5.5900313922
  - # 12
    frequency:    5.5949047794
  - # 13
    frequency:    6.5059275952
  - # 14
    frequency:    7.5298698122
  - # 15
    frequency:    9.0490759336
  - # 16
    frequency:    9.0786326343
  - # 17
    frequency:   10.0391943222
  - # 18
    frequency:   12.8414040217
  - # 19
    frequency:   12.8484580936
  - # 20
    frequency:   13.4271360374
  - # 21
    frequency:   62.8077240710

- q-position: [    0.0202020,    0.0000000,    0.0000000 ]
  distance:    0.0062229
  band:
  - # 1
    frequency:   -2.6045709962
  - # 2
    frequency:   -2.5925681625
  - # 3
    frequency:   -1.2291028982
  - # 4
    frequency:   -1.1992698025
  - # 5
    frequency:    0.0245069064
  - # 6
    frequency:    0.1543967182
  - # 7
    frequency:    0.3285893827
  - # 8
    frequency:    1.7349384492
  - # 9
    frequency:    1.7499212223
  - # 10
    frequency:    2.9438485658
  - # 11
    frequency:    5.5896551838
  - # 12
    frequency:    5.5982811860
  - # 13
    frequency:    6.5039043883
  - # 14
    frequency:    7.5182392489
  - # 15
    frequency:    9.0259069561
  - # 16
    frequency:    9.0764110716
  - # 17
    frequency:   10.0678176632
  - # 18
    frequency:   12.8352726413
  - # 19
    frequency:   12.8475482274
  - # 20
    frequency:   13.4356069258
  - # 21
    frequency:   62.8074430242

- q-position: [    0.0252525,    0.0000000,    0.0000000 ]
  distance:    0.0077787
  band:
  - # 1
    frequency:   -2.6072266188
  - # 2
    frequency:   -2.5885752630
  - # 3
    frequency:   -1.2276597280
  - # 4
    frequency:   -1.1808699730
  - # 5
    frequency:    0.0380240837
  - # 6
    frequency:    0.1927820819
  - # 7
    frequency:    0.4107137397
  - # 8
    frequency:    1.7422983138
  - # 9
    frequency:    1.7651566906
  - # 10
    frequency:    2.9381941071
  - # 11
    frequency:    5.5891751107
  - # 12
    frequency:    5.6025777747
  - # 13
    frequency:    6.5013219470
  - # 14
    frequency:    7.5033773229
  - # 15
    frequency:    8.9982874673
  - # 16
    frequency:    9.0735547793
  - # 17
    frequency:   10.1024008525
  - # 18
    frequency:   12.8277036900
  - # 19
    frequency:   12.8463803582
  - # 20
    frequency:   13.4461975783
  - # 21
    frequency:   62.8070825658

- q-position: [    0.0303030,    0.0000000,    0.0000000 ]
  distance:    0.0093344
  band:
  - # 1
    frequency:   -2.6104470203
  - # 2
    frequency:   -2.5837687848
  - # 3
    frequency:   -1.2259134769
  - # 4
    frequency:   -1.1582171986
  - # 5
    frequency:    0.0543188016
  - # 6
    frequency:    0.2310288740
  - # 7
    frequency:    0.4928064875
  - # 8
    frequency:    1.7512632040
  - # 9
    frequency:    1.7832254484
  - # 10
    frequency:    2.9313952698
  - # 11
    frequency:    5.5885938579
  - # 12
    frequency:    5.6077618919
  - # 13
    frequency:    6.4981945019
  - # 14
    frequency:    7.4853577967
  - # 15
    frequency:    8.9672990091
  - # 16
    frequency:    9.0700638186
  - # 17
    frequency:   10.1418199988
  - # 18
    frequency:   12.8188928868
  - # 19
    frequency:   12.8449559294
  - # 20
    frequency:   13.4587227832
  - # 21
    frequency:   62.8066433580

- q-position: [    0.0353535,    0.0000000,    0.0000000 ]
  distance:    0.0108902
  band:
  - # 1
    frequency:   -2.6142173571
  - # 2
    frequency:   -2.5781912154
  - # 3
    frequency:   -1.2238745326
  - # 4
    frequency:   -1.1311993138
  - # 5
    frequency:    0.0732997358
  - # 6
    frequency:    0.2691132231
  - # 7
    frequency:    0.5748450026
  - # 8
    frequency:    1.7618146948
  - # 9
    frequency:    1.8038154030
  - # 10
    frequency:    2.9235293007
  - # 11
    frequency:    5.5879146708
  - # 12
    frequency:    5.6137944100
  - # 13
    frequency:    6.4945395611
  - # 14
    frequency:    7.4642755918
  - # 15
    frequency:    8.9339079456
  - # 16
    frequency:    9.0659383294
  - # 17
    frequency:   10.1850515961
  - # 18
    frequency:   12.8090455752
  - # 19
    frequency:   12.8432766769
  - # 20
    frequency:   13.4729902411
  - # 21
    frequency:   62.8061262065

- q-position: [    0.0404040,    0.0000000,    0.0000000 ]
  distance:    0.0124459
  band:
  - # 1
    frequency:   -2.6185204125
  - # 2
    frequency:   -2.5718912712
  - # 3
    frequency:   -1.2215550044
  - # 4
    frequency:   -1.0996707680
  - # 5
    frequency:    0.0948974376
  - # 6
    frequency:    0.3070131933
  - # 7
    frequency:    0.6567977644
  - # 8
    frequency:    1.7739309285
  - # 9
    frequency:    1.8265698547
  - # 10
    frequency:    2.9146975785
  - # 11
    frequency:    5.5871413339
  - # 12
    frequency:    5.6206301646
  - # 13
    frequency:    6.4903779642
  - # 14
    frequency:    7.4402485934
  - # 15
    frequency:    8.8989310900
  - # 16
    frequency:    9.0611785672
  - # 17
    frequency:   10.2312047026
  - # 18
    frequency:   12.7983667990
  - # 19
    frequency:   12.8413446134
  - # 20
    frequency:   13.4888106015
  - # 21
    frequency:   62.8055320577

- q-position: [    0.0454545,    0.0000000,    0.0000000 ]
  distance:    0.0140016
  band:
  - # 1
    frequency:   -2.6233367458
  - # 2
    frequency:   -2.5649232583
  - # 3
    frequency:   -1.2189686414
  - # 4
    frequency:   -1.0634458451
  - # 5
    frequency:    0.1190832237
  - # 6
    frequency:    0.3447089764
  - # 7
    frequency:    0.7386228746
  - # 8
    frequency:    1.7875866068
  - # 9
    frequency:    1.8510884027
  - # 10
    frequency:    2.9050318894
  - # 11
    frequency:    5.5862781452
  - # 12
    frequency:    5.6282184454
  - # 13
    frequency:    6.4857339330
  - # 14
    frequency:    7.4134189567
  - # 15
    frequency:    8.8630327694
  - # 16
    frequency:    9.0557849465
  - # 17
    frequency:   10.2795220930
  - # 18
    frequency:   12.7870544018
  - # 19
    frequency:   12.8391620111
  - # 20
    frequency:   13.5060044910
  - # 21
    frequency:   62.8048619965

- q-position: [    0.0505051,    0.0000000,    0.0000000 ]
  distance:    0.0155574
  band:
  - # 1
    frequency:   -2.6286448552
  - # 2
    frequency:   -2.5573464122
  - # 3
    frequency:   -1.2161307408
  - # 4
    frequency:   -1.0222913485
  - # 5
    frequency:    0.1458930897
  - # 6
    frequency:    0.3821830319
  - # 7
    frequency:    0.8202665511
  - # 8
    frequency:    1.8027530042
  - # 9
    frequency:    1.8769252764
  - # 10
    frequency:    2.8947025889
  - # 11
    frequency:    5.5853298875
  - # 12
    frequency:    5.6365035297
  - # 13
    frequency:    6.4806351071
  - # 14
    frequency:    7.3839536637
  - # 15
    frequency:    8.8267376889
  - # 16
    frequency:    9.0497580876
  - # 17
    frequency:   10.3293662698
  - # 18
    frequency:   12.7752949010
  - # 19
    frequency:   12.8367313820
  - # 20
    frequency:   13.5244067730
  - # 21
    frequency:   62.8041172432

- q-position: [    0.0555556,    0.0000000,    0.0000000 ]
  distance:    0.0171131
  band:
  - # 1
    frequency:   -2.6344213507
  - # 2
    frequency:   -2.5492242413
  - # 3
    frequency:   -1.2130580453
  - # 4
    frequency:   -0.9759203555
  - # 5
    frequency:    0.1754597745
  - # 6
    frequency:    0.4194201681
  - # 7
    frequency:    0.9016615265
  - # 8
    frequency:    1.8193980087
  - # 9
    frequency:    1.9035848347
  - # 10
    frequency:    2.8839289192
  - # 11
    frequency:    5.5843017957
  - # 12
    frequency:    5.6454252487
  - # 13
    frequency:    6.4751125556
  - # 14
    frequency:    7.3520441480
  - # 15
    frequency:    8.7904497011
  - # 16
    frequency:    9.0430988687
  - # 17
    frequency:   10.3802004077
  - # 18
    frequency:   12.7632615657
  - # 19
    frequency:   12.8340554576
  - # 20
    frequency:   13.5438686060
  - # 21
    frequency:   62.8032991496

- q-position: [    0.0606061,    0.0000000,    0.0000000 ]
  distance:    0.0186688
  band:
  - # 1
    frequency:   -2.6406411353
  - # 2
    frequency:   -2.5406239016
  - # 3
    frequency:   -1.2097686318
  - # 4
    frequency:   -0.9239911311
  - # 5
    frequency:    0.2080578898
  - # 6
    frequency:    0.4564075648
  - # 7
    frequency:    0.9827252170
  - # 8
    frequency:    1.8374861963
  - # 9
    frequency:    1.9305143973
  - # 10
    frequency:    2.8729915356
  - # 11
    frequency:    5.5831995211
  - # 12
    frequency:    5.6549195759
  - # 13
    frequency:    6.4692007486
  - # 14
    frequency:    7.3179049059
  - # 15
    frequency:    8.7544713554
  - # 16
    frequency:    9.0358084805
  - # 17
    frequency:   10.4315694374
  - # 18
    frequency:   12.7511140512
  - # 19
    frequency:   12.8311371683
  - # 20
    frequency:   13.5642579383
  - # 21
    frequency:   62.8024091960

- q-position: [    0.0656566,    0.0000000,    0.0000000 ]
  distance:    0.0202246
  band:
  - # 1
    frequency:   -2.6472775900
  - # 2
    frequency:   -2.5316156234
  - # 3
    frequency:   -1.2062817917
  - # 4
    frequency:   -0.8661210099
  - # 5
    frequency:    0.2441686869
  - # 6
    frequency:    0.4931347379
  - # 7
    frequency:    1.0633574044
  - # 8
    frequency:    1.8569789409
  - # 9
    frequency:    1.9570953001
  - # 10
    frequency:    2.8622467700
  - # 11
    frequency:    5.5820290917
  - # 12
    frequency:    5.6649192292
  - # 13
    frequency:    6.4629374704
  - # 14
    frequency:    7.2817711242
  - # 15
    frequency:    8.7190220359
  - # 16
    frequency:    9.0278884837
  - # 17
    frequency:   10.4830834428
  - # 18
    frequency:   12.7389990164
  - # 19
    frequency:   12.8279796218
  - # 20
    frequency:   13.5854589996
  - # 21
    frequency:   62.8014489861

- q-position: [    0.0707071,    0.0000000,    0.0000000 ]
  distance:    0.0217803
  band:
  - # 1
    frequency:   -2.6543027624
  - # 2
    frequency:   -2.5222722094
  - # 3
    frequency:   -1.2026179043
  - # 4
    frequency:   -0.8019374938
  - # 5
    frequency:    0.2845696230
  - # 6
    frequency:    0.5295934466
  - # 7
    frequency:    1.1434369864
  - # 8
    frequency:    1.8778345653
  - # 9
    frequency:    1.9826343566
  - # 10
    frequency:    2.8521411001
  - # 11
    frequency:    5.5807968703
  - # 12
    frequency:    5.6753542767
  - # 13
    frequency:    6.4563636521
  - # 14
    frequency:    7.2438954536
  - # 15
    frequency:    8.6842539851
  - # 16
    frequency:    9.0193408678
  - # 17
    frequency:   10.5344039535
  - # 18
    frequency:   12.7270512785
  - # 19
    frequency:   12.8245860830
  - # 20
    frequency:   13.6073712253
  - # 21
    frequency:   62.8004202435

- q-position: [    0.0757576,    0.0000000,    0.0000000 ]
  distance:    0.0233360
  band:
  - # 1
    frequency:   -2.6616875542
  - # 2
    frequency:   -2.5126686185
  - # 3
    frequency:   -1.1987983036
  - # 4
    frequency:   -0.7312123309
  - # 5
    frequency:    0.3304382555
  - # 6
    frequency:    0.5657775505
  - # 7
    frequency:    1.2228169983
  - # 8
    frequency:    1.9000085305
  - # 9
    frequency:    2.0063600915
  - # 10
    frequency:    2.8432224648
  - # 11
    frequency:    5.5795095090
  - # 12
    frequency:    5.6861527386
  - # 13
    frequency:    6.4495230971
  - # 14
    frequency:    7.2045441407
  - # 15
    frequency:    8.6502661593
  - # 16
    frequency:    9.0101681114
  - # 17
    frequency:   10.5852330061
  - # 18
    frequency:   12.7153951831
  - # 19
    frequency:   12.8209599539
  - # 20
    frequency:   13.6299079126
  - # 21
    frequency:   62.7993248061

- q-position: [    0.0808081,    0.0000000,    0.0000000 ]
  distance:    0.0248918
  band:
  - # 1
    frequency:   -2.6694019081
  - # 2
    frequency:   -2.5028816413
  - # 3
    frequency:   -1.1948451427
  - # 4
    frequency:   -0.6541507904
  - # 5
    frequency:    0.3833978358
  - # 6
    frequency:    0.6016828207
  - # 7
    frequency:    1.3013164548
  - # 8
    frequency:    1.9234536638
  - # 9
    frequency:    2.0274313747
  - # 10
    frequency:    2.8361424586
  - # 11
    frequency:    5.5781739014
  - # 12
    frequency:    5.6972411751
  - # 13
    frequency:    6.4424620678
  - # 14
    frequency:    7.1639927789
  - # 15
    frequency:    8.6171160717
  - # 16
    frequency:    9.0003732416
  - # 17
    frequency:   10.6353045934
  - # 18
    frequency:   12.7041459762
  - # 19
    frequency:   12.8171047552
  - # 20
    frequency:   13.6529948050
  - # 21
    frequency:   62.7981646213

- q-position: [    0.0858586,    0.0000000,    0.0000000 ]
  distance:    0.0264475
  band:
  - # 1
    frequency:   -2.6774149912
  - # 2
    frequency:   -2.4929896719
  - # 3
    frequency:   -1.1907812541
  - # 4
    frequency:   -0.5718559379
  - # 5
    frequency:    0.4452729969
  - # 6
    frequency:    0.6373067139
  - # 7
    frequency:    1.3787062320
  - # 8
    frequency:    1.9481204211
  - # 9
    frequency:    2.0449700806
  - # 10
    frequency:    2.8316407768
  - # 11
    frequency:    5.5767971323
  - # 12
    frequency:    5.7085452504
  - # 13
    frequency:    6.4352286980
  - # 14
    frequency:    7.1225219516
  - # 15
    frequency:    8.5848298246
  - # 16
    frequency:    8.9899598937
  - # 17
    frequency:   10.6843780861
  - # 18
    frequency:   12.6934110385
  - # 19
    frequency:   12.8130241098
  - # 20
    frequency:   13.6765687169
  - # 21
    frequency:   62.7969417408

- q-position: [    0.0909091,    0.0000000,    0.0000000 ]
  distance:    0.0280033
  band:
  - # 1
    frequency:   -2.6856953744
  - # 2
    frequency:   -2.4830725671
  - # 3
    frequency:   -1.1866300112
  - # 4
    frequency:   -0.4866069280
  - # 5
    frequency:    0.5171769737
  - # 6
    frequency:    0.6726481190
  - # 7
    frequency:    1.4546833384
  - # 8
    frequency:    1.9739571788
  - # 9
    frequency:    2.0581328079
  - # 10
    frequency:    2.8305027835
  - # 11
    frequency:    5.5753864255
  - # 12
    frequency:    5.7199902611
  - # 13
    frequency:    6.4278721926
  - # 14
    frequency:    7.0804130264
  - # 15
    frequency:    8.5534105120
  - # 16
    frequency:    8.9789323682
  - # 17
    frequency:   10.7322332552
  - # 18
    frequency:   12.6832908949
  - # 19
    frequency:   12.8087217281
  - # 20
    frequency:   13.7005762589
  - # 21
    frequency:   62.7956583149

- q-position: [    0.0959596,    0.0000000,    0.0000000 ]
  distance:    0.0295590
  band:
  - # 1
    frequency:   -2.6942112067
  - # 2
    frequency:   -2.4732115870
  - # 3
    frequency:   -1.1824151909
  - # 4
    frequency:   -0.4008952928
  - # 5
    frequency:    0.5981154038
  - # 6
    frequency:    0.7077070855
  - # 7
    frequency:    1.5288213571
  - # 8
    frequency:    2.0009105483
  - # 9
    frequency:    2.0662380976
  - # 10
    frequency:    2.8334863437
  - # 11
    frequency:    5.5739490896
  - # 12
    frequency:    5.7315016129
  - # 13
    frequency:    6.4204417744
  - # 14
    frequency:    7.0379443302
  - # 15
    frequency:    8.5228451573
  - # 16
    frequency:    8.9672956868
  - # 17
    frequency:   10.7786665981
  - # 18
    frequency:   12.6738799424
  - # 19
    frequency:   12.8042013965
  - # 20
    frequency:   13.7249726877
  - # 21
    frequency:   62.7943165863

- q-position: [    0.1010101,    0.0000000,    0.0000000 ]
  distance:    0.0311147
  band:
  - # 1
    frequency:   -2.7029303838
  - # 2
    frequency:   -2.4634893976
  - # 3
    frequency:   -1.1781608409
  - # 4
    frequency:   -0.3146330641
  - # 5
    frequency:    0.6847266374
  - # 6
    frequency:    0.7424845441
  - # 7
    frequency:    1.6004689205
  - # 8
    frequency:    2.0289257061
  - # 9
    frequency:    2.0689684148
  - # 10
    frequency:    2.8412273667
  - # 11
    frequency:    5.5724924627
  - # 12
    frequency:    5.7430052249
  - # 13
    frequency:    6.4129853362
  - # 14
    frequency:    6.9953878896
  - # 15
    frequency:    8.4931103384
  - # 16
    frequency:    8.9550556443
  - # 17
    frequency:   10.8234887376
  - # 18
    frequency:   12.6652668626
  - # 19
    frequency:   12.7994669680
  - # 20
    frequency:   13.7497208840
  - # 21
    frequency:   62.7929188844

- q-position: [    0.1060606,    0.0000000,    0.0000000 ]
  distance:    0.0326705
  band:
  - # 1
    frequency:   -2.7118207111
  - # 2
    frequency:   -2.4539901173
  - # 3
    frequency:   -1.1738911533
  - # 4
    frequency:   -0.2210315066
  - # 5
    frequency:    0.7730187426
  - # 6
    frequency:    0.7769820293
  - # 7
    frequency:    1.6685280764
  - # 8
    frequency:    2.0579467315
  - # 9
    frequency:    2.0666898108
  - # 10
    frequency:    2.8541502892
  - # 11
    frequency:    5.5710238560
  - # 12
    frequency:    5.7544278367
  - # 13
    frequency:    6.4055477631
  - # 14
    frequency:    6.9530068859
  - # 15
    frequency:    8.4641766487
  - # 16
    frequency:    8.9422188581
  - # 17
    frequency:   10.8665227243
  - # 18
    frequency:   12.6575346954
  - # 19
    frequency:   12.7945223561
  - # 20
    frequency:   13.7747904507
  - # 21
    frequency:   62.7914676189

- q-position: [    0.1111111,    0.0000000,    0.0000000 ]
  distance:    0.0342262
  band:
  - # 1
    frequency:   -2.7208500602
  - # 2
    frequency:   -2.4447993854
  - # 3
    frequency:   -1.1696303467
  - # 4
    frequency:   -0.0821771542
  - # 5
    frequency:    0.8112014127
  - # 6
    frequency:    0.8600776659
  - # 7
    frequency:    1.7309484288
  - # 8
    frequency:    2.0610218430
  - # 9
    frequency:    2.0879169438
  - # 10
    frequency:    2.8724168868
  - # 11
    frequency:    5.5695504972
  - # 12
    frequency:    5.7656971855
  - # 13
    frequency:    6.3981688947
  - # 14
    frequency:    6.9110539404
  - # 15
    frequency:    8.4360121432
  - # 16
    frequency:    8.9287928124
  - # 17
    frequency:   10.9076031092
  - # 18
    frequency:   12.6507605632
  - # 19
    frequency:   12.7893715322
  - # 20
    frequency:   13.8001569187
  - # 21
    frequency:   62.7899652730

- q-position: [    0.1161616,    0.0000000,    0.0000000 ]
  distance:    0.0357819
  band:
  - # 1
    frequency:   -2.7299865190
  - # 2
    frequency:   -2.4360044262
  - # 3
    frequency:   -1.1654025594
  - # 4
    frequency:    0.1737106992
  - # 5
    frequency:    0.8451446559
  - # 6
    frequency:    0.9443294156
  - # 7
    frequency:    1.7836339212
  - # 8
    frequency:    2.0559444041
  - # 9
    frequency:    2.1187792314
  - # 10
    frequency:    2.8959334873
  - # 11
    frequency:    5.5680794738
  - # 12
    frequency:    5.7767420157
  - # 13
    frequency:    6.3908811119
  - # 14
    frequency:    6.8697703166
  - # 15
    frequency:    8.4085849158
  - # 16
    frequency:    8.9147858991
  - # 17
    frequency:   10.9465756839
  - # 18
    frequency:   12.6450150477
  - # 19
    frequency:   12.7840185258
  - # 20
    frequency:   13.8258010425
  - # 21
    frequency:   62.7884143975

- q-position: [    0.1212121,    0.0000000,    0.0000000 ]
  distance:    0.0373377
  band:
  - # 1
    frequency:   -2.7391985358
  - # 2
    frequency:   -2.4276940860
  - # 3
    frequency:   -1.1612317545
  - # 4
    frequency:    0.2526033077
  - # 5
    frequency:    0.8788135875
  - # 6
    frequency:    1.0250425474
  - # 7
    frequency:    1.8190631847
  - # 8
    frequency:    2.0591550535
  - # 9
    frequency:    2.1504763673
  - # 10
    frequency:    2.9244093901
  - # 11
    frequency:    5.5666176765
  - # 12
    frequency:    5.7874918777
  - # 13
    frequency:    6.3837065545
  - # 14
    frequency:    6.8293861016
  - # 15
    frequency:    8.3818649488
  - # 16
    frequency:    8.9002074529
  - # 17
    frequency:   10.9832977939
  - # 18
    frequency:   12.6403612387
  - # 19
    frequency:   12.7784674283
  - # 20
    frequency:   13.8517081730
  - # 21
    frequency:   62.7868176033

- q-position: [    0.1262626,    0.0000000,    0.0000000 ]
  distance:    0.0388934
  band:
  - # 1
    frequency:   -2.7484550569
  - # 2
    frequency:   -2.4199588194
  - # 3
    frequency:   -1.1571416389
  - # 4
    frequency:    0.3085552612
  - # 5
    frequency:    0.9122097116
  - # 6
    frequency:    1.1018159782
  - # 7
    frequency:    1.8290147114
  - # 8
    frequency:    2.0793293268
  - # 9
    frequency:    2.1829513030
  - # 10
    frequency:    2.9574385721
  - # 11
    frequency:    5.5651717445
  - # 12
    frequency:    5.7978766748
  - # 13
    frequency:    6.3766540130
  - # 14
    frequency:    6.7901213906
  - # 15
    frequency:    8.3558253659
  - # 16
    frequency:    8.8850677816
  - # 17
    frequency:   11.0176391300
  - # 18
    frequency:   12.6368534938
  - # 19
    frequency:   12.7727223997
  - # 20
    frequency:   13.8778676918
  - # 21
    frequency:   62.7851775552

- q-position: [    0.1313131,    0.0000000,    0.0000000 ]
  distance:    0.0404491
  band:
  - # 1
    frequency:   -2.7577256580
  - # 2
    frequency:   -2.4128906016
  - # 3
    frequency:   -1.1531555964
  - # 4
    frequency:    0.3532831116
  - # 5
    frequency:    0.9453340474
  - # 6
    frequency:    1.1741923055
  - # 7
    frequency:    1.8138985497
  - # 8
    frequency:    2.1168480108
  - # 9
    frequency:    2.2161474387
  - # 10
    frequency:    2.9945754458
  - # 11
    frequency:    5.5637480115
  - # 12
    frequency:    5.8078259197
  - # 13
    frequency:    6.3697156013
  - # 14
    frequency:    6.7521884314
  - # 15
    frequency:    8.3304432048
  - # 16
    frequency:    8.8693781908
  - # 17
    frequency:   11.0494828905
  - # 18
    frequency:   12.6345359778
  - # 19
    frequency:   12.7667876785
  - # 20
    frequency:   13.9042724939
  - # 21
    frequency:   62.7834969642

- q-position: [    0.1363636,    0.0000000,    0.0000000 ]
  distance:    0.0420049
  band:
  - # 1
    frequency:   -2.7669806694
  - # 2
    frequency:   -2.4065827500
  - # 3
    frequency:   -1.1492966363
  - # 4
    frequency:    0.3905612824
  - # 5
    frequency:    0.9781870052
  - # 6
    frequency:    1.2412603803
  - # 7
    frequency:    1.7821173459
  - # 8
    frequency:    2.1646745617
  - # 9
    frequency:    2.2500088651
  - # 10
    frequency:    3.0353881091
  - # 11
    frequency:    5.5623524548
  - # 12
    frequency:    5.8172676814
  - # 13
    frequency:    6.3628634324
  - # 14
    frequency:    6.7157945627
  - # 15
    frequency:    8.3056998123
  - # 16
    frequency:    8.8531510029
  - # 17
    frequency:   11.0787271861
  - # 18
    frequency:   12.6334410775
  - # 19
    frequency:   12.7606675946
  - # 20
    frequency:   13.9309185103
  - # 21
    frequency:   62.7817785815

- q-position: [    0.1414141,    0.0000000,    0.0000000 ]
  distance:    0.0435606
  band:
  - # 1
    frequency:   -2.7761912951
  - # 2
    frequency:   -2.4011296391
  - # 3
    frequency:   -1.1455873552
  - # 4
    frequency:    0.4216517954
  - # 5
    frequency:    1.0107682954
  - # 6
    frequency:    1.3009663750
  - # 7
    frequency:    1.7422490711
  - # 8
    frequency:    2.2168188097
  - # 9
    frequency:    2.2844805744
  - # 10
    frequency:    3.0794864801
  - # 11
    frequency:    5.5609906460
  - # 12
    frequency:    5.8261272271
  - # 13
    frequency:    6.3560467211
  - # 14
    frequency:    6.6811455442
  - # 15
    frequency:    8.2815809478
  - # 16
    frequency:    8.8363995707
  - # 17
    frequency:   11.1052865400
  - # 18
    frequency:   12.6335878172
  - # 19
    frequency:   12.7543665845
  - # 20
    frequency:   13.9578042598
  - # 21
    frequency:   62.7800251906

- q-position: [    0.1464646,    0.0000000,    0.0000000 ]
  distance:    0.0451164
  band:
  - # 1
    frequency:   -2.7853297254
  - # 2
    frequency:   -2.3966262971
  - # 3
    frequency:   -1.1420499142
  - # 4
    frequency:    0.4464410768
  - # 5
    frequency:    1.0430768716
  - # 6
    frequency:    1.3486245305
  - # 7
    frequency:    1.7028521338
  - # 8
    frequency:    2.2700684764
  - # 9
    frequency:    2.3195086410
  - # 10
    frequency:    3.1265307348
  - # 11
    frequency:    5.5596677063
  - # 12
    frequency:    5.8343254128
  - # 13
    frequency:    6.3491900930
  - # 14
    frequency:    6.6484484786
  - # 15
    frequency:    8.2580766660
  - # 16
    frequency:    8.8191382845
  - # 17
    frequency:   11.1290933180
  - # 18
    frequency:   12.6349804205
  - # 19
    frequency:   12.7478892084
  - # 20
    frequency:   13.9849304253
  - # 21
    frequency:   62.7782396006

- q-position: [    0.1515152,    0.0000000,    0.0000000 ]
  distance:    0.0466721
  band:
  - # 1
    frequency:   -2.7943692439
  - # 2
    frequency:   -2.3931678762
  - # 3
    frequency:   -1.1387060267
  - # 4
    frequency:    0.4635859749
  - # 5
    frequency:    1.0751109041
  - # 6
    frequency:    1.3746708550
  - # 7
    frequency:    1.6760186769
  - # 8
    frequency:    2.3228233160
  - # 9
    frequency:    2.3550403706
  - # 10
    frequency:    3.1762275718
  - # 11
    frequency:    5.5583882643
  - # 12
    frequency:    5.8417769365
  - # 13
    frequency:    6.3421944231
  - # 14
    frequency:    6.6179129051
  - # 15
    frequency:    8.2351810355
  - # 16
    frequency:    8.8013825745
  - # 17
    frequency:   11.1500989189
  - # 18
    frequency:   12.6376071750
  - # 19
    frequency:   12.7412401700
  - # 20
    frequency:   14.0122994477
  - # 21
    frequency:   62.7764246394
