nqpoint: 300    
npath: 3      
segment_nqpoint:
- 100
- 100
- 100
labels:
- [ 'G', 'M' ]
- [ 'M', 'K' ]
- [ 'K', 'G' ]
reciprocal_lattice:
- [   0.31521539,   0.18198969,   0.00000000 ] # a*
- [   0.00000000,   0.36397939,   0.00000000 ] # b*
- [   0.00000000,   0.00000000,   0.03771740 ] # c*
natom: 8      
lattice:
- [     3.172433894298273,     0.000000000000000,     0.000000000000000 ] # a
- [    -1.586216947149136,     2.747408344297158,     0.000000000000000 ] # b
- [     0.000000000000000,     0.000000000000000,    26.512963883570695 ] # c
points:
- symbol: C # 1
  coordinates: [  0.333332985432215,  0.666666983183674,  0.615185555320610 ]
  mass: 12.010700
- symbol: C # 2
  coordinates: [  0.666666984744047,  0.333332985985145,  0.384853048836658 ]
  mass: 12.010700
- symbol: N # 3
  coordinates: [  0.000000000000000,  0.000000000000000,  0.521660690339669 ]
  mass: 14.006700
- symbol: N # 4
  coordinates: [  0.333332985432215,  0.666666983183674,  0.660543421719175 ]
  mass: 14.006700
- symbol: N # 5
  coordinates: [  0.666666984744047,  0.333332985985145,  0.431887581341611 ]
  mass: 14.006700
- symbol: O # 6
  coordinates: [  0.666666984744047,  0.333332985985145,  0.339456578280825 ]
  mass: 15.999400
- symbol: Ti # 7
  coordinates: [  0.333332985432215,  0.666666983183674,  0.482293580717405 ]
  mass: 47.867000
- symbol: Ti # 8
  coordinates: [  0.666666984744047,  0.333332985985145,  0.561700564321091 ]
  mass: 47.867000

phonon:
- q-position: [    0.0000000,    0.0000000,    0.0000000 ]
  distance:    0.0000000
  band:
  - # 1
    frequency:   -1.0680051574
  - # 2
    frequency:   -1.0680051574
  - # 3
    frequency:   -0.0000028571
  - # 4
    frequency:   -0.0000015841
  - # 5
    frequency:    0.0000028374
  - # 6
    frequency:    0.9873636418
  - # 7
    frequency:    0.9873636418
  - # 8
    frequency:    5.3693345558
  - # 9
    frequency:    5.3693345558
  - # 10
    frequency:    6.6254189995
  - # 11
    frequency:    7.8783374232
  - # 12
    frequency:    7.8783374232
  - # 13
    frequency:    8.4820509391
  - # 14
    frequency:    8.4820509391
  - # 15
    frequency:    9.8377098363
  - # 16
    frequency:   12.1492176623
  - # 17
    frequency:   16.2420920603
  - # 18
    frequency:   17.2679752060
  - # 19
    frequency:   17.2679752060
  - # 20
    frequency:   17.4963620038
  - # 21
    frequency:   17.4963620038
  - # 22
    frequency:   38.5470721561
  - # 23
    frequency:   61.3246884677
  - # 24
    frequency:   69.3782724554

- q-position: [    0.0050505,    0.0000000,    0.0000000 ]
  distance:    0.0018383
  band:
  - # 1
    frequency:   -1.0669067672
  - # 2
    frequency:   -1.0644533502
  - # 3
    frequency:   -0.1286167664
  - # 4
    frequency:    0.0827358653
  - # 5
    frequency:    0.1878897616
  - # 6
    frequency:    0.9876331269
  - # 7
    frequency:    0.9900629743
  - # 8
    frequency:    5.3693652657
  - # 9
    frequency:    5.3699231783
  - # 10
    frequency:    6.6249011672
  - # 11
    frequency:    7.8780445326
  - # 12
    frequency:    7.8794946330
  - # 13
    frequency:    8.4819877294
  - # 14
    frequency:    8.4827300963
  - # 15
    frequency:    9.8374473370
  - # 16
    frequency:   12.1480901909
  - # 17
    frequency:   16.2419040304
  - # 18
    frequency:   17.2679925932
  - # 19
    frequency:   17.2683699257
  - # 20
    frequency:   17.4963730714
  - # 21
    frequency:   17.4964639637
  - # 22
    frequency:   38.5470476908
  - # 23
    frequency:   61.3245829964
  - # 24
    frequency:   69.3766634706

- q-position: [    0.0101010,    0.0000000,    0.0000000 ]
  distance:    0.0036766
  band:
  - # 1
    frequency:   -1.0636342440
  - # 2
    frequency:   -1.0538536883
  - # 3
    frequency:   -0.1476399900
  - # 4
    frequency:    0.1653503264
  - # 5
    frequency:    0.3112121412
  - # 6
    frequency:    0.9884859452
  - # 7
    frequency:    0.9982291341
  - # 8
    frequency:    5.3694574302
  - # 9
    frequency:    5.3716911414
  - # 10
    frequency:    6.6233550433
  - # 11
    frequency:    7.8771676425
  - # 12
    frequency:    7.8829536715
  - # 13
    frequency:    8.4817972916
  - # 14
    frequency:    8.4847664152
  - # 15
    frequency:    9.8366611254
  - # 16
    frequency:   12.1447108643
  - # 17
    frequency:   16.2413388265
  - # 18
    frequency:   17.2680449903
  - # 19
    frequency:   17.2695517135
  - # 20
    frequency:   17.4964084163
  - # 21
    frequency:   17.4967686231
  - # 22
    frequency:   38.5469743985
  - # 23
    frequency:   61.3242668283
  - # 24
    frequency:   69.3718413420

- q-position: [    0.0151515,    0.0000000,    0.0000000 ]
  distance:    0.0055148
  band:
  - # 1
    frequency:   -1.0582523526
  - # 2
    frequency:   -1.0363475067
  - # 3
    frequency:   -0.1430612310
  - # 4
    frequency:    0.2476663724
  - # 5
    frequency:    0.4349688972
  - # 6
    frequency:    0.9900645113
  - # 7
    frequency:    1.0121259748
  - # 8
    frequency:    5.3696111595
  - # 9
    frequency:    5.3746446366
  - # 10
    frequency:    6.6208024482
  - # 11
    frequency:    7.8757120767
  - # 12
    frequency:    7.8886772094
  - # 13
    frequency:    8.4814772177
  - # 14
    frequency:    8.4881563587
  - # 15
    frequency:    9.8353550718
  - # 16
    frequency:   12.1390889330
  - # 17
    frequency:   16.2403931435
  - # 18
    frequency:   17.2681330942
  - # 19
    frequency:   17.2715134429
  - # 20
    frequency:   17.4964744538
  - # 21
    frequency:   17.4972723347
  - # 22
    frequency:   38.5468525897
  - # 23
    frequency:   61.3237407008
  - # 24
    frequency:   69.3638205226

- q-position: [    0.0202020,    0.0000000,    0.0000000 ]
  distance:    0.0073531
  band:
  - # 1
    frequency:   -1.0508590154
  - # 2
    frequency:   -1.0120921101
  - # 3
    frequency:   -0.1209248187
  - # 4
    frequency:    0.3293878008
  - # 5
    frequency:    0.5598428395
  - # 6
    frequency:    0.9926401835
  - # 7
    frequency:    1.0324307603
  - # 8
    frequency:    5.3698266586
  - # 9
    frequency:    5.3787936671
  - # 10
    frequency:    6.6172787855
  - # 11
    frequency:    7.8736866400
  - # 12
    frequency:    7.8966044775
  - # 13
    frequency:    8.4810235517
  - # 14
    frequency:    8.4928937678
  - # 15
    frequency:    9.8335356649
  - # 16
    frequency:   12.1312397748
  - # 17
    frequency:   16.2390615969
  - # 18
    frequency:   17.2682580342
  - # 19
    frequency:   17.2742431951
  - # 20
    frequency:   17.4965818398
  - # 21
    frequency:   17.4979690650
  - # 22
    frequency:   38.5466827802
  - # 23
    frequency:   61.3230058389
  - # 24
    frequency:   69.3526250209

- q-position: [    0.0252525,    0.0000000,    0.0000000 ]
  distance:    0.0091914
  band:
  - # 1
    frequency:   -1.0415721828
  - # 2
    frequency:   -0.9811686504
  - # 3
    frequency:   -0.0700878879
  - # 4
    frequency:    0.4100158391
  - # 5
    frequency:    0.6832939596
  - # 6
    frequency:    0.9966752331
  - # 7
    frequency:    1.0607618405
  - # 8
    frequency:    5.3701042588
  - # 9
    frequency:    5.3841515854
  - # 10
    frequency:    6.6128317061
  - # 11
    frequency:    7.8711035172
  - # 12
    frequency:    7.9066533233
  - # 13
    frequency:    8.4804308741
  - # 14
    frequency:    8.4989694632
  - # 15
    frequency:    9.8312120678
  - # 16
    frequency:   12.1211848364
  - # 17
    frequency:   16.2373369047
  - # 18
    frequency:   17.2684213258
  - # 19
    frequency:   17.2777241918
  - # 20
    frequency:   17.4967454234
  - # 21
    frequency:   17.4988504604
  - # 22
    frequency:   38.5464656886
  - # 23
    frequency:   61.3220639502
  - # 24
    frequency:   69.3382882816

- q-position: [    0.0303030,    0.0000000,    0.0000000 ]
  distance:    0.0110297
  band:
  - # 1
    frequency:   -1.0305148661
  - # 2
    frequency:   -0.9434913120
  - # 3
    frequency:    0.0931607862
  - # 4
    frequency:    0.4887270386
  - # 5
    frequency:    0.8005677162
  - # 6
    frequency:    1.0029333926
  - # 7
    frequency:    1.1008085167
  - # 8
    frequency:    5.3704444614
  - # 9
    frequency:    5.3907344695
  - # 10
    frequency:    6.6075194369
  - # 11
    frequency:    7.8679781362
  - # 12
    frequency:    7.9187228863
  - # 13
    frequency:    8.4796924150
  - # 14
    frequency:    8.5063706840
  - # 15
    frequency:    9.8283961961
  - # 16
    frequency:   12.1089515526
  - # 17
    frequency:   16.2352101373
  - # 18
    frequency:   17.2686248094
  - # 19
    frequency:   17.2819346918
  - # 20
    frequency:   17.4969841950
  - # 21
    frequency:   17.4999059368
  - # 22
    frequency:   38.5462022325
  - # 23
    frequency:   61.3209172172
  - # 24
    frequency:   69.3208530195

- q-position: [    0.0353535,    0.0000000,    0.0000000 ]
  distance:    0.0128680
  band:
  - # 1
    frequency:   -1.0178008459
  - # 2
    frequency:   -0.8987312161
  - # 3
    frequency:    0.1627699807
  - # 4
    frequency:    0.5641894910
  - # 5
    frequency:    0.9036112582
  - # 6
    frequency:    1.0126603302
  - # 7
    frequency:    1.1596654704
  - # 8
    frequency:    5.3708479934
  - # 9
    frequency:    5.3985603592
  - # 10
    frequency:    6.6014089325
  - # 11
    frequency:    7.8643289991
  - # 12
    frequency:    7.9326967237
  - # 13
    frequency:    8.4788001929
  - # 14
    frequency:    8.5150803625
  - # 15
    frequency:    9.8251028156
  - # 16
    frequency:   12.0945732465
  - # 17
    frequency:   16.2326710262
  - # 18
    frequency:   17.2688705762
  - # 19
    frequency:   17.2868478406
  - # 20
    frequency:   17.4973212427
  - # 21
    frequency:   17.5011227887
  - # 22
    frequency:   38.5458935244
  - # 23
    frequency:   61.3195682876
  - # 24
    frequency:   69.3003710081

- q-position: [    0.0404040,    0.0000000,    0.0000000 ]
  distance:    0.0147062
  band:
  - # 1
    frequency:   -1.0035231186
  - # 2
    frequency:   -0.8462499774
  - # 3
    frequency:    0.2215697819
  - # 4
    frequency:    0.6343260338
  - # 5
    frequency:    0.9843406807
  - # 6
    frequency:    1.0278232465
  - # 7
    frequency:    1.2445847427
  - # 8
    frequency:    5.3713158741
  - # 9
    frequency:    5.4076483774
  - # 10
    frequency:    6.5945740095
  - # 11
    frequency:    7.8601774846
  - # 12
    frequency:    7.9484462165
  - # 13
    frequency:    8.4777451742
  - # 14
    frequency:    8.5250762388
  - # 15
    frequency:    9.8213496587
  - # 16
    frequency:   12.0780890113
  - # 17
    frequency:   16.2297083258
  - # 18
    frequency:   17.2691608855
  - # 19
    frequency:   17.2924314627
  - # 20
    frequency:   17.4977837346
  - # 21
    frequency:   17.5024863145
  - # 22
    frequency:   38.5455408657
  - # 23
    frequency:   61.3180202632
  - # 24
    frequency:   69.2769028230

- q-position: [    0.0454545,    0.0000000,    0.0000000 ]
  distance:    0.0165445
  band:
  - # 1
    frequency:   -0.9877462059
  - # 2
    frequency:   -0.7850191188
  - # 3
    frequency:    0.2779449049
  - # 4
    frequency:    0.6962004674
  - # 5
    frequency:    1.0443139120
  - # 6
    frequency:    1.0512310867
  - # 7
    frequency:    1.3532992749
  - # 8
    frequency:    5.3718494930
  - # 9
    frequency:    5.4180177664
  - # 10
    frequency:    6.5870936013
  - # 11
    frequency:    7.8555476275
  - # 12
    frequency:    7.9658340947
  - # 13
    frequency:    8.4765174484
  - # 14
    frequency:    8.5363298253
  - # 15
    frequency:    9.8171575566
  - # 16
    frequency:   12.0595435759
  - # 17
    frequency:   16.2263102174
  - # 18
    frequency:   17.2694980763
  - # 19
    frequency:   17.2986477816
  - # 20
    frequency:   17.4984029473
  - # 21
    frequency:   17.5039799553
  - # 22
    frequency:   38.5451457405
  - # 23
    frequency:   61.3162766857
  - # 24
    frequency:   69.2505175427

- q-position: [    0.0505051,    0.0000000,    0.0000000 ]
  distance:    0.0183828
  band:
  - # 1
    frequency:   -0.9705023727
  - # 2
    frequency:   -0.7134811463
  - # 3
    frequency:    0.3347476576
  - # 4
    frequency:    0.7465742956
  - # 5
    frequency:    1.0859854926
  - # 6
    frequency:    1.0923100251
  - # 7
    frequency:    1.4764366550
  - # 8
    frequency:    5.3724506964
  - # 9
    frequency:    5.4296868674
  - # 10
    frequency:    6.5790502422
  - # 11
    frequency:    7.8504658795
  - # 12
    frequency:    7.9847179464
  - # 13
    frequency:    8.4751064143
  - # 14
    frequency:    8.5488052396
  - # 15
    frequency:    9.8125505848
  - # 16
    frequency:   12.0389871587
  - # 17
    frequency:   16.2224647443
  - # 18
    frequency:   17.2698844768
  - # 19
    frequency:   17.3054530563
  - # 20
    frequency:   17.4992143603
  - # 21
    frequency:   17.5055854420
  - # 22
    frequency:   38.5447098082
  - # 23
    frequency:   61.3143415218
  - # 24
    frequency:   69.2212924089

- q-position: [    0.0555556,    0.0000000,    0.0000000 ]
  distance:    0.0202211
  band:
  - # 1
    frequency:   -0.9517909445
  - # 2
    frequency:   -0.6292586212
  - # 3
    frequency:    0.3937976663
  - # 4
    frequency:    0.7835556903
  - # 5
    frequency:    1.1338389964
  - # 6
    frequency:    1.1349722330
  - # 7
    frequency:    1.6068653282
  - # 8
    frequency:    5.3731218831
  - # 9
    frequency:    5.4426720739
  - # 10
    frequency:    6.5705288521
  - # 11
    frequency:    7.8449608562
  - # 12
    frequency:    8.0049535980
  - # 13
    frequency:    8.4735009708
  - # 14
    frequency:    8.5624579401
  - # 15
    frequency:    9.8075562169
  - # 16
    frequency:   12.0164753102
  - # 17
    frequency:   16.2181602671
  - # 18
    frequency:   17.2703223147
  - # 19
    frequency:   17.3127971248
  - # 20
    frequency:   17.5002578344
  - # 21
    frequency:   17.5072829489
  - # 22
    frequency:   38.5442348948
  - # 23
    frequency:   61.3122191461
  - # 24
    frequency:   69.1893124466

- q-position: [    0.0606061,    0.0000000,    0.0000000 ]
  distance:    0.0220594
  band:
  - # 1
    frequency:   -0.9315794772
  - # 2
    frequency:   -0.5284118683
  - # 3
    frequency:    0.4568390540
  - # 4
    frequency:    0.8079737883
  - # 5
    frequency:    1.1755994452
  - # 6
    frequency:    1.1938263242
  - # 7
    frequency:    1.7408892268
  - # 8
    frequency:    5.3738661077
  - # 9
    frequency:    5.4569867861
  - # 10
    frequency:    6.5616158586
  - # 11
    frequency:    7.8390630742
  - # 12
    frequency:    8.0263982772
  - # 13
    frequency:    8.4716897109
  - # 14
    frequency:    8.5772334096
  - # 15
    frequency:    9.8022054816
  - # 16
    frequency:   11.9920687485
  - # 17
    frequency:   16.2133859243
  - # 18
    frequency:   17.2708136307
  - # 19
    frequency:   17.3206228554
  - # 20
    frequency:   17.5015778814
  - # 21
    frequency:   17.5090512493
  - # 22
    frequency:   38.5437229841
  - # 23
    frequency:   61.3099143220
  - # 24
    frequency:   69.1546700482

- q-position: [    0.0656566,    0.0000000,    0.0000000 ]
  distance:    0.0238976
  band:
  - # 1
    frequency:   -0.9098054968
  - # 2
    frequency:   -0.4027982727
  - # 3
    frequency:    0.5258288035
  - # 4
    frequency:    0.8225758694
  - # 5
    frequency:    1.2157207303
  - # 6
    frequency:    1.2630709392
  - # 7
    frequency:    1.8766584145
  - # 8
    frequency:    5.3746871891
  - # 9
    frequency:    5.4726403912
  - # 10
    frequency:    6.5523986670
  - # 11
    frequency:    7.8328046828
  - # 12
    frequency:    8.0489134865
  - # 13
    frequency:    8.4696611110
  - # 14
    frequency:    8.5930658497
  - # 15
    frequency:    9.7965331155
  - # 16
    frequency:   11.9658331898
  - # 17
    frequency:   16.2081320860
  - # 18
    frequency:   17.2713601980
  - # 19
    frequency:   17.3288655289
  - # 20
    frequency:   17.5032240146
  - # 21
    frequency:   17.5108678726
  - # 22
    frequency:   38.5431762075
  - # 23
    frequency:   61.3074321819
  - # 24
    frequency:   69.1174645232

- q-position: [    0.0707071,    0.0000000,    0.0000000 ]
  distance:    0.0257359
  band:
  - # 1
    frequency:   -0.8863777261
  - # 2
    frequency:   -0.2227676642
  - # 3
    frequency:    0.6025979859
  - # 4
    frequency:    0.8302441662
  - # 5
    frequency:    1.2560744834
  - # 6
    frequency:    1.3385702414
  - # 7
    frequency:    2.0131755636
  - # 8
    frequency:    5.3755898231
  - # 9
    frequency:    5.4896372907
  - # 10
    frequency:    6.5429654627
  - # 11
    frequency:    7.8262191927
  - # 12
    frequency:    8.0723675288
  - # 13
    frequency:    8.4674037154
  - # 14
    frequency:    8.6098769613
  - # 15
    frequency:    9.7905777005
  - # 16
    frequency:   11.9378391766
  - # 17
    frequency:   16.2023907873
  - # 18
    frequency:   17.2719634474
  - # 19
    frequency:   17.3374522116
  - # 20
    frequency:   17.5052511284
  - # 21
    frequency:   17.5127092598
  - # 22
    frequency:   38.5425968330
  - # 23
    frequency:   61.3047782053
  - # 24
    frequency:   69.0778016160

- q-position: [    0.0757576,    0.0000000,    0.0000000 ]
  distance:    0.0275742
  band:
  - # 1
    frequency:   -0.8611759607
  - # 2
    frequency:    0.2332993363
  - # 3
    frequency:    0.6876344276
  - # 4
    frequency:    0.8331255109
  - # 5
    frequency:    1.2970421501
  - # 6
    frequency:    1.4180666206
  - # 7
    frequency:    2.1498493025
  - # 8
    frequency:    5.3765796975
  - # 9
    frequency:    5.5079759878
  - # 10
    frequency:    6.5334053254
  - # 11
    frequency:    7.8193412052
  - # 12
    frequency:    8.0966376340
  - # 13
    frequency:    8.4649063113
  - # 14
    frequency:    8.6275748979
  - # 15
    frequency:    9.7843817738
  - # 16
    frequency:   11.9081619068
  - # 17
    frequency:   16.1961561275
  - # 18
    frequency:   17.2726244007
  - # 19
    frequency:   17.3463012371
  - # 20
    frequency:   17.5077197983
  - # 21
    frequency:   17.5145509174
  - # 22
    frequency:   38.5419872536
  - # 23
    frequency:   61.3019581957
  - # 24
    frequency:   69.0357929953

- q-position: [    0.0808081,    0.0000000,    0.0000000 ]
  distance:    0.0294125
  band:
  - # 1
    frequency:   -0.8340489188
  - # 2
    frequency:    0.3855642388
  - # 3
    frequency:    0.7790304102
  - # 4
    frequency:    0.8326172882
  - # 5
    frequency:    1.3388363948
  - # 6
    frequency:    1.5000613443
  - # 7
    frequency:    2.2862948533
  - # 8
    frequency:    5.3776636065
  - # 9
    frequency:    5.5276482481
  - # 10
    frequency:    6.5238086226
  - # 11
    frequency:    7.8122061440
  - # 12
    frequency:    8.1216116436
  - # 13
    frequency:    8.4621580931
  - # 14
    frequency:    8.6460534811
  - # 15
    frequency:    9.7779918907
  - # 16
    frequency:   11.8768810648
  - # 17
    frequency:   16.1894246258
  - # 18
    frequency:   17.2733436112
  - # 19
    frequency:   17.3553220102
  - # 20
    frequency:   17.5106962997
  - # 21
    frequency:   17.5163675681
  - # 22
    frequency:   38.5413499754
  - # 23
    frequency:   61.2989782570
  - # 24
    frequency:   68.9915557184

- q-position: [    0.0858586,    0.0000000,    0.0000000 ]
  distance:    0.0312508
  band:
  - # 1
    frequency:   -0.8048093648
  - # 2
    frequency:    0.4851058918
  - # 3
    frequency:    0.8295923021
  - # 4
    frequency:    0.8734652441
  - # 5
    frequency:    1.3815863407
  - # 6
    frequency:    1.5835890659
  - # 7
    frequency:    2.4222393081
  - # 8
    frequency:    5.3788495628
  - # 9
    frequency:    5.5486383333
  - # 10
    frequency:    6.5142676540
  - # 11
    frequency:    7.8048499910
  - # 12
    frequency:    8.1471892238
  - # 13
    frequency:    8.4591488139
  - # 14
    frequency:    8.6651917685
  - # 15
    frequency:    9.7714586182
  - # 16
    frequency:   11.8440806577
  - # 17
    frequency:   16.1821955199
  - # 18
    frequency:   17.2741211110
  - # 19
    frequency:   17.3644154534
  - # 20
    frequency:   17.5142520294
  - # 21
    frequency:   17.5181333004
  - # 22
    frequency:   38.5406876039
  - # 23
    frequency:   61.2958447683
  - # 24
    frequency:   68.9452116725

- q-position: [    0.0909091,    0.0000000,    0.0000000 ]
  distance:    0.0330890
  band:
  - # 1
    frequency:   -0.7732255456
  - # 2
    frequency:    0.5639349435
  - # 3
    frequency:    0.8245952604
  - # 4
    frequency:    0.9681405679
  - # 5
    frequency:    1.4253780986
  - # 6
    frequency:    1.6680205500
  - # 7
    frequency:    2.5574731641
  - # 8
    frequency:    5.3801469041
  - # 9
    frequency:    5.5709223082
  - # 10
    frequency:    6.5048775214
  - # 11
    frequency:    7.7973090285
  - # 12
    frequency:    8.1732825896
  - # 13
    frequency:    8.4558689236
  - # 14
    frequency:    8.6848540511
  - # 15
    frequency:    9.7648364274
  - # 16
    frequency:   11.8098488568
  - # 17
    frequency:   16.1744710035
  - # 18
    frequency:   17.2749563648
  - # 19
    frequency:   17.3734755277
  - # 20
    frequency:   17.5184619076
  - # 21
    frequency:   17.5198217150
  - # 22
    frequency:   38.5400028312
  - # 23
    frequency:   61.2925643580
  - # 24
    frequency:   68.8968869980

- q-position: [    0.0959596,    0.0000000,    0.0000000 ]
  distance:    0.0349273
  band:
  - # 1
    frequency:   -0.7390073423
  - # 2
    frequency:    0.6322901494
  - # 3
    frequency:    0.8179709817
  - # 4
    frequency:    1.0614824913
  - # 5
    frequency:    1.4702748047
  - # 6
    frequency:    1.7529337234
  - # 7
    frequency:    2.6918237015
  - # 8
    frequency:    5.3815663918
  - # 9
    frequency:    5.5944674121
  - # 10
    frequency:    6.4957372055
  - # 11
    frequency:    7.7896195876
  - # 12
    frequency:    8.1998167440
  - # 13
    frequency:    8.4523096929
  - # 14
    frequency:    8.7048903463
  - # 15
    frequency:    9.7581834478
  - # 16
    frequency:   11.7742778482
  - # 17
    frequency:   16.1662563942
  - # 18
    frequency:   17.2758482271
  - # 19
    frequency:   17.3823922878
  - # 20
    frequency:   17.5214060725
  - # 21
    frequency:   17.5234013012
  - # 22
    frequency:   38.5392984215
  - # 23
    frequency:   61.2891438774
  - # 24
    frequency:   68.8467114957

- q-position: [    0.1010101,    0.0000000,    0.0000000 ]
  distance:    0.0367656
  band:
  - # 1
    frequency:   -0.7017842878
  - # 2
    frequency:    0.6947656014
  - # 3
    frequency:    0.8099417996
  - # 4
    frequency:    1.1528295628
  - # 5
    frequency:    1.5163268304
  - # 6
    frequency:    1.8380357296
  - # 7
    frequency:    2.8251393650
  - # 8
    frequency:    5.3831202984
  - # 9
    frequency:    5.6192314841
  - # 10
    frequency:    6.4869508347
  - # 11
    frequency:    7.7818178058
  - # 12
    frequency:    8.2267292610
  - # 13
    frequency:    8.4484633228
  - # 14
    frequency:    8.7251374299
  - # 15
    frequency:    9.7515610359
  - # 16
    frequency:   11.7374636908
  - # 17
    frequency:   16.1575602304
  - # 18
    frequency:   17.2767949036
  - # 19
    frequency:   17.3910567765
  - # 20
    frequency:   17.5228594412
  - # 21
    frequency:   17.5291411686
  - # 22
    frequency:   38.5385771967
  - # 23
    frequency:   61.2855903737
  - # 24
    frequency:   68.7948180233

- q-position: [    0.1060606,    0.0000000,    0.0000000 ]
  distance:    0.0386039
  band:
  - # 1
    frequency:   -0.6610700861
  - # 2
    frequency:    0.7536864478
  - # 3
    frequency:    0.8006539275
  - # 4
    frequency:    1.2420001778
  - # 5
    frequency:    1.5635771681
  - # 6
    frequency:    1.9231163554
  - # 7
    frequency:    2.9572800092
  - # 8
    frequency:    5.3848224810
  - # 9
    frequency:    5.6451624286
  - # 10
    frequency:    6.4786291396
  - # 11
    frequency:    7.7739393924
  - # 12
    frequency:    8.2539696586
  - # 13
    frequency:    8.4443230395
  - # 14
    frequency:    8.7454204369
  - # 15
    frequency:    9.7450331036
  - # 16
    frequency:   11.6995061831
  - # 17
    frequency:   16.1483942968
  - # 18
    frequency:   17.2777939116
  - # 19
    frequency:   17.3993676016
  - # 20
    frequency:   17.5241548480
  - # 21
    frequency:   17.5357415806
  - # 22
    frequency:   38.5378420216
  - # 23
    frequency:   61.2819110628
  - # 24
    frequency:   68.7413418836

- q-position: [    0.1111111,    0.0000000,    0.0000000 ]
  distance:    0.0404422
  band:
  - # 1
    frequency:   -0.6162029458
  - # 2
    frequency:    0.7902059449
  - # 3
    frequency:    0.8103194458
  - # 4
    frequency:    1.3290230971
  - # 5
    frequency:    1.6120644858
  - # 6
    frequency:    2.0080198174
  - # 7
    frequency:    3.0881104157
  - # 8
    frequency:    5.3866884377
  - # 9
    frequency:    5.6721977107
  - # 10
    frequency:    6.4708910841
  - # 11
    frequency:    7.7660194056
  - # 12
    frequency:    8.2814984336
  - # 13
    frequency:    8.4398831754
  - # 14
    frequency:    8.7655550383
  - # 15
    frequency:    9.7386651448
  - # 16
    frequency:   11.6605087398
  - # 17
    frequency:   16.1387735805
  - # 18
    frequency:   17.2788420388
  - # 19
    frequency:   17.4072383051
  - # 20
    frequency:   17.5252654355
  - # 21
    frequency:   17.5432445057
  - # 22
    frequency:   38.5370957888
  - # 23
    frequency:   61.2781133012
  - # 24
    frequency:   68.6864202083

- q-position: [    0.1161616,    0.0000000,    0.0000000 ]
  distance:    0.0422804
  band:
  - # 1
    frequency:   -0.5662387110
  - # 2
    frequency:    0.7786672866
  - # 3
    frequency:    0.8653940080
  - # 4
    frequency:    1.4140032547
  - # 5
    frequency:    1.6618251698
  - # 6
    frequency:    2.0926272734
  - # 7
    frequency:    3.2174956970
  - # 8
    frequency:    5.3887353439
  - # 9
    frequency:    5.7002638803
  - # 10
    frequency:    6.4638656603
  - # 11
    frequency:    7.7580920393
  - # 12
    frequency:    8.3092858357
  - # 13
    frequency:    8.4351392356
  - # 14
    frequency:    8.7853501920
  - # 15
    frequency:    9.7325228978
  - # 16
    frequency:   11.6205782743
  - # 17
    frequency:   16.1287161631
  - # 18
    frequency:   17.2799352973
  - # 19
    frequency:   17.4146038988
  - # 20
    frequency:   17.5261646264
  - # 21
    frequency:   17.5516674817
  - # 22
    frequency:   38.5363414035
  - # 23
    frequency:   61.2742045592
  - # 24
    frequency:   68.6301913420

- q-position: [    0.1212121,    0.0000000,    0.0000000 ]
  distance:    0.0441187
  band:
  - # 1
    frequency:   -0.5097415716
  - # 2
    frequency:    0.7660915393
  - # 3
    frequency:    0.9193483068
  - # 4
    frequency:    1.4970605692
  - # 5
    frequency:    1.7128950851
  - # 6
    frequency:    2.1768457004
  - # 7
    frequency:    3.3452978129
  - # 8
    frequency:    5.3909820665
  - # 9
    frequency:    5.7292761388
  - # 10
    frequency:    6.4576938195
  - # 11
    frequency:    7.7501904228
  - # 12
    frequency:    8.3373104690
  - # 13
    frequency:    8.4300879508
  - # 14
    frequency:    8.8046114485
  - # 15
    frequency:    9.7266705881
  - # 16
    frequency:   11.5798250890
  - # 17
    frequency:   16.1182430551
  - # 18
    frequency:   17.2810688683
  - # 19
    frequency:   17.4214247121
  - # 20
    frequency:   17.5268263005
  - # 21
    frequency:   17.5610000216
  - # 22
    frequency:   38.5355817677
  - # 23
    frequency:   61.2701923926
  - # 24
    frequency:   68.5727942295

- q-position: [    0.1262626,    0.0000000,    0.0000000 ]
  distance:    0.0459570
  band:
  - # 1
    frequency:   -0.4443183309
  - # 2
    frequency:    0.7525279475
  - # 3
    frequency:    0.9724535499
  - # 4
    frequency:    1.5783032679
  - # 5
    frequency:    1.7653114353
  - # 6
    frequency:    2.2606006430
  - # 7
    frequency:    3.4713727446
  - # 8
    frequency:    5.3934491520
  - # 9
    frequency:    5.7591379988
  - # 10
    frequency:    6.4525304765
  - # 11
    frequency:    7.7423464337
  - # 12
    frequency:    8.3655578003
  - # 13
    frequency:    8.4247273176
  - # 14
    frequency:    8.8231447781
  - # 15
    frequency:    9.7211687113
  - # 16
    frequency:   11.5383627666
  - # 17
    frequency:   16.1073779815
  - # 18
    frequency:   17.2822370345
  - # 19
    frequency:   17.4276863333
  - # 20
    frequency:   17.5272249853
  - # 21
    frequency:   17.5712039642
  - # 22
    frequency:   38.5348197656
  - # 23
    frequency:   61.2660844161
  - # 24
    frequency:   68.5143678104

- q-position: [    0.1313131,    0.0000000,    0.0000000 ]
  distance:    0.0477953
  band:
  - # 1
    frequency:   -0.3653568864
  - # 2
    frequency:    0.7380345099
  - # 3
    frequency:    1.0248803000
  - # 4
    frequency:    1.6578167279
  - # 5
    frequency:    1.8191148075
  - # 6
    frequency:    2.3438313739
  - # 7
    frequency:    3.5955680567
  - # 8
    frequency:    5.3961587885
  - # 9
    frequency:    5.7897411379
  - # 10
    frequency:    6.4485464717
  - # 11
    frequency:    7.7345905255
  - # 12
    frequency:    8.3940186468
  - # 13
    frequency:    8.4190566245
  - # 14
    frequency:    8.8407608598
  - # 15
    frequency:    9.7160713573
  - # 16
    frequency:   11.4963080608
  - # 17
    frequency:   16.0961471268
  - # 18
    frequency:   17.2834330956
  - # 19
    frequency:   17.4333957329
  - # 20
    frequency:   17.5273360674
  - # 21
    frequency:   17.5822176748
  - # 22
    frequency:   38.5340582476
  - # 23
    frequency:   61.2618882763
  - # 24
    frequency:   68.4550504248

- q-position: [    0.1363636,    0.0000000,    0.0000000 ]
  distance:    0.0496336
  band:
  - # 1
    frequency:   -0.2611520581
  - # 2
    frequency:    0.7226979209
  - # 3
    frequency:    1.0767355801
  - # 4
    frequency:    1.7356594221
  - # 5
    frequency:    1.8743510374
  - # 6
    frequency:    2.4264875960
  - # 7