nqpoint: 300    
npath: 3      
segment_nqpoint:
- 100
- 100
- 100
labels:
- [ 'G', 'M' ]
- [ 'M', 'K' ]
- [ 'K', 'G' ]
reciprocal_lattice:
- [   0.31601051,   0.18244875,   0.00000000 ] # a*
- [   0.00000000,   0.36489751,   0.00000000 ] # b*
- [   0.00000000,   0.00000000,   0.04104137 ] # c*
natom: 6      
lattice:
- [     3.164451686147217,     0.000000000000000,     0.000000000000000 ] # a
- [    -1.582225843073608,     2.740495549252156,     0.000000000000000 ] # b
- [     0.000000000000000,     0.000000000000000,    24.365657297191852 ] # c
points:
- symbol: Cl # 1
  coordinates: [  0.666666984744047,  0.333332985985145,  0.369372346094569 ]
  mass: 35.453000
- symbol: N # 2
  coordinates: [  0.000000000000000,  0.000000000000000,  0.482185064308710 ]
  mass: 14.006700
- symbol: N # 3
  coordinates: [  0.333332985432214,  0.666666983183674,  0.577366024410823 ]
  mass: 14.006700
- symbol: O # 4
  coordinates: [  0.333332985432214,  0.666666983183674,  0.630627653905431 ]
  mass: 15.999400
- symbol: Ti # 5
  coordinates: [  0.333332985432214,  0.666666983183674,  0.439804609056866 ]
  mass: 47.867000
- symbol: Ti # 6
  coordinates: [  0.666666984744047,  0.333332985985145,  0.530660372795067 ]
  mass: 47.867000

phonon:
- q-position: [    0.0000000,    0.0000000,    0.0000000 ]
  distance:    0.0000000
  band:
  - # 1
    frequency:   -6.8342099552
  - # 2
    frequency:   -6.8342099552
  - # 3
    frequency:   -0.0000019024
  - # 4
    frequency:    0.0000003656
  - # 5
    frequency:    0.0000029516
  - # 6
    frequency:    4.0200215059
  - # 7
    frequency:    4.0200215059
  - # 8
    frequency:    5.3315898513
  - # 9
    frequency:    5.3315898513
  - # 10
    frequency:    6.1141841080
  - # 11
    frequency:    6.2864838763
  - # 12
    frequency:    6.2864838763
  - # 13
    frequency:    7.6374615588
  - # 14
    frequency:   11.1016462420
  - # 15
    frequency:   14.5171922480
  - # 16
    frequency:   14.5171922480
  - # 17
    frequency:   14.7847358717
  - # 18
    frequency:   42.4519556136

- q-position: [    0.0050505,    0.0000000,    0.0000000 ]
  distance:    0.0018429
  band:
  - # 1
    frequency:   -6.8349929878
  - # 2
    frequency:   -6.8330471452
  - # 3
    frequency:    0.0024122282
  - # 4
    frequency:    0.0804379738
  - # 5
    frequency:    0.1388916284
  - # 6
    frequency:    4.0208706339
  - # 7
    frequency:    4.0211376684
  - # 8
    frequency:    5.3298154144
  - # 9
    frequency:    5.3307234531
  - # 10
    frequency:    6.1087249927
  - # 11
    frequency:    6.2866925997
  - # 12
    frequency:    6.2935811523
  - # 13
    frequency:    7.6384011741
  - # 14
    frequency:   11.1010109283
  - # 15
    frequency:   14.5172324794
  - # 16
    frequency:   14.5175699698
  - # 17
    frequency:   14.7843696442
  - # 18
    frequency:   42.4514012807

- q-position: [    0.0101010,    0.0000000,    0.0000000 ]
  distance:    0.0036858
  band:
  - # 1
    frequency:   -6.8373355323
  - # 2
    frequency:   -6.8295637909
  - # 3
    frequency:    0.0096263449
  - # 4
    frequency:    0.1609111778
  - # 5
    frequency:    0.2776868397
  - # 6
    frequency:    4.0233831921
  - # 7
    frequency:    4.0244761424
  - # 8
    frequency:    5.3245686457
  - # 9
    frequency:    5.3281290708
  - # 10
    frequency:    6.0945486638
  - # 11
    frequency:    6.2873192281
  - # 12
    frequency:    6.3126426787
  - # 13
    frequency:    7.6412013215
  - # 14
    frequency:   11.0991053557
  - # 15
    frequency:   14.5173431412
  - # 16
    frequency:   14.5187028425
  - # 17
    frequency:   14.7832799497
  - # 18
    frequency:   42.4497386185

- q-position: [    0.0151515,    0.0000000,    0.0000000 ]
  distance:    0.0055288
  band:
  - # 1
    frequency:   -6.8412179831
  - # 2
    frequency:   -6.8237750674
  - # 3
    frequency:    0.0215754712
  - # 4
    frequency:    0.2414526930
  - # 5
    frequency:    0.4162890384
  - # 6
    frequency:    4.0274554828
  - # 7
    frequency:    4.0300069007
  - # 8
    frequency:    5.3160754985
  - # 9
    frequency:    5.3238212612
  - # 10
    frequency:    6.0756245315
  - # 11
    frequency:    6.2883651168
  - # 12
    frequency:    6.3396138040
  - # 13
    frequency:    7.6458066617
  - # 14
    frequency:   11.0959306402
  - # 15
    frequency:   14.5174940210
  - # 16
    frequency:   14.5205899888
  - # 17
    frequency:   14.7814939288
  - # 18
    frequency:   42.4469686370

- q-position: [    0.0202020,    0.0000000,    0.0000000 ]
  distance:    0.0073717
  band:
  - # 1
    frequency:   -6.8466078489
  - # 2
    frequency:   -6.8157060964
  - # 3
    frequency:    0.0381501537
  - # 4
    frequency:    0.3220913479
  - # 5
    frequency:    0.5546012444
  - # 6
    frequency:    4.0329173247
  - # 7
    frequency:    4.0376799375
  - # 8
    frequency:    5.3047006279
  - # 9
    frequency:    5.3178246865
  - # 10
    frequency:    6.0548298458
  - # 11
    frequency:    6.2898324622
  - # 12
    frequency:    6.3714835853
  - # 13
    frequency:    7.6521274140
  - # 14
    frequency:   11.0914886760
  - # 15
    frequency:   14.5176344055
  - # 16
    frequency:   14.5232299462
  - # 17
    frequency:   14.7790573744
  - # 18
    frequency:   42.4430930252

- q-position: [    0.0252525,    0.0000000,    0.0000000 ]
  distance:    0.0092146
  band:
  - # 1
    frequency:   -6.8534600286
  - # 2
    frequency:   -6.8053916914
  - # 3
    frequency:    0.0592012955
  - # 4
    frequency:    0.4028497049
  - # 5
    frequency:    0.6925258314
  - # 6
    frequency:    4.0395362161
  - # 7
    frequency:    4.0474253010
  - # 8
    frequency:    5.2909305364
  - # 9
    frequency:    5.3101747227
  - # 10
    frequency:    6.0337483934
  - # 11
    frequency:    6.2917242160
  - # 12
    frequency:    6.4064975146
  - # 13
    frequency:    7.6600428030
  - # 14
    frequency:   11.0857821867
  - # 15
    frequency:   14.5176926392
  - # 16
    frequency:   14.5266206676
  - # 17
    frequency:   14.7760354663
  - # 18
    frequency:   42.4381141571

- q-position: [    0.0303030,    0.0000000,    0.0000000 ]
  distance:    0.0110575
  band:
  - # 1
    frequency:   -6.8617172026
  - # 2
    frequency:   -6.7928760059
  - # 3
    frequency:    0.0845439422
  - # 4
    frequency:    0.4837421760
  - # 5
    frequency:    0.8299641815
  - # 6
    frequency:    4.0470235756
  - # 7
    frequency:    4.0591530899
  - # 8
    frequency:    5.2753519160
  - # 9
    frequency:    5.3009183277
  - # 10
    frequency:    6.0131983050
  - # 11
    frequency:    6.2940439806
  - # 12
    frequency:    6.4436435197
  - # 13
    frequency:    7.6694054601
  - # 14
    frequency:   11.0788147943
  - # 15
    frequency:   14.5175757313
  - # 16
    frequency:   14.5307595185
  - # 17
    frequency:   14.7725135589
  - # 18
    frequency:   42.4320351026

- q-position: [    0.0353535,    0.0000000,    0.0000000 ]
  distance:    0.0129004
  band:
  - # 1
    frequency:   -6.8713103373
  - # 2
    frequency:   -6.7782120877
  - # 3
    frequency:    0.1139616988
  - # 4
    frequency:    0.5647733031
  - # 5
    frequency:    0.9668162290
  - # 6
    frequency:    4.0550435387
  - # 7
    frequency:    4.0727533617
  - # 8
    frequency:    5.2586266835
  - # 9
    frequency:    5.2901151869
  - # 10
    frequency:    5.9936025153
  - # 11
    frequency:    6.2967958956
  - # 12
    frequency:    6.4822958615
  - # 13
    frequency:    7.6800464389
  - # 14
    frequency:   11.0705911044
  - # 15
    frequency:   14.5171693010
  - # 16
    frequency:   14.5356432723
  - # 17
    frequency:   14.7685977201
  - # 18
    frequency:   42.4248596398

- q-position: [    0.0404040,    0.0000000,    0.0000000 ]
  distance:    0.0147433
  band:
  - # 1
    frequency:   -6.8821593079
  - # 2
    frequency:   -6.7614613447
  - # 3
    frequency:    0.1472115181
  - # 4
    frequency:    0.6459362316
  - # 5
    frequency:    1.1029798623
  - # 6
    frequency:    4.0632249455
  - # 7
    frequency:    4.0880958917
  - # 8
    frequency:    5.2414649700
  - # 9
    frequency:    5.2778391637
  - # 10
    frequency:    5.9751827570
  - # 11
    frequency:    6.2999845338
  - # 12
    frequency:    6.5220342810
  - # 13
    frequency:    7.6917804981
  - # 14
    frequency:   11.0611168063
  - # 15
    frequency:   14.5163383100
  - # 16
    frequency:   14.5412681011
  - # 17
    frequency:   14.7644145557
  - # 18
    frequency:   42.4165922698

- q-position: [    0.0454545,    0.0000000,    0.0000000 ]
  distance:    0.0165863
  band:
  - # 1
    frequency:   -6.8941736404
  - # 2
    frequency:   -6.7426929290
  - # 3
    frequency:    0.1840286140
  - # 4
    frequency:    0.7272113986
  - # 5
    frequency:    1.2383501534
  - # 6
    frequency:    4.0711772339
  - # 7
    frequency:    4.1050297078
  - # 8
    frequency:    5.2245967870
  - # 9
    frequency:    5.2641800934
  - # 10
    frequency:    5.9580586499
  - # 11
    frequency:    6.3036148158
  - # 12
    frequency:    6.5625555215
  - # 13
    frequency:    7.7044113420
  - # 14
    frequency:   11.0503987835
  - # 15
    frequency:   14.5149292067
  - # 16
    frequency:   14.5476295586
  - # 17
    frequency:   14.7601096757
  - # 18
    frequency:   42.4072382340

- q-position: [    0.0505051,    0.0000000,    0.0000000 ]
  distance:    0.0184292
  band:
  - # 1
    frequency:   -6.9072533743
  - # 2
    frequency:   -6.7219830487
  - # 3
    frequency:    0.2241312840
  - # 4
    frequency:    0.8085654491
  - # 5
    frequency:    1.3728183768
  - # 6
    frequency:    4.0785108095
  - # 7
    frequency:    4.1233823180
  - # 8
    frequency:    5.2087425565
  - # 9
    frequency:    5.2492459676
  - # 10
    frequency:    5.9423000532
  - # 11
    frequency:    6.3076919605
  - # 12
    frequency:    6.6036283983
  - # 13
    frequency:    7.7177365723
  - # 14
    frequency:   11.0384452321
  - # 15
    frequency:   14.5127742217
  - # 16
    frequency:   14.5547225564
  - # 17
    frequency:   14.7558440439
  - # 18
    frequency:   42.3968035336

- q-position: [    0.0555556,    0.0000000,    0.0000000 ]
  distance:    0.0202721
  band:
  - # 1
    frequency:   -6.9212900471
  - # 2
    frequency:   -6.6994142172
  - # 3
    frequency:    0.2672254713
  - # 4
    frequency:    0.8899503889
  - # 5
    frequency:    1.5062707733
  - # 6
    frequency:    4.0848619620
  - # 7
    frequency:    4.1429585413
  - # 8
    frequency:    5.1945825330
  - # 9
    frequency:    5.2331655652
  - # 10
    frequency:    5.9279555831
  - # 11
    frequency:    6.3122214784
  - # 12
    frequency:    6.6450695065
  - # 13
    frequency:    7.7315521816
  - # 14
    frequency:   11.0252657835
  - # 15
    frequency:   14.5096984795
  - # 16
    frequency:   14.5625413291
  - # 17
    frequency:   14.7517875243
  - # 18
    frequency:   42.3852949501

- q-position: [    0.0606061,    0.0000000,    0.0000000 ]
  distance:    0.0221150
  band:
  - # 1
    frequency:   -6.9361677987
  - # 2
    frequency:   -6.6750744526
  - # 3
    frequency:    0.3130089508
  - # 4
    frequency:    0.9713029713
  - # 5
    frequency:    1.6385870012
  - # 6
    frequency:    4.0899214358
  - # 7
    frequency:    4.1635388590
  - # 8
    frequency:    5.1827256290
  - # 9
    frequency:    5.2160915874
  - # 10
    frequency:    5.9150682027
  - # 11
    frequency:    6.3172092182
  - # 12
    frequency:    6.6867291119
  - # 13
    frequency:    7.7456564928
  - # 14
    frequency:   11.0108716279
  - # 15
    frequency:   14.5055301602
  - # 16
    frequency:   14.5710793872
  - # 17
    frequency:   14.7481093717
  - # 18
    frequency:   42.3727200679

- q-position: [    0.0656566,    0.0000000,    0.0000000 ]
  distance:    0.0239579
  band:
  - # 1
    frequency:   -6.9517645922
  - # 2
    frequency:   -6.6490564409
  - # 3
    frequency:    0.3611750703
  - # 4
    frequency:    1.0525443148
  - # 5
    frequency:    1.7696382017
  - # 6
    frequency:    4.0934644409
  - # 7
    frequency:    4.1848772229
  - # 8
    frequency:    5.1736792607
  - # 9
    frequency:    5.1982043382
  - # 10
    frequency:    5.9036834496
  - # 11
    frequency:    6.3226614692
  - # 12
    frequency:    6.7284823414
  - # 13
    frequency:    7.7598535177
  - # 14
    frequency:   10.9952756329
  - # 15
    frequency:   14.5001130743
  - # 16
    frequency:   14.5803294580
  - # 17
    frequency:   14.7449662808
  - # 18
    frequency:   42.3590872975

- q-position: [    0.0707071,    0.0000000,    0.0000000 ]
  distance:    0.0258008
  band:
  - # 1
    frequency:   -6.9679535448
  - # 2
    frequency:   -6.6214566800
  - # 3
    frequency:    0.4114160259
  - # 4
    frequency:    1.1335797366
  - # 5
    frequency:    1.8992845766
  - # 6
    frequency:    4.0953785746
  - # 7
    frequency:    4.2066983116
  - # 8
    frequency:    5.1678231414
  - # 9
    frequency:    5.1797159439
  - # 10
    frequency:    5.8938533680
  - # 11
    frequency:    6.3285851219
  - # 12
    frequency:    6.7702233054
  - # 13
    frequency:    7.7739557563
  - # 14
    frequency:   10.9784924567
  - # 15
    frequency:   14.4933198808
  - # 16
    frequency:   14.5902834110
  - # 17
    frequency:   14.7424897490
  - # 18
    frequency:   42.3444058997

- q-position: [    0.0757576,    0.0000000,    0.0000000 ]
  distance:    0.0276438
  band:
  - # 1
    frequency:   -6.9846043581
  - # 2
    frequency:   -6.5923746200
  - # 3
    frequency:    0.4634256873
  - # 4
    frequency:    1.2142987886
  - # 5
    frequency:    2.0273723511
  - # 6
    frequency:    4.0956854521
  - # 7
    frequency:    4.2286943353
  - # 8
    frequency:    5.1608750032
  - # 9
    frequency:    5.1653907689
  - # 10
    frequency:    5.8856379345
  - # 11
    frequency:    6.3349878837
  - # 12
    frequency:    6.8118609435
  - # 13
    frequency:    7.7877864948
  - # 14
    frequency:   10.9605386487
  - # 15
    frequency:   14.4850633017
  - # 16
    frequency:   14.6009321699
  - # 17
    frequency:   14.7407753798
  - # 18
    frequency:   42.3286860103

- q-position: [    0.0808081,    0.0000000,    0.0000000 ]
  distance:    0.0294867
  band:
  - # 1
    frequency:   -7.0015848354
  - # 2
    frequency:   -6.5619118190
  - # 3
    frequency:    0.5169020126
  - # 4
    frequency:    1.2945754760
  - # 5
    frequency:    2.1537299441
  - # 6
    frequency:    4.0945524171
  - # 7
    frequency:    4.2505216977
  - # 8
    frequency:    5.1419713574
  - # 9
    frequency:    5.1664620032
  - # 10
    frequency:    5.8791050294
  - # 11
    frequency:    6.3418785429
  - # 12
    frequency:    6.8533159512
  - # 13
    frequency:    7.8011816810
  - # 14
    frequency:   10.9414327376
  - # 15
    frequency:   14.4753027160
  - # 16
    frequency:   14.6122656087
  - # 17
    frequency:   14.7398767326
  - # 18
    frequency:   42.3119386645

- q-position: [    0.0858586,    0.0000000,    0.0000000 ]
  distance:    0.0313296
  band:
  - # 1
    frequency:   -7.0187624672
  - # 2
    frequency:   -6.5301711333
  - # 3
    frequency:    0.5715491148
  - # 4
    frequency:    1.3742686358
  - # 5
    frequency:    2.2781631286
  - # 6
    frequency:    4.0922926499
  - # 7
    frequency:    4.2717981709
  - # 8
    frequency:    5.1233403233
  - # 9
    frequency:    5.1709684129
  - # 10
    frequency:    5.8743295450
  - # 11
    frequency:    6.3492672737
  - # 12
    frequency:    6.8945184187
  - # 13
    frequency:    7.8139914591
  - # 14
    frequency:   10.9211953024
  - # 15
    frequency:   14.4640446895
  - # 16
    frequency:   14.6242724356
  - # 17
    frequency:   14.7398051480
  - # 18
    frequency:   42.2941758210

- q-position: [    0.0909091,    0.0000000,    0.0000000 ]
  distance:    0.0331725
  band:
  - # 1
    frequency:   -7.0360060655
  - # 2
    frequency:   -6.4972559589
  - # 3
    frequency:    0.6270790471
  - # 4
    frequency:    1.4532224565
  - # 5
    frequency:    2.4004489085
  - # 6
    frequency:    4.0893547460
  - # 7
    frequency:    4.2921017962
  - # 8
    frequency:    5.1053651853
  - # 9
    frequency:    5.1787105358
  - # 10
    frequency:    5.8713919144
  - # 11
    frequency:    6.3571659672
  - # 12
    frequency:    6.9354059635
  - # 13
    frequency:    7.8260814504
  - # 14
    frequency:   10.8998490264
  - # 15
    frequency:   14.4513378260
  - # 16
    frequency:   14.6369400640
  - # 17
    frequency:   14.7405351560
  - # 18
    frequency:   42.2754103862

- q-position: [    0.0959596,    0.0000000,    0.0000000 ]
  distance:    0.0350154
  band:
  - # 1
    frequency:   -7.0531874228
  - # 2
    frequency:   -6.4632695444
  - # 3
    frequency:    0.6832133796
  - # 4
    frequency:    1.5312671154
  - # 5
    frequency:    2.5203278092
  - # 6
    frequency:    4.0863053246
  - # 7
    frequency:    4.3109734791
  - # 8
    frequency:    5.0884759807
  - # 9
    frequency:    5.1893838638
  - # 10
    frequency:    5.8703761422
  - # 11
    frequency:    6.3655885727
  - # 12
    frequency:    6.9759222122
  - # 13
    frequency:    7.8373338518
  - # 14
    frequency:   10.8774187326
  - # 15
    frequency:   14.4372638487
  - # 16
    frequency:   14.6502544743
  - # 17
    frequency:   14.7420135511
  - # 18
    frequency:   42.2556562359

- q-position: [    0.1010101,    0.0000000,    0.0000000 ]
  distance:    0.0368583
  band:
  - # 1
    frequency:   -7.0701829700
  - # 2
    frequency:   -6.4283143892
  - # 3
    frequency:    0.7396846363
  - # 4
    frequency:    1.6082195207
  - # 5
    frequency:    2.6374943141
  - # 6
    frequency:    4.0838094843
  - # 7
    frequency:    4.3279260985
  - # 8
    frequency:    5.0731417660
  - # 9
    frequency:    5.2026091636
  - # 10
    frequency:    5.8713672896
  - # 11
    frequency:    6.3745514302
  - # 12
    frequency:    7.0160155351
  - # 13
    frequency:    7.8476484181
  - # 14
    frequency:   10.8539314011
  - # 15
    frequency:   14.4219273624
  - # 16
    frequency:   14.6642000679
  - # 17
    frequency:   14.7441696807
  - # 18
    frequency:   42.2349282372

- q-position: [    0.1060606,    0.0000000,    0.0000000 ]
  distance:    0.0387013
  band:
  - # 1
    frequency:   -7.0868754062
  - # 2
    frequency:   -6.3924917412
  - # 3
    frequency:    0.7962376524
  - # 4
    frequency:    1.6838841443
  - # 5
    frequency:    2.7515853715
  - # 6
    frequency:    4.0826135732
  - # 7
    frequency:    4.3424634786
  - # 8
    frequency:    5.0598530162
  - # 9
    frequency:    5.2179629300
  - # 10
    frequency:    5.8744483090
  - # 11
    frequency:    6.3840735689
  - # 12
    frequency:    7.0556379601
  - # 13
    frequency:    7.8569433785
  - # 14
    frequency:   10.8294161708
  - # 15
    frequency:   14.4054463240
  - # 16
    frequency:   14.6787595199
  - # 17
    frequency:   14.7469249174
  - # 18
    frequency:   42.2132422672

- q-position: [    0.1111111,    0.0000000,    0.0000000 ]
  distance:    0.0405442
  band:
  - # 1
    frequency:   -7.1031552729
  - # 2
    frequency:   -6.3559012067
  - # 3
    frequency:    0.8526309015
  - # 4
    frequency:    1.7580539492
  - # 5
    frequency:    2.8621674532
  - # 6
    frequency:    4.0835329862
  - # 7
    frequency:    4.3541119785
  - # 8
    frequency:    5.0490913982
  - # 9
    frequency:    5.2350049458
  - # 10
    frequency:    5.8796961286
  - # 11
    frequency:    6.3941769465
  - # 12
    frequency:    7.0947442110
  - # 13
    frequency:    7.8651563281
  - # 14
    frequency:   10.8039043273
  - # 15
    frequency:   14.3879443630
  - # 16
    frequency:   14.6939136316
  - # 17
    frequency:   14.7502001776
  - # 18
    frequency:   42.1906152307

- q-position: [    0.1161616,    0.0000000,    0.0000000 ]
  distance:    0.0423871
  band:
  - # 1
    frequency:   -7.1189224457
  - # 2
    frequency:   -6.3186404762
  - # 3
    frequency:    0.9086378266
  - # 4
    frequency:    1.8305114221
  - # 5
    frequency:    2.9687239148
  - # 6
    frequency:    4.0874448792
  - # 7
    frequency:    4.3624647189
  - # 8
    frequency:    5.0412868803
  - # 9
    frequency:    5.2533013893
  - # 10
    frequency:    5.8871769727
  - # 11
    frequency:    6.4048865977
  - # 12
    frequency:    7.1332908200
  - # 13
    frequency:    7.8722451234
  - # 14
    frequency:   10.7774292806
  - # 15
    frequency:   14.3695452525
  - # 16
    frequency:   14.7096411901
  - # 17
    frequency:   14.7539211878
  - # 18
    frequency:   42.1670650751

- q-position: [    0.1212121,    0.0000000,    0.0000000 ]
  distance:    0.0442300
  band:
  - # 1
    frequency:   -7.1340875183
  - # 2
    frequency:   -6.2808051729
  - # 3
    frequency:    0.9640481923
  - # 4
    frequency:    1.9010297472
  - # 5
    frequency:    3.0706469051
  - # 6
    frequency:    4.0952818475
  - # 7
    frequency:    4.3672332356
  - # 8
    frequency:    5.0367673552
  - # 9
    frequency:    5.2724431124
  - # 10
    frequency:    5.8969410565
  - # 11
    frequency:    6.4162306598
  - # 12
    frequency:    7.1712352729
  - # 13
    frequency:    7.8781888019
  - # 14
    frequency:   10.7500265373
  - # 15
    frequency:   14.3503693067
  - # 16
    frequency:   14.7259188391
  - # 17
    frequency:   14.7580217313
  - # 18
    frequency:   42.1426108027

- q-position: [    0.1262626,    0.0000000,    0.0000000 ]
  distance:    0.0460729
  band:
  - # 1
    frequency:   -7.1485730541
  - # 2
    frequency:   -6.2424888208
  - # 3
    frequency:    1.0186694539
  - # 4
    frequency:    1.9693741769
  - # 5
    frequency:    3.1672422682
  - # 6
    frequency:    4.1080175621
  - # 7
    frequency:    4.3682952405
  - # 8
    frequency:    5.0357120367
  - # 9
    frequency:    5.2920593671
  - # 10
    frequency:    5.9090170059
  - # 11
    frequency:    6.4282402423
  - # 12
    frequency:    7.2085351408
  - # 13
    frequency:    7.8829885429
  - # 14
    frequency:   10.7217336721
  - # 15
    frequency:   14.3305312541
  - # 16
    frequency:   14.7427209661
  - # 17
    frequency:   14.7624453335
  - # 18
    frequency:   42.1172724798

- q-position: [    0.1313131,    0.0000000,    0.0000000 ]
  distance:    0.0479158
  band:
  - # 1
    frequency:   -7.1623146870
  - # 2
    frequency:   -6.2037829274
  - # 3
    frequency:    1.0723281201
  - # 4
    frequency:    2.0353036885
  - # 5
    frequency:    3.2577612656
  - # 6
    frequency:    4.1266295851
  - # 7
    frequency:    4.3657241638
  - # 8
    frequency:    5.0381228698
  - # 9
    frequency:    5.3118274292
  - # 10
    frequency:    5.9234065700
  - # 11
    frequency:    6.4409491080
  - # 12
    frequency:    7.2451471537
  - # 13
    frequency:    7.8866686823
  - # 14
    frequency:   10.6925903023
  - # 15
    frequency:   14.3101391305
  - # 16
    frequency:   14.7600196125
  - # 17
    frequency:   14.7671458541
  - # 18
    frequency:   42.0910712436

- q-position: [    0.1363636,    0.0000000,    0.0000000 ]
  distance:    0.0497588
  band:
  - # 1
    frequency:   -7.1752620519
  - # 2
    frequency:   -6.1647771732
  - # 3
    frequency:    1.1248710650
  - # 4
    frequency:    2.0985730488
  - # 5
    frequency:    3.3414759919
  - # 6
    frequency:    4.1520214960
  - # 7
    frequency:    4.3597899903
  - # 8
    frequency:    5.0438243138
  - # 9
    frequency:    5.3314784769
  - # 10
    frequency:    5.9400803417
  - # 11
    frequency:    6.4543931360
  - # 12
    frequency:    7.2810261614
  - # 13
    frequency:    7.8892777933
  - # 14
    frequency:   10.6626380725
  - # 15
    frequency:   14.2892938124
  - # 16
    frequency:   14.7720873757
  - # 17
    frequency:   14.7777844108
  - # 18
    frequency:   42.0640293044

- q-position: [    0.1414141,    0.0000000,    0.0000000 ]
  distance:    0.0516017
  band:
  - # 1
    frequency:   -7.1873795309
  - # 2
    frequency:   -6.1255596926
  - # 3
    frequency:    1.1761667252
  - # 4
    frequency:    2.1589354434
  - # 5
    frequency:    3.4178075470
  - # 6
    frequency:    4.1848944015
  - # 7
    frequency:    4.3509308841
  - # 8
    frequency:    5.0524918383
  - # 9
    frequency:    5.3507999470
  - # 10
    frequency:    5.9589752068
  - # 11
    frequency:    6.4686095462
  - # 12
    frequency:    7.3161239233
  - # 13
    frequency:    7.8908898519
  - # 14
    frequency:   10.6319206511
  - # 15
    frequency:   14.2680889244
  - # 16
    frequency:   14.7772436707
  - # 17
    frequency:   14.7959825545
  - # 18
    frequency:   42.0361699456

- q-position: [    0.1464646,    0.0000000,    0.0000000 ]
  distance:    0.0534446
  band:
  - # 1
    frequency:   -7.1986468058
  - # 2
    frequency:   -6.0862174320
  - # 3
    frequency:    1.2261061049
  - # 4
    frequency:    2.2161458592
  - # 5
    frequency:    3.4864880273
  - # 6
    frequency:    4.2255861035
  - # 7
    frequency:    4.3397053040
  - # 8
    frequency:    5.0636992207
  - # 9
    frequency:    5.3696345975
  - # 10
    frequency:    5.9799940498
  - # 11
    frequency:    6.4836358744
  - # 12
    frequency:    7.3503876545
  - # 13
    frequency:    7.8916055067
  - # 14
    frequency:   10.6004837441
  - # 15
    frequency:   14.2466109461
  - # 16
    frequency:   14.7825974338
  - # 17
    frequency:   14.8145788046
  - # 18
    frequency:   42.0075175196

- q-position: [    0.1515152,    0.0000000,    0.0000000 ]
  distance:    0.0552875
  band:
  - # 1
    frequency:   -7.2090592072
  - # 2
    frequency:   -6.0468365648
  - # 3
    frequency:    1.2746035028
  - # 4
    frequency:    2.2699654248
  - # 5
    frequency:    3.5476961586
  - # 6
    frequency:    4.2739376221
  - # 7
    frequency:    4.3267386217
  - # 8
    frequency:    5.0769703965
  - # 9
    frequency:    5.3878766754
  - # 10
    frequency:    6.0030078865
  - # 11
    frequency:    6.4995087025
  - # 12
    frequency:    7.3837582559
  - # 13
    frequency:    7.8915534760
  - # 14
    frequency:   10.5683751271
  - # 15
    frequency:   14.2249394176
  - # 16
    frequency:   14.7881393970
  - # 17
    frequency:   14.8335355367
  - # 18
    frequency:   41.9780974397

- q-position: [    0.1565657,    0.0000000,    0.0000000 ]
  distance:    0.0571304
  band:
  - # 1
    frequency:   -7.2186278566
  - # 2
    frequency:   -6.0075029422
  - # 3
    frequency:    1.3215968748
  - # 4
    frequency:    2.3201669005
  - # 5
    frequency:    3.6020896566
  - # 6
    frequency:    4.3126755850
  - # 7
    frequency:    4.3292636544
  - # 8
    frequency:    5.0918242742
  - # 9
    frequency:    5.4054658736
  - # 10
    frequency:    6.0278601645
  - # 11
    frequency:    6.5162621671
  - # 12
    frequency:    7.4161681554
  - # 13
    frequency:    7.8908920867
  - # 14
    frequency:   10.5356446973
  - # 15
    frequency:   14.2031471889
  - # 16
    frequency:   14.7938673948
  - # 17
    frequency:   14.8528128313
  - # 18
    frequency:   41.9479361687

- q-position: [    0.1616162,    0.0000000,    0.0000000 ]
  distance:    0.0589733
  band:
  - # 1
    frequency:   -7.2273796006
  - # 2
    frequency:   -5.9683025586
  - # 3
    frequency:    1.3670477572
  - # 4
    frequency:    2.3665414541
  - # 5
    frequency:    3.6507020087
  - # 6
    frequency:    4.2981439589
  - # 7
    frequency:    4.3904590252
  - # 8
    frequency:    5.1078069785
  - # 9
    frequency:    5.4223800242
  - # 10
    frequency:    6.0543726119
  - # 11
    frequency:    6.5339262920
  - # 12
    frequency:    7.4475387200
  - # 13
    frequency:    7.8898109368
  - # 14
    frequency:   10.5023445439
  - # 15
    frequency:   14.1813006938
  - # 16
    frequency:   14.7997854167
  - # 17
    frequency:   14.8723686085
  - # 18
    frequency:   41.9170612038

- q-position: [    0.1666667,    0.0000000,    0.0000000 ]
  distance:    0.0608163
  band:
  - # 1
    frequency:   -7.2353567358
  - # 2
    frequency:   -5.9293220071
  - # 3
    frequency:    1.4109406920
  - # 4
    frequency:    2.4089067346
  - # 5
    frequency:    3.6947508756
  - # 6
    frequency:    4.2837294287
  - # 7
    frequency:    4.4561937202
  - # 8
    frequency:    5.1245113288
  - # 9
    frequency:    5.4386276106
  - # 10
    frequency:    6.0823518217
  - # 11
    frequency:    6.5525252094
  - # 12
    frequency:    7.4777772921
  - # 13
    frequency:    7.8885325710
  - # 14
    frequency:   10.4685290357
  - # 15
    frequency:   14.1594602413
  - # 16
    frequency:   14.8059026639
  - # 17
    frequency:   14.8921588090
  - # 18
    frequency:   41.8855010570

- q-position: [    0.1717172,    0.0000000,    0.0000000 ]
  distance:    0.0626592
  band:
  - # 1
    frequency:   -7.2426165309
  - # 2
    frequency:   -5.8906489022
  - # 3
    frequency:    1.4532821262
  - # 4
    frequency:    2.4471160648
  - # 5
    frequency:    3.7354456754
  - # 6
    frequency:    4.2699591837
  - # 7
    frequency:    4.5251087150
  - # 8
    frequency:    5.1415862076
  - # 9
    frequency:    5.4542411481
  - # 10
    frequency:    6.1115957827
  - # 11
    frequency:    6.5720753557
  - # 12
    frequency:    7.5067741011
  - # 13
    frequency:    7.8873138571
  - # 14
    frequency:   10.4342549223
  - # 15
    frequency:   14.1376803293
  - # 16
    frequency:   14.8122326196
  - # 17
    frequency:   14.9121376186
  - # 18
    frequency:   41.8532852332

- q-position: [    0.1767677,    0.0000000,    0.0000000 ]
  distance:    0.0645021
  band:
  - # 1
    frequency:   -7.2492305497
  - # 2
    frequency:   -5.8523722494
  - # 3
    frequency:    1.4940987875
  - # 4
    frequency:    2.4810683042
  - # 5
    frequency:    3.7738560719
  - # 6
    frequency:    4.2572912087
  - # 7
    frequency:    4.5959506037
  - # 8
    frequency:    5.1587391109
  - # 9
    frequency:    5.4692723173
  - # 10
    frequency:    6.1418997507
  - # 11
    frequency:    6.5925837416
  - # 12
    frequency:    7.5343997116
  - # 13
    frequency:    7.8864463499
  - # 14