nqpoint: 300    
npath: 3      
segment_nqpoint:
- 100
- 100
- 100
labels:
- [ 'G', 'M' ]
- [ 'M', 'K' ]
- [ 'K', 'G' ]
reciprocal_lattice:
- [   0.29591148,   0.17084457,   0.00000000 ] # a*
- [   0.00000000,   0.34168914,   0.00000000 ] # b*
- [   0.00000000,   0.00000000,   0.03470660 ] # c*
natom: 9      
lattice:
- [     3.379389050497117,     0.000000000000000,     0.000000000000000 ] # a
- [    -1.689694525248558,     2.926636766992825,     0.000000000000000 ] # b
- [     0.000000000000000,     0.000000000000000,    28.812959983242649 ] # c
points:
- symbol: C # 1
  coordinates: [  0.333332985432215,  0.666666983183674,  0.646300806142839 ]
  mass: 12.010700
- symbol: C # 2
  coordinates: [  0.666666984744047,  0.333332985985145,  0.353699194280886 ]
  mass: 12.010700
- symbol: N # 3
  coordinates: [  0.000000000000000,  0.000000000000000,  0.500000028601454 ]
  mass: 14.006700
- symbol: N # 4
  coordinates: [  0.333332985432215,  0.666666983183674,  0.687640561565548 ]
  mass: 14.006700
- symbol: N # 5
  coordinates: [  0.666666984744047,  0.333332985985145,  0.312359438434452 ]
  mass: 14.006700
- symbol: S # 6
  coordinates: [  0.333332985432215,  0.666666983183674,  0.588091985062410 ]
  mass: 32.065000
- symbol: S # 7
  coordinates: [  0.666666984744047,  0.333332985985145,  0.411908015361316 ]
  mass: 32.065000
- symbol: Ti # 8
  coordinates: [  0.333332985432215,  0.666666983183674,  0.465422519626513 ]
  mass: 47.867000
- symbol: Ti # 9
  coordinates: [  0.666666984744047,  0.333332985985145,  0.534577480373479 ]
  mass: 47.867000

phonon:
- q-position: [    0.0000000,    0.0000000,    0.0000000 ]
  distance:    0.0000000
  band:
  - # 1
    frequency:   -0.0000020800
  - # 2
    frequency:    0.0000003862
  - # 3
    frequency:    0.0000022650
  - # 4
    frequency:    0.9350426471
  - # 5
    frequency:    0.9350426471
  - # 6
    frequency:    1.0041026186
  - # 7
    frequency:    1.0041026186
  - # 8
    frequency:    3.9306285302
  - # 9
    frequency:    3.9306285302
  - # 10
    frequency:    5.0704085399
  - # 11
    frequency:    7.6679066107
  - # 12
    frequency:    7.6679066107
  - # 13
    frequency:    8.0908119576
  - # 14
    frequency:    8.6112355155
  - # 15
    frequency:    8.6112355155
  - # 16
    frequency:   10.8094824647
  - # 17
    frequency:   10.8094824647
  - # 18
    frequency:   11.2520187879
  - # 19
    frequency:   11.2520187879
  - # 20
    frequency:   11.2833486850
  - # 21
    frequency:   13.2954793879
  - # 22
    frequency:   15.0389107890
  - # 23
    frequency:   15.0389107890
  - # 24
    frequency:   20.5118149449
  - # 25
    frequency:   20.5456181869
  - # 26
    frequency:   64.7822093838
  - # 27
    frequency:   64.7982700856

- q-position: [    0.0050505,    0.0000000,    0.0000000 ]
  distance:    0.0017257
  band:
  - # 1
    frequency:    0.0252606135
  - # 2
    frequency:    0.0690582013
  - # 3
    frequency:    0.1197777947
  - # 4
    frequency:    0.9353312653
  - # 5
    frequency:    0.9375107411
  - # 6
    frequency:    1.0052562624
  - # 7
    frequency:    1.0082299372
  - # 8
    frequency:    3.9308482367
  - # 9
    frequency:    3.9323997374
  - # 10
    frequency:    5.0699287292
  - # 11
    frequency:    7.6677867758
  - # 12
    frequency:    7.6684439002
  - # 13
    frequency:    8.0905228474
  - # 14
    frequency:    8.6107107642
  - # 15
    frequency:    8.6111319818
  - # 16
    frequency:   10.8092597309
  - # 17
    frequency:   10.8096157528
  - # 18
    frequency:   11.2517224936
  - # 19
    frequency:   11.2518408764
  - # 20
    frequency:   11.2823098742
  - # 21
    frequency:   13.2954298333
  - # 22
    frequency:   15.0382219495
  - # 23
    frequency:   15.0389438067
  - # 24
    frequency:   20.5117421212
  - # 25
    frequency:   20.5455108004
  - # 26
    frequency:   64.7821262578
  - # 27
    frequency:   64.7981683937

- q-position: [    0.0101010,    0.0000000,    0.0000000 ]
  distance:    0.0034514
  band:
  - # 1
    frequency:    0.0511306628
  - # 2
    frequency:    0.1378578322
  - # 3
    frequency:    0.2385982866
  - # 4
    frequency:    0.9362113984
  - # 5
    frequency:    0.9448924971
  - # 6
    frequency:    1.0087146628
  - # 7
    frequency:    1.0206659608
  - # 8
    frequency:    3.9315083918
  - # 9
    frequency:    3.9376996038
  - # 10
    frequency:    5.0684940489
  - # 11
    frequency:    7.6674276965
  - # 12
    frequency:    7.6700497219
  - # 13
    frequency:    8.0896568650
  - # 14
    frequency:    8.6091379468
  - # 15
    frequency:    8.6108214315
  - # 16
    frequency:   10.8085928374
  - # 17
    frequency:   10.8100164153
  - # 18
    frequency:   11.2508353998
  - # 19
    frequency:   11.2513066484
  - # 20
    frequency:   11.2791970779
  - # 21
    frequency:   13.2952759997
  - # 22
    frequency:   15.0361635720
  - # 23
    frequency:   15.0390433867
  - # 24
    frequency:   20.5115238333
  - # 25
    frequency:   20.5451888665
  - # 26
    frequency:   64.7818770264
  - # 27
    frequency:   64.7978635618

- q-position: [    0.0151515,    0.0000000,    0.0000000 ]
  distance:    0.0051771
  band:
  - # 1
    frequency:    0.0781631181
  - # 2
    frequency:    0.2061336709
  - # 3
    frequency:    0.3554034899
  - # 4
    frequency:    0.9377212414
  - # 5
    frequency:    0.9571119188
  - # 6
    frequency:    1.0144756289
  - # 7
    frequency:    1.0416077756
  - # 8
    frequency:    3.9326120893
  - # 9
    frequency:    3.9464871929
  - # 10
    frequency:    5.0661187344
  - # 11
    frequency:    7.6668306534
  - # 12
    frequency:    7.6727060075
  - # 13
    frequency:    8.0882180516
  - # 14
    frequency:    8.6065213646
  - # 15
    frequency:    8.6103040303
  - # 16
    frequency:   10.8074856966
  - # 17
    frequency:   10.8106868218
  - # 18
    frequency:   11.2493628611
  - # 19
    frequency:   11.2504133949
  - # 20
    frequency:   11.2740224339
  - # 21
    frequency:   13.2950024795
  - # 22
    frequency:   15.0327599705
  - # 23
    frequency:   15.0392111018
  - # 24
    frequency:   20.5111606308
  - # 25
    frequency:   20.5446530610
  - # 26
    frequency:   64.7814621287
  - # 27
    frequency:   64.7973563206

- q-position: [    0.0202020,    0.0000000,    0.0000000 ]
  distance:    0.0069028
  band:
  - # 1
    frequency:    0.1068127481
  - # 2
    frequency:    0.2736071166
  - # 3
    frequency:    0.4689367543
  - # 4
    frequency:    0.9399117220
  - # 5
    frequency:    0.9740238899
  - # 6
    frequency:    1.0225506985
  - # 7
    frequency:    1.0714800728
  - # 8
    frequency:    3.9341644424
  - # 9
    frequency:    3.9586953512
  - # 10
    frequency:    5.0628264448
  - # 11
    frequency:    7.6659977985
  - # 12
    frequency:    7.6763828820
  - # 13
    frequency:    8.0862131305
  - # 14
    frequency:    8.6028681590
  - # 15
    frequency:    8.6095801000
  - # 16
    frequency:   10.8059447943
  - # 17
    frequency:   10.8116308379
  - # 18
    frequency:   11.2473137602
  - # 19
    frequency:   11.2491492151
  - # 20
    frequency:   11.2668135628
  - # 21
    frequency:   13.2945839321
  - # 22
    frequency:   15.0280513053
  - # 23
    frequency:   15.0394495469
  - # 24
    frequency:   20.5106534283
  - # 25
    frequency:   20.5439045069
  - # 26
    frequency:   64.7808822947
  - # 27
    frequency:   64.7966478840

- q-position: [    0.0252525,    0.0000000,    0.0000000 ]
  distance:    0.0086285
  band:
  - # 1
    frequency:    0.1374168168
  - # 2
    frequency:    0.3399794787
  - # 3
    frequency:    0.5776748448
  - # 4
    frequency:    0.9428344516
  - # 5
    frequency:    0.9954075505
  - # 6
    frequency:    1.0329805299
  - # 7
    frequency:    1.1110117194
  - # 8
    frequency:    3.9361725185
  - # 9
    frequency:    3.9742322456
  - # 10
    frequency:    5.0586501749
  - # 11
    frequency:    7.6649321804
  - # 12
    frequency:    7.6810390162
  - # 13
    frequency:    8.0836514905
  - # 14
    frequency:    8.5981882710
  - # 15
    frequency:    8.6086501830
  - # 16
    frequency:   10.8039791374
  - # 17
    frequency:   10.8128536971
  - # 18
    frequency:   11.2447004445
  - # 19
    frequency:   11.2474464050
  - # 20
    frequency:   11.2576601922
  - # 21
    frequency:   13.2939855931
  - # 22
    frequency:   15.0220930338
  - # 23
    frequency:   15.0397622986
  - # 24
    frequency:   20.5100035028
  - # 25
    frequency:   20.5429447694
  - # 26
    frequency:   64.7801385432
  - # 27
    frequency:   64.7957399439

- q-position: [    0.0303030,    0.0000000,    0.0000000 ]
  distance:    0.0103542
  band:
  - # 1
    frequency:    0.1701968792
  - # 2
    frequency:    0.4049257730
  - # 3
    frequency:    0.6798747405
  - # 4
    frequency:    0.9465330460
  - # 5
    frequency:    1.0209745520
  - # 6
    frequency:    1.0458473640
  - # 7
    frequency:    1.1611996051
  - # 8
    frequency:    3.9386452482
  - # 9
    frequency:    3.9929833730
  - # 10
    frequency:    5.0536321537
  - # 11
    frequency:    7.6636377789
  - # 12
    frequency:    7.6866221065
  - # 13
    frequency:    8.0805451672
  - # 14
    frequency:    8.5924943847
  - # 15
    frequency:    8.6075151277
  - # 16
    frequency:   10.8016001832
  - # 17
    frequency:   10.8143618178
  - # 18
    frequency:   11.2415386391
  - # 19
    frequency:   11.2441112549
  - # 20
    frequency:   11.2477843869
  - # 21
    frequency:   13.2931639880
  - # 22
    frequency:   15.0149551359
  - # 23
    frequency:   15.0401538612
  - # 24
    frequency:   20.5092124903
  - # 25
    frequency:   20.5417758492
  - # 26
    frequency:   64.7792321784
  - # 27
    frequency:   64.7946346621

- q-position: [    0.0353535,    0.0000000,    0.0000000 ]
  distance:    0.0120799
  band:
  - # 1
    frequency:    0.2052745352
  - # 2
    frequency:    0.4680902477
  - # 3
    frequency:    0.7738779405
  - # 4
    frequency:    0.9510388842
  - # 5
    frequency:    1.0503874949
  - # 6
    frequency:    1.0612820779
  - # 7
    frequency:    1.2230103964
  - # 8
    frequency:    3.9415933069
  - # 9
    frequency:    4.0148139205
  - # 10
    frequency:    5.0478237506
  - # 11
    frequency:    7.6621195464
  - # 12
    frequency:    7.6930694707
  - # 13
    frequency:    8.0769088247
  - # 14
    frequency:    8.5858018553
  - # 15
    frequency:    8.6061761865
  - # 16
    frequency:   10.7988217504
  - # 17
    frequency:   10.8161625583
  - # 18
    frequency:   11.2323809895
  - # 19
    frequency:   11.2378473330
  - # 20
    frequency:   11.2439836635
  - # 21
    frequency:   13.2920678501
  - # 22
    frequency:   15.0067211079
  - # 23
    frequency:   15.0406295972
  - # 24
    frequency:   20.5082823817
  - # 25
    frequency:   20.5404001734
  - # 26
    frequency:   64.7781647854
  - # 27
    frequency:   64.7933346612

- q-position: [    0.0404040,    0.0000000,    0.0000000 ]
  distance:    0.0138056
  band:
  - # 1
    frequency:    0.2426929744
  - # 2
    frequency:    0.5290860171
  - # 3
    frequency:    0.8587132858
  - # 4
    frequency:    0.9563702976
  - # 5
    frequency:    1.0794642996
  - # 6
    frequency:    1.0832814832
  - # 7
    frequency:    1.2967789741
  - # 8
    frequency:    3.9450289694
  - # 9
    frequency:    4.0395713363
  - # 10
    frequency:    5.0412854171
  - # 11
    frequency:    7.6603834561
  - # 12
    frequency:    7.7003087475
  - # 13
    frequency:    8.0727597441
  - # 14
    frequency:    8.5781286234
  - # 15
    frequency:    8.6046351214
  - # 16
    frequency:   10.7956599153
  - # 17
    frequency:   10.8182638974
  - # 18
    frequency:   11.2172607336
  - # 19
    frequency:   11.2336486424
  - # 20
    frequency:   11.2412941230
  - # 21
    frequency:   13.2906392420
  - # 22
    frequency:   14.9974867198
  - # 23
    frequency:   15.0411956447
  - # 24
    frequency:   20.5072155161
  - # 25
    frequency:   20.5388205855
  - # 26
    frequency:   64.7769382250
  - # 27
    frequency:   64.7918430122

- q-position: [    0.0454545,    0.0000000,    0.0000000 ]
  distance:    0.0155313
  band:
  - # 1
    frequency:    0.2824382690
  - # 2
    frequency:    0.5875026459
  - # 3
    frequency:    0.9346448338
  - # 4
    frequency:    0.9625336988
  - # 5
    frequency:    1.1006130988
  - # 6
    frequency:    1.1192839721
  - # 7
    frequency:    1.3816582339
  - # 8
    frequency:    3.9489659363
  - # 9
    frequency:    4.0670879738
  - # 10
    frequency:    5.0340866946
  - # 11
    frequency:    7.6584365535
  - # 12
    frequency:    7.7082586824
  - # 13
    frequency:    8.0681178232
  - # 14
    frequency:    8.5694951152
  - # 15
    frequency:    8.6028943051
  - # 16
    frequency:   10.7921328933
  - # 17
    frequency:   10.8206740213
  - # 18
    frequency:   11.2001134714
  - # 19
    frequency:   11.2289676486
  - # 20
    frequency:   11.2384006615
  - # 21
    frequency:   13.2888148749
  - # 22
    frequency:   14.9873585358
  - # 23
    frequency:   15.0418588234
  - # 24
    frequency:   20.5060145743
  - # 25
    frequency:   20.5370403331
  - # 26
    frequency:   64.7755546279
  - # 27
    frequency:   64.7901632207

- q-position: [    0.0505051,    0.0000000,    0.0000000 ]
  distance:    0.0172570
  band:
  - # 1
    frequency:    0.3244572698
  - # 2
    frequency:    0.6429265930
  - # 3
    frequency:    0.9695255138
  - # 4
    frequency:    1.0031061612
  - # 5
    frequency:    1.1249643713
  - # 6
    frequency:    1.1580306715
  - # 7
    frequency:    1.4756801609
  - # 8
    frequency:    3.9534191328
  - # 9
    frequency:    4.0971836711
  - # 10
    frequency:    5.0263063284
  - # 11
    frequency:    7.6562870097
  - # 12
    frequency:    7.7168299869
  - # 13
    frequency:    8.0630055957
  - # 14
    frequency:    8.5599241304
  - # 15
    frequency:    8.6009568092
  - # 16
    frequency:   10.7882609102
  - # 17
    frequency:   10.8234007767
  - # 18
    frequency:   11.1810600939
  - # 19
    frequency:   11.2238322125
  - # 20
    frequency:   11.2352372106
  - # 21
    frequency:   13.2865276192
  - # 22
    frequency:   14.9764521986
  - # 23
    frequency:   15.0426265284
  - # 24
    frequency:   20.5046825689
  - # 25
    frequency:   20.5350630544
  - # 26
    frequency:   64.7740163876
  - # 27
    frequency:   64.7882992117

- q-position: [    0.0555556,    0.0000000,    0.0000000 ]
  distance:    0.0189827
  band:
  - # 1
    frequency:    0.3686712207
  - # 2
    frequency:    0.6949784031
  - # 3
    frequency:    0.9773342695
  - # 4
    frequency:    1.0660437166
  - # 5
    frequency:    1.1527315878
  - # 6
    frequency:    1.1991768624
  - # 7
    frequency:    1.5764067536
  - # 8
    frequency:    3.9584044780
  - # 9
    frequency:    4.1296681469
  - # 10
    frequency:    5.0180325303
  - # 11
    frequency:    7.6539441742
  - # 12
    frequency:    7.7259262539
  - # 13
    frequency:    8.0574482786
  - # 14
    frequency:    8.5494407187
  - # 15
    frequency:    8.5988264658
  - # 16
    frequency:   10.7840660639
  - # 17
    frequency:   10.8264509177
  - # 18
    frequency:   11.1601661555
  - # 19
    frequency:   11.2182727661
  - # 20
    frequency:   11.2318004631
  - # 21
    frequency:   13.2837081889
  - # 22
    frequency:   14.9648904879
  - # 23
    frequency:   15.0435066156
  - # 24
    frequency:   20.5032228344
  - # 25
    frequency:   20.5328927633
  - # 26
    frequency:   64.7723261527
  - # 27
    frequency:   64.7862553118

- q-position: [    0.0606061,    0.0000000,    0.0000000 ]
  distance:    0.0207084
  band:
  - # 1
    frequency:    0.4149854618
  - # 2
    frequency:    0.7433651162
  - # 3
    frequency:    0.9859425522
  - # 4
    frequency:    1.1252670892
  - # 5
    frequency:    1.1840516492
  - # 6
    frequency:    1.2424043423
  - # 7
    frequency:    1.6815739168
  - # 8
    frequency:    3.9639386260
  - # 9
    frequency:    4.1643431006
  - # 10
    frequency:    5.0093634447
  - # 11
    frequency:    7.6514186235
  - # 12
    frequency:    7.7354449136
  - # 13
    frequency:    8.0514738583
  - # 14
    frequency:    8.5380720475
  - # 15
    frequency:    8.5965078899
  - # 16
    frequency:   10.7795721796
  - # 17
    frequency:   10.8298290039
  - # 18
    frequency:   11.1374931147
  - # 19
    frequency:   11.2123220833
  - # 20
    frequency:   11.2280994590
  - # 21
    frequency:   13.2802869796
  - # 22
    frequency:   14.9528011708
  - # 23
    frequency:   15.0445072780
  - # 24
    frequency:   20.5016390136
  - # 25
    frequency:   20.5305338338
  - # 26
    frequency:   64.7704868183
  - # 27
    frequency:   64.7840362300

- q-position: [    0.0656566,    0.0000000,    0.0000000 ]
  distance:    0.0224341
  band:
  - # 1
    frequency:    0.4632960618
  - # 2
    frequency:    0.7879362311
  - # 3
    frequency:    0.9953287595
  - # 4
    frequency:    1.1821598429
  - # 5
    frequency:    1.2189275337
  - # 6
    frequency:    1.2874246714
  - # 7
    frequency:    1.7893752857
  - # 8
    frequency:    3.9700386772
  - # 9
    frequency:    4.2010039183
  - # 10
    frequency:    5.0004078848
  - # 11
    frequency:    7.6487222043
  - # 12
    frequency:    7.7452782125
  - # 13
    frequency:    8.0451132301
  - # 14
    frequency:    8.5258472607
  - # 15
    frequency:    8.5940064490
  - # 16
    frequency:   10.7748046599
  - # 17
    frequency:   10.8335356594
  - # 18
    frequency:   11.1131072960
  - # 19
    frequency:   11.2060150297
  - # 20
    frequency:   11.2241480889
  - # 21
    frequency:   13.2761960255
  - # 22
    frequency:   14.9403146747
  - # 23
    frequency:   15.0456369164
  - # 24
    frequency:   20.4999350430
  - # 25
    frequency:   20.5279909826
  - # 26
    frequency:   64.7685015170
  - # 27
    frequency:   64.7816470374

- q-position: [    0.0707071,    0.0000000,    0.0000000 ]
  distance:    0.0241598
  band:
  - # 1
    frequency:    0.5134942479
  - # 2
    frequency:    0.8287221423
  - # 3
    frequency:    1.0054686621
  - # 4
    frequency:    1.2376715862
  - # 5
    frequency:    1.2571887527
  - # 6
    frequency:    1.3339796285
  - # 7
    frequency:    1.8984655232
  - # 8
    frequency:    3.9767218615
  - # 9
    frequency:    4.2394408889
  - # 10
    frequency:    4.9912864223
  - # 11
    frequency:    7.6458680659
  - # 12
    frequency:    7.7553141951
  - # 13
    frequency:    8.0384004086
  - # 14
    frequency:    8.5127973325
  - # 15
    frequency:    8.5913281641
  - # 16
    frequency:   10.7697903331
  - # 17
    frequency:   10.8375645542
  - # 18
    frequency:   11.0870844129
  - # 19
    frequency:   11.1993882954
  - # 20
    frequency:   11.2199633172
  - # 21
    frequency:   13.2713710313
  - # 22
    frequency:   14.9275616253
  - # 23
    frequency:   15.0469040041
  - # 24
    frequency:   20.4981151361
  - # 25
    frequency:   20.5252692521
  - # 26
    frequency:   64.7663736092
  - # 27
    frequency:   64.7790931444

- q-position: [    0.0757576,    0.0000000,    0.0000000 ]
  distance:    0.0258855
  band:
  - # 1
    frequency:    0.5654693403
  - # 2
    frequency:    0.8659353345
  - # 3
    frequency:    1.0163368388
  - # 4
    frequency:    1.2924146218
  - # 5
    frequency:    1.2984892347
  - # 6
    frequency:    1.3818398164
  - # 7
    frequency:    2.0078596610
  - # 8
    frequency:    3.9840051930
  - # 9
    frequency:    4.2794398193
  - # 10
    frequency:    4.9821329475
  - # 11
    frequency:    7.6428706815
  - # 12
    frequency:    7.7654376644
  - # 13
    frequency:    8.0313728333
  - # 14
    frequency:    8.4989549167
  - # 15
    frequency:    8.5884795303
  - # 16
    frequency:   10.7645572996
  - # 17
    frequency:   10.8418965923
  - # 18
    frequency:   11.0595155723
  - # 19
    frequency:   11.1924801124
  - # 20
    frequency:   11.2155647198
  - # 21
    frequency:   13.2657534237
  - # 22
    frequency:   14.9146703078
  - # 23
    frequency:   15.0483169488
  - # 24
    frequency:   20.4961837631
  - # 25
    frequency:   20.5223739919
  - # 26
    frequency:   64.7641066719
  - # 27
    frequency:   64.7763802783

- q-position: [    0.0808081,    0.0000000,    0.0000000 ]
  distance:    0.0276112
  band:
  - # 1
    frequency:    0.6191107050
  - # 2
    frequency:    0.8999306863
  - # 3
    frequency:    1.0279080596
  - # 4
    frequency:    1.3423461819
  - # 5
    frequency:    1.3467669117
  - # 6
    frequency:    1.4308022324
  - # 7
    frequency:    2.1168265412
  - # 8
    frequency:    3.9919050985
  - # 9
    frequency:    4.3207819088
  - # 10
    frequency:    4.9730968593
  - # 11
    frequency:    7.6397458536
  - # 12
    frequency:    7.7755310845
  - # 13
    frequency:    8.0240718022
  - # 14
    frequency:    8.4843541944
  - # 15
    frequency:    8.5854672436
  - # 16
    frequency:   10.7591347784
  - # 17
    frequency:   10.8464872957
  - # 18
    frequency:   11.0305196679
  - # 19
    frequency:   11.1853299587
  - # 20
    frequency:   11.2109744432
  - # 21
    frequency:   13.2592923531
  - # 22
    frequency:   14.9017641220
  - # 23
    frequency:   15.0498839518
  - # 24
    frequency:   20.4941456293
  - # 25
    frequency:   20.5193108415
  - # 26
    frequency:   64.7617044885
  - # 27
    frequency:   64.7735144580

- q-position: [    0.0858586,    0.0000000,    0.0000000 ]
  distance:    0.0293369
  band:
  - # 1
    frequency:    0.6743090677
  - # 2
    frequency:    0.9311411119
  - # 3
    frequency:    1.0401586980
  - # 4
    frequency:    1.3882035731
  - # 5
    frequency:    1.4009515599
  - # 6
    frequency:    1.4806874138
  - # 7
    frequency:    2.2248059431
  - # 8
    frequency:    4.0004370201
  - # 9
    frequency:    4.3632426709
  - # 10
    frequency:    4.9643461211
  - # 11
    frequency:    7.6365107013
  - # 12
    frequency:    7.7854753809
  - # 13
    frequency:    8.0165430771
  - # 14
    frequency:    8.4690307223
  - # 15
    frequency:    8.5822978248
  - # 16
    frequency:   10.7535529547
  - # 17
    frequency:   10.8512352002
  - # 18
    frequency:   11.0002745870
  - # 19
    frequency:   11.1779782550
  - # 20
    frequency:   11.2062173411
  - # 21
    frequency:   13.2519465705
  - # 22
    frequency:   14.8889591138
  - # 23
    frequency:   15.0516128668
  - # 24
    frequency:   20.4920056505
  - # 25
    frequency:   20.5160857118
  - # 26
    frequency:   64.7591710369
  - # 27
    frequency:   64.7705019687

- q-position: [    0.0909091,    0.0000000,    0.0000000 ]
  distance:    0.0310626
  band:
  - # 1
    frequency:    0.7309574081
  - # 2
    frequency:    0.9600127286
  - # 3
    frequency:    1.0530682450
  - # 4
    frequency:    1.4354960343
  - # 5
    frequency:    1.4550915948
  - # 6
    frequency:    1.5313365548
  - # 7
    frequency:    2.3313504732
  - # 8
    frequency:    4.0096149966
  - # 9
    frequency:    4.4065895716
  - # 10
    frequency:    4.9560715396
  - # 11
    frequency:    7.6331836271
  - # 12
    frequency:    7.7951505706
  - # 13
    frequency:    8.0088377190
  - # 14
    frequency:    8.4530212841
  - # 15
    frequency:    8.5789771362
  - # 16
    frequency:   10.7478428288
  - # 17
    frequency:   10.8558868234
  - # 18
    frequency:   10.9691117469
  - # 19
    frequency:   11.1704660543
  - # 20
    frequency:   11.2013212104
  - # 21
    frequency:   13.2436860961
  - # 22
    frequency:   14.8763616736
  - # 23
    frequency:   15.0535110598
  - # 24
    frequency:   20.4897689247
  - # 25
    frequency:   20.5127047692
  - # 26
    frequency:   64.7565104774
  - # 27
    frequency:   64.7673493357

- q-position: [    0.0959596,    0.0000000,    0.0000000 ]
  distance:    0.0327884
  band:
  - # 1
    frequency:    0.7889515695
  - # 2
    frequency:    0.9869566421
  - # 3
    frequency:    1.0666209664
  - # 4
    frequency:    1.4836959374
  - # 5
    frequency:    1.5092460548
  - # 6
    frequency:    1.5826088144
  - # 7
    frequency:    2.4360861399
  - # 8
    frequency:    4.0194512260
  - # 9
    frequency:    4.4505778482
  - # 10
    frequency:    4.9484928164
  - # 11
    frequency:    7.6297842605
  - # 12
    frequency:    7.8044361360
  - # 13
    frequency:    8.0010132285
  - # 14
    frequency:    8.4363637462
  - # 15
    frequency:    8.5755097925
  - # 16
    frequency:   10.7420360655
  - # 17
    frequency:   10.8596723098
  - # 18
    frequency:   10.9378798764
  - # 19
    frequency:   11.1628347318
  - # 20
    frequency:   11.1963171005
  - # 21
    frequency:   13.2344935995
  - # 22
    frequency:   14.8640664932
  - # 23
    frequency:   15.0555852702
  - # 24
    frequency:   20.4874407013
  - # 25
    frequency:   20.5091744197
  - # 26
    frequency:   64.7537271407
  - # 27
    frequency:   64.7640632973

- q-position: [    0.1010101,    0.0000000,    0.0000000 ]
  distance:    0.0345141
  band:
  - # 1
    frequency:    0.8481906676
  - # 2
    frequency:    1.0123219837
  - # 3
    frequency:    1.0808076514
  - # 4
    frequency:    1.5323391345
  - # 5
    frequency:    1.5634333693
  - # 6
    frequency:    1.6343789161
  - # 7
    frequency:    2.5386856270
  - # 8
    frequency:    4.0299556142
  - # 9
    frequency:    4.4949436418
  - # 10
    frequency:    4.9418672363
  - # 11
    frequency:    7.6263333775
  - # 12
    frequency:    7.8132110347
  - # 13
    frequency:    7.9931350773
  - # 14
    frequency:    8.4190969212
  - # 15
    frequency:    8.5718984762
  - # 16
    frequency:   10.7361648448
  - # 17
    frequency:   10.8595057003
  - # 18
    frequency:   10.9097440964
  - # 19
    frequency:   11.1551256769
  - # 20
    frequency:   11.1912396915
  - # 21
    frequency:   13.2243654160
  - # 22
    frequency:   14.8521548674
  - # 23
    frequency:   15.0578414761
  - # 24
    frequency:   20.4850263457
  - # 25
    frequency:   20.5055012968
  - # 26
    frequency:   64.7508255150
  - # 27
    frequency:   64.7606507774

- q-position: [    0.1060606,    0.0000000,    0.0000000 ]
  distance:    0.0362398
  band:
  - # 1
    frequency:    0.9085773490
  - # 2
    frequency:    1.0363864478
  - # 3
    frequency:    1.0956271696
  - # 4
    frequency:    1.5810333599
  - # 5
    frequency:    1.6176464505
  - # 6
    frequency:    1.6865350640
  - # 7
    frequency:    2.6388499057
  - # 8
    frequency:    4.0411353156
  - # 9
    frequency:    4.5393930697
  - # 10
    frequency:    4.9365023271
  - # 11
    frequency:    7.6228527934
  - # 12
    frequency:    7.8213532372
  - # 13
    frequency:    7.9852787090
  - # 14
    frequency:    8.4012604402
  - # 15
    frequency:    8.5681431772
  - # 16
    frequency:   10.7302617127
  - # 17
    frequency:   10.8453229726
  - # 18
    frequency:   10.8948471411
  - # 19
    frequency:   11.1473799924
  - # 20
    frequency:   11.1861277464
  - # 21
    frequency:   13.2133121427
  - # 22
    frequency:   14.8406934131
  - # 23
    frequency:   15.0602847634
  - # 24
    frequency:   20.4825312984
  - # 25
    frequency:   20.5016922535
  - # 26
    frequency:   64.7478102330
  - # 27
    frequency:   64.7571188575

- q-position: [    0.1111111,    0.0000000,    0.0000000 ]
  distance:    0.0379655
  band:
  - # 1
    frequency:    0.9700179326
  - # 2
    frequency:    1.0593584311
  - # 3
    frequency:    1.1110870926
  - # 4
    frequency:    1.6294559370
  - # 5
    frequency:    1.6718624492
  - # 6
    frequency:    1.7389771624
  - # 7
    frequency:    2.7362953549
  - # 8
    frequency:    4.0529942734
  - # 9
    frequency:    4.5835852105
  - # 10
    frequency:    4.9327744309
  - # 11
    frequency:    7.6193652289
  - # 12
    frequency:    7.8287387423
  - # 13
    frequency:    7.9775320182
  - # 14
    frequency:    8.3828946354
  - # 15
    frequency:    8.5642403882
  - # 16
    frequency:   10.7243594307
  - # 17
    frequency:   10.8155225300
  - # 18
    frequency:   10.8948680197
  - # 19
    frequency:   11.1396382063
  - # 20
    frequency:   11.1810246521
  - # 21
    frequency:   13.2013587729
  - # 22
    frequency:   14.8297332593
  - # 23
    frequency:   15.0629192004
  - # 24
    frequency:   20.4799610262
  - # 25
    frequency:   20.4977543611
  - # 26
    frequency:   64.7446860593
  - # 27
    frequency:   64.7534747488

- q-position: [    0.1161616,    0.0000000,    0.0000000 ]
  distance:    0.0396912
  band:
  - # 1
    frequency:    1.0324224565
  - # 2
    frequency:    1.0813866293
  - # 3
    frequency:    1.1272019016
  - # 4
    frequency:    1.6773464111
  - # 5
    frequency:    1.7260490795
  - # 6
    frequency:    1.7916153072
  - # 7
    frequency:    2.8307446726
  - # 8
    frequency:    4.0655327667
  - # 9
    frequency:    4.6271065553
  - # 10
    frequency:    4.9311554720
  - # 11
    frequency:    7.6158941498
  - # 12
    frequency:    7.8352402222
  - # 13
    frequency:    7.9699981056
  - # 14
    frequency:    8.3640404355
  - # 15
    frequency:    8.5601822965
  - # 16
    frequency:   10.7184908236
  - # 17
    frequency:   10.7799467635
  - # 18
    frequency:   10.9000394680
  - # 19
    frequency:   11.1319399983
  - # 20
    frequency:   11.1759790700
  - # 21
    frequency:   13.1885443611
  - # 22
    frequency:   14.8193097352
  - # 23
    frequency:   15.0657477192
  - # 24
    frequency:   20.4773209613
  - # 25
    frequency:   20.4936949210
  - # 26
    frequency:   64.7414578764
  - # 27
    frequency:   64.7497257641

- q-position: [    0.1212121,    0.0000000,    0.0000000 ]
  distance:    0.0414169
  band:
  - # 1
    frequency:    1.0957046482
  - # 2
    frequency:    1.1025755462
  - # 3
    frequency:    1.1439867330
  - # 4
    frequency:    1.7244976947
  - # 5
    frequency:    1.7801687282
  - # 6
    frequency:    1.8443685137
  - # 7
    frequency:    2.9219206454
  - # 8
    frequency:    4.0787469750
  - # 9
    frequency:    4.6694360733
  - # 10
    frequency:    4.9322485209