nqpoint: 300    
npath: 3      
segment_nqpoint:
- 100
- 100
- 100
labels:
- [ 'G', 'M' ]
- [ 'M', 'K' ]
- [ 'K', 'G' ]
reciprocal_lattice:
- [   0.30630615,   0.17684594,   0.00000000 ] # a*
- [   0.00000000,   0.35369188,   0.00000000 ] # b*
- [   0.00000000,   0.00000000,   0.03780615 ] # c*
natom: 8      
lattice:
- [     3.264707533378103,     0.000000000000000,     0.000000000000000 ] # a
- [    -1.632353766689051,     2.827319659808188,     0.000000000000000 ] # b
- [     0.000000000000000,     0.000000000000000,    26.450720906535690 ] # c
points:
- symbol: C # 1
  coordinates: [  0.333332985432215,  0.666666983183674,  0.614205540973040 ]
  mass: 12.010700
- symbol: H # 2
  coordinates: [  0.666666984744047,  0.333332985985145,  0.340255376471656 ]
  mass: 1.007940
- symbol: N # 3
  coordinates: [  0.000000000000000,  0.000000000000000,  0.469727663653300 ]
  mass: 14.006700
- symbol: N # 4
  coordinates: [  0.333332985432215,  0.666666983183674,  0.567151452143010 ]
  mass: 14.006700
- symbol: O # 5
  coordinates: [  0.333332985432215,  0.666666983183674,  0.659744623528344 ]
  mass: 15.999400
- symbol: O # 6
  coordinates: [  0.666666984744047,  0.333332985985145,  0.377524759847694 ]
  mass: 15.999400
- symbol: Sc # 7
  coordinates: [  0.333332985432215,  0.666666983183674,  0.423649401405969 ]
  mass: 44.955912
- symbol: Sc # 8
  coordinates: [  0.666666984744047,  0.333332985985145,  0.515989209561060 ]
  mass: 44.955912

phonon:
- q-position: [    0.0000000,    0.0000000,    0.0000000 ]
  distance:    0.0000000
  band:
  - # 1
    frequency:   -1.2043825461
  - # 2
    frequency:   -1.2043825461
  - # 3
    frequency:   -0.0000050995
  - # 4
    frequency:   -0.0000012589
  - # 5
    frequency:    0.0000051785
  - # 6
    frequency:    4.7053587401
  - # 7
    frequency:    4.7053587401
  - # 8
    frequency:    6.5042800888
  - # 9
    frequency:    7.1696151799
  - # 10
    frequency:    7.1696151799
  - # 11
    frequency:    8.4152010774
  - # 12
    frequency:    8.4152010774
  - # 13
    frequency:   10.8947155126
  - # 14
    frequency:   12.4146925839
  - # 15
    frequency:   12.4146925839
  - # 16
    frequency:   13.2170022676
  - # 17
    frequency:   13.9951527858
  - # 18
    frequency:   13.9951527858
  - # 19
    frequency:   14.9402834521
  - # 20
    frequency:   17.3796714423
  - # 21
    frequency:   17.3796714423
  - # 22
    frequency:   38.6785003860
  - # 23
    frequency:   69.5916350082
  - # 24
    frequency:  112.1795034625

- q-position: [    0.0050505,    0.0000000,    0.0000000 ]
  distance:    0.0017863
  band:
  - # 1
    frequency:   -1.2033876075
  - # 2
    frequency:   -1.2009803106
  - # 3
    frequency:   -0.2156804907
  - # 4
    frequency:    0.0889954767
  - # 5
    frequency:    0.2623707712
  - # 6
    frequency:    4.7057379262
  - # 7
    frequency:    4.7077320755
  - # 8
    frequency:    6.5036108447
  - # 9
    frequency:    7.1708513527
  - # 10
    frequency:    7.1716461785
  - # 11
    frequency:    8.4153687050
  - # 12
    frequency:    8.4155467709
  - # 13
    frequency:   10.8928079617
  - # 14
    frequency:   12.4132719839
  - # 15
    frequency:   12.4152752583
  - # 16
    frequency:   13.2155986900
  - # 17
    frequency:   13.9948640994
  - # 18
    frequency:   13.9953309017
  - # 19
    frequency:   14.9384501453
  - # 20
    frequency:   17.3797542292
  - # 21
    frequency:   17.3800165826
  - # 22
    frequency:   38.6784351068
  - # 23
    frequency:   69.5900636640
  - # 24
    frequency:  112.1775970463

- q-position: [    0.0101010,    0.0000000,    0.0000000 ]
  distance:    0.0035726
  band:
  - # 1
    frequency:   -1.2004306059
  - # 2
    frequency:   -1.1910050712
  - # 3
    frequency:   -0.2834338723
  - # 4
    frequency:    0.1781496225
  - # 5
    frequency:    0.4126782470
  - # 6
    frequency:    4.7068759593
  - # 7
    frequency:    4.7148207292
  - # 8
    frequency:    6.5016158464
  - # 9
    frequency:    7.1745504542
  - # 10
    frequency:    7.1777143659
  - # 11
    frequency:    8.4158666217
  - # 12
    frequency:    8.4165814304
  - # 13
    frequency:   10.8870936632
  - # 14
    frequency:   12.4090214748
  - # 15
    frequency:   12.4170249848
  - # 16
    frequency:   13.2113931120
  - # 17
    frequency:   13.9939804295
  - # 18
    frequency:   13.9958605470
  - # 19
    frequency:   14.9329740328
  - # 20
    frequency:   17.3800019992
  - # 21
    frequency:   17.3810503442
  - # 22
    frequency:   38.6782398499
  - # 23
    frequency:   69.5853542946
  - # 24
    frequency:  112.1718890409

- q-position: [    0.0151515,    0.0000000,    0.0000000 ]
  distance:    0.0053590
  band:
  - # 1
    frequency:   -1.1955918590
  - # 2
    frequency:   -1.1750814586
  - # 3
    frequency:   -0.3292463706
  - # 4
    frequency:    0.2676038000
  - # 5
    frequency:    0.5596380043
  - # 6
    frequency:    4.7087742841
  - # 7
    frequency:    4.7265316862
  - # 8
    frequency:    6.4983323147
  - # 9
    frequency:    7.1806843303
  - # 10
    frequency:    7.1877464822
  - # 11
    frequency:    8.4166800606
  - # 12
    frequency:    8.4182978582
  - # 13
    frequency:   10.8775976200
  - # 14
    frequency:   12.4019747835
  - # 15
    frequency:   12.4199467893
  - # 16
    frequency:   13.2044011266
  - # 17
    frequency:   13.9924493263
  - # 18
    frequency:   13.9967276758
  - # 19
    frequency:   14.9239262137
  - # 20
    frequency:   17.3804129883
  - # 21
    frequency:   17.3827677759
  - # 22
    frequency:   38.6779163511
  - # 23
    frequency:   69.5775208670
  - # 24
    frequency:  112.1624131057

- q-position: [    0.0202020,    0.0000000,    0.0000000 ]
  distance:    0.0071453
  band:
  - # 1
    frequency:   -1.1889952595
  - # 2
    frequency:   -1.1540457669
  - # 3
    frequency:   -0.3669238029
  - # 4
    frequency:    0.3574670731
  - # 5
    frequency:    0.7098451164
  - # 6
    frequency:    4.7114353736
  - # 7
    frequency:    4.7427132943
  - # 8
    frequency:    6.4938192633
  - # 9
    frequency:    7.1892063780
  - # 10
    frequency:    7.2016240561
  - # 11
    frequency:    8.4177848512
  - # 12
    frequency:    8.4206842749
  - # 13
    frequency:   10.8643613146
  - # 14
    frequency:   12.3921876489
  - # 15
    frequency:   12.4240487735
  - # 16
    frequency:   13.1946491305
  - # 17
    frequency:   13.9901846717
  - # 18
    frequency:   13.9979090812
  - # 19
    frequency:   14.9114240819
  - # 20
    frequency:   17.3809842859
  - # 21
    frequency:   17.3851607151
  - # 22
    frequency:   38.6774674840
  - # 23
    frequency:   69.5665865840
  - # 24
    frequency:  112.1492251024

- q-position: [    0.0252525,    0.0000000,    0.0000000 ]
  distance:    0.0089316
  band:
  - # 1
    frequency:   -1.1807948632
  - # 2
    frequency:   -1.1287278684
  - # 3
    frequency:   -0.4007809644
  - # 4
    frequency:    0.4478055198
  - # 5
    frequency:    0.8639384094
  - # 6
    frequency:    4.7148628178
  - # 7
    frequency:    4.7631599833
  - # 8
    frequency:    6.4881537366
  - # 9
    frequency:    7.2000520247
  - # 10
    frequency:    7.2191880591
  - # 11
    frequency:    8.4191480879
  - # 12
    frequency:    8.4237246318
  - # 13
    frequency:   10.8474424445
  - # 14
    frequency:   12.3797371506
  - # 15
    frequency:   12.4293417097
  - # 16
    frequency:   13.1821748681
  - # 17
    frequency:   13.9870687079
  - # 18
    frequency:   13.9993726990
  - # 19
    frequency:   14.8956295818
  - # 20
    frequency:   17.3817118780
  - # 21
    frequency:   17.3882179161
  - # 22
    frequency:   38.6768972293
  - # 23
    frequency:   69.5525837719
  - # 24
    frequency:  112.1324027424

- q-position: [    0.0303030,    0.0000000,    0.0000000 ]
  distance:    0.0107179
  band:
  - # 1
    frequency:   -1.1711590379
  - # 2
    frequency:   -1.0997856477
  - # 3
    frequency:   -0.4318710049
  - # 4
    frequency:    0.5386371708
  - # 5
    frequency:    1.0211692169
  - # 6
    frequency:    4.7190614325
  - # 7
    frequency:    4.7876182448
  - # 8
    frequency:    6.4814267851
  - # 9
    frequency:    7.2131393953
  - # 10
    frequency:    7.2402441394
  - # 11
    frequency:    8.4207290792
  - # 12
    frequency:    8.4273990293
  - # 13
    frequency:   10.8269145881
  - # 14
    frequency:   12.3647208367
  - # 15
    frequency:   12.4358384889
  - # 16
    frequency:   13.1670280793
  - # 17
    frequency:   13.9829550343
  - # 18
    frequency:   14.0010780288
  - # 19
    frequency:   14.8767465959
  - # 20
    frequency:   17.3825907074
  - # 21
    frequency:   17.3919252193
  - # 22
    frequency:   38.6762106349
  - # 23
    frequency:   69.5355537235
  - # 24
    frequency:  112.1120450949

- q-position: [    0.0353535,    0.0000000,    0.0000000 ]
  distance:    0.0125043
  band:
  - # 1
    frequency:   -1.1602546058
  - # 2
    frequency:   -1.0676457206
  - # 3
    frequency:   -0.4599077271
  - # 4
    frequency:    0.6299329041
  - # 5
    frequency:    1.1804898375
  - # 6
    frequency:    4.7240373708
  - # 7
    frequency:    4.8157933624
  - # 8
    frequency:    6.4737398940
  - # 9
    frequency:    7.2283701620
  - # 10
    frequency:    7.2645676817
  - # 11
    frequency:    8.4224805976
  - # 12
    frequency:    8.4316842183
  - # 13
    frequency:   10.8028668328
  - # 14
    frequency:   12.3472557000
  - # 15
    frequency:   12.4435534364
  - # 16
    frequency:   13.1492711729
  - # 17
    frequency:   13.9776727066
  - # 18
    frequency:   14.0029766703
  - # 19
    frequency:   14.8550172949
  - # 20
    frequency:   17.3836147484
  - # 21
    frequency:   17.3962657524
  - # 22
    frequency:   38.6754137636
  - # 23
    frequency:   69.5155464976
  - # 24
    frequency:  112.0882719600

- q-position: [    0.0404040,    0.0000000,    0.0000000 ]
  distance:    0.0142906
  band:
  - # 1
    frequency:   -1.1482332734
  - # 2
    frequency:   -1.0325482022
  - # 3
    frequency:   -0.4839719665
  - # 4
    frequency:    0.7216225149
  - # 5
    frequency:    1.3408914561
  - # 6
    frequency:    4.7297982227
  - # 7
    frequency:    4.8473563720
  - # 8
    frequency:    6.4652023280
  - # 9
    frequency:    7.2456305694
  - # 10
    frequency:    7.2919081815
  - # 11
    frequency:    8.4243504559
  - # 12
    frequency:    8.4365541634
  - # 13
    frequency:   10.7754033950
  - # 14
    frequency:   12.3274770462
  - # 15
    frequency:   12.4525015121
  - # 16
    frequency:   13.1289798681
  - # 17
    frequency:   13.9710315884
  - # 18
    frequency:   14.0050129696
  - # 19
    frequency:   14.8307172481
  - # 20
    frequency:   17.3847770970
  - # 21
    frequency:   17.4012201552
  - # 22
    frequency:   38.6745136315
  - # 23
    frequency:   69.4926206774
  - # 24
    frequency:  112.0612231116

- q-position: [    0.0454545,    0.0000000,    0.0000000 ]
  distance:    0.0160769
  band:
  - # 1
    frequency:   -1.1352219572
  - # 2
    frequency:   -0.9946642897
  - # 3
    frequency:   -0.5027182587
  - # 4
    frequency:    0.8136042896
  - # 5
    frequency:    1.5015104830
  - # 6
    frequency:    4.7363530838
  - # 7
    frequency:    4.8819507759
  - # 8
    frequency:    6.4559295781
  - # 9
    frequency:    7.2647926244
  - # 10
    frequency:    7.3219926852
  - # 11
    frequency:    8.4262834513
  - # 12
    frequency:    8.4419806388
  - # 13
    frequency:   10.7446432597
  - # 14
    frequency:   12.3055372791
  - # 15
    frequency:   12.4626974195
  - # 16
    frequency:   13.1062437801
  - # 17
    frequency:   13.9628290914
  - # 18
    frequency:   14.0071247706
  - # 19
    frequency:   14.8041490844
  - # 20
    frequency:   17.3860700731
  - # 21
    frequency:   17.4067668179
  - # 22
    frequency:   38.6735181377
  - # 23
    frequency:   69.4668430871
  - # 24
    frequency:  112.0310574132

- q-position: [    0.0505051,    0.0000000,    0.0000000 ]
  distance:    0.0178632
  band:
  - # 1
    frequency:   -1.1213175991
  - # 2
    frequency:   -0.9542658553
  - # 3
    frequency:   -0.5143118866
  - # 4
    frequency:    0.9057560169
  - # 5
    frequency:    1.6616448508
  - # 6
    frequency:    4.7437125748
  - # 7
    frequency:    4.9191986248
  - # 8
    frequency:    6.4460428753
  - # 9
    frequency:    7.2857154377
  - # 10
    frequency:    7.3545282618
  - # 11
    frequency:    8.4282237328
  - # 12
    frequency:    8.4479338301
  - # 13
    frequency:   10.7107198622
  - # 14
    frequency:   12.2816046058
  - # 15
    frequency:   12.4741546443
  - # 16
    frequency:   13.0811669566
  - # 17
    frequency:   13.9528583902
  - # 18
    frequency:   14.0092442655
  - # 19
    frequency:   14.7756345303
  - # 20
    frequency:   17.3874853341
  - # 21
    frequency:   17.4128821274
  - # 22
    frequency:   38.6724359846
  - # 23
    frequency:   69.4382884695
  - # 24
    frequency:  111.9979518140

- q-position: [    0.0555556,    0.0000000,    0.0000000 ]
  distance:    0.0196495
  band:
  - # 1
    frequency:   -1.1065860775
  - # 2
    frequency:   -0.9119459739
  - # 3
    frequency:   -0.5161528399
  - # 4
    frequency:    0.9979455519
  - # 5
    frequency:    1.8207345352
  - # 6
    frequency:    4.7518887980
  - # 7
    frequency:    4.9587056911
  - # 8
    frequency:    6.4356696165
  - # 9
    frequency:    7.3082466965
  - # 10
    frequency:    7.3892035707
  - # 11
    frequency:    8.4301176665
  - # 12
    frequency:    8.4543829134
  - # 13
    frequency:   10.6737808205
  - # 14
    frequency:   12.2558616384
  - # 15
    frequency:   12.4868844514
  - # 16
    frequency:   13.0538684045
  - # 17
    frequency:   13.9409180871
  - # 18
    frequency:   14.0112989353
  - # 19
    frequency:   14.7455047659
  - # 20
    frequency:   17.3890139980
  - # 21
    frequency:   17.4195407142
  - # 22
    frequency:   38.6712765924
  - # 23
    frequency:   69.4070391267
  - # 24
    frequency:  111.9621002307

- q-position: [    0.0606061,    0.0000000,    0.0000000 ]
  distance:    0.0214359
  band:
  - # 1
    frequency:   -1.0910641646
  - # 2
    frequency:   -0.8688551185
  - # 3
    frequency:   -0.5043872936
  - # 4
    frequency:    1.0900396404
  - # 5
    frequency:    1.9783318553
  - # 6
    frequency:    4.7608952159
  - # 7
    frequency:    5.0000655688
  - # 8
    frequency:    6.4249445039
  - # 9
    frequency:    7.3322242502
  - # 10
    frequency:    7.4256896203
  - # 11
    frequency:    8.4319172921
  - # 12
    frequency:    8.4612965838
  - # 13
    frequency:   10.6339877193
  - # 14
    frequency:   12.2285038373
  - # 15
    frequency:   12.5008948664
  - # 16
    frequency:   13.0244826631
  - # 17
    frequency:   13.9268231065
  - # 18
    frequency:   14.0132125731
  - # 19
    frequency:   14.7140892498
  - # 20
    frequency:   17.3906467743
  - # 21
    frequency:   17.4267156977
  - # 22
    frequency:   38.6700500064
  - # 23
    frequency:   69.3731845247
  - # 24
    frequency:  111.9237123234

- q-position: [    0.0656566,    0.0000000,    0.0000000 ]
  distance:    0.0232222
  band:
  - # 1
    frequency:   -1.0747632533
  - # 2
    frequency:   -0.8267274700
  - # 3
    frequency:   -0.4732428509
  - # 4
    frequency:    1.1819104203
  - # 5
    frequency:    2.1340730289
  - # 6
    frequency:    4.7707464454
  - # 7
    frequency:    5.0428626486
  - # 8
    frequency:    6.4140112114
  - # 9
    frequency:    7.3574777823
  - # 10
    frequency:    7.4636397731
  - # 11
    frequency:    8.4335844818
  - # 12
    frequency:    8.4686435108
  - # 13
    frequency:   10.5915159313
  - # 14
    frequency:   12.1997377193
  - # 15
    frequency:   12.5161896704
  - # 16
    frequency:   12.9931604807
  - # 17
    frequency:   13.9104163158
  - # 18
    frequency:   14.0149063795
  - # 19
    frequency:   14.6817034803
  - # 20
    frequency:   17.3923740990
  - # 21
    frequency:   17.4343789270
  - # 22
    frequency:   38.6687668002
  - # 23
    frequency:   69.3368208663
  - # 24
    frequency:  111.8830121724

- q-position: [    0.0707071,    0.0000000,    0.0000000 ]
  distance:    0.0250085
  band:
  - # 1
    frequency:   -1.0576737153
  - # 2
    frequency:   -0.7872048125
  - # 3
    frequency:   -0.4139500568
  - # 4
    frequency:    1.2734396132
  - # 5
    frequency:    2.2876549220
  - # 6
    frequency:    4.7814579610
  - # 7
    frequency:    5.0866740105
  - # 8
    frequency:    6.4030244100
  - # 9
    frequency:    7.3838305412
  - # 10
    frequency:    7.5026890081
  - # 11
    frequency:    8.4350959251
  - # 12
    frequency:    8.4763926982
  - # 13
    frequency:   10.5465544516
  - # 14
    frequency:   12.1697787311
  - # 15
    frequency:   12.5327674359
  - # 16
    frequency:   12.9600696435
  - # 17
    frequency:   13.8915800210
  - # 18
    frequency:   14.0163001187
  - # 19
    frequency:   14.6486365533
  - # 20
    frequency:   17.3941862733
  - # 21
    frequency:   17.4425012162
  - # 22
    frequency:   38.6674379742
  - # 23
    frequency:   69.2980506318
  - # 24
    frequency:  111.8402368657

- q-position: [    0.0757576,    0.0000000,    0.0000000 ]
  distance:    0.0267948
  band:
  - # 1
    frequency:   -1.0397690581
  - # 2
    frequency:   -0.7504587635
  - # 3
    frequency:   -0.3093452442
  - # 4
    frequency:    1.3645207737
  - # 5
    frequency:    2.4388173839
  - # 6
    frequency:    4.7930457107
  - # 7
    frequency:    5.1310703808
  - # 8
    frequency:    6.3921519920
  - # 9
    frequency:    7.4111011027
  - # 10
    frequency:    7.5424524117
  - # 11
    frequency:    8.4364490541
  - # 12
    frequency:    8.4845137362
  - # 13
    frequency:   10.4993057082
  - # 14
    frequency:   12.1388486757
  - # 15
    frequency:   12.5506206306
  - # 16
    frequency:   12.9253959777
  - # 17
    frequency:   13.8702461598
  - # 18
    frequency:   14.0173133238
  - # 19
    frequency:   14.6151397574
  - # 20
    frequency:   17.3960736021
  - # 21
    frequency:   17.4510525750
  - # 22
    frequency:   38.6660748525
  - # 23
    frequency:   69.2569820934
  - # 24
    frequency:  111.7956350067

- q-position: [    0.0808081,    0.0000000,    0.0000000 ]
  distance:    0.0285812
  band:
  - # 1
    frequency:   -1.0210093967
  - # 2
    frequency:   -0.7145037349
  - # 3
    frequency:    0.0264824754
  - # 4
    frequency:    1.4550601020
  - # 5
    frequency:    2.5873302353
  - # 6
    frequency:    4.8055256502
  - # 7
    frequency:    5.1756163984
  - # 8
    frequency:    6.3815773005
  - # 9
    frequency:    7.4391051328
  - # 10
    frequency:    7.5825228770
  - # 11
    frequency:    8.4376689812
  - # 12
    frequency:    8.4929769359
  - # 13
    frequency:   10.4499853033
  - # 14
    frequency:   12.1071725729
  - # 15
    frequency:   12.5697348129
  - # 16
    frequency:   12.8893445171
  - # 17
    frequency:   13.8464038319
  - # 18
    frequency:   14.0178665376
  - # 19
    frequency:   14.5814176823
  - # 20
    frequency:   17.3980265301
  - # 21
    frequency:   17.4600024336
  - # 22
    frequency:   38.6646889774
  - # 23
    frequency:   69.2137288037
  - # 24
    frequency:  111.7494651511

- q-position: [    0.0858586,    0.0000000,    0.0000000 ]
  distance:    0.0303675
  band:
  - # 1
    frequency:   -1.0013440217
  - # 2
    frequency:   -0.6759788537
  - # 3
    frequency:    0.3378043005
  - # 4
    frequency:    1.5449762973
  - # 5
    frequency:    2.7329837128
  - # 6
    frequency:    4.8189132097
  - # 7
    frequency:    5.2198705655
  - # 8
    frequency:    6.3715010903
  - # 9
    frequency:    7.4676571230
  - # 10
    frequency:    7.6224680722
  - # 11
    frequency:    8.4388164071
  - # 12
    frequency:    8.5017533450
  - # 13
    frequency:   10.3988216340
  - # 14
    frequency:   12.0749748433
  - # 15
    frequency:   12.5900879422
  - # 16
    frequency:   12.8521407897
  - # 17
    frequency:   13.8201029187
  - # 18
    frequency:   14.0178825740
  - # 19
    frequency:   14.5476232599
  - # 20
    frequency:   17.4000357729
  - # 21
    frequency:   17.4693198632
  - # 22
    frequency:   38.6632920041
  - # 23
    frequency:   69.1684090627
  - # 24
    frequency:  111.7019941850

- q-position: [    0.0909091,    0.0000000,    0.0000000 ]
  distance:    0.0321538
  band:
  - # 1
    frequency:   -0.9807130242
  - # 2
    frequency:   -0.6310804201
  - # 3
    frequency:    0.4911153532
  - # 4
    frequency:    1.6341998367
  - # 5
    frequency:    2.8755813017
  - # 6
    frequency:    4.8332227097
  - # 7
    frequency:    5.2633854222
  - # 8
    frequency:    6.3621428038
  - # 9
    frequency:    7.4965720690
  - # 10
    frequency:    7.6618269539
  - # 11
    frequency:    8.4399962190
  - # 12
    frequency:    8.5108146505
  - # 13
    frequency:   10.3460553344
  - # 14
    frequency:   12.0424747249
  - # 15
    frequency:   12.6116498204
  - # 16
    frequency:   12.8140321404
  - # 17
    frequency:   13.7914530104
  - # 18
    frequency:   14.0172877856
  - # 19
    frequency:   14.5138577294
  - # 20
    frequency:   17.4020924402
  - # 21
    frequency:   17.4789737905
  - # 22
    frequency:   38.6618955957
  - # 23
    frequency:   69.1211453657
  - # 24
    frequency:  111.6534956542

- q-position: [    0.0959596,    0.0000000,    0.0000000 ]
  distance:    0.0339401
  band:
  - # 1
    frequency:   -0.9590480202
  - # 2
    frequency:   -0.5755831428
  - # 3
    frequency:    0.6160699467
  - # 4
    frequency:    1.7226719406
  - # 5
    frequency:    3.0149341265
  - # 6
    frequency:    4.8484667524
  - # 7
    frequency:    5.3057086947
  - # 8
    frequency:    6.3537405418
  - # 9
    frequency:    7.5256670697
  - # 10
    frequency:    7.7001065158
  - # 11
    frequency:    8.4413660576
  - # 12
    frequency:    8.5201329813
  - # 13
    frequency:   10.2919384829
  - # 14
    frequency:   12.0098808663
  - # 15
    frequency:   12.6343816796
  - # 16
    frequency:   12.7752889694
  - # 17
    frequency:   13.7606176338
  - # 18
    frequency:   14.0160133211
  - # 19
    frequency:   14.4801757737
  - # 20
    frequency:   17.4041881483
  - # 21
    frequency:   17.4889332051
  - # 22
    frequency:   38.6605113202
  - # 23
    frequency:   69.0720638363
  - # 24
    frequency:  111.6042480569

- q-position: [    0.1010101,    0.0000000,    0.0000000 ]
  distance:    0.0357265
  band:
  - # 1
    frequency:   -0.9362720380
  - # 2
    frequency:   -0.5037838200
  - # 3
    frequency:    0.7263261911
  - # 4
    frequency:    1.8103433862
  - # 5
    frequency:    3.1508562849
  - # 6
    frequency:    4.8646556149
  - # 7
    frequency:    5.3463864096
  - # 8
    frequency:    6.3465488631
  - # 9
    frequency:    7.5547628222
  - # 10
    frequency:    7.7367801681
  - # 11
    frequency:    8.4431434043
  - # 12
    frequency:    8.5296806298
  - # 13
    frequency:   10.2367335222
  - # 14
    frequency:   11.9773851078
  - # 15
    frequency:   12.6582359241
  - # 16
    frequency:   12.7362057270
  - # 17
    frequency:   13.7278046522
  - # 18
    frequency:   14.0139963554
  - # 19
    frequency:   14.4465951992
  - # 20
    frequency:   17.4063151190
  - # 21
    frequency:   17.4991673589
  - # 22
    frequency:   38.6591505495
  - # 23
    frequency:   69.0212936467
  - # 24
    frequency:  111.5545331111

- q-position: [    0.1060606,    0.0000000,    0.0000000 ]
  distance:    0.0375128
  band:
  - # 1
    frequency:   -0.9122986053
  - # 2
    frequency:   -0.4051735549
  - # 3
    frequency:    0.8271339608
  - # 4
    frequency:    1.8971732486
  - # 5
    frequency:    3.2831606886
  - # 6
    frequency:    4.8817966753
  - # 7
    frequency:    5.3849691829
  - # 8
    frequency:    6.3408333253
  - # 9
    frequency:    7.5836849963
  - # 10
    frequency:    7.7712901736
  - # 11
    frequency:    8.4456086715
  - # 12
    frequency:    8.5394297174
  - # 13
    frequency:   10.1807118495
  - # 14
    frequency:   11.9451555466
  - # 15
    frequency:   12.6831560320
  - # 16
    frequency:   12.6971014550
  - # 17
    frequency:   13.6932544334
  - # 18
    frequency:   14.0111812751
  - # 19
    frequency:   14.4131097993
  - # 20
    frequency:   17.4084662633
  - # 21
    frequency:   17.5096459544
  - # 22
    frequency:   38.6578243628
  - # 23
    frequency:   68.9689664303
  - # 24
    frequency:  111.5046340098

- q-position: [    0.1111111,    0.0000000,    0.0000000 ]
  distance:    0.0392991
  band:
  - # 1
    frequency:   -0.8870300145
  - # 2
    frequency:   -0.2474487063
  - # 3
    frequency:    0.9212029071
  - # 4
    frequency:    1.9831276036
  - # 5
    frequency:    3.4116551032
  - # 6
    frequency:    4.8998939039
  - # 7
    frequency:    5.4210229572
  - # 8
    frequency:    6.3368606079
  - # 9
    frequency:    7.6122654755
  - # 10
    frequency:    7.8030577798
  - # 11
    frequency:    8.4491005294
  - # 12
    frequency:    8.5493518329
  - # 13
    frequency:   10.1241520547
  - # 14
    frequency:   11.9133291150
  - # 15
    frequency:   12.6583195955
  - # 16
    frequency:   12.7090766131
  - # 17
    frequency:   13.6572277521
  - # 18
    frequency:   14.0075208031
  - # 19
    frequency:   14.3797036407
  - # 20
    frequency:   17.4106352469
  - # 21
    frequency:   17.5203393198
  - # 22
    frequency:   38.6565434533
  - # 23
    frequency:   68.9152156887
  - # 24
    frequency:  111.4548336746

- q-position: [    0.1161616,    0.0000000,    0.0000000 ]
  distance:    0.0410854
  band:
  - # 1
    frequency:   -0.8603546639
  - # 2
    frequency:    0.2363775211
  - # 3
    frequency:    1.0101581003
  - # 4
    frequency:    2.0681781940
  - # 5
    frequency:    3.5361381811
  - # 6
    frequency:    4.9189474509
  - # 7
    frequency:    5.4541451623
  - # 8
    frequency:    6.3348833494
  - # 9
    frequency:    7.6403434535
  - # 10
    frequency:    7.8315054973
  - # 11
    frequency:    8.4539988338
  - # 12
    frequency:    8.5594176755
  - # 13
    frequency:   10.0673378126
  - # 14
    frequency:   11.8820040712
  - # 15
    frequency:   12.6202266755
  - # 16
    frequency:   12.7359236206
  - # 17
    frequency:   13.6199953472
  - # 18
    frequency:   14.0029770425
  - # 19
    frequency:   14.3463650157
  - # 20
    frequency:   17.4128165356
  - # 21
    frequency:   17.5312185675
  - # 22
    frequency:   38.6553180404
  - # 23
    frequency:   68.8601761981
  - # 24
    frequency:  111.4054130217

- q-position: [    0.1212121,    0.0000000,    0.0000000 ]
  distance:    0.0428717
  band:
  - # 1
    frequency:   -0.8321432533
  - # 2
    frequency:    0.4333629900
  - # 3
    frequency:    1.0950664437
  - # 4
    frequency:    2.1523010552
  - # 5
    frequency:    3.6563953605
  - # 6
    frequency:    4.9389533576
  - # 7
    frequency:    5.4839863786
  - # 8
    frequency:    6.3351197217
  - # 9
    frequency:    7.6677663862
  - # 10
    frequency:    7.8560951802
  - # 11
    frequency:    8.4606912552
  - # 12
    frequency:    8.5695967341
  - # 13
    frequency:   10.0105554757
  - # 14
    frequency:   11.8512330192
  - # 15
    frequency:   12.5832093208
  - # 16
    frequency:   12.7636147030
  - # 17
    frequency:   13.5818306977
  - # 18
    frequency:   13.9975224248
  - # 19
    frequency:   14.3130986215
  - # 20
    frequency:   17.4150054198
  - # 21
    frequency:   17.5422557354
  - # 22
    frequency:   38.6541577870
  - # 23
    frequency:   68.8039834173
  - # 24
    frequency:  111.3566492517

- q-position: [    0.1262626,    0.0000000,    0.0000000 ]
  distance:    0.0446581
  band:
  - # 1
    frequency:   -0.8022434412
  - # 2
    frequency:    0.5788328778
  - # 3
    frequency:    1.1766721401
  - # 4
    frequency:    2.2354750961
  - # 5
    frequency:    3.7721945856
  - # 6
    frequency:    4.9599034138
  - # 7
    frequency:    5.5102759773
  - # 8
    frequency:    6.3377293591
  - # 9
    frequency:    7.6943907989
  - # 10
    frequency:    7.8763816221
  - # 11
    frequency:    8.4695235760
  - # 12
    frequency:    8.5798570338
  - # 13
    frequency:    9.9540914681
  - # 14
    frequency:   11.8210173208
  - # 15
    frequency:   12.5476688407
  - # 16
    frequency:   12.7920596845
  - # 17
    frequency:   13.5430070698
  - # 18
    frequency:   13.9911405433
  - # 19
    frequency:   14.2799349968
  - # 20
    frequency:   17.4171980169
  - # 21
    frequency:   17.5534239071
  - # 22
    frequency:   38.6530717239
  - # 23
    frequency:   68.7467729025
  - # 24
    frequency:  111.3088141759

- q-position: [    0.1313131,    0.0000000,    0.0000000 ]
  distance:    0.0464444
  band:
  - # 1
    frequency:   -0.7704723036
  - # 2
    frequency:    0.7056678033
  - # 3
    frequency:    1.2555177248
  - # 4
    frequency:    2.3176806425
  - # 5
    frequency:    3.8832818904
  - # 6
    frequency:    4.9817851742
  - # 7
    frequency:    5.5328481595
  - # 8
    frequency:    6.3427892889
  - # 9
    frequency:    7.7200829571
  - # 10
    frequency:    7.8920739474
  - # 11
    frequency:    8.4807409758
  - # 12
    frequency:    8.5901649748
  - # 13
    frequency:    9.8982296461
  - # 14
    frequency:   11.7913039988
  - # 15
    frequency:   12.5140124045
  - # 16
    frequency:   12.8211611540
  - # 17
    frequency:   13.5037993962
  - # 18
    frequency:   13.9838268574
  - # 19
    frequency:   14.2469367185
  - # 20
    frequency:   17.4193912519
  - # 21
    frequency:   17.5646973114
  - # 22
    frequency:   38.6520681793
  - # 23
    frequency:   68.6886797314
  - # 24
    frequency:  111.2621725898

- q-position: [    0.1363636,    0.0000000,    0.0000000 ]
  distance:    0.0482307
  band:
  - # 1
    frequency:   -0.7366054874
  - # 2
    frequency:    0.8226860710
  - # 3
    frequency:    1.3320127065
  - # 4
    frequency:    2.3988979654
  - # 5
    frequency:    3.9893770106
  - # 6
    frequency:    5.0045821400
  - # 7