nqpoint: 300    
npath: 3      
segment_nqpoint:
- 100
- 100
- 100
labels:
- [ 'G', 'M' ]
- [ 'M', 'K' ]
- [ 'K', 'G' ]
reciprocal_lattice:
- [   0.29726527,   0.17162618,   0.00000000 ] # a*
- [   0.00000000,   0.34325237,   0.00000000 ] # b*
- [   0.00000000,   0.00000000,   0.03984184 ] # c*
natom: 6      
lattice:
- [     3.363998751798044,     0.000000000000000,     0.000000000000000 ] # a
- [    -1.681999375899022,     2.913308377352482,     0.000000000000000 ] # b
- [     0.000000000000000,     0.000000000000000,    25.099244999864734 ] # c
points:
- symbol: C # 1
  coordinates: [  0.000000000000000,  0.000000000000000,  0.453268495233594 ]
  mass: 12.010700
- symbol: F # 2
  coordinates: [  0.666666984744047,  0.333332985985145,  0.358576522921247 ]
  mass: 18.998403
- symbol: O # 3
  coordinates: [  0.333332985432215,  0.666666983183674,  0.641423477078753 ]
  mass: 15.999400
- symbol: P # 4
  coordinates: [  0.333332985432215,  0.666666983183674,  0.581857459163099 ]
  mass: 30.973762
- symbol: Sc # 5
  coordinates: [  0.333332985432215,  0.666666983183674,  0.402649857611593 ]
  mass: 44.955912
- symbol: Sc # 6
  coordinates: [  0.666666984744047,  0.333332985985145,  0.501277713134338 ]
  mass: 44.955912

phonon:
- q-position: [    0.0000000,    0.0000000,    0.0000000 ]
  distance:    0.0000000
  band:
  - # 1
    frequency:   -0.0000117206
  - # 2
    frequency:   -0.0000003336
  - # 3
    frequency:    0.0000108610
  - # 4
    frequency:    1.9822089284
  - # 5
    frequency:    1.9822089284
  - # 6
    frequency:    5.2597028567
  - # 7
    frequency:    5.2597028567
  - # 8
    frequency:    5.3939325337
  - # 9
    frequency:    5.7645020555
  - # 10
    frequency:    5.7645020555
  - # 11
    frequency:    6.4537380034
  - # 12
    frequency:    6.4537380034
  - # 13
    frequency:    8.9806188939
  - # 14
    frequency:   12.2586016972
  - # 15
    frequency:   12.7712954751
  - # 16
    frequency:   12.7712954751
  - # 17
    frequency:   17.9599557997
  - # 18
    frequency:   34.0836683124

- q-position: [    0.0050505,    0.0000000,    0.0000000 ]
  distance:    0.0017336
  band:
  - # 1
    frequency:    0.0020860128
  - # 2
    frequency:    0.0796983516
  - # 3
    frequency:    0.1215881200
  - # 4
    frequency:    1.9827210858
  - # 5
    frequency:    1.9851418014
  - # 6
    frequency:    5.2587593278
  - # 7
    frequency:    5.2594407159
  - # 8
    frequency:    5.3930726721
  - # 9
    frequency:    5.7645482266
  - # 10
    frequency:    5.7658714309
  - # 11
    frequency:    6.4540324697
  - # 12
    frequency:    6.4542265629
  - # 13
    frequency:    8.9809022360
  - # 14
    frequency:   12.2572612423
  - # 15
    frequency:   12.7714244347
  - # 16
    frequency:   12.7738983908
  - # 17
    frequency:   17.9593437669
  - # 18
    frequency:   34.0834503015

- q-position: [    0.0101010,    0.0000000,    0.0000000 ]
  distance:    0.0034672
  band:
  - # 1
    frequency:    0.0083177557
  - # 2
    frequency:    0.1593238578
  - # 3
    frequency:    0.2429139283
  - # 4
    frequency:    1.9842562188
  - # 5
    frequency:    1.9939146727
  - # 6
    frequency:    5.2559209382
  - # 7
    frequency:    5.2586531514
  - # 8
    frequency:    5.3905618491
  - # 9
    frequency:    5.7646895988
  - # 10
    frequency:    5.7699234207
  - # 11
    frequency:    6.4549140957
  - # 12
    frequency:    6.4556878122
  - # 13
    frequency:    8.9817499612
  - # 14
    frequency:   12.2532882897
  - # 15
    frequency:   12.7718106070
  - # 16
    frequency:   12.7816519839
  - # 17
    frequency:   17.9575097083
  - # 18
    frequency:   34.0827965415

- q-position: [    0.0151515,    0.0000000,    0.0000000 ]
  distance:    0.0052008
  band:
  - # 1
    frequency:    0.0186175347
  - # 2
    frequency:    0.2388024745
  - # 3
    frequency:    0.3637105212
  - # 4
    frequency:    1.9868104764
  - # 5
    frequency:    2.0084529527
  - # 6
    frequency:    5.2511685482
  - # 7
    frequency:    5.2573367923
  - # 8
    frequency:    5.3865908532
  - # 9
    frequency:    5.7649346487
  - # 10
    frequency:    5.7765006958
  - # 11
    frequency:    6.4563776043
  - # 12
    frequency:    6.4581085835
  - # 13
    frequency:    8.9831552084
  - # 14
    frequency:   12.2468175718
  - # 15
    frequency:   12.7724518771
  - # 16
    frequency:   12.7944013330
  - # 17
    frequency:   17.9544597365
  - # 18
    frequency:   34.0817078497

- q-position: [    0.0202020,    0.0000000,    0.0000000 ]
  distance:    0.0069344
  band:
  - # 1
    frequency:    0.0328622969
  - # 2
    frequency:    0.3180577023
  - # 3
    frequency:    0.4837018230
  - # 4
    frequency:    1.9903779997
  - # 5
    frequency:    2.0286407898
  - # 6
    frequency:    5.2444835689
  - # 7
    frequency:    5.2554862037
  - # 8
    frequency:    5.3814315675
  - # 9
    frequency:    5.7652971722
  - # 10
    frequency:    5.7853733378
  - # 11
    frequency:    6.4584143346
  - # 12
    frequency:    6.4614673288
  - # 13
    frequency:    8.9851066833
  - # 14
    frequency:   12.2380431226
  - # 15
    frequency:   12.7733447360
  - # 16
    frequency:   12.8119188750
  - # 17
    frequency:   17.9502040175
  - # 18
    frequency:   34.0801855877

- q-position: [    0.0252525,    0.0000000,    0.0000000 ]
  distance:    0.0086680
  band:
  - # 1
    frequency:    0.0508919389
  - # 2
    frequency:    0.3970092199
  - # 3
    frequency:    0.6025980699
  - # 4
    frequency:    1.9949517783
  - # 5
    frequency:    2.0543324984
  - # 6
    frequency:    5.2358644785
  - # 7
    frequency:    5.2530941544
  - # 8
    frequency:    5.3753843406
  - # 9
    frequency:    5.7657958043
  - # 10
    frequency:    5.7962742278
  - # 11
    frequency:    6.4610124351
  - # 12
    frequency:    6.4657347119
  - # 13
    frequency:    8.9875888629
  - # 14
    frequency:   12.2271851566
  - # 15
    frequency:   12.7744843041
  - # 16
    frequency:   12.8339377058
  - # 17
    frequency:   17.9447567386
  - # 18
    frequency:   34.0782316601

- q-position: [    0.0303030,    0.0000000,    0.0000000 ]
  distance:    0.0104016
  band:
  - # 1
    frequency:    0.0725192103
  - # 2
    frequency:    0.4755713415
  - # 3
    frequency:    0.7200915126
  - # 4
    frequency:    2.0005248852
  - # 5
    frequency:    2.0853662934
  - # 6
    frequency:    5.2253428835
  - # 7
    frequency:    5.2501519751
  - # 8
    frequency:    5.3687291602
  - # 9
    frequency:    5.7664533767
  - # 10
    frequency:    5.8089308199
  - # 11
    frequency:    6.4641571205
  - # 12
    frequency:    6.4708744239
  - # 13
    frequency:    8.9905822726
  - # 14
    frequency:   12.2144608972
  - # 15
    frequency:   12.7758643644
  - # 16
    frequency:   12.8601810002
  - # 17
    frequency:   17.9381360649
  - # 18
    frequency:   34.0758485125

- q-position: [    0.0353535,    0.0000000,    0.0000000 ]
  distance:    0.0121352
  band:
  - # 1
    frequency:    0.0975398601
  - # 2
    frequency:    0.5536512276
  - # 3
    frequency:    0.8358526483
  - # 4
    frequency:    2.0070921274
  - # 5
    frequency:    2.1215785591
  - # 6
    frequency:    5.2129933220
  - # 7
    frequency:    5.2466499934
  - # 8
    frequency:    5.3616921930
  - # 9
    frequency:    5.7672961436
  - # 10
    frequency:    5.8230875680
  - # 11
    frequency:    6.4678309780
  - # 12
    frequency:    6.4768442095
  - # 13
    frequency:    8.9940638244
  - # 14
    frequency:   12.2000648081
  - # 15
    frequency:   12.7774774031
  - # 16
    frequency:   12.8903820997
  - # 17
    frequency:   17.9303640852
  - # 18
    frequency:   34.0730391292

- q-position: [    0.0404040,    0.0000000,    0.0000000 ]
  distance:    0.0138688
  band:
  - # 1
    frequency:    0.1257419622
  - # 2
    frequency:    0.6311467665
  - # 3
    frequency:    0.9495275190
  - # 4
    frequency:    2.0146521643
  - # 5
    frequency:    2.1628168560
  - # 6
    frequency:    5.1989330607
  - # 7
    frequency:    5.2425780241
  - # 8
    frequency:    5.3544322777
  - # 9
    frequency:    5.7683529114
  - # 10
    frequency:    5.8385181988
  - # 11
    frequency:    6.4720143091
  - # 12
    frequency:    6.4835970794
  - # 13
    frequency:    8.9980072046
  - # 14
    frequency:   12.1841587997
  - # 15
    frequency:   12.7793146596
  - # 16
    frequency:   12.9242946886
  - # 17
    frequency:   17.9214667489
  - # 18
    frequency:   34.0698070308

- q-position: [    0.0454545,    0.0000000,    0.0000000 ]
  distance:    0.0156024
  band:
  - # 1
    frequency:    0.1569137040
  - # 2
    frequency:    0.7079440347
  - # 3
    frequency:    1.0607368973
  - # 4
    frequency:    2.0232101588
  - # 5
    frequency:    2.2089499382
  - # 6
    frequency:    5.1833123416
  - # 7
    frequency:    5.2379258943
  - # 8
    frequency:    5.3470448960
  - # 9
    frequency:    5.7696541105
  - # 10
    frequency:    5.8550298964
  - # 11
    frequency:    6.4766854922
  - # 12
    frequency:    6.4910826829
  - # 13
    frequency:    9.0023832995
  - # 14
    frequency:   12.1668701631
  - # 15
    frequency:   12.7813661833
  - # 16
    frequency:   12.9616953091
  - # 17
    frequency:   17.9114737956
  - # 18
    frequency:   34.0661562700

- q-position: [    0.0505051,    0.0000000,    0.0000000 ]
  distance:    0.0173360
  band:
  - # 1
    frequency:    0.1908492962
  - # 2
    frequency:    0.7839142315
  - # 3
    frequency:    1.1690784693
  - # 4
    frequency:    2.0327810394
  - # 5
    frequency:    2.2598731479
  - # 6
    frequency:    5.1662992070
  - # 7
    frequency:    5.2326839758
  - # 8
    frequency:    5.3395767115
  - # 9
    frequency:    5.7712308512
  - # 10
    frequency:    5.8724622339
  - # 11
    frequency:    6.4818213502
  - # 12
    frequency:    6.4992488044
  - # 13
    frequency:    9.0071606449
  - # 14
    frequency:   12.1482942706
  - # 15
    frequency:   12.7836208973
  - # 16
    frequency:   13.0023811663
  - # 17
    frequency:   17.9004186798
  - # 18
    frequency:   34.0620914280

- q-position: [    0.0555556,    0.0000000,    0.0000000 ]
  distance:    0.0190696
  band:
  - # 1
    frequency:    0.2273529786
  - # 2
    frequency:    0.8589099803
  - # 3
    frequency:    1.2741332951
  - # 4
    frequency:    2.0433934582
  - # 5
    frequency:    2.3155077189
  - # 6
    frequency:    5.1480639767
  - # 7
    frequency:    5.2268437006
  - # 8
    frequency:    5.3320432280
  - # 9
    frequency:    5.7731140037
  - # 10
    frequency:    5.8906832815
  - # 11
    frequency:    6.4873975125
  - # 12
    frequency:    6.5080429463
  - # 13
    frequency:    9.0123058870
  - # 14
    frequency:   12.1284995671
  - # 15
    frequency:   12.7860666690
  - # 16
    frequency:   13.0461656990
  - # 17
    frequency:   17.8883384924
  - # 18
    frequency:   34.0576176093

- q-position: [    0.0606061,    0.0000000,    0.0000000 ]
  distance:    0.0208032
  band:
  - # 1
    frequency:    0.2662413105
  - # 2
    frequency:    0.9327608995
  - # 3
    frequency:    1.3754776706
  - # 4
    frequency:    2.0550945176
  - # 5
    frequency:    2.3757929201
  - # 6
    frequency:    5.1287669044
  - # 7
    frequency:    5.2203980341
  - # 8
    frequency:    5.3244444289
  - # 9
    frequency:    5.7753333409
  - # 10
    frequency:    5.9095845685
  - # 11
    frequency:    6.4933887580
  - # 12
    frequency:    6.5174139587
  - # 13
    frequency:    9.0177842426
  - # 14
    frequency:   12.1075331975
  - # 15
    frequency:   12.7886903851
  - # 16
    frequency:   13.0928735595
  - # 17
    frequency:   17.8752738827
  - # 18
    frequency:   34.0527404360

- q-position: [    0.0656566,    0.0000000,    0.0000000 ]
  distance:    0.0225368
  band:
  - # 1
    frequency:    0.3073440525
  - # 2
    frequency:    1.0052683925
  - # 3
    frequency:    1.4727007693
  - # 4
    frequency:    2.0679552979
  - # 5
    frequency:    2.4406708507
  - # 6
    frequency:    5.1085502372
  - # 7
    frequency:    5.2133418830
  - # 8
    frequency:    5.3167762387
  - # 9
    frequency:    5.7779167754
  - # 10
    frequency:    5.9290758961
  - # 11
    frequency:    6.4997693324
  - # 12
    frequency:    6.5273136758
  - # 13
    frequency:    9.0235599474
  - # 14
    frequency:   12.0854263504
  - # 15
    frequency:   12.7914780318
  - # 16
    frequency:   13.1423359210
  - # 17
    frequency:   17.8612689821
  - # 18
    frequency:   34.0474660418

- q-position: [    0.0707071,    0.0000000,    0.0000000 ]
  distance:    0.0242704
  band:
  - # 1
    frequency:    0.3505039786
  - # 2
    frequency:    1.0761997112
  - # 3
    frequency:    1.5654269538
  - # 4
    frequency:    2.0820771125
  - # 5
    frequency:    2.5100652488
  - # 6
    frequency:    5.0875342542
  - # 7
    frequency:    5.2056724226
  - # 8
    frequency:    5.3090377779
  - # 9
    frequency:    5.7808897176
  - # 10
    frequency:    5.9490805140
  - # 11
    frequency:    6.5065132329
  - # 12
    frequency:    6.5376985271
  - # 13
    frequency:    9.0295966843
  - # 14
    frequency:   12.0621988959
  - # 15
    frequency:   12.7944147788
  - # 16
    frequency:   13.1943865204
  - # 17
    frequency:   17.8463713343
  - # 18
    frequency:   34.0418010642

- q-position: [    0.0757576,    0.0000000,    0.0000000 ]
  distance:    0.0260040
  band:
  - # 1
    frequency:    0.3955759345
  - # 2
    frequency:    1.1452815642
  - # 3
    frequency:    1.6533396344
  - # 4
    frequency:    2.0975982021
  - # 5
    frequency:    2.5838576844
  - # 6
    frequency:    5.0658161953
  - # 7
    frequency:    5.1973893306
  - # 8
    frequency:    5.3012353444
  - # 9
    frequency:    5.7842745702
  - # 10
    frequency:    5.9695308804
  - # 11
    frequency:    6.5135944564
  - # 12
    frequency:    6.5485310896
  - # 13
    frequency:    9.0358579827
  - # 14
    frequency:   12.0378632019
  - # 15
    frequency:   12.7974850657
  - # 16
    frequency:   13.2488585482
  - # 17
    frequency:   17.8306318334
  - # 18
    frequency:   34.0357526364

- q-position: [    0.0808081,    0.0000000,    0.0000000 ]
  distance:    0.0277376
  band:
  - # 1
    frequency:    0.4424254101
  - # 2
    frequency:    1.2121939199
  - # 3
    frequency:    1.7362017750
  - # 4
    frequency:    2.1147002012
  - # 5
    frequency:    2.6618662555
  - # 6
    frequency:    5.0434709992
  - # 7
    frequency:    5.1884949234
  - # 8
    frequency:    5.2933842104
  - # 9
    frequency:    5.7880903681
  - # 10
    frequency:    5.9903650557
  - # 11
    frequency:    6.5209872109
  - # 12
    frequency:    6.5597815596
  - # 13
    frequency:    9.0423075844
  - # 14
    frequency:   12.0124271622
  - # 15
    frequency:   12.8006726913
  - # 16
    frequency:   13.3055823396
  - # 17
    frequency:   17.8141046744
  - # 18
    frequency:   34.0293283783

- q-position: [    0.0858586,    0.0000000,    0.0000000 ]
  distance:    0.0294712
  band:
  - # 1
    frequency:    0.4909268272
  - # 2
    frequency:    1.2765652715
  - # 3
    frequency:    1.8138677345
  - # 4
    frequency:    2.1336130978
  - # 5
    frequency:    2.7438322633
  - # 6
    frequency:    5.0205530513
  - # 7
    frequency:    5.1789941990
  - # 8
    frequency:    5.2855091262
  - # 9
    frequency:    5.7923525634
  - # 10
    frequency:    6.0115237020
  - # 11
    frequency:    6.5286660889
  - # 12
    frequency:    6.5714291199
  - # 13
    frequency:    9.0489097720
  - # 14
    frequency:   11.9858965412
  - # 15
    frequency:   12.8039609035
  - # 16
    frequency:   13.3643837544
  - # 17
    frequency:   17.7968473185
  - # 18
    frequency:   34.0225363862

- q-position: [    0.0909091,    0.0000000,    0.0000000 ]
  distance:    0.0312048
  band:
  - # 1
    frequency:    0.5409616857
  - # 2
    frequency:    1.3379714685
  - # 3
    frequency:    1.8862828289
  - # 4
    frequency:    2.1546165660
  - # 5
    frequency:    2.8294185963
  - # 6
    frequency:    4.9970984583
  - # 7
    frequency:    5.1688947938
  - # 8
    frequency:    5.2776441471
  - # 9
    frequency:    5.7970729439
  - # 10
    frequency:    6.0329476249
  - # 11
    frequency:    6.5366062048
  - # 12
    frequency:    6.5834631829
  - # 13
    frequency:    9.0556296566
  - # 14
    frequency:   11.9582767541
  - # 15
    frequency:   12.8073324901
  - # 16
    frequency:   13.4250831150
  - # 17
    frequency:   17.7789204760
  - # 18
    frequency:   34.0153852215

- q-position: [    0.0959596,    0.0000000,    0.0000000 ]
  distance:    0.0329384
  band:
  - # 1
    frequency:    0.5924166516
  - # 2
    frequency:    1.3959411483
  - # 3
    frequency:    1.9534703835
  - # 4
    frequency:    2.1780346275
  - # 5
    frequency:    2.9182201137
  - # 6
    frequency:    4.9731276160
  - # 7
    frequency:    5.1582068694
  - # 8
    frequency:    5.2698321692
  - # 9
    frequency:    5.8022596740
  - # 10
    frequency:    6.0545757944
  - # 11
    frequency:    6.5447832998
  - # 12
    frequency:    6.5958844854
  - # 13
    frequency:    9.0624334252
  - # 14
    frequency:   11.9295741986
  - # 15
    frequency:   12.8107698698
  - # 16
    frequency:   13.4874945797
  - # 17
    frequency:   17.7603881093
  - # 18
    frequency:   34.0078838983

- q-position: [    0.1010101,    0.0000000,    0.0000000 ]
  distance:    0.0346720
  band:
  - # 1
    frequency:    0.6451816250
  - # 2
    frequency:    1.4499712922
  - # 3
    frequency:    2.0155095553
  - # 4
    frequency:    2.2042201034
  - # 5
    frequency:    3.0097827566
  - # 6
    frequency:    4.9486480096
  - # 7
    frequency:    5.1469429462
  - # 8
    frequency:    5.2621243975
  - # 9
    frequency:    5.8079174347
  - # 10
    frequency:    6.0763437941
  - # 11
    frequency:    6.5531738163
  - # 12
    frequency:    6.6087060044
  - # 13
    frequency:    9.0692885481
  - # 14
    frequency:   11.8997972379
  - # 15
    frequency:   12.8142551815
  - # 16
    frequency:   13.5514258413
  - # 17
    frequency:   17.7413174593
  - # 18
    frequency:   34.0000418701

- q-position: [    0.1060606,    0.0000000,    0.0000000 ]
  distance:    0.0364056
  band:
  - # 1
    frequency:    0.6991477805
  - # 2
    frequency:    1.4995555974
  - # 3
    frequency:    2.0725091741
  - # 4
    frequency:    2.2335261547
  - # 5
    frequency:    3.1036260957
  - # 6
    frequency:    4.9236573048
  - # 7
    frequency:    5.1351177032
  - # 8
    frequency:    5.2545798705
  - # 9
    frequency:    5.8140476431
  - # 10
    frequency:    6.0981826713
  - # 11
    frequency:    6.5617549468
  - # 12
    frequency:    6.6219536484
  - # 13
    frequency:    9.0761639458
  - # 14
    frequency:   11.8689569154
  - # 15
    frequency:   12.8177703732
  - # 16
    frequency:   13.6166780644
  - # 17
    frequency:   17.7217790947
  - # 18
    frequency:   33.9918690152

- q-position: [    0.1111111,    0.0000000,    0.0000000 ]
  distance:    0.0381392
  band:
  - # 1
    frequency:    0.7542055388
  - # 2
    frequency:    1.5442251478
  - # 3
    frequency:    2.1245826700
  - # 4
    frequency:    2.2662654141
  - # 5
    frequency:    3.1992641522
  - # 6
    frequency:    4.8981468769
  - # 7
    frequency:    5.1227477655
  - # 8
    frequency:    5.2472651048
  - # 9
    frequency:    5.8206487282
  - # 10
    frequency:    6.1200181902
  - # 11
    frequency:    6.5705046595
  - # 12
    frequency:    6.6356666646
  - # 13
    frequency:    9.0830301200
  - # 14
    frequency:   11.8370674663
  - # 15
    frequency:   12.8212972887
  - # 16
    frequency:   13.6830459899
  - # 17
    frequency:   17.7018469861
  - # 18
    frequency:   33.9833756208

- q-position: [    0.1161616,    0.0000000,    0.0000000 ]
  distance:    0.0398727
  band:
  - # 1
    frequency:    0.8102423818
  - # 2
    frequency:    1.5835952594
  - # 3
    frequency:    2.1718274380
  - # 4
    frequency:    2.3026628205
  - # 5
    frequency:    3.2962209666
  - # 6
    frequency:    4.8721060092
  - # 7
    frequency:    5.1098514950
  - # 8
    frequency:    5.2402539001
  - # 9
    frequency:    5.8277164421
  - # 10
    frequency:    6.1417705241
  - # 11
    frequency:    6.5794017064
  - # 12
    frequency:    6.6498976794
  - # 13
    frequency:    9.0898592481
  - # 14
    frequency:   11.8041466769
  - # 15
    frequency:   12.8248177513
  - # 16
    frequency:   13.7503181539
  - # 17
    frequency:   17.6815986033
  - # 18
    frequency:   33.9745723665

- q-position: [    0.1212121,    0.0000000,    0.0000000 ]
  distance:    0.0416063
  band:
  - # 1
    frequency:    0.8671403834
  - # 2
    frequency:    1.6174066007
  - # 3
    frequency:    2.2143099162
  - # 4
    frequency:    2.3428140387
  - # 5
    frequency:    3.3940393701
  - # 6
    frequency:    4.8455271010
  - # 7
    frequency:    5.0964488027
  - # 8
    frequency:    5.2336273356
  - # 9
    frequency:    5.8352441863
  - # 10
    frequency:    6.1633544489
  - # 11
    frequency:    6.5884256159
  - # 12
    frequency:    6.6647122740
  - # 13
    frequency:    9.0966252458
  - # 14
    frequency:   11.7702161273
  - # 15
    frequency:   12.8283136459
  - # 16
    frequency:   13.8182771820
  - # 17
    frequency:   17.6611150330
  - # 18
    frequency:   33.9654703055

- q-position: [    0.1262626,    0.0000000,    0.0000000 ]
  distance:    0.0433399
  band:
  - # 1
    frequency:    0.9247732575
  - # 2
    frequency:    1.6455470539
  - # 3
    frequency:    2.2520560729
  - # 4
    frequency:    2.3866629814
  - # 5
    frequency:    3.4922828147
  - # 6
    frequency:    4.8184124069
  - # 7
    frequency:    5.0825609949
  - # 8
    frequency:    5.2274740037
  - # 9
    frequency:    5.8432233388
  - # 10
    frequency:    6.1846801227
  - # 11
    frequency:    6.5975566744
  - # 12
    frequency:    6.6801879826
  - # 13
    frequency:    9.1033038001
  - # 14
    frequency:   11.7353013482
  - # 15
    frequency:   12.8317669975
  - # 16
    frequency:   13.8867001317
  - # 17
    frequency:   17.6404811133
  - # 18
    frequency:   33.9560808465

- q-position: [    0.1313131,    0.0000000,    0.0000000 ]
  distance:    0.0450735
  band:
  - # 1
    frequency:    0.9830026351
  - # 2
    frequency:    1.6680462426
  - # 3
    frequency:    2.2850462245
  - # 4
    frequency:    2.4340064820
  - # 5
    frequency:    3.5905305892
  - # 6
    frequency:    4.7907831603
  - # 7
    frequency:    5.0682106609
  - # 8
    frequency:    5.2218905518
  - # 9
    frequency:    5.8516435664
  - # 10
    frequency:    6.2056545384
  - # 11
    frequency:    6.6067758994
  - # 12
    frequency:    6.6964126083
  - # 13
    frequency:    9.1098723735
  - # 14
    frequency:   11.6994319125
  - # 15
    frequency:   12.8351600462
  - # 16
    frequency:   13.9553588688
  - # 17
    frequency:   17.6197855759
  - # 18
    frequency:   33.9464157327

- q-position: [    0.1363636,    0.0000000,    0.0000000 ]
  distance:    0.0468071
  band:
  - # 1
    frequency:    1.0416731298
  - # 2
    frequency:    1.6850449873
  - # 3
    frequency:    2.3132130247
  - # 4
    frequency:    2.4845238299
  - # 5
    frequency:    3.6883662160
  - # 6
    frequency:    4.7626925968
  - # 7
    frequency:    5.0534216114
  - # 8
    frequency:    5.2169826497
  - # 9
    frequency:    5.8604931153
  - # 10
    frequency:    6.2261837121
  - # 11
    frequency:    6.6160650072
  - # 12
    frequency:    6.7134817792
  - # 13
    frequency:    9.1163101838
  - # 14
    frequency:   11.6626414781
  - # 15
    frequency:   12.8384753195
  - # 16
    frequency:   14.0240204688
  - # 17
    frequency:   17.5991211860
  - # 18
    frequency:   33.9364870208

- q-position: [    0.1414141,    0.0000000,    0.0000000 ]
  distance:    0.0485407
  band:
  - # 1
    frequency:    1.1006055140
  - # 2
    frequency:    1.6967506702
  - # 3
    frequency:    2.3364418404
  - # 4
    frequency:    2.5378201480
  - # 5
    frequency:    3.7853571752
  - # 6
    frequency:    4.7342457839
  - # 7
    frequency:    5.0382188678
  - # 8
    frequency:    5.2128665609
  - # 9
    frequency:    5.8697590699
  - # 10
    frequency:    6.2461756103
  - # 11
    frequency:    6.6254063781
  - # 12
    frequency:    6.7314957322
  - # 13
    frequency:    9.1225981602
  - # 14
    frequency:   11.6249677933
  - # 15
    frequency:   12.8416957004
  - # 16
    frequency:   14.0924476476
  - # 17
    frequency:   17.5785848656
  - # 18
    frequency:   33.9263070589

- q-position: [    0.1464646,    0.0000000,    0.0000000 ]
  distance:    0.0502743
  band:
  - # 1
    frequency:    1.1595869221
  - # 2
    frequency:    1.7033916540
  - # 3
    frequency:    2.3545733960
  - # 4
    frequency:    2.5934704191
  - # 5
    frequency:    3.8810205564
  - # 6
    frequency:    4.7056322743
  - # 7
    frequency:    5.0226287041
  - # 8
    frequency:    5.2096715827
  - # 9
    frequency:    5.8794275782
  - # 10
    frequency:    6.2655437233
  - # 11
    frequency:    6.6347830197
  - # 12
    frequency:    6.7505554135
  - # 13
    frequency:    9.1287188778
  - # 14
    frequency:   11.5864526765
  - # 15
    frequency:   12.8448044930
  - # 16
    frequency:   14.1603992315
  - # 17
    frequency:   17.5582777792
  - # 18
    frequency:   33.9158884631

- q-position: [    0.1515152,    0.0000000,    0.0000000 ]
  distance:    0.0520079
  band:
  - # 1
    frequency:    1.2183563098
  - # 2
    frequency:    1.7051800232
  - # 3
    frequency:    2.3674095033
  - # 4
    frequency:    2.6510548270
  - # 5
    frequency:    3.9747613974
  - # 6
    frequency:    4.6771849581
  - # 7
    frequency:    5.0066787383
  - # 8
    frequency:    5.2075437329
  - # 9
    frequency:    5.8894840397
  - # 10
    frequency:    6.2842110655
  - # 11
    frequency:    6.6441785326
  - # 12
    frequency:    6.7707581095
  - # 13
    frequency:    9.1346564716
  - # 14
    frequency:   11.5471419750
  - # 15
    frequency:   12.8477854831
  - # 16
    frequency:   14.2276306850
  - # 17
    frequency:   17.5383053581
  - # 18
    frequency:   33.9052440939

- q-position: [    0.1565657,    0.0000000,    0.0000000 ]
  distance:    0.0537415
  band:
  - # 1
    frequency:    1.2765821892
  - # 2
    frequency:    1.7022860353
  - # 3
    frequency:    2.3747240535
  - # 4
    frequency:    2.7101819378
  - # 5
    frequency:    4.0657514180
  - # 6
    frequency:    4.6494970681
  - # 7
    frequency:    4.9903980687
  - # 8
    frequency:    5.2066512079
  - # 9
    frequency:    5.8999132571
  - # 10
    frequency:    6.3021142612
  - # 11
    frequency:    6.6535770772
  - # 12
    frequency:    6.7921929494
  - # 13
    frequency:    9.1403965317
  - # 14
    frequency:   11.5070855122
  - # 15
    frequency:   12.8506229969
  - # 16
    frequency:   14.2938947229
  - # 17
    frequency:   17.5187772314
  - # 18
    frequency:   33.8943870314

- q-position: [    0.1616162,    0.0000000,    0.0000000 ]
  distance:    0.0554751
  band:
  - # 1
    frequency:    1.3338274975
  - # 2
    frequency:    1.6948232034
  - # 3
    frequency:    2.3762836223
  - # 4
    frequency:    2.7705006787
  - # 5
    frequency:    4.1526661719
  - # 6
    frequency:    4.6236785074
  - # 7
    frequency:    4.9738174501
  - # 8
    frequency:    5.2071923103
  - # 9
    frequency:    5.9106995512
  - # 10
    frequency:    6.3192072837
  - # 11
    frequency:    6.6629633451
  - # 12
    frequency:    6.8149367107
  - # 13
    frequency:    9.1459259795
  - # 14
    frequency:   11.4663370269
  - # 15
    frequency:   12.8533019556
  - # 16
    frequency:   14.3589420412
  - # 17
    frequency:   17.4998070264
  - # 18
    frequency:   33.8833305497

- q-position: [    0.1666667,    0.0000000,    0.0000000 ]
  distance:    0.0572087
  band:
  - # 1
    frequency:    1.3894925346
  - # 2
    frequency:    1.6828408901
  - # 3
    frequency:    2.3718857836
  - # 4
    frequency:    2.8317040682
  - # 5
    frequency:    4.2330712205
  - # 6
    frequency:    4.6019596676
  - # 7
    frequency:    4.9569695017
  - # 8
    frequency:    5.2094067229
  - # 9
    frequency:    5.9218268420
  - # 10
    frequency:    6.3354644046
  - # 11
    frequency:    6.6723225349
  - # 12
    frequency:    6.8390503714
  - # 13
    frequency:    9.1512329253
  - # 14
    frequency:   11.4249541108
  - # 15
    frequency:   12.8558079266
  - # 16
    frequency:   14.4225222079
  - # 17
    frequency:   17.4815119956
  - # 18
    frequency:   33.8720880917

- q-position: [    0.1717172,    0.0000000,    0.0000000 ]
  distance:    0.0589423
  band:
  - # 1
    frequency:    1.4427197900
  - # 2
    frequency:    1.6663210544
  - # 3
    frequency:    2.3614298588
  - # 4
    frequency:    2.8935278200
  - # 5
    frequency:    4.3020453217
  - # 6
    frequency:    4.5890532313
  - # 7
    frequency:    4.9398889392
  - # 8
    frequency:    5.2135910649
  - # 9
    frequency:    5.9332786995
  - # 10
    frequency:    6.3508819887
  - # 11
    frequency:    6.6816403325
  - # 12
    frequency:    6.8645767725
  - # 13
    frequency:    9.1563065080
  - # 14
    frequency:   11.3829981495
  - # 15
    frequency:   12.8581271724
  - # 16
    frequency:   14.4843847607
  - # 17
    frequency:   17.4640124203
  - # 18
    frequency:   33.8606732427

- q-position: [    0.1767677,    0.0000000,    0.0000000 ]
  distance:    0.0606759
  band:
  - # 1
    frequency:    1.4922320148
  - # 2
    frequency:    1.6451763581
  - # 3
    frequency:    2.3450462846
  - # 4
    frequency:    2.9557462778
  - # 5
    frequency:    4.3505895737
  - # 6
    frequency:    4.5937237017
  - # 7
    frequency:    4.9226128236
  - # 8
    frequency:    5.2201193108
  - # 9
    frequency:    5.9450383662
  - # 10
    frequency:    6.3654789440
  - # 11
    frequency:    6.6909028979
  - # 12
    frequency:    6.8915395836
  - # 13
    frequency:    9.1611367155
  - # 14