nqpoint: 300    
npath: 3      
segment_nqpoint:
- 100
- 100
- 100
labels:
- [ 'G', 'M' ]
- [ 'M', 'K' ]
- [ 'K', 'G' ]
reciprocal_lattice:
- [   0.30577961,   0.17654194,   0.00000000 ] # a*
- [   0.00000000,   0.35308388,   0.00000000 ] # b*
- [   0.00000000,   0.00000000,   0.04151719 ] # c*
natom: 6      
lattice:
- [     3.270329272106855,     0.000000000000000,     0.000000000000000 ] # a
- [    -1.635164636053427,     2.832188228373502,     0.000000000000000 ] # b
- [     0.000000000000000,     0.000000000000000,    24.086411139229597 ] # c
points:
- symbol: C # 1
  coordinates: [  0.333332985432215,  0.666666983183674,  0.576574213976942 ]
  mass: 12.010700
- symbol: H # 2
  coordinates: [  0.666666984744047,  0.333332985985144,  0.373654669762806 ]
  mass: 1.007940
- symbol: N # 3
  coordinates: [  0.000000000000000,  0.000000000000000,  0.465161576767096 ]
  mass: 14.006700
- symbol: N # 4
  coordinates: [  0.333332985432215,  0.666666983183674,  0.626345330237194 ]
  mass: 14.006700
- symbol: Sc # 5
  coordinates: [  0.333332985432215,  0.666666983183674,  0.414671579375001 ]
  mass: 44.955912
- symbol: Sc # 6
  coordinates: [  0.666666984744047,  0.333332985985144,  0.515884071598216 ]
  mass: 44.955912

phonon:
- q-position: [    0.0000000,    0.0000000,    0.0000000 ]
  distance:    0.0000000
  band:
  - # 1
    frequency:   -1.5752449166
  - # 2
    frequency:   -1.5752449166
  - # 3
    frequency:   -0.0000023314
  - # 4
    frequency:    0.0000015743
  - # 5
    frequency:    0.0000027020
  - # 6
    frequency:    5.4046130777
  - # 7
    frequency:    5.4046130777
  - # 8
    frequency:    7.4390701125
  - # 9
    frequency:    8.8470980780
  - # 10
    frequency:    8.8470980780
  - # 11
    frequency:   10.9088213924
  - # 12
    frequency:   13.3003094542
  - # 13
    frequency:   13.3003094542
  - # 14
    frequency:   13.7393263413
  - # 15
    frequency:   27.9492502424
  - # 16
    frequency:   27.9492502424
  - # 17
    frequency:   28.2735607495
  - # 18
    frequency:   62.2413697883

- q-position: [    0.0050505,    0.0000000,    0.0000000 ]
  distance:    0.0017833
  band:
  - # 1
    frequency:   -1.5750233140
  - # 2
    frequency:   -1.5743002119
  - # 3
    frequency:   -0.0645909088
  - # 4
    frequency:    0.0885774360
  - # 5
    frequency:    0.1650620241
  - # 6
    frequency:    5.4049859060
  - # 7
    frequency:    5.4061799276
  - # 8
    frequency:    7.4390862428
  - # 9
    frequency:    8.8469891378
  - # 10
    frequency:    8.8476819591
  - # 11
    frequency:   10.9076751552
  - # 12
    frequency:   13.3002422745
  - # 13
    frequency:   13.3006109533
  - # 14
    frequency:   13.7391417339
  - # 15
    frequency:   27.9478787760
  - # 16
    frequency:   27.9490599158
  - # 17
    frequency:   28.2739715459
  - # 18
    frequency:   62.2412546692

- q-position: [    0.0101010,    0.0000000,    0.0000000 ]
  distance:    0.0035665
  band:
  - # 1
    frequency:   -1.5743659081
  - # 2
    frequency:   -1.5715214832
  - # 3
    frequency:   -0.0681100484
  - # 4
    frequency:    0.1772166430
  - # 5
    frequency:    0.3115869431
  - # 6
    frequency:    5.4061044280
  - # 7
    frequency:    5.4108683499
  - # 8
    frequency:    7.4391352894
  - # 9
    frequency:    8.8466626154
  - # 10
    frequency:    8.8494321211
  - # 11
    frequency:   10.9042434422
  - # 12
    frequency:   13.3000411733
  - # 13
    frequency:   13.3015071243
  - # 14
    frequency:   13.7385937216
  - # 15
    frequency:   27.9437735281
  - # 16
    frequency:   27.9484887933
  - # 17
    frequency:   28.2751991625
  - # 18
    frequency:   62.2409097287

- q-position: [    0.0151515,    0.0000000,    0.0000000 ]
  distance:    0.0053498
  band:
  - # 1
    frequency:   -1.5732943182
  - # 2
    frequency:   -1.5670644288
  - # 3
    frequency:   -0.0667141967
  - # 4
    frequency:    0.2659755264
  - # 5
    frequency:    0.4615153999
  - # 6
    frequency:    5.4079687487
  - # 7
    frequency:    5.4186422326
  - # 8
    frequency:    7.4392192184
  - # 9
    frequency:    8.8461194062
  - # 10
    frequency:    8.8523441321
  - # 11
    frequency:   10.8985471260
  - # 12
    frequency:   13.2997074577
  - # 13
    frequency:   13.3029731634
  - # 14
    frequency:   13.7376996587
  - # 15
    frequency:   27.9369611744
  - # 16
    frequency:   27.9475364508
  - # 17
    frequency:   28.2772300352
  - # 18
    frequency:   62.2403362156

- q-position: [    0.0202020,    0.0000000,    0.0000000 ]
  distance:    0.0071330
  band:
  - # 1
    frequency:   -1.5718427009
  - # 2
    frequency:   -1.5611576384
  - # 3
    frequency:   -0.0597247655
  - # 4
    frequency:    0.3549046622
  - # 5
    frequency:    0.6128075488
  - # 6
    frequency:    5.4105790202
  - # 7
    frequency:    5.4294422806
  - # 8
    frequency:    7.4393413021
  - # 9
    frequency:    8.8453610083
  - # 10
    frequency:    8.8564106470
  - # 11
    frequency:   10.8906205915
  - # 12
    frequency:   13.2992432865
  - # 13
    frequency:   13.3049683150
  - # 14
    frequency:   13.7364882088
  - # 15
    frequency:   27.9274838096
  - # 16
    frequency:   27.9462021950
  - # 17
    frequency:   28.2800438412
  - # 18
    frequency:   62.2395362030

- q-position: [    0.0252525,    0.0000000,    0.0000000 ]
  distance:    0.0089163
  band:
  - # 1
    frequency:   -1.5700552012
  - # 2
    frequency:   -1.5540679401
  - # 3
    frequency:   -0.0394834680
  - # 4
    frequency:    0.4440445719
  - # 5
    frequency:    0.7647989234
  - # 6
    frequency:    5.4139354086
  - # 7
    frequency:    5.4431873082
  - # 8
    frequency:    7.4395061127
  - # 9
    frequency:    8.8443895310
  - # 10
    frequency:    8.8616214667
  - # 11
    frequency:   10.8805111550
  - # 12
    frequency:   13.2986516394
  - # 13
    frequency:   13.3074367516
  - # 14
    frequency:   13.7349989302
  - # 15
    frequency:   27.9153960888
  - # 16
    frequency:   27.9444850848
  - # 17
    frequency:   28.2836162378
  - # 18
    frequency:   62.2385125764

- q-position: [    0.0303030,    0.0000000,    0.0000000 ]
  distance:    0.0106995
  band:
  - # 1
    frequency:   -1.5679828600
  - # 2
    frequency:   -1.5460690855
  - # 3
    frequency:    0.0465444827
  - # 4
    frequency:    0.5334239558
  - # 5
    frequency:    0.9171407746
  - # 6
    frequency:    5.4180380474
  - # 7
    frequency:    5.4597759671
  - # 8
    frequency:    7.4397195125
  - # 9
    frequency:    8.8432077051
  - # 10
    frequency:    8.8679636185
  - # 11
    frequency:   10.8682782948
  - # 12
    frequency:   13.2979362761
  - # 13
    frequency:   13.3103088136
  - # 14
    frequency:   13.7332816451
  - # 15
    frequency:   27.9007622865
  - # 16
    frequency:   27.9423839597
  - # 17
    frequency:   28.2879216354
  - # 18
    frequency:   62.2372690178

- q-position: [    0.0353535,    0.0000000,    0.0000000 ]
  distance:    0.0124828
  band:
  - # 1
    frequency:   -1.5656803482
  - # 2
    frequency:   -1.5374205896
  - # 3
    frequency:    0.0912455381
  - # 4
    frequency:    0.6230589606
  - # 5
    frequency:    1.0695605534
  - # 6
    frequency:    5.4228869798
  - # 7
    frequency:    5.4790888330
  - # 8
    frequency:    7.4399886412
  - # 9
    frequency:    8.8418188963
  - # 10
    frequency:    8.8754214526
  - # 11
    frequency:   10.8539927326
  - # 12
    frequency:   13.2971016840
  - # 13
    frequency:   13.3135026213
  - # 14
    frequency:   13.7313955451
  - # 15
    frequency:   27.8836537994
  - # 16
    frequency:   27.9398974764
  - # 17
    frequency:   28.2929354813
  - # 18
    frequency:   62.2358099838

- q-position: [    0.0404040,    0.0000000,    0.0000000 ]
  distance:    0.0142660
  band:
  - # 1
    frequency:   -1.5632028766
  - # 2
    frequency:   -1.5283580622
  - # 3
    frequency:    0.1331908738
  - # 4
    frequency:    0.7129534130
  - # 5
    frequency:    1.2218071578
  - # 6
    frequency:    5.4284820891
  - # 7
    frequency:    5.5009907687
  - # 8
    frequency:    7.4403218983
  - # 9
    frequency:    8.8402271197
  - # 10
    frequency:    8.8839767514
  - # 11
    frequency:   10.8377354104
  - # 12
    frequency:   13.2961530162
  - # 13
    frequency:   13.3169260764
  - # 14
    frequency:   13.7294079742
  - # 15
    frequency:   27.8641473539
  - # 16
    frequency:   27.9370241523
  - # 17
    frequency:   28.2986357926
  - # 18
    frequency:   62.2341406811

- q-position: [    0.0454545,    0.0000000,    0.0000000 ]
  distance:    0.0160493
  band:
  - # 1
    frequency:   -1.5606035596
  - # 2
    frequency:   -1.5190921722
  - # 3
    frequency:    0.1769573662
  - # 4
    frequency:    0.8030998406
  - # 5
    frequency:    1.3736421767
  - # 6
    frequency:    5.4348230198
  - # 7
    frequency:    5.5253334738
  - # 8
    frequency:    7.4407289218
  - # 9
    frequency:    8.8384370547
  - # 10
    frequency:    8.8936088463
  - # 11
    frequency:   10.8195964061
  - # 12
    frequency:   13.2950960204
  - # 13
    frequency:   13.3204792758
  - # 14
    frequency:   13.7273928272
  - # 15
    frequency:   27.8423239329
  - # 16
    frequency:   27.9337624169
  - # 17
    frequency:   28.3050039271
  - # 18
    frequency:   62.2322670364

- q-position: [    0.0505051,    0.0000000,    0.0000000 ]
  distance:    0.0178325
  band:
  - # 1
    frequency:   -1.5579314038
  - # 2
    frequency:   -1.5098117779
  - # 3
    frequency:    0.2236423168
  - # 4
    frequency:    0.8934810316
  - # 5
    frequency:    1.5248416453
  - # 6
    frequency:    5.4419090896
  - # 7
    frequency:    5.5519581341
  - # 8
    frequency:    7.4412205607
  - # 9
    frequency:    8.8364540599
  - # 10
    frequency:    8.9042947359
  - # 11
    frequency:   10.7996738337
  - # 12
    frequency:   13.2939369604
  - # 13
    frequency:   13.3240573517
  - # 14
    frequency:   13.7254285080
  - # 15
    frequency:   27.8182682781
  - # 16
    frequency:   27.9301106683
  - # 17
    frequency:   28.3120247356
  - # 18
    frequency:   62.2301956631

- q-position: [    0.0555556,    0.0000000,    0.0000000 ]
  distance:    0.0196158
  band:
  - # 1
    frequency:   -1.5552299824
  - # 2
    frequency:   -1.5006872843
  - # 3
    frequency:    0.2735873212
  - # 4
    frequency:    0.9840718695
  - # 5
    frequency:    1.6751982989
  - # 6
    frequency:    5.4497391947
  - # 7
    frequency:    5.5806980915
  - # 8
    frequency:    7.4418088412
  - # 9
    frequency:    8.8342841864
  - # 10
    frequency:    8.9160091998
  - # 11
    frequency:   10.7780727653
  - # 12
    frequency:   13.2926825299
  - # 13
    frequency:   13.3275537409
  - # 14
    frequency:   13.7235954153
  - # 15
    frequency:   27.7920687689
  - # 16
    frequency:   27.9260673367
  - # 17
    frequency:   28.3196862985
  - # 18
    frequency:   62.2279338241

- q-position: [    0.0606061,    0.0000000,    0.0000000 ]
  distance:    0.0213990
  band:
  - # 1
    frequency:   -1.5525367610
  - # 2
    frequency:   -1.4918718183
  - # 3
    frequency:    0.3268445552
  - # 4
    frequency:    1.0748412078
  - # 5
    frequency:    1.8245220657
  - # 6
    frequency:    5.4583117082
  - # 7
    frequency:    5.6113814642
  - # 8
    frequency:    7.4425069249
  - # 9
    frequency:    8.8319341889
  - # 10
    frequency:    8.9287249009
  - # 11
    frequency:   10.7549042083
  - # 12
    frequency:   13.2913397615
  - # 13
    frequency:   13.3308638411
  - # 14
    frequency:   13.7219729671
  - # 15
    frequency:   27.7638174886
  - # 16
    frequency:   27.9216309520
  - # 17
    frequency:   28.3279794358
  - # 18
    frequency:   62.2254893914

- q-position: [    0.0656566,    0.0000000,    0.0000000 ]
  distance:    0.0231823
  band:
  - # 1
    frequency:   -1.5498829731
  - # 2
    frequency:   -1.4834994273
  - # 3
    frequency:    0.3833192605
  - # 4
    frequency:    1.1657536041
  - # 5
    frequency:    1.9726389518
  - # 6
    frequency:    5.4676243757
  - # 7
    frequency:    5.6438336596
  - # 8
    frequency:    7.4433290585
  - # 9
    frequency:    8.8294115339
  - # 10
    frequency:    8.9424124698
  - # 11
    frequency:   10.7302841631
  - # 12
    frequency:   13.2899159319
  - # 13
    frequency:   13.3338889599
  - # 14
    frequency:   13.7206362427
  - # 15
    frequency:   27.7336103374
  - # 16
    frequency:   27.9168002165
  - # 17
    frequency:   28.3368971354
  - # 18
    frequency:   62.2228708020

- q-position: [    0.0707071,    0.0000000,    0.0000000 ]
  distance:    0.0249655
  band:
  - # 1
    frequency:   -1.5472939096
  - # 2
    frequency:   -1.4756807736
  - # 3
    frequency:    0.4428286414
  - # 4
    frequency:    1.2567708002
  - # 5
    frequency:    2.1193890135
  - # 6
    frequency:    5.4776742079
  - # 7
    frequency:    5.6778797340
  - # 8
    frequency:    7.4442905124
  - # 9
    frequency:    8.8267244024
  - # 10
    frequency:    8.9570405625
  - # 11
    frequency:   10.7043327809
  - # 12
    frequency:   13.2884184633
  - # 13
    frequency:   13.3365403780
  - # 14
    frequency:   13.7196524081
  - # 15
    frequency:   27.7015471000
  - # 16
    frequency:   27.9115740813
  - # 17
    frequency:   28.3464339943
  - # 18
    frequency:   62.2200870119

- q-position: [    0.0757576,    0.0000000,    0.0000000 ]
  distance:    0.0267488
  band:
  - # 1
    frequency:   -1.5447894833
  - # 2
    frequency:   -1.4684975997
  - # 3
    frequency:    0.5051333659
  - # 4
    frequency:    1.3478528953
  - # 5
    frequency:    2.2646240279
  - # 6
    frequency:    5.4884573721
  - # 7
    frequency:    5.7133465696
  - # 8
    frequency:    7.4454075083
  - # 9
    frequency:    8.8238816884
  - # 10
    frequency:    8.9725758852
  - # 11
    frequency:   10.6771736328
  - # 12
    frequency:   13.2868548241
  - # 13
    frequency:   13.3387432673
  - # 14
    frequency:   13.7190771797
  - # 15
    frequency:   27.6677314195
  - # 16
    frequency:   27.9059518256
  - # 17
    frequency:   28.3565857228
  - # 18
    frequency:   62.2171474465

- q-position: [    0.0808081,    0.0000000,    0.0000000 ]
  distance:    0.0285320
  band:
  - # 1
    frequency:   -1.5423849435
  - # 2
    frequency:   -1.4619975543
  - # 3
    frequency:    0.5699591022
  - # 4
    frequency:    1.4389592114
  - # 5
    frequency:    2.4082052468
  - # 6
    frequency:    5.4999690859
  - # 7
    frequency:    5.7500648454
  - # 8
    frequency:    7.4466971332
  - # 9
    frequency:    8.8208929900
  - # 10
    frequency:    8.9889831756
  - # 11
    frequency:   10.6489330969
  - # 12
    frequency:   13.2852324292
  - # 13
    frequency:   13.3404401389
  - # 14
    frequency:   13.7189516563
  - # 15
    frequency:   27.6322706609
  - # 16
    frequency:   27.8999331372
  - # 17
    frequency:   28.3673487323
  - # 18
    frequency:   62.2140619498

- q-position: [    0.0858586,    0.0000000,    0.0000000 ]
  distance:    0.0303153
  band:
  - # 1
    frequency:   -1.5400916426
  - # 2
    frequency:   -1.4561908382
  - # 3
    frequency:    0.6370140385
  - # 4
    frequency:    1.5300488796
  - # 5
    frequency:    2.5500014276
  - # 6
    frequency:    5.5122035134
  - # 7
    frequency:    5.7878707924
  - # 8
    frequency:    7.4481772384
  - # 9
    frequency:    8.8177685939
  - # 10
    frequency:    9.0062251328
  - # 11
    frequency:   10.6197398665
  - # 12
    frequency:   13.2835585412
  - # 13
    frequency:   13.3415934734
  - # 14
    frequency:   13.7192998716
  - # 15
    frequency:   27.5952756645
  - # 16
    frequency:   27.8935181959
  - # 17
    frequency:   28.3787198100
  - # 18
    frequency:   62.2108407315

- q-position: [    0.0909091,    0.0000000,    0.0000000 ]
  distance:    0.0320985
  band:
  - # 1
    frequency:   -1.5379177861
  - # 2
    frequency:   -1.4510496269
  - # 3
    frequency:    0.7060040857
  - # 4
    frequency:    1.6210811961
  - # 5
    frequency:    2.6898872076
  - # 6
    frequency:    5.5251536660
  - # 7
    frequency:    5.8266077287
  - # 8
    frequency:    7.4498663244
  - # 9
    frequency:    8.8145194519
  - # 10
    frequency:    9.0242622853
  - # 11
    frequency:   10.5897245809
  - # 12
    frequency:   13.2818401748
  - # 13
    frequency:   13.3421872342
  - # 14
    frequency:   13.7201273806
  - # 15
    frequency:   27.5568604019
  - # 16
    frequency:   27.8867077554
  - # 17
    frequency:   28.3906958715
  - # 18
    frequency:   62.2074943125

- q-position: [    0.0959596,    0.0000000,    0.0000000 ]
  distance:    0.0338818
  band:
  - # 1
    frequency:   -1.5358691210
  - # 2
    frequency:   -1.4465105306
  - # 3
    frequency:    0.7766457784
  - # 4
    frequency:    1.7120158003
  - # 5
    frequency:    2.8277418184
  - # 6
    frequency:    5.5388113107
  - # 7
    frequency:    5.8661273757
  - # 8
    frequency:    7.4517834077
  - # 9
    frequency:    8.8111571479
  - # 10
    frequency:    9.0430527834
  - # 11
    frequency:   10.5590195765
  - # 12
    frequency:   13.2800840039
  - # 13
    frequency:   13.3422270803
  - # 14
    frequency:   13.7214210755
  - # 15
    frequency:   27.5171415489
  - # 16
    frequency:   27.8795032259
  - # 17
    frequency:   28.4032737789
  - # 18
    frequency:   62.2040334698

- q-position: [    0.1010101,    0.0000000,    0.0000000 ]
  distance:    0.0356650
  band:
  - # 1
    frequency:   -1.5339495422
  - # 2
    frequency:   -1.4424796756
  - # 3
    frequency:    0.8486763956
  - # 4
    frequency:    1.8028127279
  - # 5
    frequency:    2.9634481067
  - # 6
    frequency:    5.5531668854
  - # 7
    frequency:    5.9062909609
  - # 8
    frequency:    7.4539478728
  - # 9
    frequency:    8.8076938569
  - # 10
    frequency:    9.0625521038
  - # 11
    frequency:   10.5277587625
  - # 12
    frequency:   13.2782962734
  - # 13
    frequency:   13.3417392632
  - # 14
    frequency:   13.7231502620
  - # 15
    frequency:   27.4762379940
  - # 16
    frequency:   27.8719067545
  - # 17
    frequency:   28.4164502131
  - # 18
    frequency:   62.2004691804

- q-position: [    0.1060606,    0.0000000,    0.0000000 ]
  distance:    0.0374483
  band:
  - # 1
    frequency:   -1.5321616095
  - # 2
    frequency:   -1.4388395346
  - # 3
    frequency:    0.9218609291
  - # 4
    frequency:    1.8934323817
  - # 5
    frequency:    3.0968918203
  - # 6
    frequency:    5.5682094254
  - # 7
    frequency:    5.9469701117
  - # 8
    frequency:    7.4563793069
  - # 9
    frequency:    8.8041422936
  - # 10
    frequency:    9.0827126468
  - # 11
    frequency:   10.4960776237
  - # 12
    frequency:   13.2764827166
  - # 13
    frequency:   13.3407683699
  - # 14
    frequency:   13.7252688494
  - # 15
    frequency:   27.4342702966
  - # 16
    frequency:   27.8639213034
  - # 17
    frequency:   28.4302215861
  - # 18
    frequency:   62.1968125650

- q-position: [    0.1111111,    0.0000000,    0.0000000 ]
  distance:    0.0392315
  band:
  - # 1
    frequency:   -1.5305069774
  - # 2
    frequency:   -1.4354564640
  - # 3
    frequency:    0.9959958911
  - # 4
    frequency:    1.9838354572
  - # 5
    frequency:    3.2279611201
  - # 6
    frequency:    5.5839265001
  - # 7
    frequency:    5.9880475484
  - # 8
    frequency:    7.4590973197
  - # 9
    frequency:    8.8005156515
  - # 10
    frequency:    9.1034832069
  - # 11
    frequency:   10.4641133615
  - # 12
    frequency:   13.2746484791
  - # 13
    frequency:   13.3393742146
  - # 14
    frequency:   13.7277183646
  - # 15
    frequency:   27.3913601107
  - # 16
    frequency:   27.8555507245
  - # 17
    frequency:   28.4445839861
  - # 18
    frequency:   62.1930748323

- q-position: [    0.1161616,    0.0000000,    0.0000000 ]
  distance:    0.0410148
  band:
  - # 1
    frequency:   -1.5289867476
  - # 2
    frequency:   -1.4321880147
  - # 3
    frequency:    1.0709103231
  - # 4
    frequency:    2.0739828496
  - # 5
    frequency:    3.3565462858
  - # 6
    frequency:    5.6003041631
  - # 7
    frequency:    6.0294175790
  - # 8
    frequency:    7.4621213508
  - # 9
    frequency:    8.7968275322
  - # 10
    frequency:    9.1248082881
  - # 11
    frequency:   10.4320051884
  - # 12
    frequency:   13.2727980492
  - # 13
    frequency:   13.3376282570
  - # 14
    frequency:   13.7304314268
  - # 15
    frequency:   27.3476295858
  - # 16
    frequency:   27.8467998302
  - # 17
    frequency:   28.4595331437
  - # 18
    frequency:   62.1892672230

- q-position: [    0.1212121,    0.0000000,    0.0000000 ]
  distance:    0.0427980
  band:
  - # 1
    frequency:   -1.5276017542
  - # 2
    frequency:   -1.4288893461
  - # 3
    frequency:    1.1464646119
  - # 4
    frequency:    2.1638355629
  - # 5
    frequency:    3.4825395947
  - # 6
    frequency:    5.6173269152
  - # 7
    frequency:    6.0709863988
  - # 8
    frequency:    7.4654704662
  - # 9
    frequency:    8.7930918654
  - # 10
    frequency:    9.1466272331
  - # 11
    frequency:   10.3998948014
  - # 12
    frequency:   13.2709351952
  - # 13
    frequency:   13.3356099212
  - # 14
    frequency:   13.7333353171
  - # 15
    frequency:   27.3032007563
  - # 16
    frequency:   27.8376744588
  - # 17
    frequency:   28.4750644155
  - # 18
    frequency:   62.1854009554

- q-position: [    0.1262626,    0.0000000,    0.0000000 ]
  distance:    0.0445813
  band:
  - # 1
    frequency:   -1.5263527932
  - # 2
    frequency:   -1.4254183824
  - # 3
    frequency:    1.2225477979
  - # 4
    frequency:    2.2533546332
  - # 5
    frequency:    3.6058353585
  - # 6
    frequency:    5.6349776827
  - # 7
    frequency:    6.1126721955
  - # 8
    frequency:    7.4691631496
  - # 9
    frequency:    8.7893228192
  - # 10
    frequency:    9.1688731240
  - # 11
    frequency:   10.3679270693
  - # 12
    frequency:   13.2690629117
  - # 13
    frequency:   13.3334031289
  - # 14
    frequency:   13.7363553388
  - # 15
    frequency:   27.2581949276
  - # 16
    frequency:   27.8281815336
  - # 17
    frequency:   28.4911727791
  - # 18
    frequency:   62.1814871716

- q-position: [    0.1313131,    0.0000000,    0.0000000 ]
  distance:    0.0463645
  band:
  - # 1
    frequency:   -1.5252408071
  - # 2
    frequency:   -1.4216396179
  - # 3
    frequency:    1.2990740149
  - # 4
    frequency:    2.3425010759
  - # 5
    frequency:    3.7263301117
  - # 6
    frequency:    5.6532378099
  - # 7
    frequency:    6.1544050560
  - # 8
    frequency:    7.4732170923
  - # 9
    frequency:    8.7855347018
  - # 10
    frequency:    9.1914714070
  - # 11
    frequency:   10.3362509787
  - # 12
    frequency:   13.2671833720
  - # 13
    frequency:   13.3310932623
  - # 14
    frequency:   13.7394177584
  - # 15
    frequency:   27.2127320693
  - # 16
    frequency:   27.8183291155
  - # 17
    frequency:   28.5078528347
  - # 18
    frequency:   62.1775368858

- q-position: [    0.1363636,    0.0000000,    0.0000000 ]
  distance:    0.0481478
  band:
  - # 1
    frequency:   -1.5242670330
  - # 2
    frequency:   -1.4174266634
  - # 3
    frequency:    1.3759785757
  - # 4
    frequency:    2.4312358602
  - # 5
    frequency:    3.8439229516
  - # 6
    frequency:    5.6720870685
  - # 7
    frequency:    6.1961266699
  - # 8
    frequency:    7.4776489893
  - # 9
    frequency:    8.7817418558
  - # 10
    frequency:    9.2143381815
  - # 11
    frequency:   10.3050208968
  - # 12
    frequency:   13.2652978903
  - # 13
    frequency:   13.3287646728
  - # 14
    frequency:   13.7424522129
  - # 15
    frequency:   27.1669302201
  - # 16
    frequency:   27.8081264483
  - # 17
    frequency:   28.5250988124
  - # 18
    frequency:   62.1735609341

- q-position: [    0.1414141,    0.0000000,    0.0000000 ]
  distance:    0.0499311
  band:
  - # 1
    frequency:   -1.5234331214
  - # 2
    frequency:   -1.4126637270
  - # 3
    frequency:    1.4532140692
  - # 4
    frequency:    2.5195199143
  - # 5
    frequency:    3.9585160314
  - # 6
    frequency:    5.6915036816
  - # 7
    frequency:    6.2377898221
  - # 8
    frequency:    7.4824743476
  - # 9
    frequency:    8.7779585449
  - # 10
    frequency:    9.2373780909
  - # 11
    frequency:   10.2743982176
  - # 12
    frequency:   13.2634068897
  - # 13
    frequency:   13.3264987660
  - # 14
    frequency:   13.7453935553
  - # 15
    frequency:   27.1209049119
  - # 16
    frequency:   27.7975839951
  - # 17
    frequency:   28.5429045804
  - # 18
    frequency:   62.1695699264

- q-position: [    0.1464646,    0.0000000,    0.0000000 ]
  distance:    0.0517143
  band:
  - # 1
    frequency:   -1.5227412314
  - # 2
    frequency:   -1.4072462558
  - # 3
    frequency:    1.5307467033
  - # 4
    frequency:    2.6073141601
  - # 5
    frequency:    4.0700152132
  - # 6
    frequency:    5.7114643639
  - # 7
    frequency:    6.2793576674
  - # 8
    frequency:    7.4877073158
  - # 9
    frequency:    8.7741988354
  - # 10
    frequency:    9.2604817481
  - # 11
    frequency:   10.2445534607
  - # 12
    frequency:   13.2615098796
  - # 13
    frequency:   13.3243726311
  - # 14
    frequency:   13.7481831656
  - # 15
    frequency:   27.0747686190
  - # 16
    frequency:   27.7867134663
  - # 17
    frequency:   28.5612636554
  - # 18
    frequency:   62.1655742013

- q-position: [    0.1515152,    0.0000000,    0.0000000 ]
  distance:    0.0534976
  band:
  - # 1
    frequency:   -1.5221941060
  - # 2
    frequency:   -1.4010809592
  - # 3
    frequency:    1.6085530173
  - # 4
    frequency:    2.6945795766
  - # 5
    frequency:    4.1783308825
  - # 6
    frequency:    5.7319443776
  - # 7
    frequency:    6.3208027804
  - # 8
    frequency:    7.4933605422
  - # 9
    frequency:    8.7704764730
  - # 10
    frequency:    9.2835226435
  - # 11
    frequency:   10.2156688819
  - # 12
    frequency:   13.2596054387
  - # 13
    frequency:   13.3224581470
  - # 14
    frequency:   13.7507697941
  - # 15
    frequency:   27.0286302362
  - # 16
    frequency:   27.7755278375
  - # 17
    frequency:   28.5801692115
  - # 18
    frequency:   62.1615837829

- q-position: [    0.1565657,    0.0000000,    0.0000000 ]
  distance:    0.0552808
  band:
  - # 1
    frequency:   -1.5217951288
  - # 2
    frequency:   -1.3940853998
  - # 3
    frequency:    1.6866170126
  - # 4
    frequency:    2.7812772898
  - # 5
    frequency:    4.2833789284
  - # 6
    frequency:    5.7529176029
  - # 7
    frequency:    6.3621059763
  - # 8
    frequency:    7.4994450713
  - # 9
    frequency:    8.7668047574
  - # 10
    frequency:    9.3063535218
  - # 11
    frequency:   10.1879416190
  - # 12
    frequency:   13.2576912063
  - # 13
    frequency:   13.3208214815
  - # 14
    frequency:   13.7531100115
  - # 15
    frequency:   26.9825945913
  - # 16
    frequency:   27.7640413577
  - # 17
    frequency:   28.5996140868
  - # 18
    frequency:   62.1576083409

- q-position: [    0.1616162,    0.0000000,    0.0000000 ]
  distance:    0.0570641
  band:
  - # 1
    frequency:   -1.5215483650
  - # 2
    frequency:   -1.3861873014
  - # 3
    frequency:    1.7649277038
  - # 4
    frequency:    2.8673686863
  - # 5
    frequency:    4.3850818827
  - # 6
    frequency:    5.7743566222
  - # 7
    frequency:    6.4032549065
  - # 8
    frequency:    7.5059702853
  - # 9
    frequency:    8.7631964153
  - # 10
    frequency:    9.3288023035
  - # 11
    frequency:   10.1615873059
  - # 12
    frequency:   13.2557638787
  - # 13
    frequency:   13.3195228972
  - # 14
    frequency:   13.7551683488
  - # 15
    frequency:   26.9367619953
  - # 16
    frequency:   27.7522695470
  - # 17
    frequency:   28.6195907894
  - # 18
    frequency:   62.1536571542

- q-position: [    0.1666667,    0.0000000,    0.0000000 ]
  distance:    0.0588473
  band:
  - # 1
    frequency:   -1.5214585851
  - # 2
    frequency:   -1.3773236855
  - # 3
    frequency:    1.8434770615
  - # 4
    frequency:    2.9528155466
  - # 5
    frequency:    4.4833702069
  - # 6
    frequency:    5.7962328184
  - # 7
    frequency:    6.4442424387
  - # 8
    frequency:    7.5129438983
  - # 9
    frequency:    8.7596634752
  - # 10
    frequency:    9.3506677999
  - # 11
    frequency:   10.1368439200
  - # 12
    frequency:   13.2538192123
  - # 13
    frequency:   13.3186167842
  - # 14
    frequency:   13.7569171954
  - # 15
    frequency:   26.8912278338
  - # 16
    frequency:   27.7402291834
  - # 17
    frequency:   28.6400914981
  - # 18
    frequency:   62.1497390772

- q-position: [    0.1717172,    0.0000000,    0.0000000 ]
  distance:    0.0606306
  band:
  - # 1
    frequency:   -1.5215312724
  - # 2
    frequency:   -1.3674399120
  - # 3
    frequency:    1.9222583086
  - # 4
    frequency:    3.0375801956
  - # 5
    frequency:    4.5781837018
  - # 6
    frequency:    5.8185164842
  - # 7
    frequency:    6.4850648458
  - # 8
    frequency:    7.5203720086
  - # 9
    frequency:    8.7562171447
  - # 10
    frequency:    9.3717157749
  - # 11
    frequency:   10.1139753213
  - # 12
    frequency:   13.2518520312
  - # 13
    frequency:   13.3181518500
  - # 14
    frequency:   13.7583365202
  - # 15
    frequency:   26.8460822026
  - # 16
    frequency:   27.7279382780
  - # 17
    frequency:   28.6611080607
  - # 18
    frequency:   62.1458625098

- q-position: [    0.1767677,    0.0000000,    0.0000000 ]
  distance:    0.0624138
  band:
  - # 1
    frequency:   -1.5217726122
  - # 2
    frequency:   -1.3564886769
  - # 3
    frequency:    2.0012645257
  - # 4
    frequency:    3.1216256652
  - # 5
    frequency:    4.6694730012
  - # 6
    frequency:    5.8411769430
  - # 7
    frequency:    6.5257198405
  - # 8
    frequency:    7.5282592120
  - # 9
    frequency:    8.7528676940
  - # 10
    frequency:    9.3916763860
  - # 11
    frequency:   10.0932734666
  - # 12
    frequency:   13.2498562400
  - # 13
    frequency:   13.3181714076
  - # 14