nqpoint: 300    
npath: 3      
segment_nqpoint:
- 100
- 100
- 100
labels:
- [ 'G', 'M' ]
- [ 'M', 'K' ]
- [ 'K', 'G' ]
reciprocal_lattice:
- [   0.30511769,   0.17615978,   0.00000000 ] # a*
- [   0.00000000,   0.35231956,   0.00000000 ] # b*
- [   0.00000000,   0.00000000,   0.03540274 ] # c*
natom: 9      
lattice:
- [     3.277423896861551,     0.000000000000000,     0.000000000000000 ] # a
- [    -1.638711948430775,     2.838332353658913,     0.000000000000000 ] # b
- [     0.000000000000000,     0.000000000000000,    28.246398411529654 ] # c
points:
- symbol: C # 1
  coordinates: [  0.333332985432215,  0.666666983183674,  0.639204263175367 ]
  mass: 12.010700
- symbol: C # 2
  coordinates: [  0.666666984744048,  0.333332985985145,  0.360696893342056 ]
  mass: 12.010700
- symbol: N # 3
  coordinates: [  0.000000000000000,  0.000000000000000,  0.486545881278553 ]
  mass: 14.006700
- symbol: N # 4
  coordinates: [  0.333332985432215,  0.666666983183674,  0.681375307786979 ]
  mass: 14.006700
- symbol: N # 5
  coordinates: [  0.666666984744048,  0.333332985985145,  0.318624692213021 ]
  mass: 14.006700
- symbol: O # 6
  coordinates: [  0.666666984744048,  0.333332985985145,  0.407978077799886 ]
  mass: 15.999400
- symbol: S # 7
  coordinates: [  0.333332985432215,  0.666666983183674,  0.579876047999280 ]
  mass: 32.065000
- symbol: Ti # 8
  coordinates: [  0.333332985432215,  0.666666983183674,  0.452533339366853 ]
  mass: 47.867000
- symbol: Ti # 9
  coordinates: [  0.666666984744048,  0.333332985985145,  0.524728965101317 ]
  mass: 47.867000

phonon:
- q-position: [    0.0000000,    0.0000000,    0.0000000 ]
  distance:    0.0000000
  band:
  - # 1
    frequency:   -1.1983884958
  - # 2
    frequency:   -1.1983884958
  - # 3
    frequency:   -0.3561223585
  - # 4
    frequency:   -0.3561223583
  - # 5
    frequency:   -0.0000153531
  - # 6
    frequency:    0.0000003799
  - # 7
    frequency:    0.0000177101
  - # 8
    frequency:    4.3341213739
  - # 9
    frequency:    4.3341213739
  - # 10
    frequency:    5.5840551548
  - # 11
    frequency:    7.0827389705
  - # 12
    frequency:    7.0827389705
  - # 13
    frequency:    8.4819788754
  - # 14
    frequency:    8.4819788754
  - # 15
    frequency:    8.9165384838
  - # 16
    frequency:   11.0838611880
  - # 17
    frequency:   11.0838611880
  - # 18
    frequency:   11.3584822460
  - # 19
    frequency:   14.0999212952
  - # 20
    frequency:   14.0999212952
  - # 21
    frequency:   14.8432861613
  - # 22
    frequency:   16.3323551093
  - # 23
    frequency:   16.3323551093
  - # 24
    frequency:   20.5173211505
  - # 25
    frequency:   31.8766826046
  - # 26
    frequency:   64.7497926826
  - # 27
    frequency:   67.6121647585

- q-position: [    0.0050505,    0.0000000,    0.0000000 ]
  distance:    0.0017794
  band:
  - # 1
    frequency:   -1.1976493115
  - # 2
    frequency:   -1.1952346808
  - # 3
    frequency:   -0.3569882246
  - # 4
    frequency:   -0.3495044193
  - # 5
    frequency:    0.0025878657
  - # 6
    frequency:    0.0822440061
  - # 7
    frequency:    0.1248073053
  - # 8
    frequency:    4.3345031400
  - # 9
    frequency:    4.3357858739
  - # 10
    frequency:    5.5836469781
  - # 11
    frequency:    7.0825049266
  - # 12
    frequency:    7.0833124061
  - # 13
    frequency:    8.4816740898
  - # 14
    frequency:    8.4820075893
  - # 15
    frequency:    8.9162949042
  - # 16
    frequency:   11.0833360929
  - # 17
    frequency:   11.0835570538
  - # 18
    frequency:   11.3581321253
  - # 19
    frequency:   14.0999226248
  - # 20
    frequency:   14.1000818818
  - # 21
    frequency:   14.8428510348
  - # 22
    frequency:   16.3323168265
  - # 23
    frequency:   16.3324466863
  - # 24
    frequency:   20.5172107205
  - # 25
    frequency:   31.8763010896
  - # 26
    frequency:   64.7496933829
  - # 27
    frequency:   67.6119786710

- q-position: [    0.0101010,    0.0000000,    0.0000000 ]
  distance:    0.0035588
  band:
  - # 1
    frequency:   -1.1954406116
  - # 2
    frequency:   -1.1857853226
  - # 3
    frequency:   -0.3586832864
  - # 4
    frequency:   -0.3279531858
  - # 5
    frequency:    0.0104642798
  - # 6
    frequency:    0.1625572746
  - # 7
    frequency:    0.2485614478
  - # 8
    frequency:    4.3356470467
  - # 9
    frequency:    4.3407661201
  - # 10
    frequency:    5.5824272662
  - # 11
    frequency:    7.0818026565
  - # 12
    frequency:    7.0850288829
  - # 13
    frequency:    8.4807601119
  - # 14
    frequency:    8.4820935447
  - # 15
    frequency:    8.9155656652
  - # 16
    frequency:   11.0817635856
  - # 17
    frequency:   11.0826475038
  - # 18
    frequency:   11.3570803693
  - # 19
    frequency:   14.0999269032
  - # 20
    frequency:   14.1005627549
  - # 21
    frequency:   14.8415468013
  - # 22
    frequency:   16.3322021463
  - # 23
    frequency:   16.3327213533
  - # 24
    frequency:   20.5168796715
  - # 25
    frequency:   31.8751574671
  - # 26
    frequency:   64.7493956510
  - # 27
    frequency:   67.6114207759

- q-position: [    0.0151515,    0.0000000,    0.0000000 ]
  distance:    0.0053382
  band:
  - # 1
    frequency:   -1.1917881515
  - # 2
    frequency:   -1.1700698014
  - # 3
    frequency:   -0.3594950829
  - # 4
    frequency:   -0.2865933077
  - # 5
    frequency:    0.0241668485
  - # 6
    frequency:    0.2403704201
  - # 7
    frequency:    0.3713234197
  - # 8
    frequency:    4.3375489269
  - # 9
    frequency:    4.3490226696
  - # 10
    frequency:    5.5804104184
  - # 11
    frequency:    7.0806317570
  - # 12
    frequency:    7.0878770063
  - # 13
    frequency:    8.4792380841
  - # 14
    frequency:    8.4822361522
  - # 15
    frequency:    8.9143552778
  - # 16
    frequency:   11.0791519849
  - # 17
    frequency:   11.0811408753
  - # 18
    frequency:   11.3553230089
  - # 19
    frequency:   14.0999349943
  - # 20
    frequency:   14.1013612505
  - # 21
    frequency:   14.8393769306
  - # 22
    frequency:   16.3320115495
  - # 23
    frequency:   16.3331789142
  - # 24
    frequency:   20.5163287255
  - # 25
    frequency:   31.8732545014
  - # 26
    frequency:   64.7488999886
  - # 27
    frequency:   67.6104921746

- q-position: [    0.0202020,    0.0000000,    0.0000000 ]
  distance:    0.0071176
  band:
  - # 1
    frequency:   -1.1867322681
  - # 2
    frequency:   -1.1481150367
  - # 3
    frequency:   -0.3581522606
  - # 4
    frequency:   -0.2140424849
  - # 5
    frequency:    0.0463122607
  - # 6
    frequency:    0.3161253632
  - # 7
    frequency:    0.4936791410
  - # 8
    frequency:    4.3402018609
  - # 9
    frequency:    4.3604908222
  - # 10
    frequency:    5.5776202564
  - # 11
    frequency:    7.0789915978
  - # 12
    frequency:    7.0918381017
  - # 13
    frequency:    8.4771099322
  - # 14
    frequency:    8.4824343298
  - # 15
    frequency:    8.9126713008
  - # 16
    frequency:   11.0755151046
  - # 17
    frequency:   11.0790503382
  - # 18
    frequency:   11.3528541292
  - # 19
    frequency:   14.0999483240
  - # 20
    frequency:   14.1024729138
  - # 21
    frequency:   14.8363473089
  - # 22
    frequency:   16.3317457596
  - # 23
    frequency:   16.3338190307
  - # 24
    frequency:   20.5155590815
  - # 25
    frequency:   31.8705967891
  - # 26
    frequency:   64.7482072297
  - # 27
    frequency:   67.6091946986

- q-position: [    0.0252525,    0.0000000,    0.0000000 ]
  distance:    0.0088970
  band:
  - # 1
    frequency:   -1.1803243102
  - # 2
    frequency:   -1.1199154309
  - # 3
    frequency:   -0.3540045373
  - # 4
    frequency:   -0.0748867750
  - # 5
    frequency:    0.1110554744
  - # 6
    frequency:    0.3904864309
  - # 7
    frequency:    0.6160904955
  - # 8
    frequency:    4.3435962138
  - # 9
    frequency:    4.3750821054
  - # 10
    frequency:    5.5740897766
  - # 11
    frequency:    7.0768813839
  - # 12
    frequency:    7.0968866693
  - # 13
    frequency:    8.4743783970
  - # 14
    frequency:    8.4826863564
  - # 15
    frequency:    8.9105243995
  - # 16
    frequency:   11.0708721779
  - # 17
    frequency:   11.0763928343
  - # 18
    frequency:   11.3496668928
  - # 19
    frequency:   14.0999688585
  - # 20
    frequency:   14.1038914760
  - # 21
    frequency:   14.8324663918
  - # 22
    frequency:   16.3314056286
  - # 23
    frequency:   16.3346412050
  - # 24
    frequency:   20.5145724098
  - # 25
    frequency:   31.8671907429
  - # 26
    frequency:   64.7473185394
  - # 27
    frequency:   67.6075309045

- q-position: [    0.0303030,    0.0000000,    0.0000000 ]
  distance:    0.0106764
  band:
  - # 1
    frequency:   -1.1726222238
  - # 2
    frequency:   -1.0853963851
  - # 3
    frequency:   -0.3467487174
  - # 4
    frequency:    0.0669450675
  - # 5
    frequency:    0.2562272961
  - # 6
    frequency:    0.4639863258
  - # 7
    frequency:    0.7387696121
  - # 8
    frequency:    4.3477196890
  - # 9
    frequency:    4.3926862142
  - # 10
    frequency:    5.5698608393
  - # 11
    frequency:    7.0743002415
  - # 12
    frequency:    7.1029909865
  - # 13
    frequency:    8.4710470777
  - # 14
    frequency:    8.4829896726
  - # 15
    frequency:    8.9079284253
  - # 16
    frequency:   11.0652477501
  - # 17
    frequency:   11.0731876441
  - # 18
    frequency:   11.3457549222
  - # 19
    frequency:   14.0999990756
  - # 20
    frequency:   14.1056088204
  - # 21
    frequency:   14.8277454124
  - # 22
    frequency:   16.3309919868
  - # 23
    frequency:   16.3356447566
  - # 24
    frequency:   20.5133708428
  - # 25
    frequency:   31.8630445701
  - # 26
    frequency:   64.7462354103
  - # 27
    frequency:   67.6055040658

- q-position: [    0.0353535,    0.0000000,    0.0000000 ]
  distance:    0.0124557
  band:
  - # 1
    frequency:   -1.1636857800
  - # 2
    frequency:   -1.0443756074
  - # 3
    frequency:   -0.3361884017
  - # 4
    frequency:    0.1054101735
  - # 5
    frequency:    0.3688684453
  - # 6
    frequency:    0.5369698308
  - # 7
    frequency:    0.8617399619
  - # 8
    frequency:    4.3525573937
  - # 9
    frequency:    4.4131732840
  - # 10
    frequency:    5.5649838271
  - # 11
    frequency:    7.0712473276
  - # 12
    frequency:    7.1101138242
  - # 13
    frequency:    8.4671204867
  - # 14
    frequency:    8.4833406368
  - # 15
    frequency:    8.9049005145
  - # 16
    frequency:   11.0586715411
  - # 17
    frequency:   11.0694546204
  - # 18
    frequency:   11.3411140029
  - # 19
    frequency:   14.1000419286
  - # 20
    frequency:   14.1076149340
  - # 21
    frequency:   14.8221986392
  - # 22
    frequency:   16.3305054596
  - # 23
    frequency:   16.3368287921
  - # 24
    frequency:   20.5119569652
  - # 25
    frequency:   31.8581682433
  - # 26
    frequency:   64.7449596586
  - # 27
    frequency:   67.6031181634

- q-position: [    0.0404040,    0.0000000,    0.0000000 ]
  distance:    0.0142351
  band:
  - # 1
    frequency:   -1.1535719368
  - # 2
    frequency:   -0.9965255831
  - # 3
    frequency:   -0.3220875799
  - # 4
    frequency:    0.1437224606
  - # 5
    frequency:    0.4668946008
  - # 6
    frequency:    0.6096289701
  - # 7
    frequency:    0.9849080479
  - # 8
    frequency:    4.3580919204
  - # 9
    frequency:    4.4363963625
  - # 10
    frequency:    5.5595173110
  - # 11
    frequency:    7.0677219613
  - # 12
    frequency:    7.1182132434
  - # 13
    frequency:    8.4626041150
  - # 14
    frequency:    8.4837342431
  - # 15
    frequency:    8.9014612007
  - # 16
    frequency:   11.0511782766
  - # 17
    frequency:   11.0652121307
  - # 18
    frequency:   11.3357440670
  - # 19
    frequency:   14.1001008032
  - # 20
    frequency:   14.1098978438
  - # 21
    frequency:   14.8158436799
  - # 22
    frequency:   16.3299462640
  - # 23
    frequency:   16.3381921705
  - # 24
    frequency:   20.5103338004
  - # 25
    frequency:   31.8525734669
  - # 26
    frequency:   64.7434934198
  - # 27
    frequency:   67.6003778730

- q-position: [    0.0454545,    0.0000000,    0.0000000 ]
  distance:    0.0160145
  band:
  - # 1
    frequency:   -1.1423307593
  - # 2
    frequency:   -0.9413392161
  - # 3
    frequency:   -0.3040675239
  - # 4
    frequency:    0.1860601202
  - # 5
    frequency:    0.5576410669
  - # 6
    frequency:    0.6820486863
  - # 7
    frequency:    1.1081147801
  - # 8
    frequency:    4.3643034397
  - # 9
    frequency:    4.4621939413
  - # 10
    frequency:    5.5535277668
  - # 11
    frequency:    7.0637237764
  - # 12
    frequency:    7.1272434307
  - # 13
    frequency:    8.4575045049
  - # 14
    frequency:    8.4841638124
  - # 15
    frequency:    8.8976345372
  - # 16
    frequency:   11.0428074884
  - # 17
    frequency:   11.0604747457
  - # 18
    frequency:   11.3296514231
  - # 19
    frequency:   14.1001794694
  - # 20
    frequency:   14.1124435337
  - # 21
    frequency:   14.8087018217
  - # 22
    frequency:   16.3293139913
  - # 23
    frequency:   16.3397334630
  - # 24
    frequency:   20.5085047963
  - # 25
    frequency:   31.8462736364
  - # 26
    frequency:   64.7418391424
  - # 27
    frequency:   67.5972885514

- q-position: [    0.0505051,    0.0000000,    0.0000000 ]
  distance:    0.0177939
  band:
  - # 1
    frequency:   -1.1300021858
  - # 2
    frequency:   -0.8781007194
  - # 3
    frequency:   -0.2814888276
  - # 4
    frequency:    0.2335829443
  - # 5
    frequency:    0.6440342774
  - # 6
    frequency:    0.7542432835
  - # 7
    frequency:    1.2311694181
  - # 8
    frequency:    4.3711698066
  - # 9
    frequency:    4.4903924135
  - # 10
    frequency:    5.5470893863
  - # 11
    frequency:    7.0592528919
  - # 12
    frequency:    7.1371555392
  - # 13
    frequency:    8.4518293322
  - # 14
    frequency:    8.4846206707
  - # 15
    frequency:    8.8934482226
  - # 16
    frequency:   11.0336032833
  - # 17
    frequency:   11.0552507053
  - # 18
    frequency:   11.3228512005
  - # 19
    frequency:   14.1002820284
  - # 20
    frequency:   14.1152358385
  - # 21
    frequency:   14.8007984022
  - # 22
    frequency:   16.3286073874
  - # 23
    frequency:   16.3414509081
  - # 24
    frequency:   20.5064738089
  - # 25
    frequency:   31.8392837923
  - # 26
    frequency:   64.7399995824
  - # 27
    frequency:   67.5938562204

- q-position: [    0.0555556,    0.0000000,    0.0000000 ]
  distance:    0.0195733
  band:
  - # 1
    frequency:   -1.1166137678
  - # 2
    frequency:   -0.8058677905
  - # 3
    frequency:   -0.2532368845
  - # 4
    frequency:    0.2872119592
  - # 5
    frequency:    0.7275201796
  - # 6
    frequency:    0.8261822582
  - # 7
    frequency:    1.3538712016
  - # 8
    frequency:    4.3786666776
  - # 9
    frequency:    4.5208083364
  - # 10
    frequency:    5.5402840320
  - # 11
    frequency:    7.0543101005
  - # 12
    frequency:    7.1478984966
  - # 13
    frequency:    8.4455874919
  - # 14
    frequency:    8.4850938274
  - # 15
    frequency:    8.8889337208
  - # 16
    frequency:   11.0236140816
  - # 17
    frequency:   11.0495391977
  - # 18
    frequency:   11.3153699771
  - # 19
    frequency:   14.1004128560
  - # 20
    frequency:   14.1182563102
  - # 21
    frequency:   14.7921632056
  - # 22
    frequency:   16.3278241423
  - # 23
    frequency:   16.3433423640
  - # 24
    frequency:   20.5042450846
  - # 25
    frequency:   31.8316205693
  - # 26
    frequency:   64.7379777955
  - # 27
    frequency:   67.5900875482

- q-position: [    0.0606061,    0.0000000,    0.0000000 ]
  distance:    0.0213527
  band:
  - # 1
    frequency:   -1.1021793475
  - # 2
    frequency:   -0.7234769501
  - # 3
    frequency:   -0.2171990204
  - # 4
    frequency:    0.3480935335
  - # 5
    frequency:    0.8089106237
  - # 6
    frequency:    0.8978079783
  - # 7
    frequency:    1.4760221920
  - # 8
    frequency:    4.3867676394
  - # 9
    frequency:    4.5532503918
  - # 10
    frequency:    5.5332013848
  - # 11
    frequency:    7.0488970713
  - # 12
    frequency:    7.1594197534
  - # 13
    frequency:    8.4387891887
  - # 14
    frequency:    8.4855696745
  - # 15
    frequency:    8.8841263651
  - # 16
    frequency:   11.0128923259
  - # 17
    frequency:   11.0433274986
  - # 18
    frequency:   11.3072485443
  - # 19
    frequency:   14.1005765430
  - # 20
    frequency:   14.1214840539
  - # 21
    frequency:   14.7828308750
  - # 22
    frequency:   16.3269606961
  - # 23
    frequency:   16.3454052578
  - # 24
    frequency:   20.5018232407
  - # 25
    frequency:   31.8233021386
  - # 26
    frequency:   64.7357771296
  - # 27
    frequency:   67.5859898298

- q-position: [    0.0656566,    0.0000000,    0.0000000 ]
  distance:    0.0231321
  band:
  - # 1
    frequency:   -1.0866985179
  - # 2
    frequency:   -0.6295533983
  - # 3
    frequency:   -0.1685342524
  - # 4
    frequency:    0.4177117164
  - # 5
    frequency:    0.8887007816
  - # 6
    frequency:    0.9690476814
  - # 7
    frequency:    1.5974338848
  - # 8
    frequency:    4.3954443477
  - # 9
    frequency:    4.5875209477
  - # 10
    frequency:    5.5259393412
  - # 11
    frequency:    7.0430165633
  - # 12
    frequency:    7.1716659433
  - # 13
    frequency:    8.4314460290
  - # 14
    frequency:    8.4860317258
  - # 15
    frequency:    8.8790654322
  - # 16
    frequency:   11.0014941604
  - # 17
    frequency:   11.0365880542
  - # 18
    frequency:   11.2985447278
  - # 19
    frequency:   14.1007778341
  - # 20
    frequency:   14.1248955262
  - # 21
    frequency:   14.7728413373
  - # 22
    frequency:   16.3260120743
  - # 23
    frequency:   16.3476365327
  - # 24
    frequency:   20.4992132457
  - # 25
    frequency:   31.8143481472
  - # 26
    frequency:   64.7334012160
  - # 27
    frequency:   67.5815709650

- q-position: [    0.0707071,    0.0000000,    0.0000000 ]
  distance:    0.0249115
  band:
  - # 1
    frequency:   -1.0701566319
  - # 2
    frequency:   -0.5222143035
  - # 3
    frequency:   -0.0885046473
  - # 4
    frequency:    0.4975756111
  - # 5
    frequency:    0.9672103073
  - # 6
    frequency:    1.0398215969
  - # 7
    frequency:    1.7179296356
  - # 8
    frequency:    4.4046666750
  - # 9
    frequency:    4.6234171369
  - # 10
    frequency:    5.5186047231
  - # 11
    frequency:    7.0366726489
  - # 12
    frequency:    7.1845834383
  - # 13
    frequency:    8.4235711115
  - # 14
    frequency:    8.4864604207
  - # 15
    frequency:    8.8737941703
  - # 16
    frequency:   10.9894790830
  - # 17
    frequency:   11.0292756620
  - # 18
    frequency:   11.2893361129
  - # 19
    frequency:   14.1010215669
  - # 20
    frequency:   14.1284642946
  - # 21
    frequency:   14.7622402356
  - # 22
    frequency:   16.3249717578
  - # 23
    frequency:   16.3500325948
  - # 24
    frequency:   20.4964203979
  - # 25
    frequency:   31.8047796503
  - # 26
    frequency:   64.7308539600
  - # 27
    frequency:   67.5768394351

- q-position: [    0.0757576,    0.0000000,    0.0000000 ]
  distance:    0.0266909
  band:
  - # 1
    frequency:   -1.0525251052
  - # 2
    frequency:   -0.3966485130
  - # 3
    frequency:    0.1205208459
  - # 4
    frequency:    0.5881169024
  - # 5
    frequency:    1.0446539628
  - # 6
    frequency:    1.1100484081
  - # 7
    frequency:    1.8373445097
  - # 8
    frequency:    4.4144028685
  - # 9
    frequency:    4.6607313652
  - # 10
    frequency:    5.5113143770
  - # 11
    frequency:    7.0298709405
  - # 12
    frequency:    7.1981187842
  - # 13
    frequency:    8.4151791148
  - # 14
    frequency:    8.4868330215
  - # 15
    frequency:    8.8683597592
  - # 16
    frequency:   10.9769095725
  - # 17
    frequency:   11.0213250158
  - # 18
    frequency:   11.2797224084
  - # 19
    frequency:   14.1013126099
  - # 20
    frequency:   14.1321607514
  - # 21
    frequency:   14.7510793646
  - # 22
    frequency:   16.3238315957
  - # 23
    frequency:   16.3525892589
  - # 24
    frequency:   20.4934503045
  - # 25
    frequency:   31.7946190412
  - # 26
    frequency:   64.7281395313
  - # 27
    frequency:   67.5718042775

- q-position: [    0.0808081,    0.0000000,    0.0000000 ]
  distance:    0.0284703
  band:
  - # 1
    frequency:   -1.0337617662
  - # 2
    frequency:   -0.2294216679
  - # 3
    frequency:    0.1966359842
  - # 4
    frequency:    0.6873196499
  - # 5
    frequency:    1.1211801408
  - # 6
    frequency:    1.1796488729
  - # 7
    frequency:    1.9555237319
  - # 8
    frequency:    4.4246197154
  - # 9
    frequency:    4.6992511610
  - # 10
    frequency:    5.5041967555
  - # 11
    frequency:    7.0226188187
  - # 12
    frequency:    7.2122190088
  - # 13
    frequency:    8.4062863789
  - # 14
    frequency:    8.4871236321
  - # 15
    frequency:    8.8628131782
  - # 16
    frequency:   10.9638506922
  - # 17
    frequency:   11.0126490393
  - # 18
    frequency:   11.2698270272
  - # 19
    frequency:   14.1016558032
  - # 20
    frequency:   14.1359517823
  - # 21
    frequency:   14.7394171046
  - # 22
    frequency:   16.3225817654
  - # 23
    frequency:   16.3553016966
  - # 24
    frequency:   20.4903088588
  - # 25
    frequency:   31.7838899757
  - # 26
    frequency:   64.7252623528
  - # 27
    frequency:   67.5664750589

- q-position: [    0.0858586,    0.0000000,    0.0000000 ]
  distance:    0.0302497
  band:
  - # 1
    frequency:   -1.0138110387
  - # 2
    frequency:    0.2079505321
  - # 3
    frequency:    0.2541402972
  - # 4
    frequency:    0.7911116125
  - # 5
    frequency:    1.1968933150
  - # 6
    frequency:    1.2485481594
  - # 7
    frequency:    2.0723205169
  - # 8
    frequency:    4.4352827171
  - # 9
    frequency:    4.7387582546
  - # 10
    frequency:    5.4973941002
  - # 11
    frequency:    7.0149256559
  - # 12
    frequency:    7.2268318005
  - # 13
    frequency:    8.3969109785
  - # 14
    frequency:    8.4873033742
  - # 15
    frequency:    8.8572089545
  - # 16
    frequency:   10.9503696743
  - # 17
    frequency:   11.0031386146
  - # 18
    frequency:   11.2597972782
  - # 19
    frequency:   14.1020559001
  - # 20
    frequency:   14.1398003882
  - # 21
    frequency:   14.7273188514
  - # 22
    frequency:   16.3212107835
  - # 23
    frequency:   16.3581643851
  - # 24
    frequency:   20.4870022187
  - # 25
    frequency:   31.7726172929
  - # 26
    frequency:   64.7222270899
  - # 27
    frequency:   67.5608618475

- q-position: [    0.0909091,    0.0000000,    0.0000000 ]
  distance:    0.0320291
  band:
  - # 1
    frequency:   -0.9926037714
  - # 2
    frequency:    0.3037968839
  - # 3
    frequency:    0.3673749300
  - # 4
    frequency:    0.8955905984
  - # 5
    frequency:    1.2718678266
  - # 6
    frequency:    1.3166772917
  - # 7
    frequency:    2.1875937508
  - # 8
    frequency:    4.4463562707
  - # 9
    frequency:    4.7790267600
  - # 10
    frequency:    5.4910653693
  - # 11
    frequency:    7.0068030306
  - # 12
    frequency:    7.2419055586
  - # 13
    frequency:    8.3870727845
  - # 14
    frequency:    8.4873407506
  - # 15
    frequency:    8.8516047621
  - # 16
    frequency:   10.9365354878
  - # 17
    frequency:   10.9926644520
  - # 18
    frequency:   11.2498024229
  - # 19
    frequency:   14.1025175128
  - # 20
    frequency:   14.1436652673
  - # 21
    frequency:   14.7148574320
  - # 22
    frequency:   16.3197055675
  - # 23
    frequency:   16.3611710594
  - # 24
    frequency:   20.4835367842
  - # 25
    frequency:   31.7608269331
  - # 26
    frequency:   64.7190386384
  - # 27
    frequency:   67.5549751835

- q-position: [    0.0959596,    0.0000000,    0.0000000 ]
  distance:    0.0338084
  band:
  - # 1
    frequency:   -0.9700565494
  - # 2
    frequency:    0.3489793200
  - # 3
    frequency:    0.4767427143
  - # 4
    frequency:    0.9983939798
  - # 5
    frequency:    1.3461567209
  - # 6
    frequency:    1.3839739877
  - # 7
    frequency:    2.3012057773
  - # 8
    frequency:    4.4578038586
  - # 9
    frequency:    4.8198203034
  - # 10
    frequency:    5.4853900778
  - # 11
    frequency:    6.9982649270
  - # 12
    frequency:    7.2573893241
  - # 13
    frequency:    8.3767935125
  - # 14
    frequency:    8.4872022284
  - # 15
    frequency:    8.8460608408
  - # 16
    frequency:   10.9224183950
  - # 17
    frequency:   10.9810818337
  - # 18
    frequency:   11.2400288664
  - # 19
    frequency:   14.1030450599
  - # 20
    frequency:   14.1475003676
  - # 21
    frequency:   14.7021134961
  - # 22
    frequency:   16.3180515485
  - # 23
    frequency:   16.3643146683
  - # 24
    frequency:   20.4799191755
  - # 25
    frequency:   31.7485458517
  - # 26
    frequency:   64.7157021124
  - # 27
    frequency:   67.5488260482

- q-position: [    0.1010101,    0.0000000,    0.0000000 ]
  distance:    0.0355878
  band:
  - # 1
    frequency:   -0.9460703192
  - # 2
    frequency:    0.3912495737
  - # 3
    frequency:    0.5690694616
  - # 4
    frequency:    1.0985214880
  - # 5
    frequency:    1.4197976149
  - # 6
    frequency:    1.4503830901
  - # 7
    frequency:    2.4130204061
  - # 8
    frequency:    4.4695882456
  - # 9
    frequency:    4.8608879444
  - # 10
    frequency:    5.4805732158
  - # 11
    frequency:    6.9893279131
  - # 12
    frequency:    7.2732325997
  - # 13
    frequency:    8.3660967551
  - # 14
    frequency:    8.4868530649
  - # 15
    frequency:    8.8406392135
  - # 16
    frequency:   10.9080895001
  - # 17
    frequency:   10.9682386349
  - # 18
    frequency:   11.2306720772
  - # 19
    frequency:   14.1036427199
  - # 20
    frequency:   14.1512544345
  - # 21
    frequency:   14.6891758596
  - # 22
    frequency:   16.3162328313
  - # 23
    frequency:   16.3675873349
  - # 24
    frequency:   20.4761562109
  - # 25
    frequency:   31.7358019306
  - # 26
    frequency:   64.7122228313
  - # 27
    frequency:   67.5424258323

- q-position: [    0.1060606,    0.0000000,    0.0000000 ]
  distance:    0.0373672
  band:
  - # 1
    frequency:   -0.9205281257
  - # 2
    frequency:    0.4314737175
  - # 3
    frequency:    0.6535811480
  - # 4
    frequency:    1.1957310472
  - # 5
    frequency:    1.4928167143
  - # 6
    frequency:    1.5158567367
  - # 7
    frequency:    2.5229011869
  - # 8
    frequency:    4.4816716831
  - # 9
    frequency:    4.9019588015
  - # 10
    frequency:    5.4768513387
  - # 11
    frequency:    6.9800112925
  - # 12
    frequency:    7.2893850749
  - # 13
    frequency:    8.3550079962
  - # 14
    frequency:    8.4862583836
  - # 15
    frequency:    8.8354026874
  - # 16
    frequency:   10.8936202955
  - # 17
    frequency:   10.9539863012
  - # 18
    frequency:   11.2219255580
  - # 19
    frequency:   14.1043143870
  - # 20
    frequency:   14.1548705910
  - # 21
    frequency:   14.6761417657
  - # 22
    frequency:   16.3142323978
  - # 23
    frequency:   16.3709803225
  - # 24
    frequency:   20.4722548856
  - # 25
    frequency:   31.7226238874
  - # 26
    frequency:   64.7086063068
  - # 27
    frequency:   67.5357863033

- q-position: [    0.1111111,    0.0000000,    0.0000000 ]
  distance:    0.0391466
  band:
  - # 1
    frequency:   -0.8932916831
  - # 2
    frequency:    0.4701863689
  - # 3
    frequency:    0.7341825620
  - # 4
    frequency:    1.2901135754
  - # 5
    frequency:    1.5652316365
  - # 6
    frequency:    1.5803543692
  - # 7
    frequency:    2.6307099599
  - # 8
    frequency:    4.4940161216
  - # 9
    frequency:    4.9427355162
  - # 10
    frequency:    5.4744996911
  - # 11
    frequency:    6.9703372213
  - # 12
    frequency:    7.3057962744
  - # 13
    frequency:    8.3435546058
  - # 14
    frequency:    8.4853844913
  - # 15
    frequency:    8.8304136457
  - # 16
    frequency:   10.8790822113
  - # 17
    frequency:   10.9381924360
  - # 18
    frequency:   11.2139682126
  - # 19
    frequency:   14.1050636335
  - # 20
    frequency:   14.1582860131
  - # 21
    frequency:   14.6631170073
  - # 22
    frequency:   16.3120323491
  - # 23
    frequency:   16.3744840075
  - # 24
    frequency:   20.4682223506
  - # 25
    frequency:   31.7090411817
  - # 26
    frequency:   64.7048582293
  - # 27
    frequency:   67.5289195721

- q-position: [    0.1161616,    0.0000000,    0.0000000 ]
  distance:    0.0409260
  band:
  - # 1
    frequency:   -0.8641963635
  - # 2
    frequency:    0.5077420079
  - # 3
    frequency:    0.8128096473
  - # 4
    frequency:    1.3818776931
  - # 5
    frequency:    1.6370534415
  - # 6
    frequency:    1.6438426496
  - # 7
    frequency:    2.7363056825
  - # 8
    frequency:    4.5065834305
  - # 9
    frequency:    4.9828872594
  - # 10
    frequency:    5.4738396433
  - # 11
    frequency:    6.9603307858
  - # 12
    frequency:    7.3224151499
  - # 13
    frequency:    8.3317658139
  - # 14
    frequency:    8.4842003926
  - # 15
    frequency:    8.8257326613
  - # 16
    frequency:   10.8645461727
  - # 17
    frequency:   10.9207527477
  - # 18
    frequency:   11.2069523590
  - # 19
    frequency:   14.1058936754
  - # 20
    frequency:   14.1614317861
  - # 21
    frequency:   14.6502158254
  - # 22
    frequency:   16.3096141774
  - # 23
    frequency:   16.3780878581
  - # 24
    frequency:   20.4640658925
  - # 25
    frequency:   31.6950839208
  - # 26
    frequency:   64.7009844536
  - # 27
    frequency:   67.5218380582

- q-position: [    0.1212121,    0.0000000,    0.0000000 ]
  distance:    0.0427054
  band:
  - # 1
    frequency:   -0.8330439506
  - # 2
    frequency:    0.5443879142
  - # 3
    frequency:    0.8905066180
  - # 4
    frequency:    1.4712551736
  - # 5
    frequency:    1.7062953281
  - # 6
    frequency:    1.7082881250
  - # 7
    frequency:    2.8395435428
  - # 8
    frequency:    4.5193356266
  - # 9
    frequency:    5.0220441698
  - # 10
    frequency:    5.4752445229