nqpoint: 300    
npath: 3      
segment_nqpoint:
- 100
- 100
- 100
labels:
- [ 'G', 'M' ]
- [ 'M', 'K' ]
- [ 'K', 'G' ]
reciprocal_lattice:
- [   0.30511769,   0.17615978,   0.00000000 ] # a*
- [   0.00000000,   0.35231956,   0.00000000 ] # b*
- [   0.00000000,   0.00000000,   0.03540274 ] # c*
natom: 9      
lattice:
- [     3.277423896861551,     0.000000000000000,     0.000000000000000 ] # a
- [    -1.638711948430775,     2.838332353658913,     0.000000000000000 ] # b
- [     0.000000000000000,     0.000000000000000,    28.246398411529654 ] # c
points:
- symbol: C # 1
  coordinates: [  0.333332985432215,  0.666666983183674,  0.639204263175367 ]
  mass: 12.010700
- symbol: C # 2
  coordinates: [  0.666666984744048,  0.333332985985145,  0.360696893342056 ]
  mass: 12.010700
- symbol: N # 3
  coordinates: [  0.000000000000000,  0.000000000000000,  0.486545881278553 ]
  mass: 14.006700
- symbol: N # 4
  coordinates: [  0.333332985432215,  0.666666983183674,  0.681375307786979 ]
  mass: 14.006700
- symbol: N # 5
  coordinates: [  0.666666984744048,  0.333332985985145,  0.318624692213021 ]
  mass: 14.006700
- symbol: O # 6
  coordinates: [  0.666666984744048,  0.333332985985145,  0.407978077799886 ]
  mass: 15.999400
- symbol: S # 7
  coordinates: [  0.333332985432215,  0.666666983183674,  0.579876047999280 ]
  mass: 32.065000
- symbol: Ti # 8
  coordinates: [  0.333332985432215,  0.666666983183674,  0.452533339366853 ]
  mass: 47.867000
- symbol: Ti # 9
  coordinates: [  0.666666984744048,  0.333332985985145,  0.524728965101317 ]
  mass: 47.867000

phonon:
- q-position: [    0.0000000,    0.0000000,    0.0000000 ]
  distance:    0.0000000
  band:
  - # 1
    frequency:   -0.6324741625
  - # 2
    frequency:   -0.6324741625
  - # 3
    frequency:   -0.0000022336
  - # 4
    frequency:   -0.0000012624
  - # 5
    frequency:    0.0000022102
  - # 6
    frequency:    1.0052358350
  - # 7
    frequency:    1.0052358350
  - # 8
    frequency:    4.4091108853
  - # 9
    frequency:    4.4091108853
  - # 10
    frequency:    5.5198179603
  - # 11
    frequency:    7.0281277590
  - # 12
    frequency:    7.0281277590
  - # 13
    frequency:    8.6200055745
  - # 14
    frequency:    8.6200055745
  - # 15
    frequency:    8.8761950961
  - # 16
    frequency:   11.1217108843
  - # 17
    frequency:   11.1217108843
  - # 18
    frequency:   11.2878117128
  - # 19
    frequency:   14.0328616254
  - # 20
    frequency:   14.0328616254
  - # 21
    frequency:   14.7491556186
  - # 22
    frequency:   16.5207178367
  - # 23
    frequency:   16.5207178367
  - # 24
    frequency:   20.4991535727
  - # 25
    frequency:   31.9299476609
  - # 26
    frequency:   64.7558802949
  - # 27
    frequency:   67.6245670950

- q-position: [    0.0050505,    0.0000000,    0.0000000 ]
  distance:    0.0017794
  band:
  - # 1
    frequency:   -0.6307668706
  - # 2
    frequency:   -0.6257234073
  - # 3
    frequency:   -0.0884180644
  - # 4
    frequency:    0.0791935687
  - # 5
    frequency:    0.1590270332
  - # 6
    frequency:    1.0062898318
  - # 7
    frequency:    1.0095564127
  - # 8
    frequency:    4.4089445655
  - # 9
    frequency:    4.4105820249
  - # 10
    frequency:    5.5195070850
  - # 11
    frequency:    7.0277856544
  - # 12
    frequency:    7.0287712068
  - # 13
    frequency:    8.6195765508
  - # 14
    frequency:    8.6201086161
  - # 15
    frequency:    8.8760065273
  - # 16
    frequency:   11.1210499991
  - # 17
    frequency:   11.1211437696
  - # 18
    frequency:   11.2879810979
  - # 19
    frequency:   14.0328852328
  - # 20
    frequency:   14.0330213168
  - # 21
    frequency:   14.7489479037
  - # 22
    frequency:   16.5201700023
  - # 23
    frequency:   16.5204523984
  - # 24
    frequency:   20.4990643248
  - # 25
    frequency:   31.9294351408
  - # 26
    frequency:   64.7557703430
  - # 27
    frequency:   67.6243535582

- q-position: [    0.0101010,    0.0000000,    0.0000000 ]
  distance:    0.0035588
  band:
  - # 1
    frequency:   -0.6256817166
  - # 2
    frequency:   -0.6054078695
  - # 3
    frequency:   -0.0907727474
  - # 4
    frequency:    0.1583546375
  - # 5
    frequency:    0.2797182162
  - # 6
    frequency:    1.0094694535
  - # 7
    frequency:    1.0225451956
  - # 8
    frequency:    4.4084475305
  - # 9
    frequency:    4.4149843383
  - # 10
    frequency:    5.5185782531
  - # 11
    frequency:    7.0267600143
  - # 12
    frequency:    7.0306980501
  - # 13
    frequency:    8.6182907147
  - # 14
    frequency:    8.6204164656
  - # 15
    frequency:    8.8754425333
  - # 16
    frequency:   11.1190709031
  - # 17
    frequency:   11.1194649021
  - # 18
    frequency:   11.2884650720
  - # 19
    frequency:   14.0329560732
  - # 20
    frequency:   14.0334995871
  - # 21
    frequency:   14.7483247466
  - # 22
    frequency:   16.5185309902
  - # 23
    frequency:   16.5196591244
  - # 24
    frequency:   20.4987966948
  - # 25
    frequency:   31.9278994385
  - # 26
    frequency:   64.7554407228
  - # 27
    frequency:   67.6237135079

- q-position: [    0.0151515,    0.0000000,    0.0000000 ]
  distance:    0.0053382
  band:
  - # 1
    frequency:   -0.6173116017
  - # 2
    frequency:   -0.5710889584
  - # 3
    frequency:   -0.0729444546
  - # 4
    frequency:    0.2373859113
  - # 5
    frequency:    0.4036229950
  - # 6
    frequency:    1.0148299932
  - # 7
    frequency:    1.0443223180
  - # 8
    frequency:    4.4076255646
  - # 9
    frequency:    4.4222847234
  - # 10
    frequency:    5.5170428223
  - # 11
    frequency:    7.0250528724
  - # 12
    frequency:    7.0338978460
  - # 13
    frequency:    8.6161517655
  - # 14
    frequency:    8.6209252682
  - # 15
    frequency:    8.8745082715
  - # 16
    frequency:   11.1157842621
  - # 17
    frequency:   11.1167382079
  - # 18
    frequency:   11.2891946554
  - # 19
    frequency:   14.0330742015
  - # 20
    frequency:   14.0342940215
  - # 21
    frequency:   14.7472861151
  - # 22
    frequency:   16.5158142170
  - # 23
    frequency:   16.5183470951
  - # 24
    frequency:   20.4983510235
  - # 25
    frequency:   31.9253461161
  - # 26
    frequency:   64.7548921388
  - # 27
    frequency:   67.6226486217

- q-position: [    0.0202020,    0.0000000,    0.0000000 ]
  distance:    0.0071176
  band:
  - # 1
    frequency:   -0.6057615025
  - # 2
    frequency:   -0.5212413681
  - # 3
    frequency:    0.0103522740
  - # 4
    frequency:    0.3160787593
  - # 5
    frequency:    0.5283727805
  - # 6
    frequency:    1.0224718767
  - # 7
    frequency:    1.0752196247
  - # 8
    frequency:    4.4064883435
  - # 9
    frequency:    4.4324287143
  - # 10
    frequency:    5.5149196418
  - # 11
    frequency:    7.0226676579
  - # 12
    frequency:    7.0383533769
  - # 13
    frequency:    8.6131658536
  - # 14
    frequency:    8.6216285031
  - # 15
    frequency:    8.8732124086
  - # 16
    frequency:   11.1112078106
  - # 17
    frequency:   11.1130597234
  - # 18
    frequency:   11.2900655886
  - # 19
    frequency:   14.0332397130
  - # 20
    frequency:   14.0354005876
  - # 21
    frequency:   14.7458319778
  - # 22
    frequency:   16.5120418541
  - # 23
    frequency:   16.5165313068
  - # 24
    frequency:   20.4977278797
  - # 25
    frequency:   31.9217844083
  - # 26
    frequency:   64.7541257626
  - # 27
    frequency:   67.6211616866

- q-position: [    0.0252525,    0.0000000,    0.0000000 ]
  distance:    0.0088970
  band:
  - # 1
    frequency:   -0.5910954655
  - # 2
    frequency:   -0.4519163538
  - # 3
    frequency:    0.0906194328
  - # 4
    frequency:    0.3940919723
  - # 5
    frequency:    0.6511998444
  - # 6
    frequency:    1.0325539698
  - # 7
    frequency:    1.1159752988
  - # 8
    frequency:    4.4050494866
  - # 9
    frequency:    4.4453414957
  - # 10
    frequency:    5.5122349444
  - # 11
    frequency:    7.0196092543
  - # 12
    frequency:    7.0440409227
  - # 13
    frequency:    8.6093415565
  - # 14
    frequency:    8.6225168397
  - # 15
    frequency:    8.8715672259
  - # 16
    frequency:   11.1053662875
  - # 17
    frequency:   11.1085452483
  - # 18
    frequency:   11.2909509725
  - # 19
    frequency:   14.0334527469
  - # 20
    frequency:   14.0368136223
  - # 21
    frequency:   14.7439623386
  - # 22
    frequency:   16.5072445456
  - # 23
    frequency:   16.5142324664
  - # 24
    frequency:   20.4969280612
  - # 25
    frequency:   31.9172271679
  - # 26
    frequency:   64.7531432272
  - # 27
    frequency:   67.6192565852

- q-position: [    0.0303030,    0.0000000,    0.0000000 ]
  distance:    0.0106764
  band:
  - # 1
    frequency:   -0.5732912926
  - # 2
    frequency:   -0.3531738501
  - # 3
    frequency:    0.1406152025
  - # 4
    frequency:    0.4709485082
  - # 5
    frequency:    0.7690898250
  - # 6
    frequency:    1.0453136656
  - # 7
    frequency:    1.1679444925
  - # 8
    frequency:    4.4033266272
  - # 9
    frequency:    4.4609292435
  - # 10
    frequency:    5.5090222175
  - # 11
    frequency:    7.0158840797
  - # 12
    frequency:    7.0509306236
  - # 13
    frequency:    8.6046898467
  - # 14
    frequency:    8.6235779376
  - # 15
    frequency:    8.8695887673
  - # 16
    frequency:   11.0982913436
  - # 17
    frequency:   11.1033180009
  - # 18
    frequency:   11.2917140113
  - # 19
    frequency:   14.0337134933
  - # 20
    frequency:   14.0385258156
  - # 21
    frequency:   14.7416772930
  - # 22
    frequency:   16.5014610152
  - # 23
    frequency:   16.5114767099
  - # 24
    frequency:   20.4959525957
  - # 25
    frequency:   31.9116907913
  - # 26
    frequency:   64.7519466211
  - # 27
    frequency:   67.6169382773

- q-position: [    0.0353535,    0.0000000,    0.0000000 ]
  distance:    0.0124557
  band:
  - # 1
    frequency:   -0.5522086269
  - # 2
    frequency:   -0.1901493775
  - # 3
    frequency:    0.1947906105
  - # 4
    frequency:    0.5460357427
  - # 5
    frequency:    0.8787423873
  - # 6
    frequency:    1.0610938547
  - # 7
    frequency:    1.2330581620
  - # 8
    frequency:    4.4013414980
  - # 9
    frequency:    4.4790807221
  - # 10
    frequency:    5.5053220769
  - # 11
    frequency:    7.0115001872
  - # 12
    frequency:    7.0589869168
  - # 13
    frequency:    8.5992240519
  - # 14
    frequency:    8.6247961929
  - # 15
    frequency:    8.8672970289
  - # 16
    frequency:   11.0900214186
  - # 17
    frequency:   11.0974983011
  - # 18
    frequency:   11.2922188219
  - # 19
    frequency:   14.0340222000
  - # 20
    frequency:   14.0405281883
  - # 21
    frequency:   14.7389771104
  - # 22
    frequency:   16.4947375651
  - # 23
    frequency:   16.5082952477
  - # 24
    frequency:   20.4948027431
  - # 25
    frequency:   31.9051951232
  - # 26
    frequency:   64.7505384793
  - # 27
    frequency:   67.6142127754

- q-position: [    0.0404040,    0.0000000,    0.0000000 ]
  distance:    0.0142351
  band:
  - # 1
    frequency:   -0.5275637001
  - # 2
    frequency:    0.1808882660
  - # 3
    frequency:    0.3031362288
  - # 4
    frequency:    0.6185999590
  - # 5
    frequency:    0.9773717810
  - # 6
    frequency:    1.0803731753
  - # 7
    frequency:    1.3129690414
  - # 8
    frequency:    4.3991200294
  - # 9
    frequency:    4.4996690544
  - # 10
    frequency:    5.5011821675
  - # 11
    frequency:    7.0064673825
  - # 12
    frequency:    7.0681690298
  - # 13
    frequency:    8.5929598066
  - # 14
    frequency:    8.6261524337
  - # 15
    frequency:    8.8647161870
  - # 16
    frequency:   11.0806015838
  - # 17
    frequency:   11.0911960060
  - # 18
    frequency:   11.2923385686
  - # 19
    frequency:   14.0343791805
  - # 20
    frequency:   14.0428100661
  - # 21
    frequency:   14.7358623490
  - # 22
    frequency:   16.4871274720
  - # 23
    frequency:   16.5047239443
  - # 24
    frequency:   20.4934799966
  - # 25
    frequency:   31.8977633415
  - # 26
    frequency:   64.7489217733
  - # 27
    frequency:   67.6110871161

- q-position: [    0.0454545,    0.0000000,    0.0000000 ]
  distance:    0.0160145
  band:
  - # 1
    frequency:   -0.4988953246
  - # 2
    frequency:    0.2490321655
  - # 3
    frequency:    0.4493934195
  - # 4
    frequency:    0.6877426788
  - # 5
    frequency:    1.0643013073
  - # 6
    frequency:    1.1037858538
  - # 7
    frequency:    1.4074090195
  - # 8
    frequency:    4.3966924548
  - # 9
    frequency:    4.5225535799
  - # 10
    frequency:    5.4966571212
  - # 11
    frequency:    7.0007973553
  - # 12
    frequency:    7.0784315094
  - # 13
    frequency:    8.5859149977
  - # 14
    frequency:    8.6276235744
  - # 15
    frequency:    8.8618748592
  - # 16
    frequency:   11.0700833491
  - # 17
    frequency:   11.0845054686
  - # 18
    frequency:   11.2919611399
  - # 19
    frequency:   14.0347848224
  - # 20
    frequency:   14.0453590487
  - # 21
    frequency:   14.7323340111
  - # 22
    frequency:   16.4786902841
  - # 23
    frequency:   16.5008028372
  - # 24
    frequency:   20.4919860847
  - # 25
    frequency:   31.8894218235
  - # 26
    frequency:   64.7470998990
  - # 27
    frequency:   67.6075693262

- q-position: [    0.0505051,    0.0000000,    0.0000000 ]
  distance:    0.0177939
  band:
  - # 1
    frequency:   -0.4654991399
  - # 2
    frequency:    0.2988330350
  - # 3
    frequency:    0.5753390318
  - # 4
    frequency:    0.7524522950
  - # 5
    frequency:    1.1320976342
  - # 6
    frequency:    1.1415258747
  - # 7
    frequency:    1.5135843058
  - # 8
    frequency:    4.3940934178
  - # 9
    frequency:    4.5475817138
  - # 10
    frequency:    5.4918086044
  - # 11
    frequency:    6.9945038221
  - # 12
    frequency:    7.0897247683
  - # 13
    frequency:    8.5781097039
  - # 14
    frequency:    8.6291822381
  - # 15
    frequency:    8.8588063880
  - # 16
    frequency:   11.0585244292
  - # 17
    frequency:   11.0775023444
  - # 18
    frequency:   11.2909930192
  - # 19
    frequency:   14.0352395954
  - # 20
    frequency:   14.0481609741
  - # 21
    frequency:   14.7283937459
  - # 22
    frequency:   16.4694910276
  - # 23
    frequency:   16.4965756058
  - # 24
    frequency:   20.4903229733
  - # 25
    frequency:   31.8801999941
  - # 26
    frequency:   64.7450766633
  - # 27
    frequency:   67.6036683845

- q-position: [    0.0555556,    0.0000000,    0.0000000 ]
  distance:    0.0195733
  band:
  - # 1
    frequency:   -0.4262892311
  - # 2
    frequency:    0.3471794352
  - # 3
    frequency:    0.6881383402
  - # 4
    frequency:    0.8117280090
  - # 5
    frequency:    1.1660835134
  - # 6
    frequency:    1.2122205814
  - # 7
    frequency:    1.6276337803
  - # 8
    frequency:    4.3913620741
  - # 9
    frequency:    4.5745907222
  - # 10
    frequency:    5.4867054910
  - # 11
    frequency:    6.9876026751
  - # 12
    frequency:    7.1019956295
  - # 13
    frequency:    8.5695661301
  - # 14
    frequency:    8.6307963718
  - # 15
    frequency:    8.8555491287
  - # 16
    frequency:   11.0459884674
  - # 17
    frequency:   11.0702415215
  - # 18
    frequency:   11.2893620605
  - # 19
    frequency:   14.0357440590
  - # 20
    frequency:   14.0511998779
  - # 21
    frequency:   14.7240441049
  - # 22
    frequency:   16.4595993308
  - # 23
    frequency:   16.4920889958
  - # 24
    frequency:   20.4884928671
  - # 25
    frequency:   31.8701301573
  - # 26
    frequency:   64.7428562684
  - # 27
    frequency:   67.5993941792

- q-position: [    0.0606061,    0.0000000,    0.0000000 ]
  distance:    0.0213527
  band:
  - # 1
    frequency:   -0.3794877760
  - # 2
    frequency:    0.3961986680
  - # 3
    frequency:    0.7928651226
  - # 4
    frequency:    0.8648313092
  - # 5
    frequency:    1.2062749130
  - # 6
    frequency:    1.2791174582
  - # 7
    frequency:    1.7462278968
  - # 8
    frequency:    4.3885421798
  - # 9
    frequency:    4.6034093364
  - # 10
    frequency:    5.4814241964
  - # 11
    frequency:    6.9801121321
  - # 12
    frequency:    7.1151878535
  - # 13
    frequency:    8.5603085375
  - # 14
    frequency:    8.6324288842
  - # 15
    frequency:    8.8521467099
  - # 16
    frequency:   11.0325447138
  - # 17
    frequency:   11.0627555778
  - # 18
    frequency:   11.2870197409
  - # 19
    frequency:   14.0362988682
  - # 20
    frequency:   14.0544579472
  - # 21
    frequency:   14.7192888562
  - # 22
    frequency:   16.4490884774
  - # 23
    frequency:   16.4873922107
  - # 24
    frequency:   20.4864982109
  - # 25
    frequency:   31.8592473117
  - # 26
    frequency:   64.7404432957
  - # 27
    frequency:   67.5947574612

- q-position: [    0.0656566,    0.0000000,    0.0000000 ]
  distance:    0.0231321
  band:
  - # 1
    frequency:   -0.3218249622
  - # 2
    frequency:    0.4464675615
  - # 3
    frequency:    0.8921567648
  - # 4
    frequency:    0.9115801075
  - # 5
    frequency:    1.2526631599
  - # 6
    frequency:    1.3440242713
  - # 7
    frequency:    1.8670321157
  - # 8
    frequency:    4.3856821556
  - # 9
    frequency:    4.6338591318
  - # 10
    frequency:    5.4760492172
  - # 11
    frequency:    6.9720528834
  - # 12
    frequency:    7.1292426348
  - # 13
    frequency:    8.5503631697
  - # 14
    frequency:    8.6340373588
  - # 15
    frequency:    8.8486482194
  - # 16
    frequency:   11.0182676566
  - # 17
    frequency:   11.0550533692
  - # 18
    frequency:   11.2839432708
  - # 19
    frequency:   14.0369047784
  - # 20
    frequency:   14.0579154680
  - # 21
    frequency:   14.7141333583
  - # 22
    frequency:   16.4380344027
  - # 23
    frequency:   16.4825362794
  - # 24
    frequency:   20.4843416911
  - # 25
    frequency:   31.8475889520
  - # 26
    frequency:   64.7378426875
  - # 27
    frequency:   67.5897697944

- q-position: [    0.0707071,    0.0000000,    0.0000000 ]
  distance:    0.0249115
  band:
  - # 1
    frequency:   -0.2458141079
  - # 2
    frequency:    0.4981885063
  - # 3
    frequency:    0.9524679760
  - # 4
    frequency:    0.9875108679
  - # 5
    frequency:    1.3045778925
  - # 6
    frequency:    1.4080004714
  - # 7
    frequency:    1.9885177491
  - # 8
    frequency:    4.3828351161
  - # 9
    frequency:    4.6657556019
  - # 10
    frequency:    5.4706739193
  - # 11
    frequency:    6.9634482280
  - # 12
    frequency:    7.1440990554
  - # 13
    frequency:    8.5397581771
  - # 14
    frequency:    8.6355739140
  - # 15
    frequency:    8.8451082454
  - # 16
    frequency:   11.0032366042
  - # 17
    frequency:   11.0471185381
  - # 18
    frequency:   11.2801377511
  - # 19
    frequency:   14.0375626474
  - # 20
    frequency:   14.0615507665
  - # 21
    frequency:   14.7085849949
  - # 22
    frequency:   16.4265146491
  - # 23
    frequency:   16.4775734091
  - # 24
    frequency:   20.4820262358
  - # 25
    frequency:   31.8351948580
  - # 26
    frequency:   64.7350597278
  - # 27
    frequency:   67.5844435016

- q-position: [    0.0757576,    0.0000000,    0.0000000 ]
  distance:    0.0266909
  band:
  - # 1
    frequency:   -0.1208220568
  - # 2
    frequency:    0.5514282485
  - # 3
    frequency:    0.9884828323
  - # 4
    frequency:    1.0798454107
  - # 5
    frequency:    1.3608664802
  - # 6
    frequency:    1.4716289298
  - # 7
    frequency:    2.1096801041
  - # 8
    frequency:    4.3800588490
  - # 9
    frequency:    4.6989088607
  - # 10
    frequency:    5.4654016293
  - # 11
    frequency:    6.9543241942
  - # 12
    frequency:    7.1596944880
  - # 13
    frequency:    8.5285235384
  - # 14
    frequency:    8.6369853118
  - # 15
    frequency:    8.8415866753
  - # 16
    frequency:   10.9875352207
  - # 17
    frequency:   11.0389079190
  - # 18
    frequency:   11.2756383869
  - # 19
    frequency:   14.0382734346
  - # 20
    frequency:   14.0653401420
  - # 21
    frequency:   14.7026536646
  - # 22
    frequency:   16.4146072992
  - # 23
    frequency:   16.4725563348
  - # 24
    frequency:   20.4795550148
  - # 25
    frequency:   31.8221068719
  - # 26
    frequency:   64.7321000216
  - # 27
    frequency:   67.5787916089

- q-position: [    0.0808081,    0.0000000,    0.0000000 ]
  distance:    0.0284703
  band:
  - # 1
    frequency:    0.1840509448
  - # 2
    frequency:    0.6061912816
  - # 3
    frequency:    1.0207702644
  - # 4
    frequency:    1.1697557647
  - # 5
    frequency:    1.4202293646
  - # 6
    frequency:    1.5352127495
  - # 7
    frequency:    2.2298336729
  - # 8
    frequency:    4.3774157311
  - # 9
    frequency:    4.7331239020
  - # 10
    frequency:    5.4603470862
  - # 11
    frequency:    6.9447096368
  - # 12
    frequency:    7.1759649432
  - # 13
    frequency:    8.5166909810
  - # 14
    frequency:    8.6382134402
  - # 15
    frequency:    8.8381481273
  - # 16
    frequency:   10.9712510134
  - # 17
    frequency:   11.0303500057
  - # 18
    frequency:   11.2705125769
  - # 19
    frequency:   14.0390381980
  - # 20
    frequency:   14.0692577923
  - # 21
    frequency:   14.6963523201
  - # 22
    frequency:   16.4023899072
  - # 23
    frequency:   16.4675376735
  - # 24
    frequency:   20.4769314391
  - # 25
    frequency:   31.8083686659
  - # 26
    frequency:   64.7289694739
  - # 27
    frequency:   67.5728277857

- q-position: [    0.0858586,    0.0000000,    0.0000000 ]
  distance:    0.0302497
  band:
  - # 1
    frequency:    0.2914676276
  - # 2
    frequency:    0.6624490384
  - # 3
    frequency:    1.0503702639
  - # 4
    frequency:    1.2576445059
  - # 5
    frequency:    1.4814825067
  - # 6
    frequency:    1.5988947519
  - # 7
    frequency:    2.3484861500
  - # 8
    frequency:    4.3749725631
  - # 9
    frequency:    4.7682003473
  - # 10
    frequency:    5.4556383181
  - # 11
    frequency:    6.9346363049
  - # 12
    frequency:    7.1928453567
  - # 13
    frequency:    8.5042938998
  - # 14
    frequency:    8.6391963188
  - # 15
    frequency:    8.8348608728
  - # 16
    frequency:   10.9544747778
  - # 17
    frequency:   11.0213438632
  - # 18
    frequency:   11.2648614831
  - # 19
    frequency:   14.0398580868
  - # 20
    frequency:   14.0732757316
  - # 21
    frequency:   14.6896975428
  - # 22
    frequency:   16.3899384524
  - # 23
    frequency:   16.4625692935
  - # 24
    frequency:   20.4741591585
  - # 25
    frequency:   31.7940255020
  - # 26
    frequency:   64.7256742670
  - # 27
    frequency:   67.5665662846

- q-position: [    0.0909091,    0.0000000,    0.0000000 ]
  distance:    0.0320291
  band:
  - # 1
    frequency:    0.3722790257
  - # 2
    frequency:    0.7201537972
  - # 3
    frequency:    1.0781078359
  - # 4
    frequency:    1.3437924488
  - # 5
    frequency:    1.5436663838
  - # 6
    frequency:    1.6627264141
  - # 7
    frequency:    2.4652641070
  - # 8
    frequency:    4.3728003059
  - # 9
    frequency:    4.8039316105
  - # 10
    frequency:    5.4514190078
  - # 11
    frequency:    6.9241388734
  - # 12
    frequency:    7.2102698159
  - # 13
    frequency:    8.4913672759
  - # 14
    frequency:    8.6398697644
  - # 15
    frequency:    8.8317951104
  - # 16
    frequency:   10.9373000032
  - # 17
    frequency:   11.0117591089
  - # 18
    frequency:   11.2588204496
  - # 19
    frequency:   14.0407343318
  - # 20
    frequency:   14.0773637012
  - # 21
    frequency:   14.6827101382
  - # 22
    frequency:   16.3773263369
  - # 23
    frequency:   16.4577017071
  - # 24
    frequency:   20.4712420597
  - # 25
    frequency:   31.7791239855
  - # 26
    frequency:   64.7222208376
  - # 27
    frequency:   67.5600218775

- q-position: [    0.0959596,    0.0000000,    0.0000000 ]
  distance:    0.0338084
  band:
  - # 1
    frequency:    0.4412911517
  - # 2
    frequency:    0.7792462492
  - # 3
    frequency:    1.1045906181
  - # 4
    frequency:    1.4284000819
  - # 5
    frequency:    1.6060483122
  - # 6
    frequency:    1.7267073412
  - # 7
    frequency:    2.5798689772
  - # 8
    frequency:    4.3709736993
  - # 9
    frequency:    4.8401034226
  - # 10
    frequency:    5.4478513946
  - # 11
    frequency:    6.9132549310
  - # 12
    frequency:    7.2281717257
  - # 13
    frequency:    8.4779475936
  - # 14
    frequency:    8.6401698104
  - # 15
    frequency:    8.8290205055
  - # 16
    frequency:   10.9198222450
  - # 17
    frequency:   11.0014378095
  - # 18
    frequency:   11.2525574158
  - # 19
    frequency:   14.0416682314
  - # 20
    frequency:   14.0814890772
  - # 21
    frequency:   14.6754157311
  - # 22
    frequency:   16.3646234525
  - # 23
    frequency:   16.4529834943
  - # 24
    frequency:   20.4681842621
  - # 25
    frequency:   31.7637118134
  - # 26
    frequency:   64.7186158529
  - # 27
    frequency:   67.5532097920

- q-position: [    0.1010101,    0.0000000,    0.0000000 ]
  distance:    0.0355878
  band:
  - # 1
    frequency:    0.5033242271
  - # 2
    frequency:    0.8396600452
  - # 3
    frequency:    1.1302490039
  - # 4
    frequency:    1.5116130144
  - # 5
    frequency:    1.6680825297
  - # 6
    frequency:    1.7908080450
  - # 7
    frequency:    2.6920504081
  - # 8
    frequency:    4.3695707474
  - # 9
    frequency:    4.8764917078
  - # 10
    frequency:    5.4451197074
  - # 11
    frequency:    6.9020249206
  - # 12
    frequency:    7.2464839164
  - # 13
    frequency:    8.4640727581
  - # 14
    frequency:    8.6400358576
  - # 15
    frequency:    8.8266030157
  - # 16
    frequency:   10.9021384718
  - # 17
    frequency:   10.9901992386
  - # 18
    frequency:   11.2462683776
  - # 19
    frequency:   14.0426611343
  - # 20
    frequency:   14.0856167780
  - # 21
    frequency:   14.6678453371
  - # 22
    frequency:   16.3518953410
  - # 23
    frequency:   16.4484607648
  - # 24
    frequency:   20.4649901132
  - # 25
    frequency:   31.7478375213
  - # 26
    frequency:   64.7148661864
  - # 27
    frequency:   67.5461456460

- q-position: [    0.1060606,    0.0000000,    0.0000000 ]
  distance:    0.0373672
  band:
  - # 1
    frequency:    0.5606448983
  - # 2
    frequency:    0.9013247304
  - # 3
    frequency:    1.1553818603
  - # 4
    frequency:    1.5935382755
  - # 5
    frequency:    1.7293648889
  - # 6
    frequency:    1.8549832399
  - # 7
    frequency:    2.8015896570
  - # 8
    frequency:    4.3686720506
  - # 9
    frequency:    4.9128599130
  - # 10
    frequency:    5.4434340020
  - # 11
    frequency:    6.8904920250
  - # 12
    frequency:    7.2651386975
  - # 13
    frequency:    8.4497820110
  - # 14
    frequency:    8.6394143626
  - # 15
    frequency:    8.8246012020
  - # 16
    frequency:   10.8843463945
  - # 17
    frequency:   10.9778482372
  - # 18
    frequency:   11.2401691544
  - # 19
    frequency:   14.0437144196
  - # 20
    frequency:   14.0897091823
  - # 21
    frequency:   14.6600358813
  - # 22
    frequency:   16.3392024672
  - # 23
    frequency:   16.4441766644
  - # 24
    frequency:   20.4616641826
  - # 25
    frequency:   31.7315502276
  - # 26
    frequency:   64.7109788932
  - # 27
    frequency:   67.5388453818

- q-position: [    0.1111111,    0.0000000,    0.0000000 ]
  distance:    0.0391466
  band:
  - # 1
    frequency:    0.6145201775
  - # 2
    frequency:    0.9641677309
  - # 3
    frequency:    1.1801945195
  - # 4
    frequency:    1.6742551276
  - # 5
    frequency:    1.7895954438
  - # 6
    frequency:    1.9191796816
  - # 7
    frequency:    2.9082889427
  - # 8
    frequency:    4.3683599748
  - # 9
    frequency:    4.9489561380
  - # 10
    frequency:    5.4430340159
  - # 11
    frequency:    6.8787019960
  - # 12
    frequency:    7.2840678627
  - # 13
    frequency:    8.4351158462
  - # 14
    frequency:    8.6382626594
  - # 15
    frequency:    8.8230624267
  - # 16
    frequency:   10.8665437893
  - # 17
    frequency:   10.9641872665
  - # 18
    frequency:   11.2344833755
  - # 19
    frequency:   14.0448294735
  - # 20
    frequency:   14.0937260679
  - # 21
    frequency:   14.6520306350
  - # 22
    frequency:   16.3265996254
  - # 23
    frequency:   16.4401709298
  - # 24
    frequency:   20.4582112551
  - # 25
    frequency:   31.7148993800
  - # 26
    frequency:   64.7069611852
  - # 27
    frequency:   67.5313252003

- q-position: [    0.1161616,    0.0000000,    0.0000000 ]
  distance:    0.0409260
  band:
  - # 1
    frequency:    0.6657354790
  - # 2
    frequency:    1.0281157365
  - # 3
    frequency:    1.2048269223
  - # 4
    frequency:    1.7538224540
  - # 5
    frequency:    1.8485510165
  - # 6
    frequency:    1.9833408081
  - # 7
    frequency:    3.0119644660
  - # 8
    frequency:    4.3687176466
  - # 9
    frequency:    4.9845108764
  - # 10
    frequency:    5.4441921777
  - # 11
    frequency:    6.8667029236
  - # 12
    frequency:    7.3032026531
  - # 13
    frequency:    8.4201159235
  - # 14
    frequency:    8.6365523452
  - # 15
    frequency:    8.8220195115
  - # 16
    frequency:   10.8488278219
  - # 17
    frequency:   10.9490311399
  - # 18
    frequency:   11.2294277045
  - # 19
    frequency:   14.0460076638
  - # 20
    frequency:   14.0976245908
  - # 21
    frequency:   14.6438795337
  - # 22
    frequency:   16.3141354921
  - # 23
    frequency:   16.4364794972
  - # 24
    frequency:   20.4546363222
  - # 25
    frequency:   31.6979345034
  - # 26
    frequency:   64.7028204066
  - # 27
    frequency:   67.5236014951

- q-position: [    0.1212121,    0.0000000,    0.0000000 ]
  distance:    0.0427054
  band:
  - # 1
    frequency:    0.7148126259
  - # 2
    frequency:    1.0930956712
  - # 3
    frequency:    1.2293734864
  - # 4
    frequency:    1.8322839368
  - # 5
    frequency:    1.9060661422
  - # 6
    frequency:    2.0474094823
  - # 7
    frequency:    3.1124418197
  - # 8
    frequency:    4.3698277727
  - # 9
    frequency:    5.0192369484
  - # 10
    frequency:    5.4472141110