nqpoint: 300    
npath: 3      
segment_nqpoint:
- 100
- 100
- 100
labels:
- [ 'G', 'M' ]
- [ 'M', 'K' ]
- [ 'K', 'G' ]
reciprocal_lattice:
- [   0.30338097,   0.17515708,   0.00000000 ] # a*
- [   0.00000000,   0.35031417,   0.00000000 ] # b*
- [   0.00000000,   0.00000000,   0.04328015 ] # c*
natom: 5      
lattice:
- [     3.296185675601221,     0.000000000000000,     0.000000000000000 ] # a
- [    -1.648092837800610,     2.854580530655845,     0.000000000000000 ] # b
- [     0.000000000000000,     0.000000000000000,    23.105277924071110 ] # c
points:
- symbol: Cl # 1
  coordinates: [  0.333332985432215,  0.666666983183674,  0.610478608845307 ]
  mass: 35.453000
- symbol: H # 2
  coordinates: [  0.666666984744047,  0.333332985985145,  0.389521391154693 ]
  mass: 1.007940
- symbol: N # 3
  coordinates: [  0.000000000000000,  0.000000000000000,  0.484843087433596 ]
  mass: 14.006700
- symbol: Sc # 4
  coordinates: [  0.333332985432215,  0.666666983183674,  0.431783398466739 ]
  mass: 44.955912
- symbol: Sc # 5
  coordinates: [  0.666666984744047,  0.333332985985145,  0.536180823370490 ]
  mass: 44.955912

phonon:
- q-position: [    0.0000000,    0.0000000,    0.0000000 ]
  distance:    0.0000000
  band:
  - # 1
    frequency:   -0.0000019443
  - # 2
    frequency:   -0.0000001831
  - # 3
    frequency:    0.0000020139
  - # 4
    frequency:    4.4535270199
  - # 5
    frequency:    4.4535270199
  - # 6
    frequency:    6.8175788800
  - # 7
    frequency:    6.8175788800
  - # 8
    frequency:    7.0935877665
  - # 9
    frequency:   11.6227234603
  - # 10
    frequency:   13.2875352919
  - # 11
    frequency:   13.2875352919
  - # 12
    frequency:   13.6874548916
  - # 13
    frequency:   26.7891664223
  - # 14
    frequency:   26.7891664223
  - # 15
    frequency:   26.9118999616

- q-position: [    0.0050505,    0.0000000,    0.0000000 ]
  distance:    0.0017693
  band:
  - # 1
    frequency:   -0.1482688955
  - # 2
    frequency:    0.0775616579
  - # 3
    frequency:    0.2114614658
  - # 4
    frequency:    4.4538460412
  - # 5
    frequency:    4.4554408849
  - # 6
    frequency:    6.8170860974
  - # 7
    frequency:    6.8177118447
  - # 8
    frequency:    7.0944954583
  - # 9
    frequency:   11.6192597413
  - # 10
    frequency:   13.2865014882
  - # 11
    frequency:   13.2875403521
  - # 12
    frequency:   13.6878524895
  - # 13
    frequency:   26.7813664581
  - # 14
    frequency:   26.7898442220
  - # 15
    frequency:   26.9189105541

- q-position: [    0.0101010,    0.0000000,    0.0000000 ]
  distance:    0.0035385
  band:
  - # 1
    frequency:   -0.1786440935
  - # 2
    frequency:    0.1551876824
  - # 3
    frequency:    0.3504573817
  - # 4
    frequency:    4.4548046984
  - # 5
    frequency:    4.4611677002
  - # 6
    frequency:    6.8155899259
  - # 7
    frequency:    6.8181118181
  - # 8
    frequency:    7.0972315614
  - # 9
    frequency:   11.6089158751
  - # 10
    frequency:   13.2833909856
  - # 11
    frequency:   13.2875547510
  - # 12
    frequency:   13.6890209071
  - # 13
    frequency:   26.7616094539
  - # 14
    frequency:   26.7918722173
  - # 15
    frequency:   26.9363044810

- q-position: [    0.0151515,    0.0000000,    0.0000000 ]
  distance:    0.0053078
  band:
  - # 1
    frequency:   -0.1904750647
  - # 2
    frequency:    0.2329412738
  - # 3
    frequency:    0.4906477987
  - # 4
    frequency:    4.4564077514
  - # 5
    frequency:    4.4706635261
  - # 6
    frequency:    6.8130403271
  - # 7
    frequency:    6.8187820320
  - # 8
    frequency:    7.1018317870
  - # 9
    frequency:   11.5918310131
  - # 10
    frequency:   13.2781790384
  - # 11
    frequency:   13.2875761478
  - # 12
    frequency:   13.6908871581
  - # 13
    frequency:   26.7352277626
  - # 14
    frequency:   26.7952342388
  - # 15
    frequency:   26.9587644774

- q-position: [    0.0202020,    0.0000000,    0.0000000 ]
  distance:    0.0070771
  band:
  - # 1
    frequency:   -0.1945045759
  - # 2
    frequency:    0.3108833191
  - # 3
    frequency:    0.6333163966
  - # 4
    frequency:    4.4586630670
  - # 5
    frequency:    4.4838564291
  - # 6
    frequency:    6.8093645019
  - # 7
    frequency:    6.8197278516
  - # 8
    frequency:    7.1083452561
  - # 9
    frequency:   11.5682284177
  - # 10
    frequency:   13.2708320790
  - # 11
    frequency:   13.2876006537
  - # 12
    frequency:   13.6933304142
  - # 13
    frequency:   26.7051270335
  - # 14
    frequency:   26.7999034784
  - # 15
    frequency:   26.9834099559

- q-position: [    0.0252525,    0.0000000,    0.0000000 ]
  distance:    0.0088463
  band:
  - # 1
    frequency:   -0.1934786711
  - # 2
    frequency:    0.3890712840
  - # 3
    frequency:    0.7775453881
  - # 4
    frequency:    4.4615815197
  - # 5
    frequency:    4.5006483397
  - # 6
    frequency:    6.8044800773
  - # 7
    frequency:    6.8209567415
  - # 8
    frequency:    7.1168216097
  - # 9
    frequency:   11.5384038094
  - # 10
    frequency:   13.2613169222
  - # 11
    frequency:   13.2876228519
  - # 12
    frequency:   13.6961842061
  - # 13
    frequency:   26.6725873559
  - # 14
    frequency:   26.8058426987
  - # 15
    frequency:   27.0089957362

- q-position: [    0.0303030,    0.0000000,    0.0000000 ]
  distance:    0.0106156
  band:
  - # 1
    frequency:   -0.1874731678
  - # 2
    frequency:    0.4675581608
  - # 3
    frequency:    0.9225081367
  - # 4
    frequency:    4.4651768541
  - # 5
    frequency:    4.5209174769
  - # 6
    frequency:    6.7983089802
  - # 7
    frequency:    6.8224782142
  - # 8
    frequency:    7.1272975442
  - # 9
    frequency:   11.5027113630
  - # 10
    frequency:   13.2496100033
  - # 11
    frequency:   13.2876358256
  - # 12
    frequency:   13.6992408470
  - # 13
    frequency:   26.6381903894
  - # 14
    frequency:   26.8130045240
  - # 15
    frequency:   27.0349847358

- q-position: [    0.0353535,    0.0000000,    0.0000000 ]
  distance:    0.0123848
  band:
  - # 1
    frequency:   -0.1751110313
  - # 2
    frequency:    0.5463914910
  - # 3
    frequency:    1.0676204480
  - # 4
    frequency:    4.4694655091
  - # 5
    frequency:    4.5445211897
  - # 6
    frequency:    6.7907891471
  - # 7
    frequency:    6.8243037571
  - # 8
    frequency:    7.1397856156
  - # 9
    frequency:   11.4615489698
  - # 10
    frequency:   13.2357047329
  - # 11
    frequency:   13.2876311959
  - # 12
    frequency:   13.7022583811
  - # 13
    frequency:   26.6022258150
  - # 14
    frequency:   26.8213318104
  - # 15
    frequency:   27.0611412875

- q-position: [    0.0404040,    0.0000000,    0.0000000 ]
  distance:    0.0141541
  band:
  - # 1
    frequency:   -0.1532845288
  - # 2
    frequency:    0.6256124749
  - # 3
    frequency:    1.2124683985
  - # 4
    frequency:    4.4744664052
  - # 5
    frequency:    4.5712990494
  - # 6
    frequency:    6.7818822493
  - # 7
    frequency:    6.8264467345
  - # 8
    frequency:    7.1542671248
  - # 9
    frequency:   11.4153441519
  - # 10
    frequency:   13.2196159600
  - # 11
    frequency:   13.2875991694
  - # 12
    frequency:   13.7049696858
  - # 13
    frequency:   26.5648556878
  - # 14
    frequency:   26.8307580899
  - # 15
    frequency:   27.0873665025

- q-position: [    0.0454545,    0.0000000,    0.0000000 ]
  distance:    0.0159234
  band:
  - # 1
    frequency:   -0.1142168994
  - # 2
    frequency:    0.7052551837
  - # 3
    frequency:    1.3567437021
  - # 4
    frequency:    4.4802006951
  - # 5
    frequency:    4.6010760268
  - # 6
    frequency:    6.7715770093
  - # 7
    frequency:    6.8289222590
  - # 8
    frequency:    7.1706894984
  - # 9
    frequency:   11.3645416007
  - # 10
    frequency:   13.2013814739
  - # 11
    frequency:   13.2875285971
  - # 12
    frequency:   13.7070928294
  - # 13
    frequency:   26.5261849391
  - # 14
    frequency:   26.8412080873
  - # 15
    frequency:   27.1136274290

- q-position: [    0.0505051,    0.0000000,    0.0000000 ]
  distance:    0.0176926
  band:
  - # 1
    frequency:    0.0367495429
  - # 2
    frequency:    0.7853458835
  - # 3
    frequency:    1.5002033436
  - # 4
    frequency:    4.4866914801
  - # 5
    frequency:    4.6336656038
  - # 6
    frequency:    6.7598888508
  - # 7
    frequency:    6.8317470299
  - # 8
    frequency:    7.1889674122
  - # 9
    frequency:   11.3095928642
  - # 10
    frequency:   13.1810611144
  - # 11
    frequency:   13.2874070438
  - # 12
    frequency:   13.7083416004
  - # 13
    frequency:   26.4862940955
  - # 14
    frequency:   26.8525983036
  - # 15
    frequency:   27.1399239409

- q-position: [    0.0555556,    0.0000000,    0.0000000 ]
  distance:    0.0194619
  band:
  - # 1
    frequency:    0.1428066334
  - # 2
    frequency:    0.8659024796
  - # 3
    frequency:    1.6426457283
  - # 4
    frequency:    4.4939634901
  - # 5
    frequency:    4.6688726867
  - # 6
    frequency:    6.7468572064
  - # 7
    frequency:    6.8349391337
  - # 8
    frequency:    7.2089863227
  - # 9
    frequency:   11.2509483161
  - # 10
    frequency:   13.1587343108
  - # 11
    frequency:   13.2872208702
  - # 12
    frequency:   13.7084352618
  - # 13
    frequency:   26.4452555373
  - # 14
    frequency:   26.8648376603
  - # 15
    frequency:   27.1662720310

- q-position: [    0.0606061,    0.0000000,    0.0000000 ]
  distance:    0.0212312
  band:
  - # 1
    frequency:    0.2116775948
  - # 2
    frequency:    0.9469340877
  - # 3
    frequency:    1.7838964664
  - # 4
    frequency:    4.5020427308
  - # 5
    frequency:    4.7064962206
  - # 6
    frequency:    6.7325418085
  - # 7
    frequency:    6.8385178055
  - # 8
    frequency:    7.2306070708
  - # 9
    frequency:   11.1890512683
  - # 10
    frequency:   13.1344968120
  - # 11
    frequency:   13.2869553250
  - # 12
    frequency:   13.7071069203
  - # 13
    frequency:   26.4031419716
  - # 14
    frequency:   26.8778282011
  - # 15
    frequency:   27.1926948355

- q-position: [    0.0656566,    0.0000000,    0.0000000 ]
  distance:    0.0230004
  band:
  - # 1
    frequency:    0.2744502624
  - # 2
    frequency:    1.0284407343
  - # 3
    frequency:    1.9237996341
  - # 4
    frequency:    4.5109560969
  - # 5
    frequency:    4.7463314267
  - # 6
    frequency:    6.7170189475
  - # 7
    frequency:    6.8425031497
  - # 8
    frequency:    7.2536705622
  - # 9
    frequency:   11.1243339281
  - # 10
    frequency:   13.1084571683
  - # 11
    frequency:   13.2865946484
  - # 12
    frequency:   13.7041102597
  - # 13
    frequency:   26.3600309216
  - # 14
    frequency:   26.8914658429
  - # 15
    frequency:   27.2192175880

- q-position: [    0.0707071,    0.0000000,    0.0000000 ]
  distance:    0.0247697
  band:
  - # 1
    frequency:    0.3356628251
  - # 2
    frequency:    1.1104131883
  - # 3
    frequency:    2.0622121641
  - # 4
    frequency:    4.5207309525
  - # 5
    frequency:    4.7881716148
  - # 6
    frequency:    6.7003782586
  - # 7
    frequency:    6.8469158201
  - # 8
    frequency:    7.2780019580
  - # 9
    frequency:   11.0572148424
  - # 10
    frequency:   13.0807332925
  - # 11
    frequency:   13.2861221847
  - # 12
    frequency:   13.6992246837
  - # 13
    frequency:   26.3160070270
  - # 14
    frequency:   26.9056411710
  - # 15
    frequency:   27.2458647105

- q-position: [    0.0757576,    0.0000000,    0.0000000 ]
  distance:    0.0265390
  band:
  - # 1
    frequency:    0.3969458473
  - # 2
    frequency:    1.1928329221
  - # 3
    frequency:    2.1990000470
  - # 4
    frequency:    4.5313946798
  - # 5
    frequency:    4.8318095409
  - # 6
    frequency:    6.6827202524
  - # 7
    frequency:    6.8517766632
  - # 8
    frequency:    7.3034141538
  - # 9
    frequency:   10.9880974781
  - # 10
    frequency:   13.0514492465
  - # 11
    frequency:   13.2855205018
  - # 12
    frequency:   13.6922590911
  - # 13
    frequency:   26.2711630569
  - # 14
    frequency:   26.9202402708
  - # 15
    frequency:   27.2726581401

- q-position: [    0.0808081,    0.0000000,    0.0000000 ]
  distance:    0.0283082
  band:
  - # 1
    frequency:    0.4590366135
  - # 2
    frequency:    1.2756721985
  - # 3
    frequency:    2.3340355896
  - # 4
    frequency:    4.5429741981
  - # 5
    frequency:    4.8770382981
  - # 6
    frequency:    6.6641545942
  - # 7
    frequency:    6.8571063274
  - # 8
    frequency:    7.3297105440
  - # 9
    frequency:   10.9173696319
  - # 10
    frequency:   13.0207322769
  - # 11
    frequency:   13.2847715160
  - # 12
    frequency:   13.6830545829
  - # 13
    frequency:   26.2256001243
  - # 14
    frequency:   26.9351455907
  - # 15
    frequency:   27.2996164082

- q-position: [    0.0858586,    0.0000000,    0.0000000 ]
  distance:    0.0300775
  band:
  - # 1
    frequency:    0.5222989457
  - # 2
    frequency:    1.3588942788
  - # 3
    frequency:    2.4671952866
  - # 4
    frequency:    4.5554954547
  - # 5
    frequency:    4.9236517369
  - # 6
    frequency:    6.6447990336
  - # 7
    frequency:    6.8629248445
  - # 8
    frequency:    7.3566871750
  - # 9
    frequency:   10.8454034203
  - # 10
    frequency:   12.9887100634
  - # 11
    frequency:   13.2838566175
  - # 12
    frequency:   13.6714864083
  - # 13
    frequency:   26.1794273780
  - # 14
    frequency:   26.9502368266
  - # 15
    frequency:   27.3267541973

- q-position: [    0.0909091,    0.0000000,    0.0000000 ]
  distance:    0.0318467
  band:
  - # 1
    frequency:    0.5869126912
  - # 2
    frequency:    1.4424537451
  - # 3
    frequency:    2.5983580407
  - # 4
    frequency:    4.5689828922
  - # 5
    frequency:    4.9714444146
  - # 6
    frequency:    6.6247788654
  - # 7
    frequency:    6.8692511920
  - # 8
    frequency:    7.3841344253
  - # 9
    frequency:   10.7725556640
  - # 10
    frequency:   12.9555081199
  - # 11
    frequency:   13.2827567937
  - # 12
    frequency:   13.6574654119
  - # 13
    frequency:   26.1327613412
  - # 14
    frequency:   26.9653918233
  - # 15
    frequency:   27.3540822124

- q-position: [    0.0959596,    0.0000000,    0.0000000 ]
  distance:    0.0336160
  band:
  - # 1
    frequency:    0.6529575036
  - # 2
    frequency:    1.5262969280
  - # 3
    frequency:    2.7274035663
  - # 4
    frequency:    4.5834588962
  - # 5
    frequency:    5.0202110727
  - # 6
    frequency:    6.6042268163
  - # 7
    frequency:    6.8761028442
  - # 8
    frequency:    7.4118383433
  - # 9
    frequency:   10.6991685319
  - # 10
    frequency:   12.9212472950
  - # 11
    frequency:   13.2814527458
  - # 12
    frequency:   13.6409391921
  - # 13
    frequency:   26.0857250072
  - # 14
    frequency:   26.9804874846
  - # 15
    frequency:   27.3816072627

- q-position: [    0.1010101,    0.0000000,    0.0000000 ]
  distance:    0.0353853
  band:
  - # 1
    frequency:    0.7204547911
  - # 2
    frequency:    1.6103624316
  - # 3
    frequency:    2.8542108708
  - # 4
    frequency:    4.5989432298
  - # 5
    frequency:    5.0697456294
  - # 6
    frequency:    6.5832832873
  - # 7
    frequency:    6.8834953224
  - # 8
    frequency:    7.4395817616
  - # 9
    frequency:   10.6255703544
  - # 10
    frequency:   12.8860413335
  - # 11
    frequency:   13.2799249930
  - # 12
    frequency:   13.6218931115
  - # 13
    frequency:   26.0384467647
  - # 14
    frequency:   26.9954006843
  - # 15
    frequency:   27.4093324858

- q-position: [    0.1060606,    0.0000000,    0.0000000 ]
  distance:    0.0371545
  band:
  - # 1
    frequency:    0.7893905746
  - # 2
    frequency:    1.6945817449
  - # 3
    frequency:    2.9786567469
  - # 4
    frequency:    4.6154524633
  - # 5
    frequency:    5.1198396688
  - # 6
    frequency:    6.5620969174
  - # 7
    frequency:    6.8914417566
  - # 8
    frequency:    7.4671452858
  - # 9
    frequency:   10.5520765449
  - # 10
    frequency:   12.8499944903
  - # 11
    frequency:   13.2781539605
  - # 12
    frequency:   13.6003512410
  - # 13
    frequency:   25.9910592080
  - # 14
    frequency:   27.0100091723
  - # 15
    frequency:   27.4372576677

- q-position: [    0.1111111,    0.0000000,    0.0000000 ]
  distance:    0.0389238
  band:
  - # 1
    frequency:    0.8597286802
  - # 2
    frequency:    1.7788799287
  - # 3
    frequency:    3.1006142292
  - # 4
    frequency:    4.6329994073
  - # 5
    frequency:    5.1702803874
  - # 6
    frequency:    6.5408254739
  - # 7
    frequency:    6.8999524681
  - # 8
    frequency:    7.4943082471
  - # 9
    frequency:   10.4789905880
  - # 10
    frequency:   12.8131992193
  - # 11
    frequency:   13.2761200449
  - # 12
    frequency:   13.5763772560
  - # 13
    frequency:   25.9436978718
  - # 14
    frequency:   27.0241924678
  - # 15
    frequency:   27.4653796272

- q-position: [    0.1161616,    0.0000000,    0.0000000 ]
  distance:    0.0406931
  band:
  - # 1
    frequency:    0.9314186427
  - # 2
    frequency:    1.8631763685
  - # 3
    frequency:    3.2199509821
  - # 4
    frequency:    4.6515925613
  - # 5
    frequency:    5.2208479480
  - # 6
    frequency:    6.5196371012
  - # 7
    frequency:    6.9090345857
  - # 8
    frequency:    7.5208497080
  - # 9
    frequency:   10.4066050594
  - # 10
    frequency:   12.7757339985
  - # 11
    frequency:   13.2738036534
  - # 12
    frequency:   13.5500752468
  - # 13
    frequency:   25.8964999229
  - # 14
    frequency:   27.0378327333
  - # 15
    frequency:   27.4936926393

- q-position: [    0.1212121,    0.0000000,    0.0000000 ]
  distance:    0.0424623
  band:
  - # 1
    frequency:    1.0044005335
  - # 2
    frequency:    1.9473855807
  - # 3
    frequency:    3.3365275962
  - # 4
    frequency:    4.6712355888
  - # 5
    frequency:    5.2713121753
  - # 6
    frequency:    6.4987119901
  - # 7
    frequency:    6.9186917058
  - # 8
    frequency:    7.5465496147
  - # 9
    frequency:   10.3352026413
  - # 10
    frequency:   12.7376613976
  - # 11
    frequency:   13.2711852104
  - # 12
    frequency:   13.5215903433
  - # 13
    frequency:   25.8496028347
  - # 14
    frequency:   27.0508156237
  - # 15
    frequency:   27.5221888814

- q-position: [    0.1262626,    0.0000000,    0.0000000 ]
  distance:    0.0442316
  band:
  - # 1
    frequency:    1.0786079177
  - # 2
    frequency:    2.0314180620
  - # 3
    frequency:    3.4501957702
  - # 4
    frequency:    4.6919268321
  - # 5
    frequency:    5.3214285263
  - # 6
    frequency:    6.4782445380
  - # 7
    frequency:    6.9289236057
  - # 8
    frequency:    7.5711902114
  - # 9
    frequency:   10.2650570828
  - # 10
    frequency:   12.6990265448
  - # 11
    frequency:   13.2682451291
  - # 12
    frequency:   13.4911089914
  - # 13
    frequency:   25.8031430661
  - # 14
    frequency:   27.0630311023
  - # 15
    frequency:   27.5508588907

- q-position: [    0.1313131,    0.0000000,    0.0000000 ]
  distance:    0.0460009
  band:
  - # 1
    frequency:    1.1539696337
  - # 2
    frequency:    2.1151811712
  - # 3
    frequency:    3.5607963627
  - # 4
    frequency:    4.7136588800
  - # 5
    frequency:    5.3709332893
  - # 6
    frequency:    6.4584460611
  - # 7
    frequency:    6.9397260199
  - # 8
    frequency:    7.5945578485
  - # 9
    frequency:   10.1964340348
  - # 10
    frequency:   12.6598562082
  - # 11
    frequency:   13.2649637435
  - # 12
    frequency:   13.4588586545
  - # 13
    frequency:   25.7572547643
  - # 14
    frequency:   27.0743742202
  - # 15
    frequency:   27.5796920207

- q-position: [    0.1363636,    0.0000000,    0.0000000 ]
  distance:    0.0477701
  band:
  - # 1
    frequency:    1.2304108143
  - # 2
    frequency:    2.1985800324
  - # 3
    frequency:    3.6681572907
  - # 4
    frequency:    4.7364182023
  - # 5
    frequency:    5.4195380340
  - # 6
    frequency:    6.4395480595
  - # 7
    frequency:    6.9510904841
  - # 8
    frequency:    7.6164453518
  - # 9
    frequency:   10.1295916632
  - # 10
    frequency:   12.6201587625
  - # 11
    frequency:   13.2613212000
  - # 12
    frequency:   13.4251066444
  - # 13
    frequency:   25.7120685063
  - # 14
    frequency:   27.0847458516
  - # 15
    frequency:   27.6086768915

- q-position: [    0.1414141,    0.0000000,    0.0000000 ]
  distance:    0.0495394
  band:
  - # 1
    frequency:    1.3078534134
  - # 2
    frequency:    2.2815184502
  - # 3
    frequency:    3.7720912541
  - # 4
    frequency:    4.7601848621
  - # 5
    frequency:    5.4669234922
  - # 6
    frequency:    6.4218058958
  - # 7
    frequency:    6.9630042535
  - # 8
    frequency:    7.6366551427
  - # 9
    frequency:   10.0647809077
  - # 10
    frequency:   12.5799253616
  - # 11
    frequency:   13.2572973055
  - # 12
    frequency:   13.3901577356
  - # 13
    frequency:   25.6677100947
  - # 14
    frequency:   27.0940533809
  - # 15
    frequency:   27.6378018277

- q-position: [    0.1464646,    0.0000000,    0.0000000 ]
  distance:    0.0513086
  band:
  - # 1
    frequency:    1.3862164085
  - # 2
    frequency:    2.3638998273
  - # 3
    frequency:    3.8723932575
  - # 4
    frequency:    4.7849323192
  - # 5
    frequency:    5.5127333632
  - # 6
    frequency:    6.4055024532
  - # 7
    frequency:    6.9754502971
  - # 8
    frequency:    7.6550033226
  - # 9
    frequency:   10.0022452309
  - # 10
    frequency:   12.5391326571
  - # 11
    frequency:   13.2528713349
  - # 12
    frequency:   13.3543501857
  - # 13
    frequency:   25.6242994193
  - # 14
    frequency:   27.1022113366
  - # 15
    frequency:   27.6670552789

- q-position: [    0.1515152,    0.0000000,    0.0000000 ]
  distance:    0.0530779
  band:
  - # 1
    frequency:    1.4654157919
  - # 2
    frequency:    2.4456280738
  - # 3
    frequency:    3.9688378969
  - # 4
    frequency:    4.8106273332
  - # 5
    frequency:    5.5565690962
  - # 6
    frequency:    6.3909508119
  - # 7
    frequency:    6.9884073677
  - # 8
    frequency:    7.6713249402
  - # 9
    frequency:    9.9422196715
  - # 10
    frequency:   12.4977473732
  - # 11
    frequency:   13.2480217984
  - # 12
    frequency:   13.3180498101
  - # 13
    frequency:   25.5819493965
  - # 14
    frequency:   27.1091419674
  - # 15
    frequency:   27.6964262194

- q-position: [    0.1565657,    0.0000000,    0.0000000 ]
  distance:    0.0548472
  band:
  - # 1
    frequency:    1.5453644250
  - # 2
    frequency:    2.5266085022
  - # 3
    frequency:    4.0611763724
  - # 4
    frequency:    4.8372299746
  - # 5
    frequency:    5.5979875893
  - # 6
    frequency:    6.3784941380
  - # 7
    frequency:    7.0018501460
  - # 8
    frequency:    7.6854806297
  - # 9
    frequency:    9.8849290196
  - # 10
    frequency:   12.4557329387
  - # 11
    frequency:   13.2427261722
  - # 12
    frequency:   13.2816418614
  - # 13
    frequency:   25.5407649949
  - # 14
    frequency:   27.1147757560
  - # 15
    frequency:   27.7259045236

- q-position: [    0.1616162,    0.0000000,    0.0000000 ]
  distance:    0.0566164
  band:
  - # 1
    frequency:    1.6259718052
  - # 2
    frequency:    2.6067486968
  - # 3
    frequency:    4.1491331840
  - # 4
    frequency:    4.8646937496
  - # 5
    frequency:    5.6365049550
  - # 6
    frequency:    6.3684998293
  - # 7
    frequency:    7.0157494539
  - # 8
    frequency:    7.6973647298
  - # 9
    frequency:    9.8305849541
  - # 10
    frequency:   12.4130581642
  - # 11
    frequency:   13.2369605996
  - # 12
    frequency:   13.2455206735
  - # 13
    frequency:   25.5008423563
  - # 14
    frequency:   27.1190518685
  - # 15
    frequency:   27.7554813143

- q-position: [    0.1666667,    0.0000000,    0.0000000 ]
  distance:    0.0583857
  band:
  - # 1
    frequency:    1.7071437760
  - # 2
    frequency:    2.6859593513
  - # 3
    frequency:    4.2324024719
  - # 4
    frequency:    4.8929658406
  - # 5
    frequency:    5.6716107090
  - # 6
    frequency:    6.3613438407
  - # 7
    frequency:    7.0300725296
  - # 8
    frequency:    7.7069148432
  - # 9
    frequency:    9.7793820529
  - # 10
    frequency:   12.3697076324
  - # 11
    frequency:   13.2100773402
  - # 12
    frequency:   13.2306995680
  - # 13
    frequency:   25.4622680184
  - # 14
    frequency:   27.1219185347
  - # 15
    frequency:   27.7851492814

- q-position: [    0.1717172,    0.0000000,    0.0000000 ]
  distance:    0.0601550
  band:
  - # 1
    frequency:    1.7887821966
  - # 2
    frequency:    2.7641550655
  - # 3
    frequency:    4.3106439743
  - # 4
    frequency:    4.9219874637
  - # 5
    frequency:    5.7027969925
  - # 6
    frequency:    6.3573809540
  - # 7
    frequency:    7.0447833554
  - # 8
    frequency:    7.7141225571
  - # 9
    frequency:    9.7314927086
  - # 10
    frequency:   12.3256930824
  - # 11
    frequency:   13.1756860901
  - # 12
    frequency:   13.2239155718
  - # 13
    frequency:   25.4251182461
  - # 14
    frequency:   27.1233333577
  - # 15
    frequency:   27.8149029669

- q-position: [    0.1767677,    0.0000000,    0.0000000 ]
  distance:    0.0619242
  band:
  - # 1
    frequency:    1.8707845773
  - # 2
    frequency:    2.8412550937
  - # 3
    frequency:    4.3834786159
  - # 4
    frequency:    4.9516943414
  - # 5
    frequency:    5.7296051025
  - # 6
    frequency:    6.3568992221
  - # 7
    frequency:    7.0598430277
  - # 8
    frequency:    7.7190447179
  - # 9
    frequency:    9.6870611476
  - # 10
    frequency:   12.2810646877
  - # 11
    frequency:   13.1426903960
  - # 12
    frequency:   13.2165787708
  - # 13
    frequency:   25.3894584741
  - # 14
    frequency:   27.1232635491
  - # 15
    frequency:   27.8447390154

- q-position: [    0.1818182,    0.0000000,    0.0000000 ]
  distance:    0.0636935
  band:
  - # 1
    frequency:    1.9530436767
  - # 2
    frequency:    2.9171840371
  - # 3
    frequency:    4.4504838167
  - # 4
    frequency:    4.9820172832
  - # 5
    frequency:    5.7516851980
  - # 6
    frequency:    6.3600633399
  - # 7
    frequency:    7.0752101553
  - # 8
    frequency:    7.7218142445
  - # 9
    frequency:    9.6461969521
  - # 10
    frequency:   12.2359208754
  - # 11
    frequency:   13.1113901203
  - # 12
    frequency:   13.2086566574
  - # 13
    frequency:   25.3553428657
  - # 14
    frequency:   27.1216860909
  - # 15
    frequency:   27.8746563859

- q-position: [    0.1868687,    0.0000000,    0.0000000 ]
  distance:    0.0654627
  band:
  - # 1
    frequency:    2.0354470469
  - # 2
    frequency:    2.9918724719
  - # 3
    frequency:    4.5111887565
  - # 4
    frequency:    5.0128828703
  - # 5
    frequency:    5.7688557130
  - # 6
    frequency:    6.3668611135
  - # 7
    frequency:    7.0908412742
  - # 8
    frequency:    7.7226490352
  - # 9
    frequency:    9.6089686738
  - # 10
    frequency:   12.1904153139
  - # 11
    frequency:   13.0820310225
  - # 12
    frequency:   13.2001137432
  - # 13
    frequency:   25.3228139894
  - # 14
    frequency:   27.1185878188
  - # 15
    frequency:   27.9046565225

- q-position: [    0.1919192,    0.0000000,    0.0000000 ]
  distance:    0.0672320
  band:
  - # 1
    frequency:    2.1178765058
  - # 2
    frequency:    3.0652575060
  - # 3
    frequency:    4.5650700761
  - # 4
    frequency:    5.0442142320
  - # 5
    frequency:    5.7811425510
  - # 6
    frequency:    6.3770736343
  - # 7
    frequency:    7.1066912638
  - # 8
    frequency:    7.7218571479
  - # 9
    frequency:    9.5753982657
  - # 10
    frequency:   12.1447599782
  - # 11
    frequency:   13.0547976985
  - # 12
    frequency:   13.1909112812
  - # 13
    frequency:   25.2919026141
  - # 14
    frequency:   27.1139654306
  - # 15
    frequency:   27.9347434822

- q-position: [    0.1969697,    0.0000000,    0.0000000 ]
  distance:    0.0690013
  band:
  - # 1
    frequency:    2.2002074993
  - # 2
    frequency:    3.1372832569
  - # 3
    frequency:    4.6115488905
  - # 4
    frequency:    5.0759319041
  - # 5
    frequency:    5.7887820489
  - # 6
    frequency:    6.3902855956
  - # 7
    frequency:    7.1227137513
  - # 8
    frequency:    7.7198362413
  - # 9
    frequency:    9.5454570894
  - # 10
    frequency:   12.0992237202
  - # 11
    frequency:   13.0298105190
  - # 12
    frequency:   13.1810070350
  - # 13
    frequency:   25.2626276231
  - # 14
    frequency:   27.1078254151
  - # 15
    frequency:   27.9649240155

- q-position: [    0.2020202,    0.0000000,    0.0000000 ]
  distance:    0.0707705
  band:
  - # 1
    frequency:    2.2823083053
  - # 2
    frequency:    3.2079012429
  - # 3
    frequency:    4.6499905481
  - # 4
    frequency:    5.1079547546
  - # 5
    frequency:    5.7921867018
  - # 6
    frequency:    6.4059365835
  - # 7
    frequency:    7.1388614923
  - # 8
    frequency:    7.7170653950
  - # 9
    frequency:    9.5190641437
  - # 10
    frequency:   12.0541264181
  - # 11
    frequency:   13.0071265211
  - # 12
    frequency:   13.1703551107
  - # 13
    frequency:   25.2349960466
  - # 14
    frequency:   27.1001839062
  - # 15
    frequency:   27.9952075984

- q-position: [    0.2070707,    0.0000000,    0.0000000 ]
  distance:    0.0725398
  band:
  - # 1
    frequency:    2.3640390047
  - # 2
    frequency:    3.2770706827
  - # 3
    frequency:    4.6797092853
  - # 4
    frequency:    5.1402009623
  - # 5
    frequency:    5.7918886590
  - # 6
    frequency:    6.4233970738
  - # 7
    frequency:    7.1550867150
  - # 8
    frequency:    7.7140880143
  - # 9
    frequency:    9.4960869256
  - # 10
    frequency:   12.0098293603
  - # 11
    frequency:   12.9867436573
  - # 12
    frequency:   13.1589058643
  - # 13
    frequency:   25.2090032098
  - # 14
    frequency:   27.0910664592
  - # 15
    frequency:   28.0256064139

- q-position: [    0.2121212,    0.0000000,    0.0000000 ]
  distance:    0.0743091
  band:
  - # 1
    frequency:    2.4452501124
  - # 2