nqpoint: 300    
npath: 3      
segment_nqpoint:
- 100
- 100
- 100
labels:
- [ 'G', 'M' ]
- [ 'M', 'K' ]
- [ 'K', 'G' ]
reciprocal_lattice:
- [   0.28922023,   0.16698138,   0.00000000 ] # a*
- [   0.00000000,   0.33396276,   0.00000000 ] # b*
- [   0.00000000,   0.00000000,   0.03841148 ] # c*
natom: 7      
lattice:
- [     3.457572781222632,     0.000000000000000,     0.000000000000000 ] # a
- [    -1.728786390611316,     2.994345863968894,     0.000000000000000 ] # b
- [     0.000000000000000,     0.000000000000000,    26.033885486879228 ] # c
points:
- symbol: C # 1
  coordinates: [  0.000000000000000,  0.000000000000000,  0.434535675188850 ]
  mass: 12.010700
- symbol: C # 2
  coordinates: [  0.333332985432215,  0.666666983183674,  0.608575278180754 ]
  mass: 12.010700
- symbol: F # 3
  coordinates: [  0.666666984744047,  0.333332985985145,  0.345703295212537 ]
  mass: 18.998403
- symbol: N # 4
  coordinates: [  0.333332985432215,  0.666666983183674,  0.654296704787463 ]
  mass: 14.006700
- symbol: S # 5
  coordinates: [  0.333332985432215,  0.666666983183674,  0.544418789904375 ]
  mass: 32.065000
- symbol: Sc # 6
  coordinates: [  0.333332985432215,  0.666666983183674,  0.386577237882056 ]
  mass: 44.955912
- symbol: Sc # 7
  coordinates: [  0.666666984744047,  0.333332985985145,  0.480987977536589 ]
  mass: 44.955912

phonon:
- q-position: [    0.0000000,    0.0000000,    0.0000000 ]
  distance:    0.0000000
  band:
  - # 1
    frequency:   -0.3946655948
  - # 2
    frequency:   -0.3946655948
  - # 3
    frequency:   -0.0000014829
  - # 4
    frequency:    0.0000003561
  - # 5
    frequency:    0.0000014776
  - # 6
    frequency:    3.7535531860
  - # 7
    frequency:    3.7535531860
  - # 8
    frequency:    5.6180590393
  - # 9
    frequency:    5.6180590393
  - # 10
    frequency:    5.6283258642
  - # 11
    frequency:    6.4435071311
  - # 12
    frequency:    6.4435071311
  - # 13
    frequency:    9.8111719022
  - # 14
    frequency:   10.4439559126
  - # 15
    frequency:   10.4439559126
  - # 16
    frequency:   11.2397680330
  - # 17
    frequency:   11.2397680330
  - # 18
    frequency:   12.3503965061
  - # 19
    frequency:   18.1165679962
  - # 20
    frequency:   21.2961730992
  - # 21
    frequency:   65.1976681474

- q-position: [    0.0050505,    0.0000000,    0.0000000 ]
  distance:    0.0016867
  band:
  - # 1
    frequency:   -0.3951426650
  - # 2
    frequency:   -0.3893428249
  - # 3
    frequency:   -0.0514172106
  - # 4
    frequency:    0.0805243560
  - # 5
    frequency:    0.1281938992
  - # 6
    frequency:    3.7540342062
  - # 7
    frequency:    3.7554695585
  - # 8
    frequency:    5.6149227195
  - # 9
    frequency:    5.6183253768
  - # 10
    frequency:    5.6358103344
  - # 11
    frequency:    6.4437638298
  - # 12
    frequency:    6.4451221191
  - # 13
    frequency:    9.8106915945
  - # 14
    frequency:   10.4440421413
  - # 15
    frequency:   10.4448766391
  - # 16
    frequency:   11.2402428071
  - # 17
    frequency:   11.2447715779
  - # 18
    frequency:   12.3497476745
  - # 19
    frequency:   18.1151645646
  - # 20
    frequency:   21.2960918471
  - # 21
    frequency:   65.1975700341

- q-position: [    0.0101010,    0.0000000,    0.0000000 ]
  distance:    0.0033734
  band:
  - # 1
    frequency:   -0.3959653824
  - # 2
    frequency:   -0.3728636760
  - # 3
    frequency:   -0.0607660266
  - # 4
    frequency:    0.1595237051
  - # 5
    frequency:    0.2425713281
  - # 6
    frequency:    3.7554754074
  - # 7
    frequency:    3.7611984721
  - # 8
    frequency:    5.6100031894
  - # 9
    frequency:    5.6191216475
  - # 10
    frequency:    5.6536191613
  - # 11
    frequency:    6.4445319800
  - # 12
    frequency:    6.4499652350
  - # 13
    frequency:    9.8092537496
  - # 14
    frequency:   10.4442999561
  - # 15
    frequency:   10.4475937306
  - # 16
    frequency:   11.2416637803
  - # 17
    frequency:   11.2597886535
  - # 18
    frequency:   12.3478426240
  - # 19
    frequency:   18.1109583459
  - # 20
    frequency:   21.2958482863
  - # 21
    frequency:   65.1972758713

- q-position: [    0.0151515,    0.0000000,    0.0000000 ]
  distance:    0.0050600
  band:
  - # 1
    frequency:   -0.3958659760
  - # 2
    frequency:   -0.3435706808
  - # 3
    frequency:   -0.0696124447
  - # 4
    frequency:    0.2363456591
  - # 5
    frequency:    0.3591254185
  - # 6
    frequency:    3.7578712281
  - # 7
    frequency:    3.7706804025
  - # 8
    frequency:    5.6040590693
  - # 9
    frequency:    5.6204396596
  - # 10
    frequency:    5.6805338382
  - # 11
    frequency:    6.4458057690
  - # 12
    frequency:    6.4580342646
  - # 13
    frequency:    9.8068674925
  - # 14
    frequency:   10.4447267613
  - # 15
    frequency:   10.4519786053
  - # 16
    frequency:   11.2440209194
  - # 17
    frequency:   11.2848234377
  - # 18
    frequency:   12.3448120677
  - # 19
    frequency:   18.1039615649
  - # 20
    frequency:   21.2954430032
  - # 21
    frequency:   65.1967861894

- q-position: [    0.0202020,    0.0000000,    0.0000000 ]
  distance:    0.0067467
  band:
  - # 1
    frequency:   -0.3937405832
  - # 2
    frequency:   -0.2978653832
  - # 3
    frequency:   -0.0769332381
  - # 4
    frequency:    0.3111302727
  - # 5
    frequency:    0.4763188088
  - # 6
    frequency:    3.7612124546
  - # 7
    frequency:    3.7838195840
  - # 8
    frequency:    5.5967066144
  - # 9
    frequency:    5.6222658724
  - # 10
    frequency:    5.7161899090
  - # 11
    frequency:    6.4475755903
  - # 12
    frequency:    6.4693361390
  - # 13
    frequency:    9.8035476857
  - # 14
    frequency:   10.4453182896
  - # 15
    frequency:   10.4578376798
  - # 16
    frequency:   11.2472975519
  - # 17
    frequency:   11.3198322938
  - # 18
    frequency:   12.3408969060
  - # 19
    frequency:   18.0941945834
  - # 20
    frequency:   21.2948769710
  - # 21
    frequency:   65.1961018708

- q-position: [    0.0252525,    0.0000000,    0.0000000 ]
  distance:    0.0084334
  band:
  - # 1
    frequency:   -0.3889035059
  - # 2
    frequency:   -0.2270628296
  - # 3
    frequency:   -0.0786875963
  - # 4
    frequency:    0.3843218104
  - # 5
    frequency:    0.5937386135
  - # 6
    frequency:    3.7654863033
  - # 7
    frequency:    3.8004885887
  - # 8
    frequency:    5.5878476843
  - # 9
    frequency:    5.6245815624
  - # 10
    frequency:    5.7596753642
  - # 11
    frequency:    6.4498281629
  - # 12
    frequency:    6.4839012271
  - # 13
    frequency:    9.7993144773
  - # 14
    frequency:   10.4460686873
  - # 15
    frequency:   10.4649384547
  - # 16
    frequency:   11.2514704425
  - # 17
    frequency:   11.3646463634
  - # 18
    frequency:   12.3364896890
  - # 19
    frequency:   18.0816858838
  - # 20
    frequency:   21.2941515456
  - # 21
    frequency:   65.1952241464

- q-position: [    0.0303030,    0.0000000,    0.0000000 ]
  distance:    0.0101201
  band:
  - # 1
    frequency:   -0.3809689701
  - # 2
    frequency:   -0.1203287379
  - # 3
    frequency:    0.0506624016
  - # 4
    frequency:    0.4563600620
  - # 5
    frequency:    0.7112361511
  - # 6
    frequency:    3.7706765339
  - # 7
    frequency:    3.8205337548
  - # 8
    frequency:    5.5775451506
  - # 9
    frequency:    5.6273630513
  - # 10
    frequency:    5.8096904131
  - # 11
    frequency:    6.4525466967
  - # 12
    frequency:    6.5018000523
  - # 13
    frequency:    9.7941927763
  - # 14
    frequency:   10.4469706277
  - # 15
    frequency:   10.4730375167
  - # 16
    frequency:   11.2565099048
  - # 17
    frequency:   11.4188561381
  - # 18
    frequency:   12.3322090646
  - # 19
    frequency:   18.0664720500
  - # 20
    frequency:   21.2932684581
  - # 21
    frequency:   65.1941545918

- q-position: [    0.0353535,    0.0000000,    0.0000000 ]
  distance:    0.0118068
  band:
  - # 1
    frequency:   -0.3696799025
  - # 2
    frequency:   -0.0902776373
  - # 3
    frequency:    0.2266438489
  - # 4
    frequency:    0.5275816136
  - # 5
    frequency:    0.8287363232
  - # 6
    frequency:    3.7767635923
  - # 7
    frequency:    3.8437808212
  - # 8
    frequency:    5.5659329013
  - # 9
    frequency:    5.6305819917
  - # 10
    frequency:    5.8646808016
  - # 11
    frequency:    6.4557110977
  - # 12
    frequency:    6.5231588311
  - # 13
    frequency:    9.7882117198
  - # 14
    frequency:   10.4480154471
  - # 15
    frequency:   10.4819050048
  - # 16
    frequency:   11.2623799539
  - # 17
    frequency:   11.4816413007
  - # 18
    frequency:   12.3290302732
  - # 19
    frequency:   18.0485977514
  - # 20
    frequency:   21.2922298061
  - # 21
    frequency:   65.1928951219

- q-position: [    0.0404040,    0.0000000,    0.0000000 ]
  distance:    0.0134934
  band:
  - # 1
    frequency:   -0.3547783206
  - # 2
    frequency:   -0.0683567999
  - # 3
    frequency:    0.3357259496
  - # 4
    frequency:    0.5982163010
  - # 5
    frequency:    0.9461882509
  - # 6
    frequency:    3.7837247796
  - # 7
    frequency:    3.8700402608
  - # 8
    frequency:    5.5531752014
  - # 9
    frequency:    5.6342057059
  - # 10
    frequency:    5.9229309018
  - # 11
    frequency:    6.4592982106
  - # 12
    frequency:    6.5481682878
  - # 13
    frequency:    9.7814041782
  - # 14
    frequency:   10.4491932977
  - # 15
    frequency:   10.4913418210
  - # 16
    frequency:   11.2690385024
  - # 17
    frequency:   11.5515118445
  - # 18
    frequency:   12.3285105748
  - # 19
    frequency:   18.0281157356
  - # 20
    frequency:   21.2910380428
  - # 21
    frequency:   65.1914479843

- q-position: [    0.0454545,    0.0000000,    0.0000000 ]
  distance:    0.0151801
  band:
  - # 1
    frequency:   -0.3359053698
  - # 2
    frequency:    0.0302505711
  - # 3
    frequency:    0.4267070528
  - # 4
    frequency:    0.6684102673
  - # 5
    frequency:    1.0635499367
  - # 6
    frequency:    3.7915344472
  - # 7
    frequency:    3.8991119914
  - # 8
    frequency:    5.5394472592
  - # 9
    frequency:    5.6381975709
  - # 10
    frequency:    5.9826486139
  - # 11
    frequency:    6.4632820944
  - # 12
    frequency:    6.5770774941
  - # 13
    frequency:    9.7738063193
  - # 14
    frequency:   10.4504933100
  - # 15
    frequency:   10.5011883537
  - # 16
    frequency:   11.2764376066
  - # 17
    frequency:   11.6259123261
  - # 18
    frequency:   12.3331603920
  - # 19
    frequency:   18.0050868392
  - # 20
    frequency:   21.2896959648
  - # 21
    frequency:   65.1898157524

- q-position: [    0.0505051,    0.0000000,    0.0000000 ]
  distance:    0.0168668
  band:
  - # 1
    frequency:   -0.3124929303
  - # 2
    frequency:    0.0976917956
  - # 3
    frequency:    0.5089288122
  - # 4
    frequency:    0.7382503645
  - # 5
    frequency:    1.1807824112
  - # 6
    frequency:    3.8001642118
  - # 7
    frequency:    3.9307893215
  - # 8
    frequency:    5.5249251045
  - # 9
    frequency:    5.6425174448
  - # 10
    frequency:    6.0420606293
  - # 11
    frequency:    6.4676343231
  - # 12
    frequency:    6.6101623184
  - # 13
    frequency:    9.7654572349
  - # 14
    frequency:   10.4519037584
  - # 15
    frequency:   10.5113256958
  - # 16
    frequency:   11.2845237655
  - # 17
    frequency:   11.7006883975
  - # 18
    frequency:   12.3469615358
  - # 19
    frequency:   17.9795800280
  - # 20
    frequency:   21.2882066979
  - # 21
    frequency:   65.1880013159

- q-position: [    0.0555556,    0.0000000,    0.0000000 ]
  distance:    0.0185535
  band:
  - # 1
    frequency:   -0.2835859227
  - # 2
    frequency:    0.1481278633
  - # 3
    frequency:    0.5858843616
  - # 4
    frequency:    0.8077833612
  - # 5
    frequency:    1.2978469539
  - # 6
    frequency:    3.8095831908
  - # 7
    frequency:    3.9648621113
  - # 8
    frequency:    5.5097801906
  - # 9
    frequency:    5.6471221276
  - # 10
    frequency:    6.0995278853
  - # 11
    frequency:    6.4723243087
  - # 12
    frequency:    6.6476603742
  - # 13
    frequency:    9.7563986214
  - # 14
    frequency:   10.4534122255
  - # 15
    frequency:   10.5216716252
  - # 16
    frequency:   11.2932382770
  - # 17
    frequency:   11.7697146048
  - # 18
    frequency:   12.3757326736
  - # 19
    frequency:   17.9516724818
  - # 20
    frequency:   21.2865736815
  - # 21
    frequency:   65.1860078723

- q-position: [    0.0606061,    0.0000000,    0.0000000 ]
  distance:    0.0202402
  band:
  - # 1
    frequency:   -0.2474486714
  - # 2
    frequency:    0.1969760489
  - # 3
    frequency:    0.6592717533
  - # 4
    frequency:    0.8770295880
  - # 5
    frequency:    1.4147034875
  - # 6
    frequency:    3.8197582520
  - # 7
    frequency:    4.0011192007
  - # 8
    frequency:    5.4941767450
  - # 9
    frequency:    5.6519658503
  - # 10
    frequency:    6.1536770819
  - # 11
    frequency:    6.4773196368
  - # 12
    frequency:    6.6896767605
  - # 13
    frequency:    9.7466745008
  - # 14
    frequency:   10.4550057565
  - # 15
    frequency:   10.5321738434
  - # 16
    frequency:   11.3025176512
  - # 17
    frequency:   11.8257072856
  - # 18
    frequency:   12.4263168425
  - # 19
    frequency:   17.9214497433
  - # 20
    frequency:   21.2848006516
  - # 21
    frequency:   65.1838389158

- q-position: [    0.0656566,    0.0000000,    0.0000000 ]
  distance:    0.0219268
  band:
  - # 1
    frequency:   -0.2004168623
  - # 2
    frequency:    0.2465470238
  - # 3
    frequency:    0.7300448942
  - # 4
    frequency:    0.9459921960
  - # 5
    frequency:    1.5313094918
  - # 6
    frequency:    3.8306542761
  - # 7
    frequency:    4.0393501848
  - # 8
    frequency:    5.4782708593
  - # 9
    frequency:    5.6570007856
  - # 10
    frequency:    6.2035214330
  - # 11
    frequency:    6.4825864112
  - # 12
    frequency:    6.7360877052
  - # 13
    frequency:    9.7363309711
  - # 14
    frequency:   10.4566710028
  - # 15
    frequency:   10.5428024974
  - # 16
    frequency:   11.3122940837
  - # 17
    frequency:   11.8631918049
  - # 18
    frequency:   12.5036204139
  - # 19
    frequency:   17.8890059563
  - # 20
    frequency:   21.2828916226
  - # 21
    frequency:   65.1814982260

- q-position: [    0.0707071,    0.0000000,    0.0000000 ]
  distance:    0.0236135
  band:
  - # 1
    frequency:   -0.1315647127
  - # 2
    frequency:    0.2975655920
  - # 3
    frequency:    0.7987916439
  - # 4
    frequency:    1.0146632926
  - # 5
    frequency:    1.6476191764
  - # 6
    frequency:    3.8422344285
  - # 7
    frequency:    4.0793466108
  - # 8
    frequency:    5.4622107283
  - # 9
    frequency:    5.6621775762
  - # 10
    frequency:    6.2485262073
  - # 11
    frequency:    6.4880895997
  - # 12
    frequency:    6.7864874482
  - # 13
    frequency:    9.7254159748
  - # 14
    frequency:   10.4583943501
  - # 15
    frequency:   10.5535432740
  - # 16
    frequency:   11.3224959841
  - # 17
    frequency:   11.8814239356
  - # 18
    frequency:   12.6077025216
  - # 19
    frequency:   17.8544442272
  - # 20
    frequency:   21.2808508678
  - # 21
    frequency:   65.1789898558

- q-position: [    0.0757576,    0.0000000,    0.0000000 ]
  distance:    0.0253002
  band:
  - # 1
    frequency:    0.0852448681
  - # 2
    frequency:    0.3502817520
  - # 3
    frequency:    0.8658983002
  - # 4
    frequency:    1.0830279545
  - # 5
    frequency:    1.7635827905
  - # 6
    frequency:    3.8544604364
  - # 7
    frequency:    4.1209026603
  - # 8
    frequency:    5.4461376611
  - # 9
    frequency:    5.6674458727
  - # 10
    frequency:    6.2885857021
  - # 11
    frequency:    6.4937933750
  - # 12
    frequency:    6.8402132366
  - # 13
    frequency:    9.7139790783
  - # 14
    frequency:   10.4601620285
  - # 15
    frequency:   10.5643916780
  - # 16
    frequency:   11.3330485592
  - # 17
    frequency:   11.8835826743
  - # 18
    frequency:   12.7345965766
  - # 19
    frequency:   17.8178771544
  - # 20
    frequency:   21.2786828989
  - # 21
    frequency:   65.1763181185

- q-position: [    0.0808081,    0.0000000,    0.0000000 ]
  distance:    0.0269869
  band:
  - # 1
    frequency:    0.1830009514
  - # 2
    frequency:    0.4047559466
  - # 3
    frequency:    0.9316308074
  - # 4
    frequency:    1.1510668272
  - # 5
    frequency:    1.8791460037
  - # 6
    frequency:    3.8672928695
  - # 7
    frequency:    4.1638153587
  - # 8
    frequency:    5.4301876282
  - # 9
    frequency:    5.6727548789
  - # 10
    frequency:    6.3239198757
  - # 11
    frequency:    6.4996614452
  - # 12
    frequency:    6.8964421946
  - # 13
    frequency:    9.7020712593
  - # 14
    frequency:   10.4619602055
  - # 15
    frequency:   10.5753486375
  - # 16
    frequency:   11.3438744431
  - # 17
    frequency:   11.8737993247
  - # 18
    frequency:   12.8792979251
  - # 19
    frequency:   17.7794275846
  - # 20
    frequency:   21.2763924446
  - # 21
    frequency:   65.1734875739

- q-position: [    0.0858586,    0.0000000,    0.0000000 ]
  distance:    0.0286736
  band:
  - # 1
    frequency:    0.2475682378
  - # 2
    frequency:    0.4609610588
  - # 3
    frequency:    0.9961787079
  - # 4
    frequency:    1.2187577958
  - # 5
    frequency:    1.9942493210
  - # 6
    frequency:    3.8806914206
  - # 7
    frequency:    4.2078843349
  - # 8
    frequency:    5.4144932034
  - # 9
    frequency:    5.6780538984
  - # 10
    frequency:    6.3549370053
  - # 11
    frequency:    6.5056573697
  - # 12
    frequency:    6.9543159271
  - # 13
    frequency:    9.6897446978
  - # 14
    frequency:   10.4637750598
  - # 15
    frequency:   10.5864173105
  - # 16
    frequency:   11.3548943704
  - # 17
    frequency:   11.8554246587
  - # 18
    frequency:   13.0375146667
  - # 19
    frequency:   17.7392296763
  - # 20
    frequency:   21.2739844286
  - # 21
    frequency:   65.1705030144

- q-position: [    0.0909091,    0.0000000,    0.0000000 ]
  distance:    0.0303603
  band:
  - # 1
    frequency:    0.3010021274
  - # 2
    frequency:    0.5188263746
  - # 3
    frequency:    1.0596806763
  - # 4
    frequency:    1.2860770457
  - # 5
    frequency:    2.1088275025
  - # 6
    frequency:    3.8946151826
  - # 7
    frequency:    4.2529111371
  - # 8
    frequency:    5.3991858319
  - # 9
    frequency:    5.6832928787
  - # 10
    frequency:    6.3821121264
  - # 11
    frequency:    6.5117448550
  - # 12
    frequency:    7.0130453169
  - # 13
    frequency:    9.6770525714
  - # 14
    frequency:   10.4655928401
  - # 15
    frequency:   10.5976008575
  - # 16
    frequency:   11.3660278816
  - # 17
    frequency:   11.8307713333
  - # 18
    frequency:   13.2059432384
  - # 19
    frequency:   17.6974303803
  - # 20
    frequency:   21.2714639464
  - # 21
    frequency:   65.1673694495

- q-position: [    0.0959596,    0.0000000,    0.0000000 ]
  distance:    0.0320469
  band:
  - # 1
    frequency:    0.3483694408
  - # 2
    frequency:    0.5782589579
  - # 3
    frequency:    1.1222402267
  - # 4
    frequency:    1.3529997264
  - # 5
    frequency:    2.2228089709
  - # 6
    frequency:    3.9090229222
  - # 7
    frequency:    4.2986980921
  - # 8
    frequency:    5.3843984090
  - # 9
    frequency:    5.6884229491
  - # 10
    frequency:    6.4059065026
  - # 11
    frequency:    6.5178880280
  - # 12
    frequency:    7.0719722690
  - # 13
    frequency:    9.6640488542
  - # 14
    frequency:   10.4673999066
  - # 15
    frequency:   10.6089009278
  - # 16
    frequency:   11.3771940544
  - # 17
    frequency:   11.8013674107
  - # 18
    frequency:   13.3820317556
  - # 19
    frequency:   17.6541914870
  - # 20
    frequency:   21.2688362423
  - # 21
    frequency:   65.1640920912

- q-position: [    0.1010101,    0.0000000,    0.0000000 ]
  distance:    0.0337336
  band:
  - # 1
    frequency:    0.3917950349
  - # 2
    frequency:    0.6391549135
  - # 3
    frequency:    1.1839358490
  - # 4
    frequency:    1.4195003562
  - # 5
    frequency:    2.3361151855
  - # 6
    frequency:    3.9238733445
  - # 7
    frequency:    4.3450466846
  - # 8
    frequency:    5.3702681962
  - # 9
    frequency:    5.6933969494
  - # 10
    frequency:    6.4267278526
  - # 11
    frequency:    6.5240516847
  - # 12
    frequency:    7.1305903297
  - # 13
    frequency:    9.6507881219
  - # 14
    frequency:   10.4691827611
  - # 15
    frequency:   10.6203166277
  - # 16
    frequency:   11.3883122488
  - # 17
    frequency:   11.7682314727
  - # 18
    frequency:   13.5637195785
  - # 19
    frequency:   17.6096924497
  - # 20
    frequency:   21.2661066854
  - # 21
    frequency:   65.1606763377

- q-position: [    0.1060606,    0.0000000,    0.0000000 ]
  distance:    0.0354203
  band:
  - # 1
    frequency:    0.4323953435
  - # 2
    frequency:    0.7014056332
  - # 3
    frequency:    1.2448278257
  - # 4
    frequency:    1.4855530587
  - # 5
    frequency:    2.4486599688
  - # 6
    frequency:    3.9391253491
  - # 7
    frequency:    4.3917554174
  - # 8
    frequency:    5.3569401276
  - # 9
    frequency:    5.6981699443
  - # 10
    frequency:    6.4449190220
  - # 11
    frequency:    6.5302015126
  - # 12
    frequency:    7.1885377268
  - # 13
    frequency:    9.6373253648
  - # 14
    frequency:   10.4709280658
  - # 15
    frequency:   10.6318437799
  - # 16
    frequency:   11.3993028579
  - # 17
    frequency:   11.7320649184
  - # 18
    frequency:   13.7492566398
  - # 19
    frequency:   17.5641342793
  - # 20
    frequency:   21.2632807453
  - # 21
    frequency:   65.1571277575

- q-position: [    0.1111111,    0.0000000,    0.0000000 ]
  distance:    0.0371070
  band:
  - # 1
    frequency:    0.4708356758
  - # 2
    frequency:    0.7649013494
  - # 3
    frequency:    1.3049629857
  - # 4
    frequency:    1.5511316913
  - # 5
    frequency:    2.5603487654
  - # 6
    frequency:    3.9547382758
  - # 7
    frequency:    4.4386171193
  - # 8
    frequency:    5.3445705719
  - # 9
    frequency:    5.7026997219
  - # 10
    frequency:    6.4607621588
  - # 11
    frequency:    6.5363042883
  - # 12
    frequency:    7.2455765902
  - # 13
    frequency:    9.6237158121
  - # 14
    frequency:   10.4726226544
  - # 15
    frequency:   10.6434743144
  - # 16
    frequency:   11.4100880531
  - # 17
    frequency:   11.6933721228
  - # 18
    frequency:   13.9370911253
  - # 19
    frequency:   17.5177449263
  - # 20
    frequency:   21.2603639680
  - # 21
    frequency:   65.1534520733

- q-position: [    0.1161616,    0.0000000,    0.0000000 ]
  distance:    0.0387937
  band:
  - # 1
    frequency:    0.5075461683
  - # 2
    frequency:    0.8295331467
  - # 3
    frequency:    1.3643781323
  - # 4
    frequency:    1.6162099060
  - # 5
    frequency:    2.6710778124
  - # 6
    frequency:    3.9706721368
  - # 7
    frequency:    4.4854156863
  - # 8
    frequency:    5.3333315992
  - # 9
    frequency:    5.7069472703
  - # 10
    frequency:    6.4744893352
  - # 11
    frequency:    6.5423280491
  - # 12
    frequency:    7.3015678646
  - # 13
    frequency:    9.6100147730
  - # 14
    frequency:   10.4742535374
  - # 15
    frequency:   10.6551956542
  - # 16
    frequency:   11.4205925131
  - # 17
    frequency:   11.6525337000
  - # 18
    frequency:   14.1257996081
  - # 19
    frequency:   17.4707867451
  - # 20
    frequency:   21.2573619513
  - # 21
    frequency:   65.1496551452

- q-position: [    0.1212121,    0.0000000,    0.0000000 ]
  distance:    0.0404803
  band:
  - # 1
    frequency:    0.5428213128
  - # 2
    frequency:    0.8951940460
  - # 3
    frequency:    1.4231025942
  - # 4
    frequency:    1.6807611679
  - # 5
    frequency:    2.7807332005
  - # 6
    frequency:    3.9868878365
  - # 7
    frequency:    4.5319223113
  - # 8
    frequency:    5.3234157399
  - # 9
    frequency:    5.7108772308
  - # 10
    frequency:    6.4862945505
  - # 11
    frequency:    6.5482422431
  - # 12
    frequency:    7.3564471344
  - # 13
    frequency:    9.5962774984
  - # 14
    frequency:   10.4758079048
  - # 15
    frequency:   10.6669899615
  - # 16
    frequency:   11.4307441278
  - # 17
    frequency:   11.6098516324
  - # 18
    frequency:   14.3140401741
  - # 19
    frequency:   17.4235668948
  - # 20
    frequency:   21.2542803202
  - # 21
    frequency:   65.1457429541

- q-position: [    0.1262626,    0.0000000,    0.0000000 ]
  distance:    0.0421670
  band:
  - # 1
    frequency:    0.5768714961
  - # 2
    frequency:    0.9617795014
  - # 3
    frequency:    1.4811601852
  - # 4
    frequency:    1.7447587512
  - # 5
    frequency:    2.8891897952
  - # 6
    frequency:    4.0033473767
  - # 7
    frequency:    4.5778914123
  - # 8
    frequency:    5.3150410683
  - # 9
    frequency:    5.7144583216
  - # 10
    frequency:    6.4963447833
  - # 11
    frequency:    6.5540178584
  - # 12
    frequency:    7.4102036437
  - # 13
    frequency:    9.5825590709
  - # 14
    frequency:   10.4772731278
  - # 15
    frequency:   10.6788330922
  - # 16
    frequency:   11.4404746670
  - # 17
    frequency:   11.5655779036
  - # 18
    frequency:   14.5005160074
  - # 19
    frequency:   17.3764518946
  - # 20
    frequency:   21.2511247027
  - # 21
    frequency:   65.1417215855

- q-position: [    0.1313131,    0.0000000,    0.0000000 ]
  distance:    0.0438537
  band:
  - # 1
    frequency:    0.6098520421
  - # 2
    frequency:    1.0291875108
  - # 3
    frequency:    1.5385707620
  - # 4
    frequency:    1.8081757224
  - # 5
    frequency:    2.9963099911
  - # 6
    frequency:    4.0200140467
  - # 7
    frequency:    4.6230567781
  - # 8
    frequency:    5.3084561417
  - # 9
    frequency:    5.7176637293
  - # 10
    frequency:    6.5047892754
  - # 11
    frequency:    6.5596275372
  - # 12
    frequency:    7.4628631379
  - # 13
    frequency:    9.5689143278
  - # 14
    frequency:   10.4786367624
  - # 15
    frequency:   10.6906930537
  - # 16
    frequency:   11.4497204061
  - # 17
    frequency:   11.5199335709
  - # 18
    frequency:   14.6839412440
  - # 19
    frequency:   17.3298880568
  - # 20
    frequency:   21.2479007054
  - # 21
    frequency:   65.1375972127

- q-position: [    0.1363636,    0.0000000,    0.0000000 ]
  distance:    0.0455404
  band:
  - # 1
    frequency:    0.6418806664
  - # 2
    frequency:    1.0973184566
  - # 3
    frequency:    1.5953515100
  - # 4
    frequency:    1.8709849226
  - # 5
    frequency:    3.1019422646
  - # 6
    frequency:    4.0368525993
  - # 7
    frequency:    4.6671289996
  - # 8
    frequency:    5.3039437726
  - # 9
    frequency:    5.7204714616
  - # 10
    frequency:    6.5117669572
  - # 11
    frequency:    6.5650456757
  - # 12
    frequency:    7.5144743554
  - # 13
    frequency:    9.5553978256
  - # 14
    frequency:   10.4798865551
  - # 15
    frequency:   10.7025276616
  - # 16
    frequency:   11.4584226984
  - # 17
    frequency:   11.4731225078
  - # 18
    frequency:   14.8630031148
  - # 19
    frequency:   17.2844301580
  - # 20
    frequency:   21.2446138904
  - # 21
    frequency:   65.1333760801

- q-position: [    0.1414141,    0.0000000,    0.0000000 ]
  distance:    0.0472271
  band:
  - # 1
    frequency:    0.6730485118
  - # 2
    frequency:    1.1660747454
  - # 3
    frequency:    1.6515180528
  - # 4
    frequency:    1.9331589512
  - # 5
    frequency:    3.2059194929
  - # 6
    frequency:    4.0538294109
  - # 7
    frequency:    4.7097961397
  - # 8
    frequency:    5.3018217285
  - # 9
    frequency:    5.7228646600
  - # 10
    frequency:    6.5174122208
  - # 11
    frequency:    6.5702485161
  - # 12
    frequency:    7.5650986720
  - # 13
    frequency:    9.5420638516
  - # 14
    frequency:   10.4810104546
  - # 15
    frequency:   10.7142809035
  - # 16
    frequency:   11.4253426181
  - # 17
    frequency:   11.4665284909
  - # 18
    frequency:   15.0363153683
  - # 19
    frequency:   17.2407813555
  - # 20
    frequency:   21.2412697512
  - # 21
    frequency:   65.1290644877

- q-position: [    0.1464646,    0.0000000,    0.0000000 ]
  distance:    0.0489137
  band:
  - # 1
    frequency:    0.7034274206
  - # 2
    frequency:    1.2353602827
  - # 3
    frequency:    1.7070854595
  - # 4
    frequency:    1.9946701590
  - # 5
    frequency:    3.3080570132
  - # 6
    frequency:    4.0709126268
  - # 7
    frequency:    4.7507307811
  - # 8
    frequency:    5.3024372600
  - # 9
    frequency:    5.7248318642
  - # 10
    frequency:    6.5218593283
  - # 11
    frequency:    6.5752142332
  - # 12
    frequency:    7.6148023213
  - # 13
    frequency:    9.5289664881
  - # 14
    frequency:   10.4819966289
  - # 15
    frequency:   10.7258771773
  - # 16
    frequency:   11.3767967450
  - # 17
    frequency:   11.4739907726
  - # 18
    frequency:   15.2023586800
  - # 19
    frequency:   17.1998475437
  - # 20
    frequency:   21.2378736913
  - # 21
    frequency:   65.1246687747

- q-position: [    0.1515152,    0.0000000,    0.0000000 ]
  distance:    0.0506004
  band:
  - # 1
    frequency:    0.7330748932
  - # 2
    frequency:    1.3050797966
  - # 3
    frequency:    1.7620692128
  - # 4
    frequency:    2.0554906505
  - # 5
    frequency:    3.4081504113
  - # 6
    frequency:    4.0880722931
  - # 7
    frequency:    4.7896077096
  - # 8
    frequency:    5.3061512226
  - # 9
    frequency:    5.7263672267
  - # 10
    frequency:    6.5252457340
  - # 11
    frequency:    6.5799230192
  - # 12
    frequency:    7.6636506454
  - # 13
    frequency:    9.5161597365
  - # 14
    frequency:   10.4828334897
  - # 15
    frequency:   10.7372119415
  - # 16
    frequency:   11.3277055896
  - # 17
    frequency:   11.4807689542
  - # 18
    frequency:   15.3594059135
  - # 19
    frequency:   17.1628076867
  - # 20
    frequency:   21.2344310021
  - # 21
    frequency:   65.1201953041