nqpoint: 300    
npath: 3      
segment_nqpoint:
- 100
- 100
- 100
labels:
- [ 'G', 'M' ]
- [ 'M', 'K' ]
- [ 'K', 'G' ]
reciprocal_lattice:
- [   0.28922023,   0.16698138,   0.00000000 ] # a*
- [   0.00000000,   0.33396276,   0.00000000 ] # b*
- [   0.00000000,   0.00000000,   0.03841148 ] # c*
natom: 7      
lattice:
- [     3.457572781222632,     0.000000000000000,     0.000000000000000 ] # a
- [    -1.728786390611316,     2.994345863968894,     0.000000000000000 ] # b
- [     0.000000000000000,     0.000000000000000,    26.033885486879228 ] # c
points:
- symbol: C # 1
  coordinates: [  0.000000000000000,  0.000000000000000,  0.434535675188850 ]
  mass: 12.010700
- symbol: C # 2
  coordinates: [  0.333332985432215,  0.666666983183674,  0.608575278180754 ]
  mass: 12.010700
- symbol: F # 3
  coordinates: [  0.666666984744047,  0.333332985985145,  0.345703295212537 ]
  mass: 18.998403
- symbol: N # 4
  coordinates: [  0.333332985432215,  0.666666983183674,  0.654296704787463 ]
  mass: 14.006700
- symbol: S # 5
  coordinates: [  0.333332985432215,  0.666666983183674,  0.544418789904375 ]
  mass: 32.065000
- symbol: Sc # 6
  coordinates: [  0.333332985432215,  0.666666983183674,  0.386577237882056 ]
  mass: 44.955912
- symbol: Sc # 7
  coordinates: [  0.666666984744047,  0.333332985985145,  0.480987977536589 ]
  mass: 44.955912

phonon:
- q-position: [    0.0000000,    0.0000000,    0.0000000 ]
  distance:    0.0000000
  band:
  - # 1
    frequency:   -0.0000119409
  - # 2
    frequency:   -0.0000002931
  - # 3
    frequency:    0.0000099975
  - # 4
    frequency:    0.2781995886
  - # 5
    frequency:    0.2781995887
  - # 6
    frequency:    3.8185428017
  - # 7
    frequency:    3.8185428017
  - # 8
    frequency:    5.6020288651
  - # 9
    frequency:    6.0145169714
  - # 10
    frequency:    6.0145169714
  - # 11
    frequency:    6.5425808349
  - # 12
    frequency:    6.5425808349
  - # 13
    frequency:    9.7509815508
  - # 14
    frequency:   10.4741132864
  - # 15
    frequency:   10.4741132865
  - # 16
    frequency:   11.6379340310
  - # 17
    frequency:   11.6379340310
  - # 18
    frequency:   12.2825107107
  - # 19
    frequency:   18.0330938400
  - # 20
    frequency:   21.2912599095
  - # 21
    frequency:   65.1962774373

- q-position: [    0.0050505,    0.0000000,    0.0000000 ]
  distance:    0.0016867
  band:
  - # 1
    frequency:   -0.0670153596
  - # 2
    frequency:    0.0021539005
  - # 3
    frequency:    0.0774434135
  - # 4
    frequency:    0.2958005673
  - # 5
    frequency:    0.3061510680
  - # 6
    frequency:    3.8187724652
  - # 7
    frequency:    3.8203284146
  - # 8
    frequency:    5.6008814531
  - # 9
    frequency:    6.0142318913
  - # 10
    frequency:    6.0172415018
  - # 11
    frequency:    6.5426809197
  - # 12
    frequency:    6.5442145884
  - # 13
    frequency:    9.7506214283
  - # 14
    frequency:   10.4741401757
  - # 15
    frequency:   10.4746270732
  - # 16
    frequency:   11.6376897435
  - # 17
    frequency:   11.6414684864
  - # 18
    frequency:   12.2824557879
  - # 19
    frequency:   18.0318972946
  - # 20
    frequency:   21.2911885518
  - # 21
    frequency:   65.1961831931

- q-position: [    0.0101010,    0.0000000,    0.0000000 ]
  distance:    0.0033734
  band:
  - # 1
    frequency:   -0.1160801763
  - # 2
    frequency:    0.0085145730
  - # 3
    frequency:    0.1474255349
  - # 4
    frequency:    0.3366079181
  - # 5
    frequency:    0.3807071913
  - # 6
    frequency:    3.8194612835
  - # 7
    frequency:    3.8256706981
  - # 8
    frequency:    5.5974864201
  - # 9
    frequency:    6.0133783295
  - # 10
    frequency:    6.0252970588
  - # 11
    frequency:    6.5429802171
  - # 12
    frequency:    6.5491238986
  - # 13
    frequency:    9.7495430067
  - # 14
    frequency:   10.4742205672
  - # 15
    frequency:   10.4761591971
  - # 16
    frequency:   11.6369576940
  - # 17
    frequency:   11.6519897489
  - # 18
    frequency:   12.2823772865
  - # 19
    frequency:   18.0283102284
  - # 20
    frequency:   21.2909746028
  - # 21
    frequency:   65.1959006090

- q-position: [    0.0151515,    0.0000000,    0.0000000 ]
  distance:    0.0050600
  band:
  - # 1
    frequency:   -0.1477400256
  - # 2
    frequency:    0.0189470091
  - # 3
    frequency:    0.2117579349
  - # 4
    frequency:    0.3868529907
  - # 5
    frequency:    0.4829672679
  - # 6
    frequency:    3.8206087402
  - # 7
    frequency:    3.8345263963
  - # 8
    frequency:    5.5919745825
  - # 9
    frequency:    6.0119612941
  - # 10
    frequency:    6.0383430709
  - # 11
    frequency:    6.5434758804
  - # 12
    frequency:    6.5573330029
  - # 13
    frequency:    9.7477520823
  - # 14
    frequency:   10.4743536329
  - # 15
    frequency:   10.4786826672
  - # 16
    frequency:   11.6357403202
  - # 17
    frequency:   11.6692356990
  - # 18
    frequency:   12.2825483220
  - # 19
    frequency:   18.0223403541
  - # 20
    frequency:   21.2906184352
  - # 21
    frequency:   65.1954301307

- q-position: [    0.0202020,    0.0000000,    0.0000000 ]
  distance:    0.0067467
  band:
  - # 1
    frequency:   -0.1664036349
  - # 2
    frequency:    0.0333713281
  - # 3
    frequency:    0.2741501211
  - # 4
    frequency:    0.4411679711
  - # 5
    frequency:    0.5988535727
  - # 6
    frequency:    3.8222139724
  - # 7
    frequency:    3.8468247526
  - # 8
    frequency:    5.5845336751
  - # 9
    frequency:    6.0099890406
  - # 10
    frequency:    6.0558516225
  - # 11
    frequency:    6.5441632420
  - # 12
    frequency:    6.5688821078
  - # 13
    frequency:    9.7452581806
  - # 14
    frequency:   10.4745379945
  - # 15
    frequency:   10.4821547851
  - # 16
    frequency:   11.6340416778
  - # 17
    frequency:   11.6927143499
  - # 18
    frequency:   12.2834743829
  - # 19
    frequency:   18.0140005356
  - # 20
    frequency:   21.2901206686
  - # 21
    frequency:   65.1947724996

- q-position: [    0.0252525,    0.0000000,    0.0000000 ]
  distance:    0.0084334
  band:
  - # 1
    frequency:   -0.1750025573
  - # 2
    frequency:    0.0517086590
  - # 3
    frequency:    0.3361997570
  - # 4
    frequency:    0.4976980219
  - # 5
    frequency:    0.7213782414
  - # 6
    frequency:    3.8242757683
  - # 7
    frequency:    3.8624694137
  - # 8
    frequency:    5.5753780884
  - # 9
    frequency:    6.0074729392
  - # 10
    frequency:    6.0771527758
  - # 11
    frequency:    6.5450359251
  - # 12
    frequency:    6.5838255031
  - # 13
    frequency:    9.7420743645
  - # 14
    frequency:   10.4747717258
  - # 15
    frequency:   10.4865202243
  - # 16
    frequency:   11.6318674308
  - # 17
    frequency:   11.7216135648
  - # 18
    frequency:   12.2859769020
  - # 19
    frequency:   18.0033088034
  - # 20
    frequency:   21.2894821677
  - # 21
    frequency:   65.1939287513

- q-position: [    0.0303030,    0.0000000,    0.0000000 ]
  distance:    0.0101201
  band:
  - # 1
    frequency:   -0.1750819539
  - # 2
    frequency:    0.0738575212
  - # 3
    frequency:    0.3983197910
  - # 4
    frequency:    0.5556868802
  - # 5
    frequency:    0.8473120353
  - # 6
    frequency:    3.8267925632
  - # 7
    frequency:    3.8813409052
  - # 8
    frequency:    5.5647252073
  - # 9
    frequency:    6.0044272991
  - # 10
    frequency:    6.1014809417
  - # 11
    frequency:    6.5460859900
  - # 12
    frequency:    6.6022260419
  - # 13
    frequency:    9.7382169834
  - # 14
    frequency:   10.4750523564
  - # 15
    frequency:   10.4917147222
  - # 16
    frequency:   11.6292248366
  - # 17
    frequency:   11.7546651089
  - # 18
    frequency:   12.2913207721
  - # 19
    frequency:   17.9902883785
  - # 20
    frequency:   21.2887040401
  - # 21
    frequency:   65.1929002128

- q-position: [    0.0353535,    0.0000000,    0.0000000 ]
  distance:    0.0118068
  band:
  - # 1
    frequency:   -0.1671405311
  - # 2
    frequency:    0.0996939783
  - # 3
    frequency:    0.4605471408
  - # 4
    frequency:    0.6147464104
  - # 5
    frequency:    0.9750514990
  - # 6
    frequency:    3.8297624354
  - # 7
    frequency:    3.9032995180
  - # 8
    frequency:    5.5527819029
  - # 9
    frequency:    6.0008691570
  - # 10
    frequency:    6.1280196139
  - # 11
    frequency:    6.5473041097
  - # 12
    frequency:    6.6241440161
  - # 13
    frequency:    9.7337053801
  - # 14
    frequency:   10.4753768764
  - # 15
    frequency:   10.4976689193
  - # 16
    frequency:   11.6261227270
  - # 17
    frequency:   11.7899775180
  - # 18
    frequency:   12.3013721204
  - # 19
    frequency:   17.9749677073
  - # 20
    frequency:   21.2877876320
  - # 21
    frequency:   65.1916884994

- q-position: [    0.0404040,    0.0000000,    0.0000000 ]
  distance:    0.0134934
  band:
  - # 1
    frequency:   -0.1505690914
  - # 2
    frequency:    0.1290762626
  - # 3
    frequency:    0.5228230762
  - # 4
    frequency:    0.6746279557
  - # 5
    frequency:    1.1037139517
  - # 6
    frequency:    3.8331831016
  - # 7
    frequency:    3.9281884266
  - # 8
    frequency:    5.5397395339
  - # 9
    frequency:    5.9968180395
  - # 10
    frequency:    6.1559458668
  - # 11
    frequency:    6.5486797642
  - # 12
    frequency:    6.6496194356
  - # 13
    frequency:    9.7285615720
  - # 14
    frequency:   10.4757417427
  - # 15
    frequency:   10.5043119325
  - # 16
    frequency:   11.6225714830
  - # 17
    frequency:   11.8249189163
  - # 18
    frequency:   12.3187060245
  - # 19
    frequency:   17.9573805118
  - # 20
    frequency:   21.2867345251
  - # 21
    frequency:   65.1902955110

- q-position: [    0.0454545,    0.0000000,    0.0000000 ]
  distance:    0.0151801
  band:
  - # 1
    frequency:   -0.1226963904
  - # 2
    frequency:    0.1618493384
  - # 3
    frequency:    0.5850736811
  - # 4
    frequency:    0.7351438733
  - # 5
    frequency:    1.2327617912
  - # 6
    frequency:    3.8370519125
  - # 7
    frequency:    3.9558368671
  - # 8
    frequency:    5.5257740461
  - # 9
    frequency:    5.9922957092
  - # 10
    frequency:    6.1844755560
  - # 11
    frequency:    6.5502014460
  - # 12
    frequency:    6.6786489287
  - # 13
    frequency:    9.7228099222
  - # 14
    frequency:   10.4761428864
  - # 15
    frequency:   10.5115743506
  - # 16
    frequency:   11.6185830051
  - # 17
    frequency:   11.8562571922
  - # 18
    frequency:   12.3464575173
  - # 19
    frequency:   17.9375658586
  - # 20
    frequency:   21.2855465307
  - # 21
    frequency:   65.1887234269

- q-position: [    0.0505051,    0.0000000,    0.0000000 ]
  distance:    0.0168668
  band:
  - # 1
    frequency:   -0.0725589344
  - # 2
    frequency:    0.1978488832
  - # 3
    frequency:    0.6472305184
  - # 4
    frequency:    0.7961383501
  - # 5
    frequency:    1.3618357755
  - # 6
    frequency:    3.8413658483
  - # 7
    frequency:    3.9860632149
  - # 8
    frequency:    5.5110482782
  - # 9
    frequency:    5.9873259027
  - # 10
    frequency:    6.2129066840
  - # 11
    frequency:    6.5518568678
  - # 12
    frequency:    6.7111615098
  - # 13
    frequency:    9.7164768154
  - # 14
    frequency:   10.4765757220
  - # 15
    frequency:   10.5193904810
  - # 16
    frequency:   11.6141706765
  - # 17
    frequency:   11.8808068051
  - # 18
    frequency:   12.3876672380
  - # 19
    frequency:   17.9155682536
  - # 20
    frequency:   21.2842256852
  - # 21
    frequency:   65.1869747012

- q-position: [    0.0555556,    0.0000000,    0.0000000 ]
  distance:    0.0185535
  band:
  - # 1
    frequency:    0.0808656021
  - # 2
    frequency:    0.2369047311
  - # 3
    frequency:    0.7092343845
  - # 4
    frequency:    0.8574757113
  - # 5
    frequency:    1.4906749513
  - # 6
    frequency:    3.8461215158
  - # 7
    frequency:    4.0186778282
  - # 8
    frequency:    5.4957147668
  - # 9
    frequency:    5.9819340702
  - # 10
    frequency:    6.2406549009
  - # 11
    frequency:    6.5536331663
  - # 12
    frequency:    6.7469999329
  - # 13
    frequency:    9.7095903514
  - # 14
    frequency:   10.4770351582
  - # 15
    frequency:   10.5276998091
  - # 16
    frequency:   11.6093493199
  - # 17
    frequency:   11.8964393325
  - # 18
    frequency:   12.4442650881
  - # 19
    frequency:   17.8914377703
  - # 20
    frequency:   21.2827742430
  - # 21
    frequency:   65.1850520563

- q-position: [    0.0606061,    0.0000000,    0.0000000 ]
  distance:    0.0202402
  band:
  - # 1
    frequency:    0.1421933216
  - # 2
    frequency:    0.2788438336
  - # 3
    frequency:    0.7710346163
  - # 4
    frequency:    0.9190352688
  - # 5
    frequency:    1.6190752890
  - # 6
    frequency:    3.8513151461
  - # 7
    frequency:    4.0534855513
  - # 8
    frequency:    5.4799183176
  - # 9
    frequency:    5.9761471220
  - # 10
    frequency:    6.2672743362
  - # 11
    frequency:    6.5555170949
  - # 12
    frequency:    6.7859143673
  - # 13
    frequency:    9.7021800647
  - # 14
    frequency:   10.4775156105
  - # 15
    frequency:   10.5364477350
  - # 16
    frequency:   11.6041351467
  - # 17
    frequency:   11.9026826826
  - # 18
    frequency:   12.5164672640
  - # 19
    frequency:   17.8652302219
  - # 20
    frequency:   21.2811946702
  - # 21
    frequency:   65.1829584768

- q-position: [    0.0656566,    0.0000000,    0.0000000 ]
  distance:    0.0219268
  band:
  - # 1
    frequency:    0.1888203308
  - # 2
    frequency:    0.3234927610
  - # 3
    frequency:    0.8325875316
  - # 4
    frequency:    0.9807086918
  - # 5
    frequency:    1.7468669073
  - # 6
    frequency:    3.8569425939
  - # 7
    frequency:    4.0902878014
  - # 8
    frequency:    5.4637981726
  - # 9
    frequency:    5.9699931884
  - # 10
    frequency:    6.2924599719
  - # 11
    frequency:    6.5574952018
  - # 12
    frequency:    6.8275718218
  - # 13
    frequency:    9.6942766764
  - # 14
    frequency:   10.4780110168
  - # 15
    frequency:   10.5455857177
  - # 16
    frequency:   11.5985456982
  - # 17
    frequency:   11.9003909020
  - # 18
    frequency:   12.6031048596
  - # 19
    frequency:   17.8370073890
  - # 20
    frequency:   21.2794896366
  - # 21
    frequency:   65.1806972019

- q-position: [    0.0707071,    0.0000000,    0.0000000 ]
  distance:    0.0236135
  band:
  - # 1
    frequency:    0.2296425423
  - # 2
    frequency:    0.3706797639
  - # 3
    frequency:    0.8938549682
  - # 4
    frequency:    1.0423983758
  - # 5
    frequency:    1.8739008164
  - # 6
    frequency:    3.8629993397
  - # 7
    frequency:    4.1288841834
  - # 8
    frequency:    5.4474898522
  - # 9
    frequency:    5.9635013965
  - # 10
    frequency:    6.3160330764
  - # 11
    frequency:    6.5595539911
  - # 12
    frequency:    6.8715794606
  - # 13
    frequency:    9.6859118832
  - # 14
    frequency:   10.4785148545
  - # 15
    frequency:   10.5550709809
  - # 16
    frequency:   11.5925997781
  - # 17
    frequency:   11.8909585930
  - # 18
    frequency:   12.7024099913
  - # 19
    frequency:   17.8068373219
  - # 20
    frequency:   21.2776620083
  - # 21
    frequency:   65.1782717182

- q-position: [    0.0757576,    0.0000000,    0.0000000 ]
  distance:    0.0253002
  band:
  - # 1
    frequency:    0.2671577386
  - # 2
    frequency:    0.4202364150
  - # 3
    frequency:    0.9548031270
  - # 4
    frequency:    1.1040162312
  - # 5
    frequency:    2.0000408080
  - # 6
    frequency:    3.8694804926
  - # 7
    frequency:    4.1690736023
  - # 8
    frequency:    5.4311268241
  - # 9
    frequency:    5.9567016660
  - # 10
    frequency:    6.3379157577
  - # 11
    frequency:    6.5616800648
  - # 12
    frequency:    6.9175156056
  - # 13
    frequency:    9.6771181859
  - # 14
    frequency:   10.4790201604
  - # 15
    frequency:   10.5648659309
  - # 16
    frequency:   11.5863173755
  - # 17
    frequency:   11.8757444560
  - # 18
    frequency:   12.8125947527
  - # 19
    frequency:   17.7747947373
  - # 20
    frequency:   21.2757148380
  - # 21
    frequency:   65.1756857506

- q-position: [    0.0808081,    0.0000000,    0.0000000 ]
  distance:    0.0269869
  band:
  - # 1
    frequency:    0.3024613867
  - # 2
    frequency:    0.4719988644
  - # 3
    frequency:    1.0154017057
  - # 4
    frequency:    1.1654826752
  - # 5
    frequency:    2.1251582567
  - # 6
    frequency:    3.8763807976
  - # 7
    frequency:    4.2106548476
  - # 8
    frequency:    5.4148421516
  - # 9
    frequency:    5.9496245254
  - # 10
    frequency:    6.3581022022
  - # 11
    frequency:    6.5638602459
  - # 12
    frequency:    6.9649609514
  - # 13
    frequency:    9.6679287555
  - # 14
    frequency:   10.4795195537
  - # 15
    frequency:   10.5749374099
  - # 16
    frequency:   11.5797195794
  - # 17
    frequency:   11.8558505577
  - # 18
    frequency:   12.9320761047
  - # 19
    frequency:   17.7409615385
  - # 20
    frequency:   21.2736513567
  - # 21
    frequency:   65.1729432542

- q-position: [    0.0858586,    0.0000000,    0.0000000 ]
  distance:    0.0286736
  band:
  - # 1
    frequency:    0.3361404752
  - # 2
    frequency:    0.5258087456
  - # 3
    frequency:    1.0756232684
  - # 4
    frequency:    1.2267257526
  - # 5
    frequency:    2.2491286308
  - # 6
    frequency:    3.8836946443
  - # 7
    frequency:    4.2534266334
  - # 8
    frequency:    5.3987702525
  - # 9
    frequency:    5.9423009483
  - # 10
    frequency:    6.3766326595
  - # 11
    frequency:    6.5660816843
  - # 12
    frequency:    7.0135242290
  - # 13
    frequency:    9.6583773376
  - # 14
    frequency:   10.4800052622
  - # 15
    frequency:   10.5852558803
  - # 16
    frequency:   11.5728284813
  - # 17
    frequency:   11.8321076488
  - # 18
    frequency:   13.0594959940
  - # 19
    frequency:   17.7054274966
  - # 20
    frequency:   21.2714749632
  - # 21
    frequency:   65.1700484045

- q-position: [    0.0909091,    0.0000000,    0.0000000 ]
  distance:    0.0303603
  band:
  - # 1
    frequency:    0.3685497874
  - # 2
    frequency:    0.5815137747
  - # 3
    frequency:    1.1354427928
  - # 4
    frequency:    1.2876803581
  - # 5
    frequency:    2.3718290351
  - # 6
    frequency:    3.8914160790
  - # 7
    frequency:    4.2971870732
  - # 8
    frequency:    5.3830488812
  - # 9
    frequency:    5.9347622089
  - # 10
    frequency:    6.3935733577
  - # 11
    frequency:    6.5683319463
  - # 12
    frequency:    7.0628595801
  - # 13
    frequency:    9.6484981933
  - # 14
    frequency:   10.4804691516
  - # 15
    frequency:   10.5957945974
  - # 16
    frequency:   11.5656670690
  - # 17
    frequency:   11.8051289690
  - # 18
    frequency:   13.1936738213
  - # 19
    frequency:   17.6682911411
  - # 20
    frequency:   21.2691892141
  - # 21
    frequency:   65.1670055877

- q-position: [    0.0959596,    0.0000000,    0.0000000 ]
  distance:    0.0320469
  band:
  - # 1
    frequency:    0.3999221190
  - # 2
    frequency:    0.6389680891
  - # 3
    frequency:    1.1948373508
  - # 4
    frequency:    1.3482875512
  - # 5
    frequency:    2.4931363814
  - # 6
    frequency:    3.8995388198
  - # 7
    frequency:    4.3417325611
  - # 8
    frequency:    5.3678214407
  - # 9
    frequency:    5.9270397553
  - # 10
    frequency:    6.4090029541
  - # 11
    frequency:    6.5705990900
  - # 12
    frequency:    7.1126755634
  - # 13
    frequency:    9.6383260733
  - # 14
    frequency:   10.4809027579
  - # 15
    frequency:   10.6065288032
  - # 16
    frequency:   11.5582591092
  - # 17
    frequency:   11.7753701783
  - # 18
    frequency:   13.3335531506
  - # 19
    frequency:   17.6296609254
  - # 20
    frequency:   21.2667978131
  - # 21
    frequency:   65.1638193904

- q-position: [    0.1010101,    0.0000000,    0.0000000 ]
  distance:    0.0337336
  band:
  - # 1
    frequency:    0.4304197219
  - # 2
    frequency:    0.6980323665
  - # 3
    frequency:    1.2537858882
  - # 4
    frequency:    1.4084939577
  - # 5
    frequency:    2.6129259429
  - # 6
    frequency:    3.9080562747
  - # 7
    frequency:    4.3868560219
  - # 8
    frequency:    5.3532397282
  - # 9
    frequency:    5.9191650994
  - # 10
    frequency:    6.4230045864
  - # 11
    frequency:    6.5728717296
  - # 12
    frequency:    7.1627372721
  - # 13
    frequency:    9.6278962227
  - # 14
    frequency:   10.4812973244
  - # 15
    frequency:   10.6174349472
  - # 16
    frequency:   11.5506290198
  - # 17
    frequency:   11.7431773232
  - # 18
    frequency:   13.4781602846
  - # 19
    frequency:   17.5896567557
  - # 20
    frequency:   21.2643045994
  - # 21
    frequency:   65.1604945891

- q-position: [    0.1060606,    0.0000000,    0.0000000 ]
  distance:    0.0354203
  band:
  - # 1
    frequency:    0.4601610758
  - # 2
    frequency:    0.7585737656
  - # 3
    frequency:    1.3122690814
  - # 4
    frequency:    1.4682512503
  - # 5
    frequency:    2.7310701258
  - # 6
    frequency:    3.9169615626
  - # 7
    frequency:    4.4323444869
  - # 8
    frequency:    5.3394672198
  - # 9
    frequency:    5.9111697192
  - # 10
    frequency:    6.4356620351
  - # 11
    frequency:    6.5751390900
  - # 12
    frequency:    7.2128635644
  - # 13
    frequency:    9.6172444164
  - # 14
    frequency:   10.4816438415
  - # 15
    frequency:   10.6284899196
  - # 16
    frequency:   11.5428017323
  - # 17
    frequency:   11.7088213792
  - # 18
    frequency:   13.6265757193
  - # 19
    frequency:   17.5484120001
  - # 20
    frequency:   21.2617135364
  - # 21
    frequency:   65.1570361386

- q-position: [    0.1111111,    0.0000000,    0.0000000 ]
  distance:    0.0371070
  band:
  - # 1
    frequency:    0.4892359896
  - # 2
    frequency:    0.8204657222
  - # 3
    frequency:    1.3702692532
  - # 4
    frequency:    1.5275157021
  - # 5
    frequency:    2.8474373460
  - # 6
    frequency:    3.9262475364
  - # 7
    frequency:    4.4779759626
  - # 8
    frequency:    5.3266829884
  - # 9
    frequency:    5.9030849742
  - # 10
    frequency:    6.4470585677
  - # 11
    frequency:    6.5773910549
  - # 12
    frequency:    7.2629212840
  - # 13
    frequency:    9.6064070197
  - # 14
    frequency:   10.4819330908
  - # 15
    frequency:   10.6396702682
  - # 16
    frequency:   11.5348025443
  - # 17
    frequency:   11.6725222537
  - # 18
    frequency:   13.7779151771
  - # 19
    frequency:   17.5060761397
  - # 20
    frequency:   21.2590286996
  - # 21
    frequency:   65.1534491612

- q-position: [    0.1161616,    0.0000000,    0.0000000 ]
  distance:    0.0387937
  band:
  - # 1
    frequency:    0.5177146701
  - # 2
    frequency:    0.8835876318
  - # 3
    frequency:    1.4277703387
  - # 4
    frequency:    1.5862478036
  - # 5
    frequency:    2.9618909214
  - # 6
    frequency:    3.9359068093
  - # 7
    frequency:    4.5235156021
  - # 8
    frequency:    5.3150863042
  - # 9
    frequency:    5.8949420291
  - # 10
    frequency:    6.4572773403
  - # 11
    frequency:    6.5796182095
  - # 12
    frequency:    7.3128179544
  - # 13
    frequency:    9.5954210763
  - # 14
    frequency:   10.4821556926
  - # 15
    frequency:   10.6509513478
  - # 16
    frequency:   11.5266569631
  - # 17
    frequency:   11.6344654061
  - # 18
    frequency:   13.9313166721
  - # 19
    frequency:   17.4628182824
  - # 20
    frequency:   21.2562542640
  - # 21
    frequency:   65.1497389348

- q-position: [    0.1212121,    0.0000000,    0.0000000 ]
  distance:    0.0404803
  band:
  - # 1
    frequency:    0.5456534425
  - # 2
    frequency:    0.9478244412
  - # 3
    frequency:    1.4847578943
  - # 4
    frequency:    1.6444119356
  - # 5
    frequency:    3.0742879022
  - # 6
    frequency:    3.9459317824
  - # 7
    frequency:    4.5687113162
  - # 8
    frequency:    5.3049018492
  - # 9
    frequency:    5.8867717861
  - # 10
    frequency:    6.4664025787
  - # 11
    frequency:    6.5818118806
  - # 12
    frequency:    7.3624939965
  - # 13
    frequency:    9.5843244196
  - # 14
    frequency:   10.4823021576
  - # 15
    frequency:   10.6623063320
  - # 16
    frequency:   11.5183905416
  - # 17
    frequency:   11.5948135626
  - # 18
    frequency:   14.0859307527
  - # 19
    frequency:   17.4188318404
  - # 20
    frequency:   21.2533944916
  - # 21
    frequency:   65.1459108806

- q-position: [    0.1262626,    0.0000000,    0.0000000 ]
  distance:    0.0421670
  band:
  - # 1
    frequency:    0.5730985080
  - # 2
    frequency:    1.0130661681
  - # 3
    frequency:    1.5412191482
  - # 4
    frequency:    1.7019760893
  - # 5
    frequency:    3.1844777686
  - # 6
    frequency:    3.9563146744
  - # 7
    frequency:    4.6132892205
  - # 8
    frequency:    5.2963852203
  - # 9
    frequency:    5.8786048215
  - # 10
    frequency:    6.4745210450
  - # 11
    frequency:    6.5839641739
  - # 12
    frequency:    7.4119151461
  - # 13
    frequency:    9.5731558088
  - # 14
    frequency:   10.4823629410
  - # 15
    frequency:   10.6737049826
  - # 16
    frequency:   11.5100287072
  - # 17
    frequency:   11.5537152998
  - # 18
    frequency:   14.2409117540
  - # 19
    frequency:   17.3743407889
  - # 20
    frequency:   21.2504537182
  - # 21
    frequency:   65.1419705515

- q-position: [    0.1313131,    0.0000000,    0.0000000 ]
  distance:    0.0438537
  band:
  - # 1
    frequency:    0.6000884901
  - # 2
    frequency:    1.0792073621
  - # 3
    frequency:    1.5971430931
  - # 4
    frequency:    1.7589116267
  - # 5
    frequency:    3.2923009199
  - # 6
    frequency:    3.9670475521
  - # 7
    frequency:    4.6569498376
  - # 8
    frequency:    5.2898278829
  - # 9
    frequency:    5.8704713273
  - # 10
    frequency:    6.4817235012
  - # 11
    frequency:    6.5860680107
  - # 12
    frequency:    7.4610654635
  - # 13
    frequency:    9.5619550890
  - # 14
    frequency:   10.4823285005
  - # 15
    frequency:   10.6851120201
  - # 16
    frequency:   11.5015965864
  - # 17
    frequency:   11.5113117703
  - # 18
    frequency:   14.3954083481
  - # 19
    frequency:   17.3296080762
  - # 20
    frequency:   21.2474363408
  - # 21
    frequency:   65.1379236192

- q-position: [    0.1363636,    0.0000000,    0.0000000 ]
  distance:    0.0455404
  band:
  - # 1
    frequency:    0.6266562087
  - # 2
    frequency:    1.1461465109
  - # 3
    frequency:    1.6525206255
  - # 4
    frequency:    1.8151930744
  - # 5
    frequency:    3.3975868795
  - # 6
    frequency:    3.9781223615
  - # 7
    frequency:    4.6993668669
  - # 8
    frequency:    5.2855598486
  - # 9
    frequency:    5.8624010538
  - # 10
    frequency:    6.4881060186
  - # 11
    frequency:    6.5881171637
  - # 12
    frequency:    7.5099411292
  - # 13
    frequency:    9.5507633764
  - # 14
    frequency:   10.4821893561
  - # 15
    frequency:   10.6964848538
  - # 16
    frequency:   11.4677425493
  - # 17
    frequency:   11.4931188246
  - # 18
    frequency:   14.5485519006
  - # 19
    frequency:   17.2849469607
  - # 20
    frequency:   21.2443468037
  - # 21
    frequency:   65.1337758620

- q-position: [    0.1414141,    0.0000000,    0.0000000 ]
  distance:    0.0472271
  band:
  - # 1
    frequency:    0.6528299388
  - # 2
    frequency:    1.2137853956
  - # 3
    frequency:    1.7073447397
  - # 4
    frequency:    1.8707979436
  - # 5
    frequency:    3.5001521402
  - # 6
    frequency:    3.9895309594
  - # 7
    frequency:    4.7401917075
  - # 8
    frequency:    5.2839469846
  - # 9
    frequency:    5.8544232545
  - # 10
    frequency:    6.4937710596
  - # 11
    frequency:    6.5901062923
  - # 12
    frequency:    7.5585450882
  - # 13
    frequency:    9.5396232675
  - # 14
    frequency:   10.4819361522
  - # 15
    frequency:   10.7077702817
  - # 16
    frequency:   11.4231514775
  - # 17
    frequency:   11.4846194066
  - # 18
    frequency:   14.6994411726
  - # 19
    frequency:   17.2407363028
  - # 20
    frequency:   21.2411895853
  - # 21
    frequency:   65.1295331517

- q-position: [    0.1464646,    0.0000000,    0.0000000 ]
  distance:    0.0489137
  band:
  - # 1
    frequency:    0.6786343206
  - # 2
    frequency:    1.2820283866
  - # 3
    frequency:    1.7616107887
  - # 4
    frequency:    1.9257065724
  - # 5
    frequency:    3.5997975866
  - # 6
    frequency:    4.0012651442
  - # 7
    frequency:    4.7790685267
  - # 8
    frequency:    5.2853782445
  - # 9
    frequency:    5.8465666295
  - # 10
    frequency:    6.4988283059
  - # 11
    frequency:    6.5920309774
  - # 12
    frequency:    7.6068825205
  - # 13
    frequency:    9.5285790755
  - # 14
    frequency:   10.4815597206
  - # 15
    frequency:   10.7188995150
  - # 16
    frequency:   11.3776934706
  - # 17
    frequency:   11.4761214766
  - # 18
    frequency:   14.8471218213
  - # 19
    frequency:   17.1974411085
  - # 20
    frequency:   21.2379691849
  - # 21
    frequency:   65.1252014417

- q-position: [    0.1515152,    0.0000000,    0.0000000 ]
  distance:    0.0506004
  band:
  - # 1
    frequency:    0.7040910249
  - # 2
    frequency:    1.3507816689
  - # 3
    frequency:    1.8153168307
  - # 4
    frequency:    1.9799019850
  - # 5
    frequency:    3.6963054739
  - # 6
    frequency:    4.0133166851
  - # 7
    frequency:    4.8156655513
  - # 8
    frequency:    5.2902371913
  - # 9
    frequency:    5.8388592681
  - # 10
    frequency:    6.5033952246
  - # 11
    frequency:    6.5938877542
  - # 12
    frequency:    7.6549570707
  - # 13
    frequency:    9.5176770905
  - # 14
    frequency:   10.4810511441
  - # 15
    frequency:   10.7297804175
  - # 16
    frequency:   11.3315436205
  - # 17
    frequency:   11.4676471632
  - # 18
    frequency:   14.9905590973
  - # 19
    frequency:   17.1556397933
  - # 20
    frequency:   21.2346901093
  - # 21
    frequency:   65.1207867533