nqpoint: 300    
npath: 3      
segment_nqpoint:
- 100
- 100
- 100
labels:
- [ 'G', 'M' ]
- [ 'M', 'K' ]
- [ 'K', 'G' ]
reciprocal_lattice:
- [   0.29608127,   0.17094260,   0.00000000 ] # a*
- [   0.00000000,   0.34188520,   0.00000000 ] # b*
- [   0.00000000,   0.00000000,   0.03648935 ] # c*
natom: 8      
lattice:
- [     3.377451103545404,     0.000000000000000,     0.000000000000000 ] # a
- [    -1.688725551772702,     2.924958455684301,     0.000000000000000 ] # b
- [     0.000000000000000,     0.000000000000000,    27.405258083446459 ] # c
points:
- symbol: C # 1
  coordinates: [  0.666666984744047,  0.333332985985145,  0.371840314923343 ]
  mass: 12.010700
- symbol: Hf # 2
  coordinates: [  0.333332985432215,  0.666666983183674,  0.494186549087854 ]
  mass: 178.490000
- symbol: Hf # 3
  coordinates: [  0.666666984744047,  0.333332985985145,  0.585857371682695 ]
  mass: 178.490000
- symbol: N # 4
  coordinates: [  0.000000000000000,  0.000000000000000,  0.538018233745906 ]
  mass: 14.006700
- symbol: N # 5
  coordinates: [  0.333332985432215,  0.666666983183674,  0.622377266082054 ]
  mass: 14.006700
- symbol: N # 6
  coordinates: [  0.666666984744047,  0.333332985985145,  0.328404132250674 ]
  mass: 14.006700
- symbol: O # 7
  coordinates: [  0.333332985432215,  0.666666983183674,  0.671595867749326 ]
  mass: 15.999400
- symbol: S # 8
  coordinates: [  0.666666984744047,  0.333332985985145,  0.433963110101481 ]
  mass: 32.065000

phonon:
- q-position: [    0.0000000,    0.0000000,    0.0000000 ]
  distance:    0.0000000
  band:
  - # 1
    frequency:   -6.4603666833
  - # 2
    frequency:   -6.4603666832
  - # 3
    frequency:   -1.7163099067
  - # 4
    frequency:   -1.7163099066
  - # 5
    frequency:   -0.0000202793
  - # 6
    frequency:    0.0000002854
  - # 7
    frequency:    0.0000195823
  - # 8
    frequency:    1.6639315029
  - # 9
    frequency:    1.6639315030
  - # 10
    frequency:    3.5188172682
  - # 11
    frequency:    6.1627151246
  - # 12
    frequency:    6.1627151247
  - # 13
    frequency:    7.0364483412
  - # 14
    frequency:    7.3566208037
  - # 15
    frequency:    8.9373559649
  - # 16
    frequency:    8.9373559650
  - # 17
    frequency:   10.3212125303
  - # 18
    frequency:   10.3212125304
  - # 19
    frequency:   12.0414742322
  - # 20
    frequency:   12.0414742323
  - # 21
    frequency:   12.5904712689
  - # 22
    frequency:   18.1040336733
  - # 23
    frequency:   35.8863706081
  - # 24
    frequency:   64.5893120789

- q-position: [    0.0050505,    0.0000000,    0.0000000 ]
  distance:    0.0017267
  band:
  - # 1
    frequency:   -6.4610822752
  - # 2
    frequency:   -6.4609874689
  - # 3
    frequency:   -1.7158660724
  - # 4
    frequency:   -1.7150424793
  - # 5
    frequency:    0.0018504509
  - # 6
    frequency:    0.0600488078
  - # 7
    frequency:    0.0902737301
  - # 8
    frequency:    1.6649962474
  - # 9
    frequency:    1.6653602778
  - # 10
    frequency:    3.5187023134
  - # 11
    frequency:    6.1625835904
  - # 12
    frequency:    6.1628136457
  - # 13
    frequency:    7.0361987020
  - # 14
    frequency:    7.3560330893
  - # 15
    frequency:    8.9361615471
  - # 16
    frequency:    8.9366302857
  - # 17
    frequency:   10.3200568018
  - # 18
    frequency:   10.3206342575
  - # 19
    frequency:   12.0413842431
  - # 20
    frequency:   12.0426720419
  - # 21
    frequency:   12.5899641496
  - # 22
    frequency:   18.1039549988
  - # 23
    frequency:   35.8858032374
  - # 24
    frequency:   64.5892386856

- q-position: [    0.0101010,    0.0000000,    0.0000000 ]
  distance:    0.0034534
  band:
  - # 1
    frequency:   -6.4632257356
  - # 2
    frequency:   -6.4628477992
  - # 3
    frequency:   -1.7145342175
  - # 4
    frequency:   -1.7112410257
  - # 5
    frequency:    0.0073917997
  - # 6
    frequency:    0.1199692061
  - # 7
    frequency:    0.1803472993
  - # 8
    frequency:    1.6681922730
  - # 9
    frequency:    1.6696338013
  - # 10
    frequency:    3.5183573001
  - # 11
    frequency:    6.1621896261
  - # 12
    frequency:    6.1631093065
  - # 13
    frequency:    7.0354495811
  - # 14
    frequency:    7.3542716679
  - # 15
    frequency:    8.9325882551
  - # 16
    frequency:    8.9344567634
  - # 17
    frequency:   10.3166101920
  - # 18
    frequency:   10.3189132330
  - # 19
    frequency:   12.0410916845
  - # 20
    frequency:   12.0462454910
  - # 21
    frequency:   12.5884572753
  - # 22
    frequency:   18.1037190082
  - # 23
    frequency:   35.8841020045
  - # 24
    frequency:   64.5890186442

- q-position: [    0.0151515,    0.0000000,    0.0000000 ]
  distance:    0.0051801
  band:
  - # 1
    frequency:   -6.4667870708
  - # 2
    frequency:   -6.4659415964
  - # 3
    frequency:   -1.7123132970
  - # 4
    frequency:   -1.7049080677
  - # 5
    frequency:    0.0165948884
  - # 6
    frequency:    0.1796343067
  - # 7
    frequency:    0.2700200298
  - # 8
    frequency:    1.6735246109
  - # 9
    frequency:    1.6767143133
  - # 10
    frequency:    3.5177817509
  - # 11
    frequency:    6.1615351863
  - # 12
    frequency:    6.1636024024
  - # 13
    frequency:    7.0342003956
  - # 14
    frequency:    7.3513417357
  - # 15
    frequency:    8.9266658813
  - # 16
    frequency:    8.9308460203
  - # 17
    frequency:   10.3109336646
  - # 18
    frequency:   10.3160899821
  - # 19
    frequency:   12.0405296421
  - # 20
    frequency:   12.0521355577
  - # 21
    frequency:   12.5859937863
  - # 22
    frequency:   18.1033258017
  - # 23
    frequency:   35.8812695454
  - # 24
    frequency:   64.5886523693

- q-position: [    0.0202020,    0.0000000,    0.0000000 ]
  distance:    0.0069068
  band:
  - # 1
    frequency:   -6.4717494671
  - # 2
    frequency:   -6.4702587357
  - # 3
    frequency:   -1.7092016079
  - # 4
    frequency:   -1.6960479352
  - # 5
    frequency:    0.0294131876
  - # 6
    frequency:    0.2389202563
  - # 7
    frequency:    0.3590903059
  - # 8
    frequency:    1.6810005102
  - # 9
    frequency:    1.6865409372
  - # 10
    frequency:    3.5169747648
  - # 11
    frequency:    6.1606236572
  - # 12
    frequency:    6.1642934332
  - # 13
    frequency:    7.0324502637
  - # 14
    frequency:    7.3472520538
  - # 15
    frequency:    8.9184437630
  - # 16
    frequency:    8.9258160106
  - # 17
    frequency:   10.3031263378
  - # 18
    frequency:   10.3122292893
  - # 19
    frequency:   12.0395894557
  - # 20
    frequency:   12.0602468382
  - # 21
    frequency:   12.5826444965
  - # 22
    frequency:   18.1027755522
  - # 23
    frequency:   35.8773102487
  - # 24
    frequency:   64.5881405509

- q-position: [    0.0252525,    0.0000000,    0.0000000 ]
  distance:    0.0086335
  band:
  - # 1
    frequency:   -6.4780890620
  - # 2
    frequency:   -6.4757850558
  - # 3
    frequency:   -1.7051968478
  - # 4
    frequency:   -1.6846669766
  - # 5
    frequency:    0.0457856883
  - # 6
    frequency:    0.2977077664
  - # 7
    frequency:    0.4473553193
  - # 8
    frequency:    1.6906278020
  - # 9
    frequency:    1.6990324705
  - # 10
    frequency:    3.5159348597
  - # 11
    frequency:    6.1594600470
  - # 12
    frequency:    6.1651831132
  - # 13
    frequency:    7.0301981418
  - # 14
    frequency:    7.3420150955
  - # 15
    frequency:    8.9079902826
  - # 16
    frequency:    8.9193923772
  - # 17
    frequency:   10.2933219470
  - # 18
    frequency:   10.3074163903
  - # 19
    frequency:   12.0381250105
  - # 20
    frequency:   12.0704516928
  - # 21
    frequency:   12.5785060927
  - # 22
    frequency:   18.1020685128
  - # 23
    frequency:   35.8722302480
  - # 24
    frequency:   64.5874841519

- q-position: [    0.0303030,    0.0000000,    0.0000000 ]
  distance:    0.0103602
  band:
  - # 1
    frequency:   -6.4857746383
  - # 2
    frequency:   -6.4825023770
  - # 3
    frequency:   -1.7002961982
  - # 4
    frequency:   -1.6707738878
  - # 5
    frequency:    0.0656404210
  - # 6
    frequency:    0.3558836324
  - # 7
    frequency:    0.5346110809
  - # 8
    frequency:    1.7024127413
  - # 9
    frequency:    1.7140907553
  - # 10
    frequency:    3.5146597468
  - # 11
    frequency:    6.1580512442
  - # 12
    frequency:    6.1662723859
  - # 13
    frequency:    7.0274430220
  - # 14
    frequency:    7.3356472443
  - # 15
    frequency:    8.8953921242
  - # 16
    frequency:    8.9116089140
  - # 17
    frequency:   10.2816842557
  - # 18
    frequency:   10.3017522393
  - # 19
    frequency:   12.0359587410
  - # 20
    frequency:   12.0825955009
  - # 21
    frequency:   12.5736982947
  - # 22
    frequency:   18.1012050285
  - # 23
    frequency:   35.8660374116
  - # 24
    frequency:   64.5866844059

- q-position: [    0.0353535,    0.0000000,    0.0000000 ]
  distance:    0.0120869
  band:
  - # 1
    frequency:   -6.4947672552
  - # 2
    frequency:   -6.4903885313
  - # 3
    frequency:   -1.6944964333
  - # 4
    frequency:   -1.6543801925
  - # 5
    frequency:    0.0888982239
  - # 6
    frequency:    0.4133422188
  - # 7
    frequency:    0.6206527921
  - # 8
    frequency:    1.7163574585
  - # 9
    frequency:    1.7316042091
  - # 10
    frequency:    3.5131460381
  - # 11
    frequency:    6.1564063376
  - # 12
    frequency:    6.1675624404
  - # 13
    frequency:    7.0241841930
  - # 14
    frequency:    7.3281690340
  - # 15
    frequency:    8.8807532582
  - # 16
    frequency:    8.9025080973
  - # 17
    frequency:   10.2684017161
  - # 18
    frequency:   10.2953483217
  - # 19
    frequency:   12.0328893339
  - # 20
    frequency:   12.0965025853
  - # 21
    frequency:   12.5683597286
  - # 22
    frequency:   18.1001855486
  - # 23
    frequency:   35.8587413293
  - # 24
    frequency:   64.5857428133

- q-position: [    0.0404040,    0.0000000,    0.0000000 ]
  distance:    0.0138135
  band:
  - # 1
    frequency:   -6.5050198328
  - # 2
    frequency:   -6.4994174083
  - # 3
    frequency:   -1.6877940563
  - # 4
    frequency:   -1.6355009025
  - # 5
    frequency:    0.1154763707
  - # 6
    frequency:    0.4699868655
  - # 7
    frequency:    0.7052756730
  - # 8
    frequency:    1.7324571839
  - # 9
    frequency:    1.7514510928
  - # 10
    frequency:    3.5113888833
  - # 11
    frequency:    6.1545369863
  - # 12
    frequency:    6.1690547297
  - # 13
    frequency:    7.0204215712
  - # 14
    frequency:    7.3196054207
  - # 15
    frequency:    8.8641936328
  - # 16
    frequency:    8.8921416403
  - # 17
    frequency:   10.2536816986
  - # 18
    frequency:   10.2883214762
  - # 19
    frequency:   12.0287010669
  - # 20
    frequency:   12.1119823681
  - # 21
    frequency:   12.5626423091
  - # 22
    frequency:   18.0990106423
  - # 23
    frequency:   35.8503532962
  - # 24
    frequency:   64.5846611371

- q-position: [    0.0454545,    0.0000000,    0.0000000 ]
  distance:    0.0155402
  band:
  - # 1
    frequency:   -6.5164767119
  - # 2
    frequency:   -6.5095590227
  - # 3
    frequency:   -1.6801854626
  - # 4
    frequency:   -1.6141553855
  - # 5
    frequency:    0.1452917054
  - # 6
    frequency:    0.5257311506
  - # 7
    frequency:    0.7882763491
  - # 8
    frequency:    1.7506974325
  - # 9
    frequency:    1.7735021519
  - # 10
    frequency:    3.5093815365
  - # 11
    frequency:    6.1524578264
  - # 12
    frequency:    6.1707509896
  - # 13
    frequency:    7.0161561056
  - # 14
    frequency:    7.3099860725
  - # 15
    frequency:    8.8458475676
  - # 16
    frequency:    8.8805710164
  - # 17
    frequency:   10.2377445958
  - # 18
    frequency:   10.2807891207
  - # 19
    frequency:   12.0231745974
  - # 20
    frequency:   12.1288353735
  - # 21
    frequency:   12.5567040772
  - # 22
    frequency:   18.0976810150
  - # 23
    frequency:   35.8408862929
  - # 24
    frequency:   64.5834413976

- q-position: [    0.0505051,    0.0000000,    0.0000000 ]
  distance:    0.0172669
  band:
  - # 1
    frequency:   -6.5290732087
  - # 2
    frequency:   -6.5207796070
  - # 3
    frequency:   -1.6716671314
  - # 4
    frequency:   -1.5903684489
  - # 5
    frequency:    0.1782629947
  - # 6
    frequency:    0.5804999346
  - # 7
    frequency:    0.8694548932
  - # 8
    frequency:    1.7710513545
  - # 9
    frequency:    1.7976223470
  - # 10
    frequency:    3.5071148550
  - # 11
    frequency:    6.1501868964
  - # 12
    frequency:    6.1726532559
  - # 13
    frequency:    7.0113902607
  - # 14
    frequency:    7.2993456628
  - # 15
    frequency:    8.8258618653
  - # 16
    frequency:    8.8678678943
  - # 17
    frequency:   10.2208180675
  - # 18
    frequency:   10.2728651720
  - # 19
    frequency:   12.0160987941
  - # 20
    frequency:   12.1468587776
  - # 21
    frequency:   12.5507007030
  - # 22
    frequency:   18.0961975248
  - # 23
    frequency:   35.8303549633
  - # 24
    frequency:   64.5820858674

- q-position: [    0.0555556,    0.0000000,    0.0000000 ]
  distance:    0.0189936
  band:
  - # 1
    frequency:   -6.5427351909
  - # 2
    frequency:   -6.5330417338
  - # 3
    frequency:   -1.6622358452
  - # 4
    frequency:   -1.5641716249
  - # 5
    frequency:    0.2143122618
  - # 6
    frequency:    0.6342301009
  - # 7
    frequency:    0.9486176000
  - # 8
    frequency:    1.7934774539
  - # 9
    frequency:    1.8236714944
  - # 10
    frequency:    3.5045767349
  - # 11
    frequency:    6.1477460582
  - # 12
    frequency:    6.1747638793
  - # 13
    frequency:    7.0061285794
  - # 14
    frequency:    7.2877241486
  - # 15
    frequency:    8.8043936794
  - # 16
    frequency:    8.8541144225
  - # 17
    frequency:   10.2031316459
  - # 18
    frequency:   10.2646568337
  - # 19
    frequency:   12.0072829073
  - # 20
    frequency:   12.1658512999
  - # 21
    frequency:   12.5447762236
  - # 22
    frequency:   18.0945611999
  - # 23
    frequency:   35.8187755891
  - # 24
    frequency:   64.5805970640

- q-position: [    0.0606061,    0.0000000,    0.0000000 ]
  distance:    0.0207203
  band:
  - # 1
    frequency:   -6.5573786982
  - # 2
    frequency:   -6.5463044726
  - # 3
    frequency:   -1.6518889359
  - # 4
    frequency:   -1.5356045925
  - # 5
    frequency:    0.2533649100
  - # 6
    frequency:    0.6868709161
  - # 7
    frequency:    1.0255805298
  - # 8
    frequency:    1.8179178631
  - # 9
    frequency:    1.8515037543
  - # 10
    frequency:    3.5017514957
  - # 11
    frequency:    6.1451613876
  - # 12
    frequency:    6.1770855347
  - # 13
    frequency:    7.0003783250
  - # 14
    frequency:    7.2751670193
  - # 15
    frequency:    8.7816081954
  - # 16
    frequency:    8.8394033099
  - # 17
    frequency:   10.1849118632
  - # 18
    frequency:   10.2562623075
  - # 19
    frequency:   11.9965680679
  - # 20
    frequency:   12.1856173276
  - # 21
    frequency:   12.5390539434
  - # 22
    frequency:   18.0927732543
  - # 23
    frequency:   35.8061660611
  - # 24
    frequency:   64.5789777432

- q-position: [    0.0656566,    0.0000000,    0.0000000 ]
  distance:    0.0224470
  band:
  - # 1
    frequency:   -6.5729096327
  - # 2
    frequency:   -6.5605235810
  - # 3
    frequency:   -1.6406245557
  - # 4
    frequency:   -1.5047166005
  - # 5
    frequency:    0.2953484654
  - # 6
    frequency:    0.7383839503
  - # 7
    frequency:    1.1001737811
  - # 8
    frequency:    1.8442973233
  - # 9
    frequency:    1.8809660389
  - # 10
    frequency:    3.4986192311
  - # 11
    frequency:    6.1424634994
  - # 12
    frequency:    6.1796212244
  - # 13
    frequency:    6.9941501948
  - # 14
    frequency:    7.2617254970
  - # 15
    frequency:    8.7576761982
  - # 16
    frequency:    8.8238376515
  - # 17
    frequency:   10.1663780111
  - # 18
    frequency:   10.2477693992
  - # 19
    frequency:   11.9838369220
  - # 20
    frequency:   12.2059702394
  - # 21
    frequency:   12.5336286614
  - # 22
    frequency:   18.0908351025
  - # 23
    frequency:   35.7925458470
  - # 24
    frequency:   64.5772308914

- q-position: [    0.0707071,    0.0000000,    0.0000000 ]
  distance:    0.0241737
  band:
  - # 1
    frequency:   -6.5892235436
  - # 2
    frequency:   -6.5756517354
  - # 3
    frequency:   -1.6284419707
  - # 4
    frequency:   -1.4715676493
  - # 5
    frequency:    0.3401897883
  - # 6
    frequency:    0.7887425325
  - # 7
    frequency:    1.1722463354
  - # 8
    frequency:    1.8725229661
  - # 9
    frequency:    1.9118955602
  - # 10
    frequency:    3.4951551533
  - # 11
    frequency:    6.1396877694
  - # 12
    frequency:    6.1823742719
  - # 13
    frequency:    6.9874590939
  - # 14
    frequency:    7.2474566787
  - # 15
    frequency:    8.7327716042
  - # 16
    frequency:    8.8075304681
  - # 17
    frequency:   10.1477385947
  - # 18
    frequency:   10.2392549166
  - # 19
    frequency:   11.9690202795
  - # 20
    frequency:   12.2267349551
  - # 21
    frequency:   12.5285613605
  - # 22
    frequency:   18.0887483732
  - # 23
    frequency:   35.7779359565
  - # 24
    frequency:   64.5753597165

- q-position: [    0.0757576,    0.0000000,    0.0000000 ]
  distance:    0.0259004
  band:
  - # 1
    frequency:   -6.6062055284
  - # 2
    frequency:   -6.5916387966
  - # 3
    frequency:   -1.6153418720
  - # 4
    frequency:   -1.4362290396
  - # 5
    frequency:    0.3878106383
  - # 6
    frequency:    0.8379307572
  - # 7
    frequency:    1.2416711645
  - # 8
    frequency:    1.9024849233
  - # 9
    frequency:    1.9441169079
  - # 10
    frequency:    3.4913289698
  - # 11
    frequency:    6.1368744084
  - # 12
    frequency:    6.1853483047
  - # 13
    frequency:    6.9803249462
  - # 14
    frequency:    7.2324236122
  - # 15
    frequency:    8.7070690400
  - # 16
    frequency:    8.7906039449
  - # 17
    frequency:   10.1291884998
  - # 18
    frequency:   10.2307847231
  - # 19
    frequency:   11.9521000219
  - # 20
    frequency:   12.2477497730
  - # 21
    frequency:   12.5238771516
  - # 22
    frequency:   18.0865149191
  - # 23
    frequency:   35.7623589026
  - # 24
    frequency:   64.5733676398

- q-position: [    0.0808081,    0.0000000,    0.0000000 ]
  distance:    0.0276271
  band:
  - # 1
    frequency:   -6.6237302725
  - # 2
    frequency:   -6.6084321128
  - # 3
    frequency:   -1.6013267019
  - # 4
    frequency:   -1.3987827198
  - # 5
    frequency:    0.4381215621
  - # 6
    frequency:    0.8859421067
  - # 7
    frequency:    1.3083501239
  - # 8
    frequency:    1.9340577236
  - # 9
    frequency:    1.9774392142
  - # 10
    frequency:    3.4871043443
  - # 11
    frequency:    6.1340683376
  - # 12
    frequency:    6.1885472254
  - # 13
    frequency:    6.9727735134
  - # 14
    frequency:    7.2166953095
  - # 15
    frequency:    8.6807415408
  - # 16
    frequency:    8.7731883761
  - # 17
    frequency:   10.1109068593
  - # 18
    frequency:   10.2224142930
  - # 19
    frequency:   11.9331081205
  - # 20
    frequency:   12.2688675834
  - # 21
    frequency:   12.5195666829
  - # 22
    frequency:   18.0841368253
  - # 23
    frequency:   35.7458386604
  - # 24
    frequency:   64.5712582855

- q-position: [    0.0858586,    0.0000000,    0.0000000 ]
  distance:    0.0293538
  band:
  - # 1
    frequency:   -6.6416622436
  - # 2
    frequency:   -6.6259768533
  - # 3
    frequency:   -1.5864009895
  - # 4
    frequency:   -1.3593186700
  - # 5
    frequency:    0.4910142552
  - # 6
    frequency:    0.9327777962
  - # 7
    frequency:    1.3722180168
  - # 8
    frequency:    1.9671023631
  - # 9
    frequency:    2.0116540855
  - # 10
    frequency:    3.4824385072
  - # 11
    frequency:    6.1313188135
  - # 12
    frequency:    6.1919751671
  - # 13
    frequency:    6.9648371766
  - # 14
    frequency:    7.2003467121
  - # 15
    frequency:    8.6539584298
  - # 16
    frequency:    8.7554208476
  - # 17
    frequency:   10.0930555763
  - # 18
    frequency:   10.2141896199
  - # 19
    frequency:   11.9121222597
  - # 20
    frequency:   12.2899565466
  - # 21
    frequency:   12.5155905826
  - # 22
    frequency:   18.0816164140
  - # 23
    frequency:   35.7284006212
  - # 24
    frequency:   64.5690354712

- q-position: [    0.0909091,    0.0000000,    0.0000000 ]
  distance:    0.0310805
  band:
  - # 1
    frequency:   -6.6598560562
  - # 2
    frequency:   -6.6442163704
  - # 3
    frequency:   -1.5705716924
  - # 4
    frequency:   -1.3179294251
  - # 5
    frequency:    0.5463528529
  - # 6
    frequency:    0.9784449770
  - # 7
    frequency:    1.4332451602
  - # 8
    frequency:    2.0014688888
  - # 9
    frequency:    2.0465350149
  - # 10
    frequency:    3.4772820980
  - # 11
    frequency:    6.1286787463
  - # 12
    frequency:    6.1956364360
  - # 13
    frequency:    6.9565556243
  - # 14
    frequency:    7.1834586373
  - # 15
    frequency:    8.6268834294
  - # 16
    frequency:    8.7374437086
  - # 17
    frequency:   10.0757784370
  - # 18
    frequency:   10.2061483414
  - # 19
    frequency:   11.8892590453
  - # 20
    frequency:   12.3109003290
  - # 21
    frequency:   12.5118860288
  - # 22
    frequency:   18.0789562466
  - # 23
    frequency:   35.7100715448
  - # 24
    frequency:   64.5667031970

- q-position: [    0.0959596,    0.0000000,    0.0000000 ]
  distance:    0.0328072
  band:
  - # 1
    frequency:   -6.6781570160
  - # 2
    frequency:   -6.6630925821
  - # 3
    frequency:   -1.5538485397
  - # 4
    frequency:   -1.2747008335
  - # 5
    frequency:    0.6039650256
  - # 6
    frequency:    1.0229549503
  - # 7
    frequency:    1.4914378727
  - # 8
    frequency:    2.0369993022
  - # 9
    frequency:    2.0818388763
  - # 10
    frequency:    3.4715793333
  - # 11
    frequency:    6.1262036613
  - # 12
    frequency:    6.1995354369
  - # 13
    frequency:    6.9479763786
  - # 14
    frequency:    7.1661177539
  - # 15
    frequency:    8.5996730334
  - # 16
    frequency:    8.7194029025
  - # 17
    frequency:   10.0592007361
  - # 18
    frequency:   10.1983209701
  - # 19
    frequency:   11.8646659701
  - # 20
    frequency:   12.3315979799
  - # 21
    frequency:   12.5083743363
  - # 22
    frequency:   18.0761591218
  - # 23
    frequency:   35.6908795069
  - # 24
    frequency:   64.5642656344

- q-position: [    0.1010101,    0.0000000,    0.0000000 ]
  distance:    0.0345339
  band:
  - # 1
    frequency:   -6.6964018493
  - # 2
    frequency:   -6.6825463690
  - # 3
    frequency:   -1.5362443736
  - # 4
    frequency:   -1.2296983793
  - # 5
    frequency:    0.6636342146
  - # 6
    frequency:    1.0663215323
  - # 7
    frequency:    1.5468365480
  - # 8
    frequency:    2.0735305854
  - # 9
    frequency:    2.1173098288
  - # 10
    frequency:    3.4652686071
  - # 11
    frequency:    6.1239502579
  - # 12
    frequency:    6.2036765858
  - # 13
    frequency:    6.9391550718
  - # 14
    frequency:    7.1484166512
  - # 15
    frequency:    8.5724751599
  - # 16
    frequency:    8.7014462379
  - # 17
    frequency:   10.0434293241
  - # 18
    frequency:   10.1907321421
  - # 19
    frequency:   11.8385132174
  - # 20
    frequency:   12.3519635223
  - # 21
    frequency:   12.5049685404
  - # 22
    frequency:   18.0732280712
  - # 23
    frequency:   35.6708538445
  - # 24
    frequency:   64.5617271149

- q-position: [    0.1060606,    0.0000000,    0.0000000 ]
  distance:    0.0362606
  band:
  - # 1
    frequency:   -6.7144196184
  - # 2
    frequency:   -6.7025179779
  - # 3
    frequency:   -1.5177754871
  - # 4
    frequency:   -1.1829489006
  - # 5
    frequency:    0.7250946664
  - # 6
    frequency:    1.1085596909
  - # 7
    frequency:    1.5995113441
  - # 8
    frequency:    2.1108976661
  - # 9
    frequency:    2.1526855740
  - # 10
    frequency:    3.4582836314
  - # 11
    frequency:    6.1219745380
  - # 12
    frequency:    6.2080642086
  - # 13
    frequency:    6.9301553790
  - # 14
    frequency:    7.1304540843
  - # 15
    frequency:    8.5454280866
  - # 16
    frequency:    8.6837216815
  - # 17
    frequency:   10.0285529886
  - # 18
    frequency:   10.1834018172
  - # 19
    frequency:   11.8109861015
  - # 20
    frequency:   12.3719253222
  - # 21
    frequency:   12.5015802299
  - # 22
    frequency:   18.0701663514
  - # 23
    frequency:   35.6500250967
  - # 24
    frequency:   64.5590921180

- q-position: [    0.1111111,    0.0000000,    0.0000000 ]
  distance:    0.0379872
  band:
  - # 1
    frequency:   -6.7320328197
  - # 2
    frequency:   -6.7229474231
  - # 3
    frequency:   -1.4984619563
  - # 4
    frequency:   -1.1344181995
  - # 5
    frequency:    0.7880308667
  - # 6
    frequency:    1.1496845353
  - # 7
    frequency:    1.6495559073
  - # 8
    frequency:    2.1489361735
  - # 9
    frequency:    2.1877054977
  - # 10
    frequency:    3.4505552216
  - # 11
    frequency:    6.1203294936
  - # 12
    frequency:    6.2127024298
  - # 13
    frequency:    6.9210484913
  - # 14
    frequency:    7.1123354978
  - # 15
    frequency:    8.5186596631
  - # 16
    frequency:    8.6663757537
  - # 17
    frequency:   10.0146430831
  - # 18
    frequency:   10.1763463889
  - # 19
    frequency:   11.7822786070
  - # 20
    frequency:   12.3914252873
  - # 21
    frequency:   12.4981252127
  - # 22
    frequency:   18.0669774338
  - # 23
    frequency:   35.6284249430
  - # 24
    frequency:   64.5563652591

- q-position: [    0.1161616,    0.0000000,    0.0000000 ]
  distance:    0.0397139
  band:
  - # 1
    frequency:   -6.7490586520
  - # 2
    frequency:   -6.7437748786
  - # 3
    frequency:   -1.4783279646
  - # 4
    frequency:   -1.0839855354
  - # 5
    frequency:    0.8520823642
  - # 6
    frequency:    1.1897106974
  - # 7
    frequency:    1.6970798515
  - # 8
    frequency:    2.1874848773
  - # 9
    frequency:    2.2221199177
  - # 10
    frequency:    3.4420138139
  - # 11
    frequency:    6.1190623784
  - # 12
    frequency:    6.2175950543
  - # 13
    frequency:    6.9119120048
  - # 14
    frequency:    7.0941739429
  - # 15
    frequency:    8.4922867818
  - # 16
    frequency:    8.6495520924
  - # 17
    frequency:   10.0017543288
  - # 18
    frequency:   10.1695796753
  - # 19
    frequency:   11.7525881846
  - # 20
    frequency:   12.4104179409
  - # 21
    frequency:   12.4945278856
  - # 22
    frequency:   18.0636649912
  - # 23
    frequency:   35.6060861376
  - # 24
    frequency:   64.5535512769

- q-position: [    0.1212121,    0.0000000,    0.0000000 ]
  distance:    0.0414406
  band:
  - # 1
    frequency:   -6.7653104449
  - # 2
    frequency:   -6.7649410524
  - # 3
    frequency:   -1.4574021198
  - # 4
    frequency:   -1.0314157870
  - # 5
    frequency:    0.9168538379
  - # 6
    frequency:    1.2286521033
  - # 7
    frequency:    1.7422008443
  - # 8
    frequency:    2.2263877474
  - # 9
    frequency:    2.2556995322
  - # 10
    frequency:    3.4325927675
  - # 11
    frequency:    6.1182116233
  - # 12
    frequency:    6.2227454461
  - # 13
    frequency:    6.9028280805
  - # 14
    frequency:    7.0760915182
  - # 15
    frequency:    8.4664150864
  - # 16
    frequency:    8.6333902355
  - # 17
    frequency:    9.9899257306
  - # 18
    frequency:   10.1631137789
  - # 19
    frequency:   11.7221117577
  - # 20
    frequency:   12.4288694059
  - # 21
    frequency:   12.4907243853
  - # 22
    frequency:   18.0602328827
  - # 23
    frequency:   35.5830424409
  - # 24
    frequency:   64.5506550206

- q-position: [    0.1262626,    0.0000000,    0.0000000 ]
  distance:    0.0431673
  band:
  - # 1
    frequency:   -6.7863875373
  - # 2
    frequency:   -6.7805992259
  - # 3
    frequency:   -1.4357177589
  - # 4
    frequency:   -0.9763285823
  - # 5
    frequency:    0.9819289499
  - # 6
    frequency:    1.2665220983
  - # 7
    frequency:    1.7850370847
  - # 8
    frequency:    2.2654956100
  - # 9
    frequency:    2.2882442390
  - # 10
    frequency:    3.4222324570
  - # 11
    frequency:    6.1178035063
  - # 12
    frequency:    6.2281564106
  - # 13
    frequency:    6.8938807147
  - # 14
    frequency:    7.0582214758
  - # 15
    frequency:    8.4411388907
  - # 16
    frequency:    8.6180246505
  - # 17
    frequency:    9.9791815623
  - # 18
    frequency:   10.1569598108
  - # 19
    frequency:   11.6910427695
  - # 20
    frequency:   12.4467563295
  - # 21
    frequency:   12.4866647042
  - # 22
    frequency:   18.0566851367
  - # 23
    frequency:   35.5593285473
  - # 24
    frequency:   64.5476814370

- q-position: [    0.1313131,    0.0000000,    0.0000000 ]
  distance:    0.0448940
  band:
  - # 1
    frequency:   -6.8080571312
  - # 2
    frequency:   -6.7947354054
  - # 3
    frequency:   -1.4133132401
  - # 4
    frequency:   -0.9181603302
  - # 5
    frequency:    1.0468855555
  - # 6
    frequency:    1.3033338598
  - # 7
    frequency:    1.8257007608
  - # 8
    frequency:    2.3046674108
  - # 9
    frequency:    2.3195907257
  - # 10
    frequency:    3.4108850983
  - # 11
    frequency:    6.1178487366
  - # 12
    frequency:    6.2338300837
  - # 13
    frequency:    6.8851519418
  - # 14
    frequency:    7.0407111316
  - # 15
    frequency:    8.4165412796
  - # 16
    frequency:    8.6035840171
  - # 17
    frequency:    9.9695323999
  - # 18
    frequency:   10.1511284824
  - # 19
    frequency:   11.6595690601
  - # 20
    frequency:   12.4640647731
  - # 21
    frequency:   12.4823139924
  - # 22
    frequency:   18.0530259331
  - # 23
    frequency:   35.5349800108
  - # 24
    frequency:   64.5446355573

- q-position: [    0.1363636,    0.0000000,    0.0000000 ]
  distance:    0.0466207
  band:
  - # 1
    frequency:   -6.8298941243
  - # 2
    frequency:   -6.8075305545
  - # 3
    frequency:   -1.3902322135
  - # 4
    frequency:   -0.8561088790
  - # 5
    frequency:    1.1113096297
  - # 6
    frequency:    1.3391010216
  - # 7