nqpoint: 300    
npath: 3      
segment_nqpoint:
- 100
- 100
- 100
labels:
- [ 'G', 'M' ]
- [ 'M', 'K' ]
- [ 'K', 'G' ]
reciprocal_lattice:
- [   0.31480975,   0.18175549,   0.00000000 ] # a*
- [   0.00000000,   0.36351099,   0.00000000 ] # b*
- [   0.00000000,   0.00000000,   0.03613617 ] # c*
natom: 9      
lattice:
- [     3.176521709671208,     0.000000000000000,     0.000000000000000 ] # a
- [    -1.588260854835604,     2.750948496251303,     0.000000000000000 ] # b
- [     0.000000000000000,     0.000000000000000,    27.673106342883344 ] # c
points:
- symbol: C # 1
  coordinates: [  0.333332985432215,  0.666666983183674,  0.631857735308518 ]
  mass: 12.010700
- symbol: C # 2
  coordinates: [  0.666666984744047,  0.333332985985145,  0.368142264192153 ]
  mass: 12.010700
- symbol: N # 3
  coordinates: [  0.000000000000000,  0.000000000000000,  0.500000033455061 ]
  mass: 14.006700
- symbol: N # 4
  coordinates: [  0.333332985432215,  0.666666983183674,  0.674774494468182 ]
  mass: 14.006700
- symbol: N # 5
  coordinates: [  0.666666984744047,  0.333332985985145,  0.325225505531818 ]
  mass: 14.006700
- symbol: O # 6
  coordinates: [  0.333332985432215,  0.666666983183674,  0.583552236188403 ]
  mass: 15.999400
- symbol: O # 7
  coordinates: [  0.666666984744047,  0.333332985985145,  0.416447763811597 ]
  mass: 15.999400
- symbol: Ti # 8
  coordinates: [  0.333332985432215,  0.666666983183674,  0.462593023962417 ]
  mass: 47.867000
- symbol: Ti # 9
  coordinates: [  0.666666984744047,  0.333332985985145,  0.537406975538245 ]
  mass: 47.867000

phonon:
- q-position: [    0.0000000,    0.0000000,    0.0000000 ]
  distance:    0.0000000
  band:
  - # 1
    frequency:   -0.4725435469
  - # 2
    frequency:   -0.4725435468
  - # 3
    frequency:   -0.3562054772
  - # 4
    frequency:   -0.3562054770
  - # 5
    frequency:   -0.0000067599
  - # 6
    frequency:    0.0000003727
  - # 7
    frequency:    0.0000166602
  - # 8
    frequency:    5.1502608060
  - # 9
    frequency:    5.1502608061
  - # 10
    frequency:    6.1827231634
  - # 11
    frequency:    7.7461255303
  - # 12
    frequency:    7.7461255303
  - # 13
    frequency:    8.1398708130
  - # 14
    frequency:    8.1398708130
  - # 15
    frequency:    9.7394698217
  - # 16
    frequency:   12.9417030052
  - # 17
    frequency:   14.0017105190
  - # 18
    frequency:   14.0017105190
  - # 19
    frequency:   14.0995040417
  - # 20
    frequency:   14.0995040417
  - # 21
    frequency:   16.2617308512
  - # 22
    frequency:   18.1985603033
  - # 23
    frequency:   18.1985603033
  - # 24
    frequency:   31.8533742224
  - # 25
    frequency:   31.8758481884
  - # 26
    frequency:   67.7794100490
  - # 27
    frequency:   67.7818229503

- q-position: [    0.0050505,    0.0000000,    0.0000000 ]
  distance:    0.0018359
  band:
  - # 1
    frequency:   -0.4711620377
  - # 2
    frequency:   -0.4638999772
  - # 3
    frequency:   -0.3517549875
  - # 4
    frequency:   -0.3399431212
  - # 5
    frequency:    0.0029214510
  - # 6
    frequency:    0.0769819888
  - # 7
    frequency:    0.1255838809
  - # 8
    frequency:    5.1505923600
  - # 9
    frequency:    5.1511215316
  - # 10
    frequency:    6.1824940866
  - # 11
    frequency:    7.7459564003
  - # 12
    frequency:    7.7467872854
  - # 13
    frequency:    8.1397043440
  - # 14
    frequency:    8.1402459552
  - # 15
    frequency:    9.7393853962
  - # 16
    frequency:   12.9402629357
  - # 17
    frequency:   14.0017752555
  - # 18
    frequency:   14.0021487350
  - # 19
    frequency:   14.0994783789
  - # 20
    frequency:   14.0997120022
  - # 21
    frequency:   16.2615541751
  - # 22
    frequency:   18.1984153525
  - # 23
    frequency:   18.1987056060
  - # 24
    frequency:   31.8529558228
  - # 25
    frequency:   31.8754137263
  - # 26
    frequency:   67.7791990703
  - # 27
    frequency:   67.7816113016

- q-position: [    0.0101010,    0.0000000,    0.0000000 ]
  distance:    0.0036718
  band:
  - # 1
    frequency:   -0.4668956959
  - # 2
    frequency:   -0.4368677901
  - # 3
    frequency:   -0.3390200210
  - # 4
    frequency:   -0.2889387896
  - # 5
    frequency:    0.0121725354
  - # 6
    frequency:    0.1557169418
  - # 7
    frequency:    0.2544889779
  - # 8
    frequency:    5.1515858271
  - # 9
    frequency:    5.1536984664
  - # 10
    frequency:    6.1818104530
  - # 11
    frequency:    7.7454503679
  - # 12
    frequency:    7.7487666713
  - # 13
    frequency:    8.1392038847
  - # 14
    frequency:    8.1413712316
  - # 15
    frequency:    9.7391328000
  - # 16
    frequency:   12.9359481975
  - # 17
    frequency:   14.0019693601
  - # 18
    frequency:   14.0034598290
  - # 19
    frequency:   14.0994018214
  - # 20
    frequency:   14.1003358886
  - # 21
    frequency:   16.2610239237
  - # 22
    frequency:   18.1979808005
  - # 23
    frequency:   18.1991410674
  - # 24
    frequency:   31.8517016100
  - # 25
    frequency:   31.8741114238
  - # 26
    frequency:   67.7785665512
  - # 27
    frequency:   67.7809767741

- q-position: [    0.0151515,    0.0000000,    0.0000000 ]
  distance:    0.0055077
  band:
  - # 1
    frequency:   -0.4594519648
  - # 2
    frequency:   -0.3876943980
  - # 3
    frequency:   -0.3193556140
  - # 4
    frequency:   -0.1855616478
  - # 5
    frequency:    0.0306136231
  - # 6
    frequency:    0.2370686338
  - # 7
    frequency:    0.3875786380
  - # 8
    frequency:    5.1532376300
  - # 9
    frequency:    5.1579759798
  - # 10
    frequency:    6.1806829767
  - # 11
    frequency:    7.7446114788
  - # 12
    frequency:    7.7520461795
  - # 13
    frequency:    8.1383663102
  - # 14
    frequency:    8.1432461571
  - # 15
    frequency:    9.7387140706
  - # 16
    frequency:   12.9287750300
  - # 17
    frequency:   14.0022925181
  - # 18
    frequency:   14.0056333101
  - # 19
    frequency:   14.0992756598
  - # 20
    frequency:   14.1013757095
  - # 21
    frequency:   16.2601394408
  - # 22
    frequency:   18.1972575418
  - # 23
    frequency:   18.1998653461
  - # 24
    frequency:   31.8496145391
  - # 25
    frequency:   31.8719445286
  - # 26
    frequency:   67.7775137410
  - # 27
    frequency:   67.7799206221

- q-position: [    0.0202020,    0.0000000,    0.0000000 ]
  distance:    0.0073437
  band:
  - # 1
    frequency:   -0.4484817516
  - # 2
    frequency:   -0.3076169002
  - # 3
    frequency:   -0.2936931217
  - # 4
    frequency:    0.0519824938
  - # 5
    frequency:    0.1745324856
  - # 6
    frequency:    0.3207375847
  - # 7
    frequency:    0.5233206312
  - # 8
    frequency:    5.1555418284
  - # 9
    frequency:    5.1639283357
  - # 10
    frequency:    6.1791292640
  - # 11
    frequency:    7.7434463851
  - # 12
    frequency:    7.7565970530
  - # 13
    frequency:    8.1371865164
  - # 14
    frequency:    8.1458698059
  - # 15
    frequency:    9.7381325939
  - # 16
    frequency:   12.9187699465
  - # 17
    frequency:   14.0027442036
  - # 18
    frequency:   14.0086522434
  - # 19
    frequency:   14.0991020345
  - # 20
    frequency:   14.1028314613
  - # 21
    frequency:   16.2588996744
  - # 22
    frequency:   18.1962470464
  - # 23
    frequency:   18.2008762036
  - # 24
    frequency:   31.8466995249
  - # 25
    frequency:   31.8689184402
  - # 26
    frequency:   67.7760427181
  - # 27
    frequency:   67.7784449317

- q-position: [    0.0252525,    0.0000000,    0.0000000 ]
  distance:    0.0091796
  band:
  - # 1
    frequency:   -0.4336085503
  - # 2
    frequency:   -0.2615177653
  - # 3
    frequency:   -0.1830368334
  - # 4
    frequency:    0.1315537935
  - # 5
    frequency:    0.3302150670
  - # 6
    frequency:    0.4057966745
  - # 7
    frequency:    0.6599162023
  - # 8
    frequency:    5.1584901512
  - # 9
    frequency:    5.1715201501
  - # 10
    frequency:    6.1771734533
  - # 11
    frequency:    7.7419642138
  - # 12
    frequency:    7.7623799075
  - # 13
    frequency:    8.1356575720
  - # 14
    frequency:    8.1492406378
  - # 15
    frequency:    9.7373930879
  - # 16
    frequency:   12.9059689647
  - # 17
    frequency:   14.0033236768
  - # 18
    frequency:   14.0124940142
  - # 19
    frequency:   14.0988839223
  - # 20
    frequency:   14.1047031022
  - # 21
    frequency:   16.2573032384
  - # 22
    frequency:   18.1949513281
  - # 23
    frequency:   18.2021705000
  - # 24
    frequency:   31.8429634270
  - # 25
    frequency:   31.8650406893
  - # 26
    frequency:   67.7741563829
  - # 27
    frequency:   67.7765526150

- q-position: [    0.0303030,    0.0000000,    0.0000000 ]
  distance:    0.0110155
  band:
  - # 1
    frequency:   -0.4143747190
  - # 2
    frequency:   -0.2201425507
  - # 3
    frequency:   -0.0966002561
  - # 4
    frequency:    0.2935624634
  - # 5
    frequency:    0.4505204112
  - # 6
    frequency:    0.4913670942
  - # 7
    frequency:    0.7963327963
  - # 8
    frequency:    5.1620720423
  - # 9
    frequency:    5.1807070074
  - # 10
    frequency:    6.1748457399
  - # 11
    frequency:    7.7401763890
  - # 12
    frequency:    7.7693455690
  - # 13
    frequency:    8.1337709241
  - # 14
    frequency:    8.1533562549
  - # 15
    frequency:    9.7365015790
  - # 16
    frequency:   12.8904166402
  - # 17
    frequency:   14.0040299816
  - # 18
    frequency:   14.0171312853
  - # 19
    frequency:   14.0986251155
  - # 20
    frequency:   14.1069905193
  - # 21
    frequency:   16.2553484976
  - # 22
    frequency:   18.1933729016
  - # 23
    frequency:   18.2037441880
  - # 24
    frequency:   31.8384150282
  - # 25
    frequency:   31.8603209101
  - # 26
    frequency:   67.7718584498
  - # 27
    frequency:   67.7742474005

- q-position: [    0.0353535,    0.0000000,    0.0000000 ]
  distance:    0.0128514
  band:
  - # 1
    frequency:   -0.3901401886
  - # 2
    frequency:   -0.1621613778
  - # 3
    frequency:   -0.0544107450
  - # 4
    frequency:    0.4366876774
  - # 5
    frequency:    0.5589125322
  - # 6
    frequency:    0.5768743397
  - # 7
    frequency:    0.9321138003
  - # 8
    frequency:    5.1662747179
  - # 9
    frequency:    5.1914362101
  - # 10
    frequency:    6.1721818127
  - # 11
    frequency:    7.7380964145
  - # 12
    frequency:    7.7774361004
  - # 13
    frequency:    8.1315166501
  - # 14
    frequency:    8.1582130937
  - # 15
    frequency:    9.7354653705
  - # 16
    frequency:   12.8721649891
  - # 17
    frequency:   14.0048619409
  - # 18
    frequency:   14.0225330588
  - # 19
    frequency:   14.0983301966
  - # 20
    frequency:   14.1096934914
  - # 21
    frequency:   16.2530336715
  - # 22
    frequency:   18.1915147302
  - # 23
    frequency:   18.2055923054
  - # 24
    frequency:   31.8330650074
  - # 25
    frequency:   31.8547708042
  - # 26
    frequency:   67.7691534353
  - # 27
    frequency:   67.7715338224

- q-position: [    0.0404040,    0.0000000,    0.0000000 ]
  distance:    0.0146873
  band:
  - # 1
    frequency:   -0.3599203501
  - # 2
    frequency:   -0.0411205850
  - # 3
    frequency:    0.0524048115
  - # 4
    frequency:    0.5604546085
  - # 5
    frequency:    0.6613931167
  - # 6
    frequency:    0.6620000639
  - # 7
    frequency:    1.0670620415
  - # 8
    frequency:    5.1710832366
  - # 9
    frequency:    5.2036476356
  - # 10
    frequency:    6.1692222314
  - # 11
    frequency:    7.7357396247
  - # 12
    frequency:    7.7865859840
  - # 13
    frequency:    8.1288837487
  - # 14
    frequency:    8.1638060558
  - # 15
    frequency:    9.7342929999
  - # 16
    frequency:   12.8512723862
  - # 17
    frequency:   14.0058181507
  - # 18
    frequency:   14.0286657540
  - # 19
    frequency:   14.0980045085
  - # 20
    frequency:   14.1128116502
  - # 21
    frequency:   16.2503569584
  - # 22
    frequency:   18.1893801630
  - # 23
    frequency:   18.2077089671
  - # 24
    frequency:   31.8269259067
  - # 25
    frequency:   31.8484040973
  - # 26
    frequency:   67.7660466446
  - # 27
    frequency:   67.7684172065

- q-position: [    0.0454545,    0.0000000,    0.0000000 ]
  distance:    0.0165232
  band:
  - # 1
    frequency:   -0.3220671348
  - # 2
    frequency:    0.1012145402
  - # 3
    frequency:    0.1597303000
  - # 4
    frequency:    0.6740747779
  - # 5
    frequency:    0.7465755125
  - # 6
    frequency:    0.7603756917
  - # 7
    frequency:    1.2010763568
  - # 8
    frequency:    5.1764805809
  - # 9
    frequency:    5.2172746703
  - # 10
    frequency:    6.1660117738
  - # 11
    frequency:    7.7331229105
  - # 12
    frequency:    7.7967234223
  - # 13
    frequency:    8.1258604603
  - # 14
    frequency:    8.1701280838
  - # 15
    frequency:    9.7329941859
  - # 16
    frequency:   12.8278025121
  - # 17
    frequency:   14.0068969742
  - # 18
    frequency:   14.0354942233
  - # 19
    frequency:   14.0976541193
  - # 20
    frequency:   14.1163444452
  - # 21
    frequency:   16.2473166722
  - # 22
    frequency:   18.1869728660
  - # 23
    frequency:   18.2100873551
  - # 24
    frequency:   31.8200120923
  - # 25
    frequency:   31.8412364884
  - # 26
    frequency:   67.7625441557
  - # 27
    frequency:   67.7649036542

- q-position: [    0.0505051,    0.0000000,    0.0000000 ]
  distance:    0.0183591
  band:
  - # 1
    frequency:   -0.2734655671
  - # 2
    frequency:    0.1434076778
  - # 3
    frequency:    0.2354355354
  - # 4
    frequency:    0.7816074829
  - # 5
    frequency:    0.8305068007
  - # 6
    frequency:    0.8570370814
  - # 7
    frequency:    1.3340863448
  - # 8
    frequency:    5.1824477494
  - # 9
    frequency:    5.2322451904
  - # 10
    frequency:    6.1625987830
  - # 11
    frequency:    7.7302644293
  - # 12
    frequency:    7.8077717185
  - # 13
    frequency:    8.1224346088
  - # 14
    frequency:    8.1771696948
  - # 15
    frequency:    9.7315797609
  - # 16
    frequency:   12.8018234077
  - # 17
    frequency:   14.0080965323
  - # 18
    frequency:   14.0429826473
  - # 19
    frequency:   14.0972857840
  - # 20
    frequency:   14.1202911157
  - # 21
    frequency:   16.2439113929
  - # 22
    frequency:   18.1842967472
  - # 23
    frequency:   18.2127197085
  - # 24
    frequency:   31.8123397100
  - # 25
    frequency:   31.8332855918
  - # 26
    frequency:   67.7586528006
  - # 27
    frequency:   67.7610000244

- q-position: [    0.0555556,    0.0000000,    0.0000000 ]
  distance:    0.0201951
  band:
  - # 1
    frequency:   -0.2067116358
  - # 2
    frequency:    0.1857889680
  - # 3
    frequency:    0.2968692590
  - # 4
    frequency:    0.8850813889
  - # 5
    frequency:    0.9137347569
  - # 6
    frequency:    0.9520190519
  - # 7
    frequency:    1.4660287370
  - # 8
    frequency:    5.1889638608
  - # 9
    frequency:    5.2484825619
  - # 10
    frequency:    6.1590345390
  - # 11
    frequency:    7.7271833063
  - # 12
    frequency:    7.8196506968
  - # 13
    frequency:    8.1185939562
  - # 14
    frequency:    8.1849184838
  - # 15
    frequency:    9.7300615882
  - # 16
    frequency:   12.7734066690
  - # 17
    frequency:   14.0094146944
  - # 18
    frequency:   14.0510952697
  - # 19
    frequency:   14.0969069020
  - # 20
    frequency:   14.1246506756
  - # 21
    frequency:   16.2401401248
  - # 22
    frequency:   18.1813558779
  - # 23
    frequency:   18.2155973132
  - # 24
    frequency:   31.8039266350
  - # 25
    frequency:   31.8245708725
  - # 26
    frequency:   67.7543801453
  - # 27
    frequency:   67.7567139124

- q-position: [    0.0606061,    0.0000000,    0.0000000 ]
  distance:    0.0220310
  band:
  - # 1
    frequency:   -0.0870799849
  - # 2
    frequency:    0.2299193447
  - # 3
    frequency:    0.3516598356
  - # 4
    frequency:    0.9856320444
  - # 5
    frequency:    0.9962155748
  - # 6
    frequency:    1.0456979555
  - # 7
    frequency:    1.5968395362
  - # 8
    frequency:    5.1960062666
  - # 9
    frequency:    5.2659066325
  - # 10
    frequency:    6.1553726772
  - # 11
    frequency:    7.7238993325
  - # 12
    frequency:    7.8322781223
  - # 13
    frequency:    8.1143265615
  - # 14
    frequency:    8.1933586189
  - # 15
    frequency:    9.7284524621
  - # 16
    frequency:   12.7426267986
  - # 17
    frequency:   14.0108490658
  - # 18
    frequency:   14.0597969515
  - # 19
    frequency:   14.0965254730
  - # 20
    frequency:   14.1294219166
  - # 21
    frequency:   16.2360024588
  - # 22
    frequency:   18.1781544127
  - # 23
    frequency:   18.2187104911
  - # 24
    frequency:   31.7947924168
  - # 25
    frequency:   31.8151135754
  - # 26
    frequency:   67.7497344667
  - # 27
    frequency:   67.7520536274

- q-position: [    0.0656566,    0.0000000,    0.0000000 ]
  distance:    0.0238669
  band:
  - # 1
    frequency:    0.1750463292
  - # 2
    frequency:    0.2763338369
  - # 3
    frequency:    0.4025632227
  - # 4
    frequency:    1.0779120421
  - # 5
    frequency:    1.0839473519
  - # 6
    frequency:    1.1383054474
  - # 7
    frequency:    1.7264518744
  - # 8
    frequency:    5.2035506746
  - # 9
    frequency:    5.2844346919
  - # 10
    frequency:    6.1516686691
  - # 11
    frequency:    7.7204326677
  - # 12
    frequency:    7.8455710776
  - # 13
    frequency:    8.1096211371
  - # 14
    frequency:    8.2024703513
  - # 15
    frequency:    9.7267659863
  - # 16
    frequency:   12.7095607134
  - # 17
    frequency:   14.0123969737
  - # 18
    frequency:   14.0690535398
  - # 19
    frequency:   14.0961500493
  - # 20
    frequency:   14.1346034383
  - # 21
    frequency:   16.2314987367
  - # 22
    frequency:   18.1746965107
  - # 23
    frequency:   18.2220485903
  - # 24
    frequency:   31.7849582180
  - # 25
    frequency:   31.8049366482
  - # 26
    frequency:   67.7447247280
  - # 27
    frequency:   67.7470281676

- q-position: [    0.0707071,    0.0000000,    0.0000000 ]
  distance:    0.0257028
  band:
  - # 1
    frequency:    0.2681931108
  - # 2
    frequency:    0.3252252967
  - # 3
    frequency:    0.4509135046
  - # 4
    frequency:    1.1587898051
  - # 5
    frequency:    1.1804678095
  - # 6
    frequency:    1.2299885545
  - # 7
    frequency:    1.8547958469
  - # 8
    frequency:    5.2115712802
  - # 9
    frequency:    5.3039823821
  - # 10
    frequency:    6.1479793777
  - # 11
    frequency:    7.7168035520
  - # 12
    frequency:    7.8594472592
  - # 13
    frequency:    8.1044673967
  - # 14
    frequency:    8.2122295706
  - # 15
    frequency:    9.7250164307
  - # 16
    frequency:   12.6742873941
  - # 17
    frequency:   14.0140554511
  - # 18
    frequency:   14.0788320542
  - # 19
    frequency:   14.0957896881
  - # 20
    frequency:   14.1401937146
  - # 21
    frequency:   16.2266302123
  - # 22
    frequency:   18.1709862585
  - # 23
    frequency:   18.2255999760
  - # 24
    frequency:   31.7744467488
  - # 25
    frequency:   31.7940646583
  - # 26
    frequency:   67.7393605521
  - # 27
    frequency:   67.7416471933

- q-position: [    0.0757576,    0.0000000,    0.0000000 ]
  distance:    0.0275387
  band:
  - # 1
    frequency:    0.3409704219
  - # 2
    frequency:    0.3766418994
  - # 3
    frequency:    0.4974603579
  - # 4
    frequency:    1.2388159574
  - # 5
    frequency:    1.2754868086
  - # 6
    frequency:    1.3208420274
  - # 7
    frequency:    1.9817989442
  - # 8
    frequency:    5.2200409068
  - # 9
    frequency:    5.3244645411
  - # 10
    frequency:    6.1443626943
  - # 11
    frequency:    7.7130320286
  - # 12
    frequency:    7.8738261512
  - # 13
    frequency:    8.0988563889
  - # 14
    frequency:    8.2226074372
  - # 15
    frequency:    9.7232185627
  - # 16
    frequency:   12.6368876580
  - # 17
    frequency:   14.0158212181
  - # 18
    frequency:   14.0891006977
  - # 19
    frequency:   14.0954539024
  - # 20
    frequency:   14.1461912122
  - # 21
    frequency:   16.2213992068
  - # 22
    frequency:   18.1670275993
  - # 23
    frequency:   18.2293520227
  - # 24
    frequency:   31.7632821966
  - # 25
    frequency:   31.7825237053
  - # 26
    frequency:   67.7336521929
  - # 27
    frequency:   67.7359209985

- q-position: [    0.0808081,    0.0000000,    0.0000000 ]
  distance:    0.0293746
  band:
  - # 1
    frequency:    0.4045062443
  - # 2
    frequency:    0.4305613104
  - # 3
    frequency:    0.5426659433
  - # 4
    frequency:    1.3179586767
  - # 5
    frequency:    1.3692052100
  - # 6
    frequency:    1.4109268812
  - # 7
    frequency:    2.1073865861
  - # 8
    frequency:    5.2289311535
  - # 9
    frequency:    5.3457959694
  - # 10
    frequency:    6.1408772599
  - # 11
    frequency:    7.7091376828
  - # 12
    frequency:    7.8886300429
  - # 13
    frequency:    8.0927808131
  - # 14
    frequency:    8.2335701258
  - # 15
    frequency:    9.7213874509
  - # 16
    frequency:   12.5974440307
  - # 17
    frequency:   14.0176906609
  - # 18
    frequency:   14.0951526118
  - # 19
    frequency:   14.0998286927
  - # 20
    frequency:   14.1525945841
  - # 21
    frequency:   16.2158092543
  - # 22
    frequency:   18.1628242684
  - # 23
    frequency:   18.2332911084
  - # 24
    frequency:   31.7514901503
  - # 25
    frequency:   31.7703413282
  - # 26
    frequency:   67.7276105049
  - # 27
    frequency:   67.7298604802

- q-position: [    0.0858586,    0.0000000,    0.0000000 ]
  distance:    0.0312105
  band:
  - # 1
    frequency:    0.4626059365
  - # 2
    frequency:    0.4869235077
  - # 3
    frequency:    0.5868338874
  - # 4
    frequency:    1.3961873166
  - # 5
    frequency:    1.4617630277
  - # 6
    frequency:    1.5002815716
  - # 7
    frequency:    2.2314825948
  - # 8
    frequency:    5.2382125497
  - # 9
    frequency:    5.3678921094
  - # 10
    frequency:    6.1375822715
  - # 11
    frequency:    7.7051393967
  - # 12
    frequency:    7.9037848578
  - # 13
    frequency:    8.0862353138
  - # 14
    frequency:    8.2450787113
  - # 15
    frequency:    9.7195382398
  - # 16
    frequency:   12.5560406939
  - # 17
    frequency:   14.0196598091
  - # 18
    frequency:   14.0948960935
  - # 19
    frequency:   14.1109859289
  - # 20
    frequency:   14.1594029760
  - # 21
    frequency:   16.2098652353
  - # 22
    frequency:   18.1583797378
  - # 23
    frequency:   18.2374026116
  - # 24
    frequency:   31.7390975210
  - # 25
    frequency:   31.7575464082
  - # 26
    frequency:   67.7212469118
  - # 27
    frequency:   67.7234771065

- q-position: [    0.0909091,    0.0000000,    0.0000000 ]
  distance:    0.0330465
  band:
  - # 1
    frequency:    0.5170876990
  - # 2
    frequency:    0.5456471155
  - # 3
    frequency:    0.6301731418
  - # 4
    frequency:    1.4734726790
  - # 5
    frequency:    1.5532588012
  - # 6
    frequency:    1.5889290188
  - # 7
    frequency:    2.3540095645
  - # 8
    frequency:    5.2478547161
  - # 9
    frequency:    5.3906696324
  - # 10
    frequency:    6.1345373715
  - # 11
    frequency:    7.7010551211
  - # 12
    frequency:    7.9192207697
  - # 13
    frequency:    8.0792167514
  - # 14
    frequency:    8.2570892255
  - # 15
    frequency:    9.7176858921
  - # 16
    frequency:   12.5127634875
  - # 17
    frequency:   14.0217243114
  - # 18
    frequency:   14.0946949343
  - # 19
    frequency:   14.1225423840
  - # 20
    frequency:   14.1666165083
  - # 21
    frequency:   16.2035734950
  - # 22
    frequency:   18.1536971718
  - # 23
    frequency:   18.2416709105
  - # 24
    frequency:   31.7261324580
  - # 25
    frequency:   31.7441690684
  - # 26
    frequency:   67.7145733724
  - # 27
    frequency:   67.7167828830

- q-position: [    0.0959596,    0.0000000,    0.0000000 ]
  distance:    0.0348824
  band:
  - # 1
    frequency:    0.5689745630
  - # 2
    frequency:    0.6066383032
  - # 3
    frequency:    0.6728326507
  - # 4
    frequency:    1.5497873425
  - # 5
    frequency:    1.6437619563
  - # 6
    frequency:    1.6768811819
  - # 7
    frequency:    2.4748891281
  - # 8
    frequency:    5.2578265321
  - # 9
    frequency:    5.4140469278
  - # 10
    frequency:    6.1318026181
  - # 11
    frequency:    7.6969016647
  - # 12
    frequency:    7.9348725938
  - # 13
    frequency:    8.0717244480
  - # 14
    frequency:    8.2695529004
  - # 15
    frequency:    9.7158449001
  - # 16
    frequency:   12.4676999478
  - # 17
    frequency:   14.0238794103
  - # 18
    frequency:   14.0945599825
  - # 19
    frequency:   14.1344672265
  - # 20
    frequency:   14.1742370411
  - # 21
    frequency:   16.1969419439
  - # 22
    frequency:   18.1487793946
  - # 23
    frequency:   18.2460793867
  - # 24
    frequency:   31.7126242613
  - # 25
    frequency:   31.7302405690
  - # 26
    frequency:   67.7076023464
  - # 27
    frequency:   67.7097903180

- q-position: [    0.1010101,    0.0000000,    0.0000000 ]
  distance:    0.0367183
  band:
  - # 1
    frequency:    0.6189022444
  - # 2
    frequency:    0.6697959970
  - # 3
    frequency:    0.7149215155
  - # 4
    frequency:    1.6251059919
  - # 5
    frequency:    1.7333209754
  - # 6
    frequency:    1.7641421289
  - # 7
    frequency:    2.5940421383
  - # 8
    frequency:    5.2680963069
  - # 9
    frequency:    5.4379444902
  - # 10
    frequency:    6.1294385345
  - # 11
    frequency:    7.6926944997
  - # 12
    frequency:    7.9506799484
  - # 13
    frequency:    8.0637604069
  - # 14
    frequency:    8.2824166071
  - # 15
    frequency:    9.7140289634
  - # 16
    frequency:   12.4209393678
  - # 17
    frequency:   14.0261199174
  - # 18
    frequency:   14.0945022998
  - # 19
    frequency:   14.1467274327
  - # 20
    frequency:   14.1822694094
  - # 21
    frequency:   16.1899801395
  - # 22
    frequency:   18.1436288706
  - # 23
    frequency:   18.2506104329
  - # 24
    frequency:   31.6986032896
  - # 25
    frequency:   31.7157932008
  - # 26
    frequency:   67.7003467580
  - # 27
    frequency:   67.7025123861

- q-position: [    0.1060606,    0.0000000,    0.0000000 ]
  distance:    0.0385542
  band:
  - # 1
    frequency:    0.6672931325
  - # 2
    frequency:    0.7350151191
  - # 3
    frequency:    0.7565213700
  - # 4
    frequency:    1.6994057249
  - # 5
    frequency:    1.8219689636
  - # 6
    frequency:    1.8507101532
  - # 7
    frequency:    2.7113887804
  - # 8
    frequency:    5.2786319566
  - # 9
    frequency:    5.4622851978
  - # 10
    frequency:    6.1275062355
  - # 11
    frequency:    7.6884475823
  - # 12
    frequency:    7.9665872005
  - # 13
    frequency:    8.0553295056
  - # 14
    frequency:    8.2956234825
  - # 15
    frequency:    9.7122506336
  - # 16
    frequency:   12.3725728678
  - # 17
    frequency:   14.0284401926
  - # 18
    frequency:   14.0945331113
  - # 19
    frequency:   14.1592856007
  - # 20
    frequency:   14.1907234540
  - # 21
    frequency:   16.1826993473
  - # 22
    frequency:   18.1382477001
  - # 23
    frequency:   18.2552454647
  - # 24
    frequency:   31.6841008662
  - # 25
    frequency:   31.7008601755
  - # 26
    frequency:   67.6928199590
  - # 27
    frequency:   67.6949624911

- q-position: [    0.1111111,    0.0000000,    0.0000000 ]
  distance:    0.0403901
  band:
  - # 1
    frequency:    0.7144416757
  - # 2
    frequency:    0.7976943106
  - # 3
    frequency:    0.8021886955
  - # 4
    frequency:    1.7726663288
  - # 5
    frequency:    1.9097275413
  - # 6
    frequency:    1.9365792658
  - # 7
    frequency:    2.8268486370
  - # 8
    frequency:    5.2894011838
  - # 9
    frequency:    5.4869944746
  - # 10
    frequency:    6.1260676345
  - # 11
    frequency:    7.6841731863
  - # 12
    frequency:    7.9825432177
  - # 13
    frequency:    8.0464396625
  - # 14
    frequency:    8.3091137234
  - # 15
    frequency:    9.7105209286
  - # 16
    frequency:   12.3226934686
  - # 17
    frequency:   14.0308341273
  - # 18
    frequency:   14.0946637519
  - # 19
    frequency:   14.1720964272
  - # 20
    frequency:   14.1996173944
  - # 21
    frequency:   16.1751125789
  - # 22
    frequency:   18.1326376284
  - # 23
    frequency:   18.2599649389
  - # 24
    frequency:   31.6691491806
  - # 25
    frequency:   31.6854755150
  - # 26
    frequency:   67.6850356905
  - # 27
    frequency:   67.6871544276

- q-position: [    0.1161616,    0.0000000,    0.0000000 ]
  distance:    0.0422260
  band:
  - # 1
    frequency:    0.7605606066
  - # 2
    frequency:    0.8384881622
  - # 3
    frequency:    0.8712092828
  - # 4
    frequency:    1.8448705232
  - # 5
    frequency:    1.9966096282
  - # 6
    frequency:    2.0217402699
  - # 7
    frequency:    2.9403407218
  - # 8
    frequency:    5.3003716605
  - # 9
    frequency:    5.5120003241
  - # 10
    frequency:    6.1251857339
  - # 11
    frequency:    7.6798817494
  - # 12
    frequency:    7.9985009618
  - # 13
    frequency:    8.0371019769
  - # 14
    frequency:    8.3228255157
  - # 15
    frequency:    9.7088489173
  - # 16
    frequency:   12.2713961635
  - # 17
    frequency:   14.0332951392
  - # 18
    frequency:   14.0949056053
  - # 19
    frequency:   14.1851010483
  - # 20
    frequency:   14.2089833463
  - # 21
    frequency:   16.1672346094
  - # 22
    frequency:   18.1268000705
  - # 23
    frequency:   18.2647483766
  - # 24
    frequency:   31.6537811882
  - # 25
    frequency:   31.6696739382
  - # 26
    frequency:   67.6770080443
  - # 27
    frequency:   67.6791023420

- q-position: [    0.1212121,    0.0000000,    0.0000000 ]
  distance:    0.0440619
  band:
  - # 1
    frequency:    0.8058078691
  - # 2
    frequency:    0.8789400801
  - # 3
    frequency:    0.9419699571
  - # 4
    frequency:    1.9160041708
  - # 5
    frequency:    2.0826214742
  - # 6
    frequency:    2.1061815484
  - # 7
    frequency:    3.0517835024
  - # 8
    frequency:    5.3115112138
  - # 9
    frequency:    5.5372332165
  - # 10
    frequency:    6.1249250086