nqpoint: 300    
npath: 3      
segment_nqpoint:
- 100
- 100
- 100
labels:
- [ 'G', 'M' ]
- [ 'M', 'K' ]
- [ 'K', 'G' ]
reciprocal_lattice:
- [   0.29471472,   0.17015362,   0.00000000 ] # a*
- [   0.00000000,   0.34030725,   0.00000000 ] # b*
- [   0.00000000,   0.00000000,   0.03695159 ] # c*
natom: 8      
lattice:
- [     3.393111800249161,     0.000000000000000,     0.000000000000000 ] # a
- [    -1.696555900124580,     2.938521016889935,     0.000000000000000 ] # b
- [     0.000000000000000,     0.000000000000000,    27.062436130567058 ] # c
points:
- symbol: C # 1
  coordinates: [  0.000000000000000,  0.000000000000000,  0.521213878372339 ]
  mass: 12.010700
- symbol: C # 2
  coordinates: [  0.333332985432215,  0.666666983183674,  0.622923696966538 ]
  mass: 12.010700
- symbol: C # 3
  coordinates: [  0.666666984744048,  0.333332985985145,  0.376477473867283 ]
  mass: 12.010700
- symbol: N # 4
  coordinates: [  0.333332985432215,  0.666666983183674,  0.667435704731900 ]
  mass: 14.006700
- symbol: N # 5
  coordinates: [  0.666666984744048,  0.333332985985145,  0.332564295268100 ]
  mass: 14.006700
- symbol: O # 6
  coordinates: [  0.666666984744048,  0.333332985985145,  0.425849089172850 ]
  mass: 15.999400
- symbol: Zr # 7
  coordinates: [  0.333332985432215,  0.666666983183674,  0.476852407794899 ]
  mass: 91.224000
- symbol: Zr # 8
  coordinates: [  0.666666984744048,  0.333332985985145,  0.567977900037929 ]
  mass: 91.224000

phonon:
- q-position: [    0.0000000,    0.0000000,    0.0000000 ]
  distance:    0.0000000
  band:
  - # 1
    frequency:   -0.0000154409
  - # 2
    frequency:    0.0000004337
  - # 3
    frequency:    0.0000123018
  - # 4
    frequency:    0.4512695030
  - # 5
    frequency:    0.4512695030
  - # 6
    frequency:    1.3673380814
  - # 7
    frequency:    1.3673380814
  - # 8
    frequency:    4.6400066558
  - # 9
    frequency:    4.6400066558
  - # 10
    frequency:    5.7285317458
  - # 11
    frequency:    6.2479954685
  - # 12
    frequency:    6.2479954685
  - # 13
    frequency:    7.6250364837
  - # 14
    frequency:    7.6250364837
  - # 15
    frequency:    8.4874409373
  - # 16
    frequency:    9.2419116333
  - # 17
    frequency:   13.8927601388
  - # 18
    frequency:   13.8927601388
  - # 19
    frequency:   16.2218449989
  - # 20
    frequency:   17.3120427053
  - # 21
    frequency:   17.3120427053
  - # 22
    frequency:   31.8248933093
  - # 23
    frequency:   60.8442055590
  - # 24
    frequency:   67.7171231289

- q-position: [    0.0050505,    0.0000000,    0.0000000 ]
  distance:    0.0017187
  band:
  - # 1
    frequency:    0.0016982220
  - # 2
    frequency:    0.0360796615
  - # 3
    frequency:    0.1026136977
  - # 4
    frequency:    0.4507674018
  - # 5
    frequency:    0.4523447773
  - # 6
    frequency:    1.3671595633
  - # 7
    frequency:    1.3686067748
  - # 8
    frequency:    4.6398923088
  - # 9
    frequency:    4.6404956567
  - # 10
    frequency:    5.7282668614
  - # 11
    frequency:    6.2480029253
  - # 12
    frequency:    6.2485112544
  - # 13
    frequency:    7.6250852785
  - # 14
    frequency:    7.6256715025
  - # 15
    frequency:    8.4873050362
  - # 16
    frequency:    9.2415301826
  - # 17
    frequency:   13.8927932522
  - # 18
    frequency:   13.8929284659
  - # 19
    frequency:   16.2215915425
  - # 20
    frequency:   17.3115661082
  - # 21
    frequency:   17.3118044520
  - # 22
    frequency:   31.8244821592
  - # 23
    frequency:   60.8441518683
  - # 24
    frequency:   67.7169127879

- q-position: [    0.0101010,    0.0000000,    0.0000000 ]
  distance:    0.0034374
  band:
  - # 1
    frequency:    0.0067768329
  - # 2
    frequency:    0.0715740371
  - # 3
    frequency:    0.2035216088
  - # 4
    frequency:    0.4493628539
  - # 5
    frequency:    0.4562732033
  - # 6
    frequency:    1.3666267221
  - # 7
    frequency:    1.3724108207
  - # 8
    frequency:    4.6395509170
  - # 9
    frequency:    4.6419621728
  - # 10
    frequency:    5.7274763258
  - # 11
    frequency:    6.2480254034
  - # 12
    frequency:    6.2500544983
  - # 13
    frequency:    7.6252308366
  - # 14
    frequency:    7.6275734215
  - # 15
    frequency:    8.4868981371
  - # 16
    frequency:    9.2403858439
  - # 17
    frequency:   13.8928926949
  - # 18
    frequency:   13.8934332074
  - # 19
    frequency:   16.2208314422
  - # 20
    frequency:   17.3101378866
  - # 21
    frequency:   17.3110892038
  - # 22
    frequency:   31.8232496241
  - # 23
    frequency:   60.8439908998
  - # 24
    frequency:   67.7162821845

- q-position: [    0.0151515,    0.0000000,    0.0000000 ]
  distance:    0.0051562
  band:
  - # 1
    frequency:    0.0151881038
  - # 2
    frequency:    0.1057586217
  - # 3
    frequency:    0.2986643654
  - # 4
    frequency:    0.4473931446
  - # 5
    frequency:    0.4665779532
  - # 6
    frequency:    1.3657477492
  - # 7
    frequency:    1.3787458724
  - # 8
    frequency:    4.6389874092
  - # 9
    frequency:    4.6444047058
  - # 10
    frequency:    5.7261723781
  - # 11
    frequency:    6.2480632232
  - # 12
    frequency:    6.2526129697
  - # 13
    frequency:    7.6254706875
  - # 14
    frequency:    7.6307328417
  - # 15
    frequency:    8.4862226589
  - # 16
    frequency:    9.2384786643
  - # 17
    frequency:   13.8930587722
  - # 18
    frequency:   13.8942736427
  - # 19
    frequency:   16.2195655024
  - # 20
    frequency:   17.3077627451
  - # 21
    frequency:   17.3098955176
  - # 22
    frequency:   31.8211984463
  - # 23
    frequency:   60.8437229640
  - # 24
    frequency:   67.7152325764

- q-position: [    0.0202020,    0.0000000,    0.0000000 ]
  distance:    0.0068749
  band:
  - # 1
    frequency:    0.0268548567
  - # 2
    frequency:    0.1375943789
  - # 3
    frequency:    0.3741740957
  - # 4
    frequency:    0.4455320546
  - # 5
    frequency:    0.4967644703
  - # 6
    frequency:    1.3645364762
  - # 7
    frequency:    1.3876107213
  - # 8
    frequency:    4.6382099395
  - # 9
    frequency:    4.6478206356
  - # 10
    frequency:    5.7243750463
  - # 11
    frequency:    6.2481169131
  - # 12
    frequency:    6.2561666440
  - # 13
    frequency:    7.6258007445
  - # 14
    frequency:    7.6351341409
  - # 15
    frequency:    8.4852826535
  - # 16
    frequency:    9.2358087453
  - # 17
    frequency:   13.8932919847
  - # 18
    frequency:   13.8954485640
  - # 19
    frequency:   16.2177950555
  - # 20
    frequency:   17.3044485114
  - # 21
    frequency:   17.3082210627
  - # 22
    frequency:   31.8183331884
  - # 23
    frequency:   60.8433485771
  - # 24
    frequency:   67.7137660555

- q-position: [    0.0252525,    0.0000000,    0.0000000 ]
  distance:    0.0085936
  band:
  - # 1
    frequency:    0.0416730990
  - # 2
    frequency:    0.1654961205
  - # 3
    frequency:    0.4106562582
  - # 4
    frequency:    0.4449579771
  - # 5
    frequency:    0.5659254815
  - # 6
    frequency:    1.3630126594
  - # 7
    frequency:    1.3990171065
  - # 8
    frequency:    4.6372297971
  - # 9
    frequency:    4.6522060425
  - # 10
    frequency:    5.7221116268
  - # 11
    frequency:    6.2481871999
  - # 12
    frequency:    6.2606882062
  - # 13
    frequency:    7.6262153498
  - # 14
    frequency:    7.6407555375
  - # 15
    frequency:    8.4840838358
  - # 16
    frequency:    9.2323762776
  - # 17
    frequency:   13.8935930172
  - # 18
    frequency:   13.8969562678
  - # 19
    frequency:   16.2155219508
  - # 20
    frequency:   17.3002061154
  - # 21
    frequency:   17.3060627298
  - # 22
    frequency:   31.8146602201
  - # 23
    frequency:   60.8428684600
  - # 24
    frequency:   67.7118855413

- q-position: [    0.0303030,    0.0000000,    0.0000000 ]
  distance:    0.0103123
  band:
  - # 1
    frequency:    0.0595142856
  - # 2
    frequency:    0.1871088589
  - # 3
    frequency:    0.4235906936
  - # 4
    frequency:    0.4475049115
  - # 5
    frequency:    0.6582848930
  - # 6
    frequency:    1.3612024147
  - # 7
    frequency:    1.4130053676
  - # 8
    frequency:    4.6360612839
  - # 9
    frequency:    4.6575554766
  - # 10
    frequency:    5.7194160159
  - # 11
    frequency:    6.2482749940
  - # 12
    frequency:    6.2661436921
  - # 13
    frequency:    7.6267073368
  - # 14
    frequency:    7.6475691781
  - # 15
    frequency:    8.4826336276
  - # 16
    frequency:    9.2281815882
  - # 17
    frequency:   13.8939627223
  - # 18
    frequency:   13.8987945422
  - # 19
    frequency:   16.2127485389
  - # 20
    frequency:   17.2950495615
  - # 21
    frequency:   17.3034167799
  - # 22
    frequency:   31.8101877011
  - # 23
    frequency:   60.8422835361
  - # 24
    frequency:   67.7095947721

- q-position: [    0.0353535,    0.0000000,    0.0000000 ]
  distance:    0.0120311
  band:
  - # 1
    frequency:    0.0802258907
  - # 2
    frequency:    0.1993739918
  - # 3
    frequency:    0.4293389399
  - # 4
    frequency:    0.4554853472
  - # 5
    frequency:    0.7571528740
  - # 6
    frequency:    1.3591388430
  - # 7
    frequency:    1.4296689512
  - # 8
    frequency:    4.6347215625
  - # 9
    frequency:    4.6638616860
  - # 10
    frequency:    5.7163279443
  - # 11
    frequency:    6.2483813691
  - # 12
    frequency:    6.2724932152
  - # 13
    frequency:    7.6272681086
  - # 14
    frequency:    7.6555412468
  - # 15
    frequency:    8.4809412132
  - # 16
    frequency:    9.2232252023
  - # 17
    frequency:   13.8944021002
  - # 18
    frequency:   13.9009606519
  - # 19
    frequency:   16.2094776529
  - # 20
    frequency:   17.2889958919
  - # 21
    frequency:   17.3002790296
  - # 22
    frequency:   31.8049255584
  - # 23
    frequency:   60.8415949283
  - # 24
    frequency:   67.7068982931

- q-position: [    0.0404040,    0.0000000,    0.0000000 ]
  distance:    0.0137498
  band:
  - # 1
    frequency:    0.1036285883
  - # 2
    frequency:    0.1992071862
  - # 3
    frequency:    0.4325694656
  - # 4
    frequency:    0.4707980121
  - # 5
    frequency:    0.8574616804
  - # 6
    frequency:    1.3568629074
  - # 7
    frequency:    1.4491935588
  - # 8
    frequency:    4.6332304777
  - # 9
    frequency:    4.6711153236
  - # 10
    frequency:    5.7128921629
  - # 11
    frequency:    6.2485075340
  - # 12
    frequency:    6.2796917283
  - # 13
    frequency:    7.6278877315
  - # 14
    frequency:    7.6646320950
  - # 15
    frequency:    8.4790176093
  - # 16
    frequency:    9.2175079167
  - # 17
    frequency:   13.8949122745
  - # 18
    frequency:   13.9034513204
  - # 19
    frequency:   16.2057125881
  - # 20
    frequency:   17.2820651434
  - # 21
    frequency:   17.2966450669
  - # 22
    frequency:   31.7988854588
  - # 23
    frequency:   60.8408039564
  - # 24
    frequency:   67.7038014429

- q-position: [    0.0454545,    0.0000000,    0.0000000 ]
  distance:    0.0154685
  band:
  - # 1
    frequency:    0.1295074095
  - # 2
    frequency:    0.1840828344
  - # 3
    frequency:    0.4346604093
  - # 4
    frequency:    0.4938262199
  - # 5
    frequency:    0.9573084749
  - # 6
    frequency:    1.3544246544
  - # 7
    frequency:    1.4719214876
  - # 8
    frequency:    4.6316103558
  - # 9
    frequency:    4.6793046502
  - # 10
    frequency:    5.7091576240
  - # 11
    frequency:    6.2486547956
  - # 12
    frequency:    6.2876897750
  - # 13
    frequency:    7.6285550414
  - # 14
    frequency:    7.6747963869
  - # 15
    frequency:    8.4768757490
  - # 16
    frequency:    9.2110308865
  - # 17
    frequency:   13.8954944644
  - # 18
    frequency:   13.9062627114
  - # 19
    frequency:   16.2014570791
  - # 20
    frequency:   17.2742802964
  - # 21
    frequency:   17.2925104931
  - # 22
    frequency:   31.7920807767
  - # 23
    frequency:   60.8399121327
  - # 24
    frequency:   67.7003103370

- q-position: [    0.0505051,    0.0000000,    0.0000000 ]
  distance:    0.0171872
  band:
  - # 1
    frequency:    0.1503327778
  - # 2
    frequency:    0.1575920575
  - # 3
    frequency:    0.4361647918
  - # 4
    frequency:    0.5234502632
  - # 5
    frequency:    1.0554049145
  - # 6
    frequency:    1.3518849122
  - # 7
    frequency:    1.4984584449
  - # 8
    frequency:    4.6298857864
  - # 9
    frequency:    4.6884152539
  - # 10
    frequency:    5.7051766908
  - # 11
    frequency:    6.2488245126
  - # 12
    frequency:    6.2964341969
  - # 13
    frequency:    7.6292577632
  - # 14
    frequency:    7.6859832591
  - # 15
    frequency:    8.4745305795
  - # 16
    frequency:    9.2037957233
  - # 17
    frequency:   13.8961499544
  - # 18
    frequency:   13.9093904084
  - # 19
    frequency:   16.1967152785
  - # 20
    frequency:   17.2656672165
  - # 21
    frequency:   17.2878711836
  - # 22
    frequency:   31.7845265566
  - # 23
    frequency:   60.8389211581
  - # 24
    frequency:   67.6964318486

- q-position: [    0.0555556,    0.0000000,    0.0000000 ]
  distance:    0.0189060
  band:
  - # 1
    frequency:    0.0813064646
  - # 2
    frequency:    0.1875165784
  - # 3
    frequency:    0.4374377618
  - # 4
    frequency:    0.5580353090
  - # 5
    frequency:    1.1503230194
  - # 6
    frequency:    1.3493176636
  - # 7
    frequency:    1.5298423118
  - # 8
    frequency:    4.6280833889
  - # 9
    frequency:    4.6984298032
  - # 10
    frequency:    5.7010044006
  - # 11
    frequency:    6.2490180379
  - # 12
    frequency:    6.3058687732
  - # 13
    frequency:    7.6299826400
  - # 14
    frequency:    7.6981364887
  - # 15
    frequency:    8.4719991764
  - # 16
    frequency:    9.1958046057
  - # 17
    frequency:   13.8968800600
  - # 18
    frequency:   13.9128293941
  - # 19
    frequency:   16.1914917359
  - # 20
    frequency:   17.2562545897
  - # 21
    frequency:   17.2827235619
  - # 22
    frequency:   31.7762394716
  - # 23
    frequency:   60.8378329172
  - # 24
    frequency:   67.6921735883

- q-position: [    0.0606061,    0.0000000,    0.0000000 ]
  distance:    0.0206247
  band:
  - # 1
    frequency:   -0.1153278223
  - # 2
    frequency:    0.2187376481
  - # 3
    frequency:    0.4388929530
  - # 4
    frequency:    0.5961662574
  - # 5
    frequency:    1.2401086962
  - # 6
    frequency:    1.3468133861
  - # 7
    frequency:    1.5677556221
  - # 8
    frequency:    4.6262315698
  - # 9
    frequency:    4.7093278539
  - # 10
    frequency:    5.6966977928
  - # 11
    frequency:    6.2492366498
  - # 12
    frequency:    6.3159347828
  - # 13
    frequency:    7.6307155716
  - # 14
    frequency:    7.7111946649
  - # 15
    frequency:    8.4693008720
  - # 16
    frequency:    9.1870604005
  - # 17
    frequency:   13.8976860934
  - # 18
    frequency:   13.9165740305
  - # 19
    frequency:   16.1857913800
  - # 20
    frequency:   17.2460738511
  - # 21
    frequency:   17.2770648773
  - # 22
    frequency:   31.7672377762
  - # 23
    frequency:   60.8366494728
  - # 24
    frequency:   67.6875438806

- q-position: [    0.0656566,    0.0000000,    0.0000000 ]
  distance:    0.0223434
  band:
  - # 1
    frequency:   -0.1911611418
  - # 2
    frequency:    0.2503693173
  - # 3
    frequency:    0.4412301146
  - # 4
    frequency:    0.6368181741
  - # 5
    frequency:    1.3221656965
  - # 6
    frequency:    1.3444837928
  - # 7
    frequency:    1.6145787713
  - # 8
    frequency:    4.6243602722
  - # 9
    frequency:    4.7210857216
  - # 10
    frequency:    5.6923153078
  - # 11
    frequency:    6.2494814719
  - # 12
    frequency:    6.3265714874
  - # 13
    frequency:    7.6314417603
  - # 14
    frequency:    7.7250913595
  - # 15
    frequency:    8.4664574006
  - # 16
    frequency:    9.1775667960
  - # 17
    frequency:   13.8985693254
  - # 18
    frequency:   13.9206180403
  - # 19
    frequency:   16.1796195051
  - # 20
    frequency:   17.2351591069
  - # 21
    frequency:   17.2708934824
  - # 22
    frequency:   31.7575412555
  - # 23
    frequency:   60.8353730600
  - # 24
    frequency:   67.6825517385

- q-position: [    0.0707071,    0.0000000,    0.0000000 ]
  distance:    0.0240621
  band:
  - # 1
    frequency:   -0.2504065882
  - # 2
    frequency:    0.2808704126
  - # 3
    frequency:    0.4457725301
  - # 4
    frequency:    0.6792737077
  - # 5
    frequency:    1.3424686175
  - # 6
    frequency:    1.3939030791
  - # 7
    frequency:    1.6727160969
  - # 8
    frequency:    4.6225007210
  - # 9
    frequency:    4.7336764361
  - # 10
    frequency:    5.6879162552
  - # 11
    frequency:    6.2497533813
  - # 12
    frequency:    6.3377165415
  - # 13
    frequency:    7.6321458632
  - # 14
    frequency:    7.7397552910
  - # 15
    frequency:    8.4634930575
  - # 16
    frequency:    9.1673284459
  - # 17
    frequency:   13.8995309487
  - # 18
    frequency:   13.9249544893
  - # 19
    frequency:   16.1729817636
  - # 20
    frequency:   17.2235470506
  - # 21
    frequency:   17.2642090986
  - # 22
    frequency:   31.7471711688
  - # 23
    frequency:   60.8340060802
  - # 24
    frequency:   67.6772068366

- q-position: [    0.0757576,    0.0000000,    0.0000000 ]
  distance:    0.0257809
  band:
  - # 1
    frequency:   -0.3024853714
  - # 2
    frequency:    0.3076301674
  - # 3
    frequency:    0.4548911534
  - # 4
    frequency:    0.7230037006
  - # 5
    frequency:    1.3409453890
  - # 6
    frequency:    1.4543589811
  - # 7
    frequency:    1.7429594173
  - # 8
    frequency:    4.6206851670
  - # 9
    frequency:    4.7470697851
  - # 10
    frequency:    5.6835603461
  - # 11
    frequency:    6.2500529079
  - # 12
    frequency:    6.3493063415
  - # 13
    frequency:    7.6328121484
  - # 14
    frequency:    7.7551104748
  - # 15
    frequency:    8.4604348728
  - # 16
    frequency:    9.1563511250
  - # 17
    frequency:   13.9005720389
  - # 18
    frequency:   13.9295757726
  - # 19
    frequency:   16.1658841655
  - # 20
    frequency:   17.2112768729
  - # 21
    frequency:   17.2570130662
  - # 22
    frequency:   31.7361501901
  - # 23
    frequency:   60.8325510937
  - # 24
    frequency:   67.6715194819

- q-position: [    0.0808081,    0.0000000,    0.0000000 ]
  distance:    0.0274996
  band:
  - # 1
    frequency:   -0.3503133265
  - # 2
    frequency:    0.3271788490
  - # 3
    frequency:    0.4717964299
  - # 4
    frequency:    0.7675704016
  - # 5
    frequency:    1.3401435380
  - # 6
    frequency:    1.5051142098
  - # 7
    frequency:    1.8235675711
  - # 8
    frequency:    4.6189466290
  - # 9
    frequency:    4.7612324575
  - # 10
    frequency:    5.6793072817
  - # 11
    frequency:    6.2503801234
  - # 12
    frequency:    6.3612763273
  - # 13
    frequency:    7.6334246556
  - # 14
    frequency:    7.7710763579
  - # 15
    frequency:    8.4573127957
  - # 16
    frequency:    9.1446418968
  - # 17
    frequency:   13.9016935183
  - # 18
    frequency:   13.9344736031
  - # 19
    frequency:   16.1583330866
  - # 20
    frequency:   17.1983901660
  - # 21
    frequency:   17.2493085686
  - # 22
    frequency:   31.7245023429
  - # 23
    frequency:   60.8310108133
  - # 24
    frequency:   67.6655005827

- q-position: [    0.0858586,    0.0000000,    0.0000000 ]
  distance:    0.0292183
  band:
  - # 1
    frequency:   -0.3952394720
  - # 2
    frequency:    0.3372609502
  - # 3
    frequency:    0.4984629196
  - # 4
    frequency:    0.8125537096
  - # 5
    frequency:    1.3403646042
  - # 6
    frequency:    1.5490660434
  - # 7
    frequency:    1.9114884383
  - # 8
    frequency:    4.6173186371
  - # 9
    frequency:    4.7761282885
  - # 10
    frequency:    5.6752163904
  - # 11
    frequency:    6.2507345254
  - # 12
    frequency:    6.3735612518
  - # 13
    frequency:    7.6339673585
  - # 14
    frequency:    7.7875679322
  - # 15
    frequency:    8.4541598841
  - # 16
    frequency:    9.1322092953
  - # 17
    frequency:   13.9028961184
  - # 18
    frequency:   13.9396390044
  - # 19
    frequency:   16.1503352870
  - # 20
    frequency:   17.1849308218
  - # 21
    frequency:   17.2411008267
  - # 22
    frequency:   31.7122529315
  - # 23
    frequency:   60.8293880956
  - # 24
    frequency:   67.6591616165

- q-position: [    0.0909091,    0.0000000,    0.0000000 ]
  distance:    0.0309370
  band:
  - # 1
    frequency:   -0.4380140761
  - # 2
    frequency:    0.3385924634
  - # 3
    frequency:    0.5338657043
  - # 4
    frequency:    0.8574896697
  - # 5
    frequency:    1.3420104466
  - # 6
    frequency:    1.5888209036
  - # 7
    frequency:    2.0039634362
  - # 8
    frequency:    4.6158349764
  - # 9
    frequency:    4.7917186124
  - # 10
    frequency:    5.6713463043
  - # 11
    frequency:    6.2511149174
  - # 12
    frequency:    6.3860954326
  - # 13
    frequency:    7.6344243292
  - # 14
    frequency:    7.8044958269
  - # 15
    frequency:    8.4510124925
  - # 16
    frequency:    9.1190635211
  - # 17
    frequency:   13.9041803470
  - # 18
    frequency:   13.9450623080
  - # 19
    frequency:   16.1418979396
  - # 20
    frequency:   17.1709449252
  - # 21
    frequency:   17.2323972547
  - # 22
    frequency:   31.6994284688
  - # 23
    frequency:   60.8276859338
  - # 24
    frequency:   67.6525145957

- q-position: [    0.0959596,    0.0000000,    0.0000000 ]
  distance:    0.0326557
  band:
  - # 1
    frequency:   -0.4791006205
  - # 2
    frequency:    0.3332391371
  - # 3
    frequency:    0.5755907216
  - # 4
    frequency:    0.9018128290
  - # 5
    frequency:    1.3456201880
  - # 6
    frequency:    1.6261665466
  - # 7
    frequency:    2.0990532296
  - # 8
    frequency:    4.6145294302
  - # 9
    frequency:    4.8079627204
  - # 10
    frequency:    5.6677546683
  - # 11
    frequency:    6.2515192881
  - # 12
    frequency:    6.3988129995
  - # 13
    frequency:    7.6347799022
  - # 14
    frequency:    7.8217663829
  - # 15
    frequency:    8.4479104439
  - # 16
    frequency:    9.1052166566
  - # 17
    frequency:   13.9055464552
  - # 18
    frequency:   13.9507331559
  - # 19
    frequency:   16.1330286707
  - # 20
    frequency:   17.1564806401
  - # 21
    frequency:   17.2232075749
  - # 22
    frequency:   31.6860565990
  - # 23
    frequency:   60.8259074490
  - # 24
    frequency:   67.6455720324

- q-position: [    0.1010101,    0.0000000,    0.0000000 ]
  distance:    0.0343745
  band:
  - # 1
    frequency:   -0.5188047508
  - # 2
    frequency:    0.3227354347
  - # 3
    frequency:    0.6216966152
  - # 4
    frequency:    0.9448017446
  - # 5
    frequency:    1.3519116146
  - # 6
    frequency:    1.6622094730
  - # 7
    frequency:    2.1954986587
  - # 8
    frequency:    4.6134355236
  - # 9
    frequency:    4.8248184248
  - # 10
    frequency:    5.6644978726
  - # 11
    frequency:    6.2519446944
  - # 12
    frequency:    6.4116481494
  - # 13
    frequency:    7.6350188393
  - # 14
    frequency:    7.8392817170
  - # 15
    frequency:    8.4448971661
  - # 16
    frequency:    9.0906829035
  - # 17
    frequency:   13.9069944104
  - # 18
    frequency:   13.9566405083
  - # 19
    frequency:   16.1237356114
  - # 20
    frequency:   17.1415880908
  - # 21
    frequency:   17.2135438847
  - # 22
    frequency:   31.6721660181
  - # 23
    frequency:   60.8240558815
  - # 24
    frequency:   67.6383469016

- q-position: [    0.1060606,    0.0000000,    0.0000000 ]
  distance:    0.0360932
  band:
  - # 1
    frequency:   -0.5573366660
  - # 2
    frequency:    0.3077761505
  - # 3
    frequency:    0.6709903432
  - # 4
    frequency:    0.9855424880
  - # 5
    frequency:    1.3618091844
  - # 6
    frequency:    1.6976169238
  - # 7
    frequency:    2.2924773723
  - # 8
    frequency:    4.6125862650
  - # 9
    frequency:    4.8422427236
  - # 10
    frequency:    5.6616308036
  - # 11
    frequency:    6.2523871516
  - # 12
    frequency:    6.4245354186
  - # 13
    frequency:    7.6351264922
  - # 14
    frequency:    7.8569397936
  - # 15
    frequency:    8.4420197636
  - # 16
    frequency:    9.0754788478
  - # 17
    frequency:   13.9085238708
  - # 18
    frequency:   13.9627726575
  - # 19
    frequency:   16.1140274600
  - # 20
    frequency:   17.1263192367
  - # 21
    frequency:   17.2034206743
  - # 22
    frequency:   31.6577863893
  - # 23
    frequency:   60.8221345815
  - # 24
    frequency:   67.6308526039

- q-position: [    0.1111111,    0.0000000,    0.0000000 ]
  distance:    0.0378119
  band:
  - # 1
    frequency:   -0.5948448138
  - # 2
    frequency:    0.2884204474
  - # 3
    frequency:    0.7227640613
  - # 4
    frequency:    1.0229516647
  - # 5
    frequency:    1.3764153447
  - # 6
    frequency:    1.7327928913
  - # 7
    frequency:    2.3894266640
  - # 8
    frequency:    4.6120138859
  - # 9
    frequency:    4.8601925611
  - # 10
    frequency:    5.6592066044
  - # 11
    frequency:    6.2528415351
  - # 12
    frequency:    6.4374099794
  - # 13
    frequency:    7.6350889635
  - # 14
    frequency:    7.8746345318
  - # 15
    frequency:    8.4393289817
  - # 16
    frequency:    9.0596237626
  - # 17
    frequency:   13.9101341658
  - # 18
    frequency:   13.9691172485
  - # 19
    frequency:   16.1039135542
  - # 20
    frequency:   17.1107277404
  - # 21
    frequency:   17.1928547928
  - # 22
    frequency:   31.6429482568
  - # 23
    frequency:   60.8201470004
  - # 24
    frequency:   67.6231029264

- q-position: [    0.1161616,    0.0000000,    0.0000000 ]
  distance:    0.0395306
  band:
  - # 1
    frequency:   -0.6314356343
  - # 2
    frequency:    0.2641956952
  - # 3
    frequency:    0.7765753458
  - # 4
    frequency:    1.0559227456
  - # 5
    frequency:    1.3968603060
  - # 6
    frequency:    1.7679847620
  - # 7
    frequency:    2.4859358589
  - # 8
    frequency:    4.6117495776
  - # 9
    frequency:    4.8786256730
  - # 10
    frequency:    5.6572764416
  - # 11
    frequency:    6.2533014978
  - # 12
    frequency:    6.4502079657
  - # 13
    frequency:    7.6348932646
  - # 14
    frequency:    7.8922559874
  - # 15
    frequency:    8.4368790056
  - # 16
    frequency:    9.0431399574
  - # 17
    frequency:   13.9118242808
  - # 18
    frequency:   13.9756613059
  - # 19
    frequency:   16.0934039513
  - # 20
    frequency:   17.0948688303
  - # 21
    frequency:   17.1818653621
  - # 22
    frequency:   31.6276829551
  - # 23
    frequency:   60.8180966806
  - # 24
    frequency:   67.6151120033

- q-position: [    0.1212121,    0.0000000,    0.0000000 ]
  distance:    0.0412494
  band:
  - # 1
    frequency:   -0.6671858808
  - # 2
    frequency:    0.2339620049
  - # 3
    frequency:    0.8321248680
  - # 4
    frequency:    1.0836181325
  - # 5
    frequency:    1.4240072072
  - # 6
    frequency:    1.8033450556
  - # 7
    frequency:    2.5816837727
  - # 8
    frequency:    4.6118232246
  - # 9
    frequency:    4.8975015031
  - # 10
    frequency:    5.6558892721
  - # 11
    frequency:    6.2537594081
  - # 12
    frequency:    6.4628668322
  - # 13
    frequency:    7.6345274694
  - # 14
    frequency:    7.9096906711
  - # 15
    frequency:    8.4347270142
  - # 16
    frequency:    9.0260531909
  - # 17
    frequency:   13.9135928476
  - # 18
    frequency:   13.9823912676
  - # 19
    frequency:   16.0825095130
  - # 20
    frequency:   17.0787991550
  - # 21
    frequency:   17.1704736393
  - # 22
    frequency:   31.6120225169
  - # 23
    frequency:   60.8159872462
  - # 24
    frequency:   67.6068942762

- q-position: [    0.1262626,    0.0000000,    0.0000000 ]
  distance:    0.0429681
  band:
  - # 1
    frequency:   -0.7021507077
  - # 2
    frequency:    0.1952800912
  - # 3
    frequency:    0.8891929981
  - # 4
    frequency:    1.1057791578
  - # 5
    frequency:    1.4581400770
  - # 6
    frequency:    1.8389672204
  - # 7
    frequency:    2.6764022796
  - # 8
    frequency:    4.6122631352
  - # 9
    frequency:    4.9167821714
  - # 10
    frequency:    5.6550916074
  - # 11
    frequency:    6.2542063109
  - # 12
    frequency:    6.4753257456
  - # 13
    frequency:    7.6339808617
  - # 14
    frequency:    7.9268220780
  - # 15
    frequency:    8.4329323871
  - # 16
    frequency:    9.0083931673
  - # 17
    frequency:   13.9154381396
  - # 18
    frequency:   13.9892930269
  - # 19
    frequency:   16.0712419920
  - # 20
    frequency:   17.0625766317
  - # 21
    frequency:   17.1587028319
  - # 22
    frequency:   31.5959995775
  - # 23
    frequency:   60.8138223928
  - # 24
    frequency:   67.5984644529

- q-position: [    0.1313131,    0.0000000,    0.0000000 ]
  distance:    0.0446868
  band:
  - # 1
    frequency:   -0.7363692052
  - # 2
    frequency:    0.1417811491
  - # 3
    frequency:    0.9476066061
  - # 4
    frequency:    1.1228158357
  - # 5
    frequency:    1.4988725249
  - # 6
    frequency:    1.8749067866
  - # 7
    frequency:    2.7698547008
  - # 8
    frequency:    4.6130957688
  - # 9
    frequency:    4.9364334642
  - # 10
    frequency:    5.6549272754
  - # 11
    frequency:    6.2546319178
  - # 12
    frequency:    6.4875260069
  - # 13
    frequency:    7.6332440763
  - # 14
    frequency:    7.9435315224
  - # 15
    frequency:    8.4315554386
  - # 16
    frequency:    8.9901941445
  - # 17
    frequency:   13.9173580738
  - # 18
    frequency:   13.9963519805
  - # 19
    frequency:   16.0596141161
  - # 20
    frequency:   17.0462602869
  - # 21
    frequency:   17.1465778675
  - # 22
    frequency:   31.5796472772
  - # 23
    frequency:   60.8116058778
  - # 24
    frequency:   67.5898374668

- q-position: [    0.1363636,    0.0000000,    0.0000000 ]
  distance:    0.0464055
  band:
  - # 1
    frequency:   -0.7698683238
  - # 2
    frequency:    0.0274102268
  - # 3
    frequency:    1.0072210968
  - # 4
    frequency:    1.1355992960
  - # 5
    frequency:    1.5453540693
  - # 6
    frequency:    1.9111941856
  - # 7