nqpoint: 300    
npath: 3      
segment_nqpoint:
- 100
- 100
- 100
labels:
- [ 'G', 'M' ]
- [ 'M', 'K' ]
- [ 'K', 'G' ]
reciprocal_lattice:
- [   0.29471472,   0.17015362,   0.00000000 ] # a*
- [   0.00000000,   0.34030725,   0.00000000 ] # b*
- [   0.00000000,   0.00000000,   0.03695159 ] # c*
natom: 8      
lattice:
- [     3.393111800249161,     0.000000000000000,     0.000000000000000 ] # a
- [    -1.696555900124580,     2.938521016889935,     0.000000000000000 ] # b
- [     0.000000000000000,     0.000000000000000,    27.062436130567058 ] # c
points:
- symbol: C # 1
  coordinates: [  0.000000000000000,  0.000000000000000,  0.521213878372339 ]
  mass: 12.010700
- symbol: C # 2
  coordinates: [  0.333332985432215,  0.666666983183674,  0.622923696966538 ]
  mass: 12.010700
- symbol: C # 3
  coordinates: [  0.666666984744048,  0.333332985985145,  0.376477473867283 ]
  mass: 12.010700
- symbol: N # 4
  coordinates: [  0.333332985432215,  0.666666983183674,  0.667435704731900 ]
  mass: 14.006700
- symbol: N # 5
  coordinates: [  0.666666984744048,  0.333332985985145,  0.332564295268100 ]
  mass: 14.006700
- symbol: O # 6
  coordinates: [  0.666666984744048,  0.333332985985145,  0.425849089172850 ]
  mass: 15.999400
- symbol: Zr # 7
  coordinates: [  0.333332985432215,  0.666666983183674,  0.476852407794899 ]
  mass: 91.224000
- symbol: Zr # 8
  coordinates: [  0.666666984744048,  0.333332985985145,  0.567977900037929 ]
  mass: 91.224000

phonon:
- q-position: [    0.0000000,    0.0000000,    0.0000000 ]
  distance:    0.0000000
  band:
  - # 1
    frequency:   -2.2350157405
  - # 2
    frequency:   -2.2350157405
  - # 3
    frequency:   -0.9071845999
  - # 4
    frequency:   -0.9071845999
  - # 5
    frequency:   -0.0000022572
  - # 6
    frequency:    0.0000003980
  - # 7
    frequency:    0.0000022751
  - # 8
    frequency:    4.6699199698
  - # 9
    frequency:    4.6699199698
  - # 10
    frequency:    5.7665480895
  - # 11
    frequency:    5.9896522990
  - # 12
    frequency:    5.9896522990
  - # 13
    frequency:    7.2293397437
  - # 14
    frequency:    7.2293397437
  - # 15
    frequency:    8.5080293576
  - # 16
    frequency:    9.1206881232
  - # 17
    frequency:   13.8876651979
  - # 18
    frequency:   13.8876651979
  - # 19
    frequency:   16.1796547435
  - # 20
    frequency:   16.2888075988
  - # 21
    frequency:   16.2888075988
  - # 22
    frequency:   31.8876041733
  - # 23
    frequency:   60.8387663166
  - # 24
    frequency:   67.7346701323

- q-position: [    0.0050505,    0.0000000,    0.0000000 ]
  distance:    0.0017187
  band:
  - # 1
    frequency:   -2.2339087227
  - # 2
    frequency:   -2.2331442099
  - # 3
    frequency:   -0.9063344783
  - # 4
    frequency:   -0.9044562564
  - # 5
    frequency:   -0.2643148974
  - # 6
    frequency:    0.0743668576
  - # 7
    frequency:    0.2865698468
  - # 8
    frequency:    4.6700530143
  - # 9
    frequency:    4.6705459225
  - # 10
    frequency:    5.7663036770
  - # 11
    frequency:    5.9902457982
  - # 12
    frequency:    5.9909838222
  - # 13
    frequency:    7.2300430404
  - # 14
    frequency:    7.2307538508
  - # 15
    frequency:    8.5079252001
  - # 16
    frequency:    9.1205525175
  - # 17
    frequency:   13.8877288996
  - # 18
    frequency:   13.8878873091
  - # 19
    frequency:   16.1793283310
  - # 20
    frequency:   16.2906646639
  - # 21
    frequency:   16.2907978869
  - # 22
    frequency:   31.8870350289
  - # 23
    frequency:   60.8387274273
  - # 24
    frequency:   67.7344181054

- q-position: [    0.0101010,    0.0000000,    0.0000000 ]
  distance:    0.0034374
  band:
  - # 1
    frequency:   -2.2305959948
  - # 2
    frequency:   -2.2275383714
  - # 3
    frequency:   -0.9037923226
  - # 4
    frequency:   -0.8962576071
  - # 5
    frequency:   -0.3586325464
  - # 6
    frequency:    0.1487696203
  - # 7
    frequency:    0.4216151159
  - # 8
    frequency:    4.6704531260
  - # 9
    frequency:    4.6724208973
  - # 10
    frequency:    5.7655806414
  - # 11
    frequency:    5.9920197494
  - # 12
    frequency:    5.9949551923
  - # 13
    frequency:    7.2321490018
  - # 14
    frequency:    7.2349895313
  - # 15
    frequency:    8.5076120625
  - # 16
    frequency:    9.1201447164
  - # 17
    frequency:   13.8879199402
  - # 18
    frequency:   13.8885529620
  - # 19
    frequency:   16.1783991961
  - # 20
    frequency:   16.2962194445
  - # 21
    frequency:   16.2967029903
  - # 22
    frequency:   31.8853296128
  - # 23
    frequency:   60.8386107515
  - # 24
    frequency:   67.7336627452

- q-position: [    0.0151515,    0.0000000,    0.0000000 ]
  distance:    0.0051562
  band:
  - # 1
    frequency:   -2.2251024134
  - # 2
    frequency:   -2.2182243761
  - # 3
    frequency:   -0.8995812481
  - # 4
    frequency:   -0.8825542372
  - # 5
    frequency:   -0.4209850015
  - # 6
    frequency:    0.2232371219
  - # 7
    frequency:    0.5368368106
  - # 8
    frequency:    4.6711231639
  - # 9
    frequency:    4.6755362762
  - # 10
    frequency:    5.7644076784
  - # 11
    frequency:    5.9949546739
  - # 12
    frequency:    6.0014991378
  - # 13
    frequency:    7.2356458361
  - # 14
    frequency:    7.2420267674
  - # 15
    frequency:    8.5070879833
  - # 16
    frequency:    9.1194617725
  - # 17
    frequency:   13.8882381189
  - # 18
    frequency:   13.8896601137
  - # 19
    frequency:   16.1769903336
  - # 20
    frequency:   16.3054228810
  - # 21
    frequency:   16.3063530977
  - # 22
    frequency:   31.8824939660
  - # 23
    frequency:   60.8384162670
  - # 24
    frequency:   67.7324062084

- q-position: [    0.0202020,    0.0000000,    0.0000000 ]
  distance:    0.0068749
  band:
  - # 1
    frequency:   -2.2174690121
  - # 2
    frequency:   -2.2052454435
  - # 3
    frequency:   -0.8937350830
  - # 4
    frequency:   -0.8633159907
  - # 5
    frequency:   -0.4651485278
  - # 6
    frequency:    0.2977853484
  - # 7
    frequency:    0.6439512792
  - # 8
    frequency:    4.6720676480
  - # 9
    frequency:    4.6798777991
  - # 10
    frequency:    5.7628270178
  - # 11
    frequency:    5.9990186316
  - # 12
    frequency:    6.0105105011
  - # 13
    frequency:    7.2405138707
  - # 14
    frequency:    7.2518318893
  - # 15
    frequency:    8.5063498050
  - # 16
    frequency:    9.1184987869
  - # 17
    frequency:   13.8886830762
  - # 18
    frequency:   13.8912053534
  - # 19
    frequency:   16.1752413003
  - # 20
    frequency:   16.3181938207
  - # 21
    frequency:   16.3195311529
  - # 22
    frequency:   31.8785381199
  - # 23
    frequency:   60.8381439390
  - # 24
    frequency:   67.7306520768

- q-position: [    0.0252525,    0.0000000,    0.0000000 ]
  distance:    0.0085936
  band:
  - # 1
    frequency:   -2.2077524209
  - # 2
    frequency:   -2.1886613152
  - # 3
    frequency:   -0.8862923951
  - # 4
    frequency:   -0.8385827803
  - # 5
    frequency:   -0.4962238444
  - # 6
    frequency:    0.3724138920
  - # 7
    frequency:    0.7472354008
  - # 8
    frequency:    4.6732924072
  - # 9
    frequency:    4.6854257178
  - # 10
    frequency:    5.7608882416
  - # 11
    frequency:    6.0041679813
  - # 12
    frequency:    6.0218543891
  - # 13
    frequency:    7.2467255318
  - # 14
    frequency:    7.2643571475
  - # 15
    frequency:    8.5053933406
  - # 16
    frequency:    9.1172489313
  - # 17
    frequency:   13.8892542590
  - # 18
    frequency:   13.8931838959
  - # 19
    frequency:   16.1732650905
  - # 20
    frequency:   16.3344199246
  - # 21
    frequency:   16.3360167612
  - # 22
    frequency:   31.8734760411
  - # 23
    frequency:   60.8377937234
  - # 24
    frequency:   67.7284053382

- q-position: [    0.0303030,    0.0000000,    0.0000000 ]
  distance:    0.0103123
  band:
  - # 1
    frequency:   -2.1960240755
  - # 2
    frequency:   -2.1685474924
  - # 3
    frequency:   -0.8772899183
  - # 4
    frequency:   -0.8086282613
  - # 5
    frequency:   -0.5160878838
  - # 6
    frequency:    0.4471049801
  - # 7
    frequency:    0.8487045013
  - # 8
    frequency:    4.6748041220
  - # 9
    frequency:    4.6921550068
  - # 10
    frequency:    5.7586427203
  - # 11
    frequency:    6.0103483967
  - # 12
    frequency:    6.0353743388
  - # 13
    frequency:    7.2542453276
  - # 14
    frequency:    7.2795401780
  - # 15
    frequency:    8.5042136042
  - # 16
    frequency:    9.1157034796
  - # 17
    frequency:   13.8899508763
  - # 18
    frequency:   13.8955895748
  - # 19
    frequency:   16.1711332623
  - # 20
    frequency:   16.3539589143
  - # 21
    frequency:   16.3556021432
  - # 22
    frequency:   31.8673255546
  - # 23
    frequency:   60.8373655718
  - # 24
    frequency:   67.7256723589

- q-position: [    0.0353535,    0.0000000,    0.0000000 ]
  distance:    0.0120311
  band:
  - # 1
    frequency:   -2.1823692388
  - # 2
    frequency:   -2.1449942676
  - # 3
    frequency:   -0.8667564731
  - # 4
    frequency:   -0.7743488603
  - # 5
    frequency:   -0.5243420058
  - # 6
    frequency:    0.5218248171
  - # 7
    frequency:    0.9494158844
  - # 8
    frequency:    4.6766097881
  - # 9
    frequency:    4.7000356271
  - # 10
    frequency:    5.7561397511
  - # 11
    frequency:    6.0174960908
  - # 12
    frequency:    6.0508992747
  - # 13
    frequency:    7.2630298508
  - # 14
    frequency:    7.2973034200
  - # 15
    frequency:    8.5028051046
  - # 16
    frequency:    9.1138518504
  - # 17
    frequency:   13.8907718479
  - # 18
    frequency:   13.8984148385
  - # 19
    frequency:   16.1688801483
  - # 20
    frequency:   16.3766401364
  - # 21
    frequency:   16.3780892855
  - # 22
    frequency:   31.8601082464
  - # 23
    frequency:   60.8368594371
  - # 24
    frequency:   67.7224608504

- q-position: [    0.0404040,    0.0000000,    0.0000000 ]
  distance:    0.0137498
  band:
  - # 1
    frequency:   -2.1668858589
  - # 2
    frequency:   -2.1181055648
  - # 3
    frequency:   -0.8547081106
  - # 4
    frequency:   -0.7380378883
  - # 5
    frequency:   -0.5178107427
  - # 6
    frequency:    0.5965265421
  - # 7
    frequency:    1.0499446791
  - # 8
    frequency:    4.6787161355
  - # 9
    frequency:    4.7090328384
  - # 10
    frequency:    5.7534245817
  - # 11
    frequency:    6.0255391986
  - # 12
    frequency:    6.0682489110
  - # 13
    frequency:    7.2730278127
  - # 14
    frequency:    7.3175535558
  - # 15
    frequency:    8.5011621986
  - # 16
    frequency:    9.1116816634
  - # 17
    frequency:   13.8917157522
  - # 18
    frequency:   13.9016507519
  - # 19
    frequency:   16.1665135102
  - # 20
    frequency:   16.4022664165
  - # 21
    frequency:   16.4032809091
  - # 22
    frequency:   31.8518493449
  - # 23
    frequency:   60.8362752808
  - # 24
    frequency:   67.7187798280

- q-position: [    0.0454545,    0.0000000,    0.0000000 ]
  distance:    0.0154685
  band:
  - # 1
    frequency:   -2.1496832958
  - # 2
    frequency:   -2.0879976203
  - # 3
    frequency:   -0.8411447223
  - # 4
    frequency:   -0.7040195373
  - # 5
    frequency:   -0.4895388164
  - # 6
    frequency:    0.6711539496
  - # 7
    frequency:    1.1505974483
  - # 8
    frequency:    4.6811290370
  - # 9
    frequency:    4.7191075510
  - # 10
    frequency:    5.7505379257
  - # 11
    frequency:    6.0343992608
  - # 12
    frequency:    6.0872378160
  - # 13
    frequency:    7.2841801263
  - # 14
    frequency:    7.3401810474
  - # 15
    frequency:    8.4992795017
  - # 16
    frequency:    9.1091788103
  - # 17
    frequency:   13.8927807745
  - # 18
    frequency:   13.9052870056
  - # 19
    frequency:   16.1640245946
  - # 20
    frequency:   16.4306161739
  - # 21
    frequency:   16.4309722775
  - # 22
    frequency:   31.8425775835
  - # 23
    frequency:   60.8356130813
  - # 24
    frequency:   67.7146395629

- q-position: [    0.0505051,    0.0000000,    0.0000000 ]
  distance:    0.0171872
  band:
  - # 1
    frequency:   -2.1308809488
  - # 2
    frequency:   -2.0547975456
  - # 3
    frequency:   -0.8260479260
  - # 4
    frequency:   -0.6764957416
  - # 5
    frequency:   -0.4294037680
  - # 6
    frequency:    0.7456452144
  - # 7
    frequency:    1.2515215539
  - # 8
    frequency:    4.6838529382
  - # 9
    frequency:    4.7302167123
  - # 10
    frequency:    5.7475163920
  - # 11
    frequency:    6.0439927549
  - # 12
    frequency:    6.1076785444
  - # 13
    frequency:    7.2964200546
  - # 14
    frequency:    7.3650598441
  - # 15
    frequency:    8.4971523550
  - # 16
    frequency:    9.1063275432
  - # 17
    frequency:   13.8939646615
  - # 18
    frequency:   13.9093119366
  - # 19
    frequency:   16.1613954226
  - # 20
    frequency:   16.4609459863
  - # 21
    frequency:   16.4614457608
  - # 22
    frequency:   31.8323250437
  - # 23
    frequency:   60.8348728426
  - # 24
    frequency:   67.7100515286

- q-position: [    0.0555556,    0.0000000,    0.0000000 ]
  distance:    0.0189060
  band:
  - # 1
    frequency:   -2.1106068207
  - # 2
    frequency:   -2.0186418319
  - # 3
    frequency:   -0.8093797524
  - # 4
    frequency:   -0.6551266117
  - # 5
    frequency:   -0.3222365977
  - # 6
    frequency:    0.8199361117
  - # 7
    frequency:    1.3527661620
  - # 8
    frequency:    4.6868903378
  - # 9
    frequency:    4.7423137152
  - # 10
    frequency:    5.7443933243
  - # 11
    frequency:    6.0542326184
  - # 12
    frequency:    6.1293841779
  - # 13
    frequency:    7.3096734361
  - # 14
    frequency:    7.3920473248
  - # 15
    frequency:    8.4947773443
  - # 16
    frequency:    9.1031105834
  - # 17
    frequency:   13.8952646839
  - # 18
    frequency:   13.9137125601
  - # 19
    frequency:   16.1586034092
  - # 20
    frequency:   16.4929696127
  - # 21
    frequency:   16.4944919934
  - # 22
    frequency:   31.8211269809
  - # 23
    frequency:   60.8340546047
  - # 24
    frequency:   67.7050283405

- q-position: [    0.0606061,    0.0000000,    0.0000000 ]
  distance:    0.0206247
  band:
  - # 1
    frequency:   -2.0889960551
  - # 2
    frequency:   -1.9796748707
  - # 3
    frequency:   -0.7910815363
  - # 4
    frequency:   -0.6360173104
  - # 5
    frequency:   -0.0602467067
  - # 6
    frequency:    0.8939624948
  - # 7
    frequency:    1.4543182014
  - # 8
    frequency:    4.6902413418
  - # 9
    frequency:    4.7553488237
  - # 10
    frequency:    5.7411997155
  - # 11
    frequency:    6.0650297195
  - # 12
    frequency:    6.1521704749
  - # 13
    frequency:    7.3238590038
  - # 14
    frequency:    7.4209845251
  - # 15
    frequency:    8.4921528725
  - # 16
    frequency:    9.0995092519
  - # 17
    frequency:   13.8966776092
  - # 18
    frequency:   13.9184746160
  - # 19
    frequency:   16.1556240408
  - # 20
    frequency:   16.5267954686
  - # 21
    frequency:   16.5294748366
  - # 22
    frequency:   31.8090216334
  - # 23
    frequency:   60.8331584543
  - # 24
    frequency:   67.6995836906

- q-position: [    0.0656566,    0.0000000,    0.0000000 ]
  distance:    0.0223434
  band:
  - # 1
    frequency:   -2.0661894813
  - # 2
    frequency:   -1.9380475643
  - # 3
    frequency:   -0.7710724026
  - # 4
    frequency:   -0.6154265953
  - # 5
    frequency:    0.3339948482
  - # 6
    frequency:    0.9676620132
  - # 7
    frequency:    1.5561243150
  - # 8
    frequency:    4.6939033104
  - # 9
    frequency:    4.7692696025
  - # 10
    frequency:    5.7379650187
  - # 11
    frequency:    6.0762942343
  - # 12
    frequency:    6.1758576976
  - # 13
    frequency:    7.3388888021
  - # 14
    frequency:    7.4516966749
  - # 15
    frequency:    8.4892797830
  - # 16
    frequency:    9.0955036263
  - # 17
    frequency:   13.8981996869
  - # 18
    frequency:   13.9235826290
  - # 19
    frequency:   16.1524323137
  - # 20
    frequency:   16.5621617266
  - # 21
    frequency:   16.5661002067
  - # 22
    frequency:   31.7960500162
  - # 23
    frequency:   60.8321845356
  - # 24
    frequency:   67.6937322774

- q-position: [    0.0707071,    0.0000000,    0.0000000 ]
  distance:    0.0240621
  band:
  - # 1
    frequency:   -2.0423322024
  - # 2
    frequency:   -1.8939160969
  - # 3
    frequency:   -0.7492467502
  - # 4
    frequency:   -0.5906404802
  - # 5
    frequency:    0.4888066578
  - # 6
    frequency:    1.0409751835
  - # 7
    frequency:    1.6581045746
  - # 8
    frequency:    4.6978706077
  - # 9
    frequency:    4.7840213444
  - # 10
    frequency:    5.7347177928
  - # 11
    frequency:    6.0879369000
  - # 12
    frequency:    6.2002721157
  - # 13
    frequency:    7.3546687104
  - # 14
    frequency:    7.4839940491
  - # 15
    frequency:    8.4861620380
  - # 16
    frequency:    9.0910727258
  - # 17
    frequency:   13.8998266457
  - # 18
    frequency:   13.9290199825
  - # 19
    frequency:   16.1490034445
  - # 20
    frequency:   16.5987943778
  - # 21
    frequency:   16.6040628559
  - # 22
    frequency:   31.7822557004
  - # 23
    frequency:   60.8311330629
  - # 24
    frequency:   67.6874897308

- q-position: [    0.0757576,    0.0000000,    0.0000000 ]
  distance:    0.0257809
  band:
  - # 1
    frequency:   -2.0175722540
  - # 2
    frequency:   -1.8474408985
  - # 3
    frequency:   -0.7254700939
  - # 4
    frequency:   -0.5594282226
  - # 5
    frequency:    0.6139379984
  - # 6
    frequency:    1.1138459771
  - # 7
    frequency:    1.7601612033
  - # 8
    frequency:    4.7021344613
  - # 9
    frequency:    4.7995474877
  - # 10
    frequency:    5.7314861809
  - # 11
    frequency:    6.0998701222
  - # 12
    frequency:    6.2252471556
  - # 13
    frequency:    7.3710990704
  - # 14
    frequency:    7.5176731025
  - # 15
    frequency:    8.4828074534
  - # 16
    frequency:    9.0861947264
  - # 17
    frequency:   13.9015537036
  - # 18
    frequency:   13.9347690064
  - # 19
    frequency:   16.1453131842
  - # 20
    frequency:   16.6364096623
  - # 21
    frequency:   16.6430493048
  - # 22
    frequency:   31.7676845803
  - # 23
    frequency:   60.8300043319
  - # 24
    frequency:   67.6808725337

- q-position: [    0.0808081,    0.0000000,    0.0000000 ]
  distance:    0.0274996
  band:
  - # 1
    frequency:   -1.9920593618
  - # 2
    frequency:   -1.7987857787
  - # 3
    frequency:   -0.6995724579
  - # 4
    frequency:   -0.5193975812
  - # 5
    frequency:    0.7242496390
  - # 6
    frequency:    1.1862220863
  - # 7
    frequency:    1.8621842178
  - # 8
    frequency:    4.7066829320
  - # 9
    frequency:    4.8157900163
  - # 10
    frequency:    5.7282982540
  - # 11
    frequency:    6.1120089239
  - # 12
    frequency:    6.2506241729
  - # 13
    frequency:    7.3880754143
  - # 14
    frequency:    7.5525178372
  - # 15
    frequency:    8.4792284974
  - # 16
    frequency:    9.0808472115
  - # 17
    frequency:   13.9033755891
  - # 18
    frequency:   13.9408110759
  - # 19
    frequency:   16.1413379316
  - # 20
    frequency:   16.6747167484
  - # 21
    frequency:   16.6827407887
  - # 22
    frequency:   31.7523846294
  - # 23
    frequency:   60.8287987320
  - # 24
    frequency:   67.6738979402

- q-position: [    0.0858586,    0.0000000,    0.0000000 ]
  distance:    0.0292183
  band:
  - # 1
    frequency:   -1.9659438165
  - # 2
    frequency:   -1.7481171118
  - # 3
    frequency:   -0.6713381160
  - # 4
    frequency:   -0.4672386598
  - # 5
    frequency:    0.8252956864
  - # 6
    frequency:    1.2580550002
  - # 7
    frequency:    1.9640551489
  - # 8
    frequency:    4.7115009884
  - # 9
    frequency:    4.8326898411
  - # 10
    frequency:    5.7251822571
  - # 11
    frequency:    6.1242717312
  - # 12
    frequency:    6.2762528495
  - # 13
    frequency:    7.4054892841
  - # 14
    frequency:    7.5883013230
  - # 15
    frequency:    8.4754431613
  - # 16
    frequency:    9.0750074580
  - # 17
    frequency:   13.9052865742
  - # 18
    frequency:   13.9471267217
  - # 19
    frequency:   16.1370547583
  - # 20
    frequency:   16.7134205186
  - # 21
    frequency:   16.7228161886
  - # 22
    frequency:   31.7364056464
  - # 23
    frequency:   60.8275167587
  - # 24
    frequency:   67.6665838909

- q-position: [    0.0909091,    0.0000000,    0.0000000 ]
  distance:    0.0309370
  band:
  - # 1
    frequency:   -1.9393754781
  - # 2
    frequency:   -1.6956028308
  - # 3
    frequency:   -0.6404896753
  - # 4
    frequency:   -0.3971853239
  - # 5
    frequency:    0.9198546715
  - # 6
    frequency:    1.3292999828
  - # 7
    frequency:    2.0656495433
  - # 8
    frequency:    4.7165706812
  - # 9
    frequency:    4.8501871589
  - # 10
    frequency:    5.7221667966
  - # 11
    frequency:    6.1365809989
  - # 12
    frequency:    6.3019912423
  - # 13
    frequency:    7.4232291299
  - # 14
    frequency:    7.6247872792
  - # 15
    frequency:    8.4714759138
  - # 16
    frequency:    9.0686527628
  - # 17
    frequency:   13.9072805156
  - # 18
    frequency:   13.9536957477
  - # 19
    frequency:   16.1324414080
  - # 20
    frequency:   16.7522243753
  - # 21
    frequency:   16.7629549157
  - # 22
    frequency:   31.7197989937
  - # 23
    frequency:   60.8261590254
  - # 24
    frequency:   67.6589489262

- q-position: [    0.0959596,    0.0000000,    0.0000000 ]
  distance:    0.0326557
  band:
  - # 1
    frequency:   -1.9125029183
  - # 2
    frequency:   -1.6414108511
  - # 3
    frequency:   -0.6066629163
  - # 4
    frequency:   -0.2956315344
  - # 5
    frequency:    1.0095381755
  - # 6
    frequency:    1.3999160140
  - # 7
    frequency:    2.1668386725
  - # 8
    frequency:    4.7218714042
  - # 9
    frequency:    4.8682217925
  - # 10
    frequency:    5.7192809953
  - # 11
    frequency:    6.1488636849
  - # 12
    frequency:    6.3277055341
  - # 13
    frequency:    7.4411812692
  - # 14
    frequency:    7.6617316138
  - # 15
    frequency:    8.4673587506
  - # 16
    frequency:    9.0617608105
  - # 17
    frequency:   13.9093509050
  - # 18
    frequency:   13.9604973554
  - # 19
    frequency:   16.1274762986
  - # 20
    frequency:   16.7908330097
  - # 21
    frequency:   16.8028397264
  - # 22
    frequency:   31.7026173295
  - # 23
    frequency:   60.8247262749
  - # 24
    frequency:   67.6510120983

- q-position: [    0.1010101,    0.0000000,    0.0000000 ]
  distance:    0.0343745
  band:
  - # 1
    frequency:   -1.8854726964
  - # 2
    frequency:   -1.5857064246
  - # 3
    frequency:   -0.5693655345
  - # 4
    frequency:   -0.0813513060
  - # 5
    frequency:    1.0953692492
  - # 6
    frequency:    1.4698657232
  - # 7
    frequency:    2.2674906995
  - # 8
    frequency:    4.7273802325
  - # 9
    frequency:    4.8867335151
  - # 10
    frequency:    5.7165546367
  - # 11
    frequency:    6.1610515861
  - # 12
    frequency:    6.3532695516
  - # 13
    frequency:    7.4592308909
  - # 14
    frequency:    7.6988838176
  - # 15
    frequency:    8.4631323513
  - # 16
    frequency:    9.0543100880
  - # 17
    frequency:   13.9114909255
  - # 18
    frequency:   13.9675102727
  - # 19
    frequency:   16.1221385437
  - # 20
    frequency:   16.8289550953
  - # 21
    frequency:   16.8421594425
  - # 22
    frequency:   31.6849143348
  - # 23
    frequency:   60.8232193904
  - # 24
    frequency:   67.6427928823

- q-position: [    0.1060606,    0.0000000,    0.0000000 ]
  distance:    0.0360932
  band:
  - # 1
    frequency:   -1.8584287630
  - # 2
    frequency:   -1.5286478794
  - # 3
    frequency:   -0.5279056889
  - # 4
    frequency:    0.2917432072
  - # 5
    frequency:    1.1780380431
  - # 6
    frequency:    1.5391153298
  - # 7
    frequency:    2.3674714520
  - # 8
    frequency:    4.7330723230
  - # 9
    frequency:    4.9056623669
  - # 10
    frequency:    5.7140183086
  - # 11
    frequency:    6.1730815523
  - # 12
    frequency:    6.3785641241
  - # 13
    frequency:    7.4772630835
  - # 14
    frequency:    7.7359881219
  - # 15
    frequency:    8.4588473487
  - # 16
    frequency:    9.0462803485
  - # 17
    frequency:   13.9136935127
  - # 18
    frequency:   13.9747128846
  - # 19
    frequency:   16.1164079968
  - # 20
    frequency:   16.8663058768
  - # 21
    frequency:   16.8806115562
  - # 22
    frequency:   31.6667444387
  - # 23
    frequency:   60.8216394062
  - # 24
    frequency:   67.6343110869

- q-position: [    0.1111111,    0.0000000,    0.0000000 ]
  distance:    0.0378119
  band:
  - # 1
    frequency:   -1.8315119751
  - # 2
    frequency:   -1.4703803057
  - # 3
    frequency:   -0.4812585069
  - # 4
    frequency:    0.4338526474
  - # 5
    frequency:    1.2580308710
  - # 6
    frequency:    1.6076345915
  - # 7
    frequency:    2.4666448884
  - # 8
    frequency:    4.7389213665
  - # 9
    frequency:    4.9249489764
  - # 10
    frequency:    5.7117035504
  - # 11
    frequency:    6.1848955964
  - # 12
    frequency:    6.4034763536
  - # 13
    frequency:    7.4951638678
  - # 14
    frequency:    7.7727843512
  - # 15
    frequency:    8.4545656989
  - # 16
    frequency:    9.0376531304
  - # 17
    frequency:   13.9159514198
  - # 18
    frequency:   13.9820833642
  - # 19
    frequency:   16.1102653198
  - # 20
    frequency:   16.9026096349
  - # 21
    frequency:   16.9179047028
  - # 22
    frequency:   31.6481625413
  - # 23
    frequency:   60.8199875173
  - # 24
    frequency:   67.6255867655

- q-position: [    0.1161616,    0.0000000,    0.0000000 ]
  distance:    0.0395306
  band:
  - # 1
    frequency:   -1.8048597058
  - # 2
    frequency:   -1.4110270441
  - # 3
    frequency:   -0.4277887961
  - # 4
    frequency:    0.5504867038
  - # 5
    frequency:    1.3357017747
  - # 6
    frequency:    1.6753967560
  - # 7
    frequency:    2.5648733082
  - # 8
    frequency:    4.7449000743
  - # 9
    frequency:    4.9445348989
  - # 10
    frequency:    5.7096430003
  - # 11
    frequency:    6.1964409177
  - # 12
    frequency:    6.4278988641
  - # 13
    frequency:    7.5128212160
  - # 14
    frequency:    7.8090084503
  - # 15
    frequency:    8.4503621109
  - # 16
    frequency:    9.0284123387
  - # 17
    frequency:   13.9182572852
  - # 18
    frequency:   13.9895998028
  - # 19
    frequency:   16.1036920730
  - # 20
    frequency:   16.9376020071
  - # 21
    frequency:   16.9537609849
  - # 22
    frequency:   31.6292237376
  - # 23
    frequency:   60.8182650875
  - # 24
    frequency:   67.6166401280

- q-position: [    0.1212121,    0.0000000,    0.0000000 ]
  distance:    0.0412494
  band:
  - # 1
    frequency:   -1.7786055229
  - # 2
    frequency:   -1.3506793167
  - # 3
    frequency:   -0.3645780890
  - # 4
    frequency:    0.6555242050
  - # 5
    frequency:    1.4113150736
  - # 6
    frequency:    1.7423785093
  - # 7
    frequency:    2.6620173468
  - # 8
    frequency:    4.7509806916
  - # 9
    frequency:    4.9643629901
  - # 10
    frequency:    5.7078705325
  - # 11
    frequency:    6.2076698574
  - # 12
    frequency:    6.4517290883
  - # 13
    frequency:    7.5301260390
  - # 14
    frequency:    7.8443927311
  - # 15
    frequency:    8.4463254281
  - # 16
    frequency:    9.0185448975
  - # 17
    frequency:   13.9206037009
  - # 18
    frequency:   13.9972403363
  - # 19
    frequency:   16.0966708239
  - # 20
    frequency:   16.9710321520
  - # 21
    frequency:   16.9879181359
  - # 22
    frequency:   31.6099830446
  - # 23
    frequency:   60.8164736579
  - # 24
    frequency:   67.6074914544

- q-position: [    0.1262626,    0.0000000,    0.0000000 ]
  distance:    0.0429681
  band:
  - # 1
    frequency:   -1.7528789143
  - # 2
    frequency:   -1.2893848616
  - # 3
    frequency:   -0.2853169824
  - # 4
    frequency:    0.7538456355
  - # 5
    frequency:    1.4850720700
  - # 6
    frequency:    1.8085599155
  - # 7
    frequency:    2.7579357841
  - # 8
    frequency:    4.7571355204
  - # 9
    frequency:    4.9843778364
  - # 10
    frequency:    5.7064213709
  - # 11
    frequency:    6.2185398010
  - # 12
    frequency:    6.4748686380
  - # 13
    frequency:    7.5469731287
  - # 14
    frequency:    7.8786660073
  - # 15
    frequency:    8.4425597537
  - # 16
    frequency:    9.0080414886
  - # 17
    frequency:   13.9229832811
  - # 18
    frequency:   14.0049832679
  - # 19
    frequency:   16.0891852708
  - # 20
    frequency:   17.0026647430
  - # 21
    frequency:   17.0201315124
  - # 22
    frequency:   31.5904951307
  - # 23
    frequency:   60.8146149525
  - # 24
    frequency:   67.5981610104

- q-position: [    0.1313131,    0.0000000,    0.0000000 ]
  distance:    0.0446868
  band:
  - # 1
    frequency:   -1.7278050334
  - # 2
    frequency:   -1.2271367276
  - # 3
    frequency:   -0.1688938142
  - # 4
    frequency:    0.8477159404
  - # 5
    frequency:    1.5571285502
  - # 6
    frequency:    1.8739243426
  - # 7
    frequency:    2.8524851982
  - # 8
    frequency:    4.7633374455
  - # 9
    frequency:    5.0045262606
  - # 10
    frequency:    5.7053321602
  - # 11
    frequency:    6.2290130427
  - # 12
    frequency:    6.4972227973
  - # 13
    frequency:    7.5632620404
  - # 14
    frequency:    7.9115539579
  - # 15
    frequency:    8.4391849348
  - # 16
    frequency:    8.9968973930
  - # 17
    frequency:   13.9253887303
  - # 18
    frequency:   14.0128071859
  - # 19
    frequency:   16.0812203781
  - # 20
    frequency:   17.0322817816
  - # 21
    frequency:   17.0501759062
  - # 22
    frequency:   31.5708140525
  - # 23
    frequency:   60.8126908838
  - # 24
    frequency:   67.5886689648

- q-position: [    0.1363636,    0.0000000,    0.0000000 ]
  distance:    0.0464055
  band:
  - # 1
    frequency:   -1.7035044396
  - # 2
    frequency:   -1.1638631774
  - # 3
    frequency:    0.1602094468
  - # 4
    frequency:    0.9383271367
  - # 5
    frequency:    1.6276066675
  - # 6
    frequency:    1.9384583728
  - # 7