nqpoint: 300    
npath: 3      
segment_nqpoint:
- 100
- 100
- 100
labels:
- [ 'G', 'M' ]
- [ 'M', 'K' ]
- [ 'K', 'G' ]
reciprocal_lattice:
- [   0.31226470,   0.18028611,   0.00000000 ] # a*
- [   0.00000000,   0.36057221,   0.00000000 ] # b*
- [   0.00000000,   0.00000000,   0.03575499 ] # c*
natom: 9      
lattice:
- [     3.202411336921775,     0.000000000000000,     0.000000000000000 ] # a
- [    -1.601205668460887,     2.773369571139687,     0.000000000000000 ] # b
- [     0.000000000000000,     0.000000000000000,    27.968125518686442 ] # c
points:
- symbol: C # 1
  coordinates: [  0.333332985432215,  0.666666983183674,  0.635138728960496 ]
  mass: 12.010700
- symbol: C # 2
  coordinates: [  0.666666984744047,  0.333332985985145,  0.377202972945206 ]
  mass: 12.010700
- symbol: N # 3
  coordinates: [  0.000000000000000,  0.000000000000000,  0.506037877136536 ]
  mass: 14.006700
- symbol: N # 4
  coordinates: [  0.333332985432215,  0.666666983183674,  0.590583933831348 ]
  mass: 14.006700
- symbol: N # 5
  coordinates: [  0.666666984744047,  0.333332985985145,  0.422007283300931 ]
  mass: 14.006700
- symbol: O # 6
  coordinates: [  0.333332985432215,  0.666666983183674,  0.678205105523186 ]
  mass: 15.999400
- symbol: S # 7
  coordinates: [  0.666666984744047,  0.333332985985145,  0.321794894476814 ]
  mass: 32.065000
- symbol: Ti # 8
  coordinates: [  0.333332985432215,  0.666666983183674,  0.467881152930461 ]
  mass: 47.867000
- symbol: Ti # 9
  coordinates: [  0.666666984744047,  0.333332985985145,  0.542772970013600 ]
  mass: 47.867000

phonon:
- q-position: [    0.0000000,    0.0000000,    0.0000000 ]
  distance:    0.0000000
  band:
  - # 1
    frequency:   -1.0700439095
  - # 2
    frequency:   -1.0700439095
  - # 3
    frequency:   -0.0000016970
  - # 4
    frequency:   -0.0000013794
  - # 5
    frequency:   -0.0000006602
  - # 6
    frequency:    0.8979705099
  - # 7
    frequency:    0.8979705099
  - # 8
    frequency:    5.0110064472
  - # 9
    frequency:    5.0110064472
  - # 10
    frequency:    5.6398874976
  - # 11
    frequency:    7.4753175595
  - # 12
    frequency:    7.4753175595
  - # 13
    frequency:    8.3492179844
  - # 14
    frequency:    8.3492179844
  - # 15
    frequency:    8.8606323431
  - # 16
    frequency:   11.8986806512
  - # 17
    frequency:   13.9897715949
  - # 18
    frequency:   13.9897715949
  - # 19
    frequency:   15.7182161414
  - # 20
    frequency:   17.1824409967
  - # 21
    frequency:   17.1824409967
  - # 22
    frequency:   17.2620575118
  - # 23
    frequency:   17.2620575118
  - # 24
    frequency:   27.4295075688
  - # 25
    frequency:   38.5615834485
  - # 26
    frequency:   57.6580657469
  - # 27
    frequency:   69.3699774653

- q-position: [    0.0050505,    0.0000000,    0.0000000 ]
  distance:    0.0018211
  band:
  - # 1
    frequency:   -1.0690365872
  - # 2
    frequency:   -1.0669988913
  - # 3
    frequency:   -0.1900781751
  - # 4
    frequency:    0.0844582401
  - # 5
    frequency:    0.2347655414
  - # 6
    frequency:    0.9002872704
  - # 7
    frequency:    0.9060611142
  - # 8
    frequency:    5.0111559391
  - # 9
    frequency:    5.0117733250
  - # 10
    frequency:    5.6395402807
  - # 11
    frequency:    7.4751571964
  - # 12
    frequency:    7.4763614907
  - # 13
    frequency:    8.3490526641
  - # 14
    frequency:    8.3498665428
  - # 15
    frequency:    8.8602525395
  - # 16
    frequency:   11.8974583268
  - # 17
    frequency:   13.9898033229
  - # 18
    frequency:   13.9901564445
  - # 19
    frequency:   15.7180755020
  - # 20
    frequency:   17.1821329824
  - # 21
    frequency:   17.1824664529
  - # 22
    frequency:   17.2621854092
  - # 23
    frequency:   17.2624907358
  - # 24
    frequency:   27.4293531714
  - # 25
    frequency:   38.5615579407
  - # 26
    frequency:   57.6570230891
  - # 27
    frequency:   69.3683610965

- q-position: [    0.0101010,    0.0000000,    0.0000000 ]
  distance:    0.0036421
  band:
  - # 1
    frequency:   -1.0660370343
  - # 2
    frequency:   -1.0578989148
  - # 3
    frequency:   -0.2399557828
  - # 4
    frequency:    0.1688355585
  - # 5
    frequency:    0.3654783988
  - # 6
    frequency:    0.9072336322
  - # 7
    frequency:    0.9299529310
  - # 8
    frequency:    5.0116041205
  - # 9
    frequency:    5.0140712823
  - # 10
    frequency:    5.6385037604
  - # 11
    frequency:    7.4746771489
  - # 12
    frequency:    7.4794835868
  - # 13
    frequency:    8.3485564796
  - # 14
    frequency:    8.3518088201
  - # 15
    frequency:    8.8591174882
  - # 16
    frequency:   11.8937943750
  - # 17
    frequency:   13.9898985908
  - # 18
    frequency:   13.9913103848
  - # 19
    frequency:   15.7176514249
  - # 20
    frequency:   17.1812121361
  - # 21
    frequency:   17.1825425896
  - # 22
    frequency:   17.2625680203
  - # 23
    frequency:   17.2637897046
  - # 24
    frequency:   27.4288902726
  - # 25
    frequency:   38.5614815120
  - # 26
    frequency:   57.6538971524
  - # 27
    frequency:   69.3635168435

- q-position: [    0.0151515,    0.0000000,    0.0000000 ]
  distance:    0.0054632
  band:
  - # 1
    frequency:   -1.0611090577
  - # 2
    frequency:   -1.0428311574
  - # 3
    frequency:   -0.2605006133
  - # 4
    frequency:    0.2530198796
  - # 5
    frequency:    0.4888229310
  - # 6
    frequency:    0.9188020761
  - # 7
    frequency:    0.9686327763
  - # 8
    frequency:    5.0123501161
  - # 9
    frequency:    5.0178922614
  - # 10
    frequency:    5.6367932707
  - # 11
    frequency:    7.4738805311
  - # 12
    frequency:    7.4846549418
  - # 13
    frequency:    8.3477287659
  - # 14
    frequency:    8.3550344532
  - # 15
    frequency:    8.8572404010
  - # 16
    frequency:   11.8876978536
  - # 17
    frequency:   13.9900576493
  - # 18
    frequency:   13.9932315895
  - # 19
    frequency:   15.7169374874
  - # 20
    frequency:   17.1796881874
  - # 21
    frequency:   17.1826687001
  - # 22
    frequency:   17.2632021192
  - # 23
    frequency:   17.2659521142
  - # 24
    frequency:   27.4281197520
  - # 25
    frequency:   38.5613544460
  - # 26
    frequency:   57.6486940384
  - # 27
    frequency:   69.3554592430

- q-position: [    0.0202020,    0.0000000,    0.0000000 ]
  distance:    0.0072843
  band:
  - # 1
    frequency:   -1.0543482891
  - # 2
    frequency:   -1.0218875242
  - # 3
    frequency:   -0.2634340357
  - # 4
    frequency:    0.3368382872
  - # 5
    frequency:    0.6110837436
  - # 6
    frequency:    0.9349940663
  - # 7
    frequency:    1.0207643756
  - # 8
    frequency:    5.0133924932
  - # 9
    frequency:    5.0232227292
  - # 10
    frequency:    5.6344341853
  - # 11
    frequency:    7.4727724967
  - # 12
    frequency:    7.4918279933
  - # 13
    frequency:    8.3465684347
  - # 14
    frequency:    8.3595255983
  - # 15
    frequency:    8.8546437516
  - # 16
    frequency:   11.8791838377
  - # 17
    frequency:   13.9902809149
  - # 18
    frequency:   13.9959170172
  - # 19
    frequency:   15.7159231685
  - # 20
    frequency:   17.1775777221
  - # 21
    frequency:   17.1828435720
  - # 22
    frequency:   17.2640823865
  - # 23
    frequency:   17.2689735767
  - # 24
    frequency:   27.4270430745
  - # 25
    frequency:   38.5611772139
  - # 26
    frequency:   57.6414238909
  - # 27
    frequency:   69.3442124420

- q-position: [    0.0252525,    0.0000000,    0.0000000 ]
  distance:    0.0091054
  band:
  - # 1
    frequency:   -1.0458685074
  - # 2
    frequency:   -0.9951043929
  - # 3
    frequency:   -0.2522358663
  - # 4
    frequency:    0.4200297998
  - # 5
    frequency:    0.7331645227
  - # 6
    frequency:    0.9558404415
  - # 7
    frequency:    1.0850323348
  - # 8
    frequency:    5.0147293001
  - # 9
    frequency:    5.0300435154
  - # 10
    frequency:    5.6314616768
  - # 11
    frequency:    7.4713601854
  - # 12
    frequency:    7.5009374153
  - # 13
    frequency:    8.3450740049
  - # 14
    frequency:    8.3652560322
  - # 15
    frequency:    8.8513599946
  - # 16
    frequency:   11.8682733876
  - # 17
    frequency:   13.9905689671
  - # 18
    frequency:   13.9993624127
  - # 19
    frequency:   15.7145941218
  - # 20
    frequency:   17.1749044633
  - # 21
    frequency:   17.1830654389
  - # 22
    frequency:   17.2652014912
  - # 23
    frequency:   17.2728470721
  - # 24
    frequency:   27.4256622879
  - # 25
    frequency:   38.5609504721
  - # 26
    frequency:   57.6321008569
  - # 27
    frequency:   69.3298100786

- q-position: [    0.0303030,    0.0000000,    0.0000000 ]
  distance:    0.0109264
  band:
  - # 1
    frequency:   -1.0357866119
  - # 2
    frequency:   -0.9624061680
  - # 3
    frequency:   -0.2263619997
  - # 4
    frequency:    0.5022213041
  - # 5
    frequency:    0.8544250780
  - # 6
    frequency:    0.9814281050
  - # 7
    frequency:    1.1603917492
  - # 8
    frequency:    5.0163581192
  - # 9
    frequency:    5.0383295675
  - # 10
    frequency:    5.6279204446
  - # 11
    frequency:    7.4696526477
  - # 12
    frequency:    7.5119013184
  - # 13
    frequency:    8.3432436433
  - # 14
    frequency:    8.3721898162
  - # 15
    frequency:    8.8474326543
  - # 16
    frequency:   11.8549935049
  - # 17
    frequency:   13.9909225456
  - # 18
    frequency:   14.0035623110
  - # 19
    frequency:   15.7129325539
  - # 20
    frequency:   17.1716993042
  - # 21
    frequency:   17.1833319162
  - # 22
    frequency:   17.2665502015
  - # 23
    frequency:   17.2775625439
  - # 24
    frequency:   27.4239800206
  - # 25
    frequency:   38.5606750596
  - # 26
    frequency:   57.6207430327
  - # 27
    frequency:   69.3122951142

- q-position: [    0.0353535,    0.0000000,    0.0000000 ]
  distance:    0.0127475
  band:
  - # 1
    frequency:   -1.0242089737
  - # 2
    frequency:   -0.9235609146
  - # 3
    frequency:   -0.1801398209
  - # 4
    frequency:    0.5829087502
  - # 5
    frequency:    0.9736818226
  - # 6
    frequency:    1.0119288196
  - # 7
    frequency:    1.2461401159
  - # 8
    frequency:    5.0182761331
  - # 9
    frequency:    5.0480496056
  - # 10
    frequency:    5.6238644713
  - # 11
    frequency:    7.4676607510
  - # 12
    frequency:    7.5246227082
  - # 13
    frequency:    8.3410752165
  - # 14
    frequency:    8.3802794314
  - # 15
    frequency:    8.8429178703
  - # 16
    frequency:   11.8393770767
  - # 17
    frequency:   13.9913425453
  - # 18
    frequency:   14.0085100422
  - # 19
    frequency:   15.7109177056
  - # 20
    frequency:   17.1679999982
  - # 21
    frequency:   17.1836399273
  - # 22
    frequency:   17.2681175180
  - # 23
    frequency:   17.2831067363
  - # 24
    frequency:   27.4219994777
  - # 25
    frequency:   38.5603519931
  - # 26
    frequency:   57.6073723955
  - # 27
    frequency:   69.2917196211

- q-position: [    0.0404040,    0.0000000,    0.0000000 ]
  distance:    0.0145686
  band:
  - # 1
    frequency:   -1.0112211394
  - # 2
    frequency:   -0.8781448197
  - # 3
    frequency:   -0.0842506140
  - # 4
    frequency:    0.6614513188
  - # 5
    frequency:    1.0476194553
  - # 6
    frequency:    1.0897239173
  - # 7
    frequency:    1.3417486287
  - # 8
    frequency:    5.0204802037
  - # 9
    frequency:    5.0591656488
  - # 10
    frequency:    5.6193568811
  - # 11
    frequency:    7.4653970661
  - # 12
    frequency:    7.5389911497
  - # 13
    frequency:    8.3385663533
  - # 14
    frequency:    8.3894632673
  - # 15
    frequency:    8.8378865262
  - # 16
    frequency:   11.8214628089
  - # 17
    frequency:   13.9918300112
  - # 18
    frequency:   14.0141977373
  - # 19
    frequency:   15.7085264274
  - # 20
    frequency:   17.1638505288
  - # 21
    frequency:   17.1839856229
  - # 22
    frequency:   17.2698908276
  - # 23
    frequency:   17.2894632548
  - # 24
    frequency:   27.4197244359
  - # 25
    frequency:   38.5599824630
  - # 26
    frequency:   57.5920147203
  - # 27
    frequency:   69.2681445245

- q-position: [    0.0454545,    0.0000000,    0.0000000 ]
  distance:    0.0163896
  band:
  - # 1
    frequency:   -0.9968816950
  - # 2
    frequency:   -0.8255024105
  - # 3
    frequency:    0.1589767449
  - # 4
    frequency:    0.7370979683
  - # 5
    frequency:    1.0888711987
  - # 6
    frequency:    1.2017924978
  - # 7
    frequency:    1.4464810932
  - # 8
    frequency:    5.0229669609
  - # 9
    frequency:    5.0716323756
  - # 10
    frequency:    5.6144699847
  - # 11
    frequency:    7.4628757377
  - # 12
    frequency:    7.5548845813
  - # 13
    frequency:    8.3357145139
  - # 14
    frequency:    8.3996623020
  - # 15
    frequency:    8.8324271277
  - # 16
    frequency:   11.8012951493
  - # 17
    frequency:   13.9923861317
  - # 18
    frequency:   14.0206163363
  - # 19
    frequency:   15.7057338441
  - # 20
    frequency:   17.1593002372
  - # 21
    frequency:   17.1843642966
  - # 22
    frequency:   17.2718560717
  - # 23
    frequency:   17.2966127780
  - # 24
    frequency:   27.4171592382
  - # 25
    frequency:   38.5595678273
  - # 26
    frequency:   57.5746994828
  - # 27
    frequency:   69.2416393013

- q-position: [    0.0505051,    0.0000000,    0.0000000 ]
  distance:    0.0182107
  band:
  - # 1
    frequency:   -0.9812199820
  - # 2
    frequency:   -0.7646797487
  - # 3
    frequency:    0.2557850240
  - # 4
    frequency:    0.8090780345
  - # 5
    frequency:    1.1360735196
  - # 6
    frequency:    1.3099061106
  - # 7
    frequency:    1.5590725254
  - # 8
    frequency:    5.0257329012
  - # 9
    frequency:    5.0853962662
  - # 10
    frequency:    5.6092856062
  - # 11
    frequency:    7.4601123386
  - # 12
    frequency:    7.5721712189
  - # 13
    frequency:    8.3325170693
  - # 14
    frequency:    8.4107757776
  - # 15
    frequency:    8.8266496375
  - # 16
    frequency:   11.7789242015
  - # 17
    frequency:   13.9930122312
  - # 18
    frequency:   14.0277555972
  - # 19
    frequency:   15.7025140962
  - # 20
    frequency:   17.1544027975
  - # 21
    frequency:   17.1847703006
  - # 22
    frequency:   17.2739979276
  - # 23
    frequency:   17.3045333412
  - # 24
    frequency:   27.4143087866
  - # 25
    frequency:   38.5591096053
  - # 26
    frequency:   57.5554597490
  - # 27
    frequency:   69.2122816386

- q-position: [    0.0555556,    0.0000000,    0.0000000 ]
  distance:    0.0200318
  band:
  - # 1
    frequency:   -0.9642366186
  - # 2
    frequency:   -0.6942856738
  - # 3
    frequency:    0.3383383241
  - # 4
    frequency:    0.8767757766
  - # 5
    frequency:    1.1894714133
  - # 6
    frequency:    1.4147579511
  - # 7
    frequency:    1.6778025364
  - # 8
    frequency:    5.0287744926
  - # 9
    frequency:    5.1003944554
  - # 10
    frequency:    5.6038958003
  - # 11
    frequency:    7.4571237105
  - # 12
    frequency:    7.5907114929
  - # 13
    frequency:    8.3289713849
  - # 14
    frequency:    8.4226756536
  - # 15
    frequency:    8.8206905033
  - # 16
    frequency:   11.7544056303
  - # 17
    frequency:   13.9937097610
  - # 18
    frequency:   14.0356041080
  - # 19
    frequency:   15.6988411451
  - # 20
    frequency:   17.1492151043
  - # 21
    frequency:   17.1851969620
  - # 22
    frequency:   17.2763000001
  - # 23
    frequency:   17.3132006375
  - # 24
    frequency:   27.4111785339
  - # 25
    frequency:   38.5586094698
  - # 26
    frequency:   57.5343320526
  - # 27
    frequency:   69.1801570511

- q-position: [    0.0606061,    0.0000000,    0.0000000 ]
  distance:    0.0218529
  band:
  - # 1
    frequency:   -0.9459055352
  - # 2
    frequency:   -0.6121607738
  - # 3
    frequency:    0.4170714676
  - # 4
    frequency:    0.9399412056
  - # 5
    frequency:    1.2489629825
  - # 6
    frequency:    1.5172910047
  - # 7
    frequency:    1.8008824490
  - # 8
    frequency:    5.0320882846
  - # 9
    frequency:    5.1165532013
  - # 10
    frequency:    5.5984040881
  - # 11
    frequency:    7.4539277937
  - # 12
    frequency:    7.6103599595
  - # 13
    frequency:    8.3250749104
  - # 14
    frequency:    8.4351996559
  - # 15
    frequency:    8.8147190831
  - # 16
    frequency:   11.7278005603
  - # 17
    frequency:   13.9944802894
  - # 18
    frequency:   14.0441492990
  - # 19
    frequency:   15.6946896248
  - # 20
    frequency:   17.1437961182
  - # 21
    frequency:   17.1856365009
  - # 22
    frequency:   17.2787450224
  - # 23
    frequency:   17.3225883073
  - # 24
    frequency:   27.4077744740
  - # 25
    frequency:   38.5580692397
  - # 26
    frequency:   57.5113562597
  - # 27
    frequency:   69.1453584633

- q-position: [    0.0656566,    0.0000000,    0.0000000 ]
  distance:    0.0236739
  band:
  - # 1
    frequency:   -0.9261763501
  - # 2
    frequency:   -0.5144440558
  - # 3
    frequency:    0.4958160142
  - # 4
    frequency:    0.9988043700
  - # 5
    frequency:    1.3139903311
  - # 6
    frequency:    1.6183369236
  - # 7
    frequency:    1.9267803192
  - # 8
    frequency:    5.0356710203
  - # 9
    frequency:    5.1337858477
  - # 10
    frequency:    5.5929273571
  - # 11
    frequency:    7.4505434467
  - # 12
    frequency:    7.6309671301
  - # 13
    frequency:    8.3208252736
  - # 14
    frequency:    8.4481429210
  - # 15
    frequency:    8.8089455005
  - # 16
    frequency:   11.6991754681
  - # 17
    frequency:   13.9953254905
  - # 18
    frequency:   14.0533774587
  - # 19
    frequency:   15.6900357215
  - # 20
    frequency:   17.1382056982
  - # 21
    frequency:   17.1860799498
  - # 22
    frequency:   17.2813150655
  - # 23
    frequency:   17.3326682053
  - # 24
    frequency:   27.4041031305
  - # 25
    frequency:   38.5574908708
  - # 26
    frequency:   57.4865754229
  - # 27
    frequency:   69.1079857559

- q-position: [    0.0707071,    0.0000000,    0.0000000 ]
  distance:    0.0254950
  band:
  - # 1
    frequency:   -0.9049762065
  - # 2
    frequency:   -0.3922151816
  - # 3
    frequency:    0.5765461171
  - # 4
    frequency:    1.0539915038
  - # 5
    frequency:    1.3836259334
  - # 6
    frequency:    1.7184843287
  - # 7
    frequency:    2.0543215959
  - # 8
    frequency:    5.0395197488
  - # 9
    frequency:    5.1519901271
  - # 10
    frequency:    5.5875986004
  - # 11
    frequency:    7.4469902594
  - # 12
    frequency:    7.6523811603
  - # 13
    frequency:    8.3162203753
  - # 14
    frequency:    8.4612487293
  - # 15
    frequency:    8.8036294762
  - # 16
    frequency:   11.6686020697
  - # 17
    frequency:   13.9962471317
  - # 18
    frequency:   14.0632737506
  - # 19
    frequency:   15.6848580570
  - # 20
    frequency:   17.1325034440
  - # 21
    frequency:   17.1865170741
  - # 22
    frequency:   17.2839917570
  - # 23
    frequency:   17.3434106433
  - # 24
    frequency:   27.4001715438
  - # 25
    frequency:   38.5568764464
  - # 26
    frequency:   57.4600356248
  - # 27
    frequency:   69.0681452812

- q-position: [    0.0757576,    0.0000000,    0.0000000 ]
  distance:    0.0273161
  band:
  - # 1
    frequency:   -0.8822104801
  - # 2
    frequency:   -0.2101436137
  - # 3
    frequency:    0.6601280929
  - # 4
    frequency:    1.1063036797
  - # 5
    frequency:    1.4567945444
  - # 6
    frequency:    1.8180965335
  - # 7
    frequency:    2.1826459863
  - # 8
    frequency:    5.0436319345
  - # 9
    frequency:    5.1710446283
  - # 10
    frequency:    5.5825706847
  - # 11
    frequency:    7.4432883619
  - # 12
    frequency:    7.6744493415
  - # 13
    frequency:    8.3112584868
  - # 14
    frequency:    8.4741999157
  - # 15
    frequency:    8.7990885946
  - # 16
    frequency:   11.6361572051
  - # 17
    frequency:   13.9972470599
  - # 18
    frequency:   14.0738222320
  - # 19
    frequency:   15.6791385519
  - # 20
    frequency:   17.1267475693
  - # 21
    frequency:   17.1869362919
  - # 22
    frequency:   17.2867565088
  - # 23
    frequency:   17.3547846124
  - # 24
    frequency:   27.3959872571
  - # 25
    frequency:   38.5562281670
  - # 26
    frequency:   57.4317858122
  - # 27
    frequency:   69.0259493494

- q-position: [    0.0808081,    0.0000000,    0.0000000 ]
  distance:    0.0291371
  band:
  - # 1
    frequency:   -0.8577619568
  - # 2
    frequency:    0.2517436343
  - # 3
    frequency:    0.7464195724
  - # 4
    frequency:    1.1565098827
  - # 5
    frequency:    1.5324793948
  - # 6
    frequency:    1.9173735586
  - # 7
    frequency:    2.3111251072
  - # 8
    frequency:    5.0480055611
  - # 9
    frequency:    5.1908042694
  - # 10
    frequency:    5.5780213220
  - # 11
    frequency:    7.4394582303
  - # 12
    frequency:    7.6970193344
  - # 13
    frequency:    8.3059383455
  - # 14
    frequency:    8.4866145693
  - # 15
    frequency:    8.7957024467
  - # 16
    frequency:   11.6019227190
  - # 17
    frequency:   13.9983271865
  - # 18
    frequency:   14.0850058751
  - # 19
    frequency:   15.6728632411
  - # 20
    frequency:   17.1209938294
  - # 21
    frequency:   17.1873245926
  - # 22
    frequency:   17.2895907543
  - # 23
    frequency:   17.3667579879
  - # 24
    frequency:   27.3915582992
  - # 25
    frequency:   38.5555483398
  - # 26
    frequency:   57.4018776220
  - # 27
    frequency:   68.9815156894

- q-position: [    0.0858586,    0.0000000,    0.0000000 ]
  distance:    0.0309582
  band:
  - # 1
    frequency:   -0.8314881251
  - # 2
    frequency:    0.4112516494
  - # 3
    frequency:    0.8345017778
  - # 4
    frequency:    1.2052384538
  - # 5
    frequency:    1.6098292587
  - # 6
    frequency:    2.0164092561
  - # 7
    frequency:    2.4392892021
  - # 8
    frequency:    5.0526392273
  - # 9
    frequency:    5.2110947213
  - # 10
    frequency:    5.5741593128
  - # 11
    frequency:    7.4355204946
  - # 12
    frequency:    7.7199400890
  - # 13
    frequency:    8.3002592491
  - # 14
    frequency:    8.4980525848
  - # 15
    frequency:    8.7939061458
  - # 16
    frequency:   11.5659853420
  - # 17
    frequency:   13.9994894715
  - # 18
    frequency:   14.0968065888
  - # 19
    frequency:   15.6660230157
  - # 20
    frequency:   17.1152945258
  - # 21
    frequency:   17.1876674532
  - # 22
    frequency:   17.2924761954
  - # 23
    frequency:   17.3792977203
  - # 24
    frequency:   27.3868931668
  - # 25
    frequency:   38.5548393674
  - # 26
    frequency:   57.3703651994
  - # 27
    frequency:   68.9349668870

- q-position: [    0.0909091,    0.0000000,    0.0000000 ]
  distance:    0.0327793
  band:
  - # 1
    frequency:   -0.8032161229
  - # 2
    frequency:    0.5240005639
  - # 3
    frequency:    0.9231785583
  - # 4
    frequency:    1.2529551343
  - # 5
    frequency:    1.6881785452
  - # 6
    frequency:    2.1152321118
  - # 7
    frequency:    2.5667734454
  - # 8
    frequency:    5.0575322327
  - # 9
    frequency:    5.2317060540
  - # 10
    frequency:    5.5712318072
  - # 11
    frequency:    7.4314957483
  - # 12
    frequency:    7.7430623910
  - # 13
    frequency:    8.2942211464
  - # 14
    frequency:    8.5080421494
  - # 15
    frequency:    8.7941641904
  - # 16
    frequency:   11.5284365709
  - # 17
    frequency:   14.0007359059
  - # 18
    frequency:   14.1092052422
  - # 19
    frequency:   15.6586142648
  - # 20
    frequency:   17.1096976121
  - # 21
    frequency:   17.1879487527
  - # 22
    frequency:   17.2953950574
  - # 23
    frequency:   17.3923700129
  - # 24
    frequency:   27.3820008042
  - # 25
    frequency:   38.5541037355
  - # 26
    frequency:   57.3373050096
  - # 27
    frequency:   68.8864298049

- q-position: [    0.0959596,    0.0000000,    0.0000000 ]
  distance:    0.0346004
  band:
  - # 1
    frequency:   -0.7727345782
  - # 2
    frequency:    0.6177956325
  - # 3
    frequency:    1.0114289469
  - # 4
    frequency:    1.2999844239
  - # 5
    frequency:    1.7670239619
  - # 6
    frequency:    2.2138316701
  - # 7
    frequency:    2.6932810932
  - # 8
    frequency:    5.0626846495
  - # 9
    frequency:    5.2523866373
  - # 10
    frequency:    5.5695315707
  - # 11
    frequency:    7.4274043647
  - # 12
    frequency:    7.7662389888
  - # 13
    frequency:    8.2878247239
  - # 14
    frequency:    8.5161334227
  - # 15
    frequency:    8.7969174706
  - # 16
    frequency:   11.4893725500
  - # 17
    frequency:   14.0020684933
  - # 18
    frequency:   14.1221816892
  - # 19
    frequency:   15.6506393952
  - # 20
    frequency:   17.1042459248
  - # 21
    frequency:   17.1881506854
  - # 22
    frequency:   17.2983303513
  - # 23
    frequency:   17.4059404898
  - # 24
    frequency:   27.3768905810
  - # 25
    frequency:   38.5533440012
  - # 26
    frequency:   57.3027556448
  - # 27
    frequency:   68.8360349862

- q-position: [    0.1010101,    0.0000000,    0.0000000 ]
  distance:    0.0364214
  band:
  - # 1
    frequency:   -0.7397810177
  - # 2
    frequency:    0.7016377334
  - # 3
    frequency:    1.0985824183
  - # 4
    frequency:    1.3465425764
  - # 5
    frequency:    1.8459895821
  - # 6
    frequency:    2.3121749320
  - # 7
    frequency:    2.8185584670
  - # 8
    frequency:    5.0680973798
  - # 9
    frequency:    5.2728398398
  - # 10
    frequency:    5.5694017428
  - # 11
    frequency:    7.4232663206
  - # 12
    frequency:    7.7893242576
  - # 13
    frequency:    8.2810714859
  - # 14
    frequency:    8.5219753419
  - # 15
    frequency:    8.8025075318
  - # 16
    frequency:   11.4488939545
  - # 17
    frequency:   14.0034892302
  - # 18
    frequency:   14.1357147930
  - # 19
    frequency:   15.6421072091
  - # 20
    frequency:   17.0989765561
  - # 21
    frequency:   17.1882536743
  - # 22
    frequency:   17.3012661395
  - # 23
    frequency:   17.4199743526
  - # 24
    frequency:   27.3715722683
  - # 25
    frequency:   38.5525627802
  - # 26
    frequency:   57.2667776261
  - # 27
    frequency:   68.7839160476

- q-position: [    0.1060606,    0.0000000,    0.0000000 ]
  distance:    0.0382425
  band:
  - # 1
    frequency:   -0.7040224583
  - # 2
    frequency:    0.7797637143
  - # 3
    frequency:    1.1842819949
  - # 4
    frequency:    1.3927678943
  - # 5
    frequency:    1.9247947425
  - # 6
    frequency:    2.4102163334
  - # 7
    frequency:    2.9423776377
  - # 8
    frequency:    5.0737721943
  - # 9
    frequency:    5.2927285293
  - # 10
    frequency:    5.5712331159
  - # 11
    frequency:    7.4191010306
  - # 12
    frequency:    7.8121733829
  - # 13
    frequency:    8.2739638278
  - # 14
    frequency:    8.5253920865
  - # 15
    frequency:    8.8111015865
  - # 16
    frequency:   11.4071058773
  - # 17
    frequency:   14.0050000863
  - # 18
    frequency:   14.1497824514
  - # 19
    frequency:   15.6330331276
  - # 20
    frequency:   17.0939203844
  - # 21
    frequency:   17.1882362894
  - # 22
    frequency:   17.3041878017
  - # 23
    frequency:   17.4344365282
  - # 24
    frequency:   27.3660560123
  - # 25
    frequency:   38.5517627337
  - # 26
    frequency:   57.2294332024
  - # 27
    frequency:   68.7302090635

- q-position: [    0.1111111,    0.0000000,    0.0000000 ]
  distance:    0.0400636
  band:
  - # 1
    frequency:   -0.6650247669
  - # 2
    frequency:    0.8544808718
  - # 3
    frequency:    1.2683817266
  - # 4
    frequency:    1.4387443016
  - # 5
    frequency:    2.0032288318
  - # 6
    frequency:    2.5079037455
  - # 7
    frequency:    3.0645239424
  - # 8
    frequency:    5.0797117531
  - # 9
    frequency:    5.3116951721
  - # 10
    frequency:    5.5754461806
  - # 11
    frequency:    7.4149271938
  - # 12
    frequency:    7.8346410679
  - # 13
    frequency:    8.2665051019
  - # 14
    frequency:    8.5264242581
  - # 15
    frequency:    8.8226532203
  - # 16
    frequency:   11.3641177174
  - # 17
    frequency:   14.0066029825
  - # 18
    frequency:   14.1643616215
  - # 19
    frequency:   15.6234392530
  - # 20
    frequency:   17.0891017707
  - # 21
    frequency:   17.1880751745
  - # 22
    frequency:   17.3070822934
  - # 23
    frequency:   17.4492918064
  - # 24
    frequency:   27.3603523067
  - # 25
    frequency:   38.5509465553
  - # 26
    frequency:   57.1907861476
  - # 27
    frequency:   68.6750519467

- q-position: [    0.1161616,    0.0000000,    0.0000000 ]
  distance:    0.0418847
  band:
  - # 1
    frequency:   -0.6222021899
  - # 2
    frequency:    0.9271473811
  - # 3
    frequency:    1.3508570680
  - # 4
    frequency:    1.4845184059
  - # 5
    frequency:    2.0811327716
  - # 6
    frequency:    2.6051820416
  - # 7
    frequency:    3.1847864584
  - # 8
    frequency:    5.0859196057
  - # 9
    frequency:    5.3294056989
  - # 10
    frequency:    5.5824498144
  - # 11
    frequency:    7.4107626545
  - # 12
    frequency:    7.8565798186
  - # 13
    frequency:    8.2586996731
  - # 14
    frequency:    8.5253144283
  - # 15
    frequency:    8.8369190898
  - # 16
    frequency:   11.3200430727
  - # 17
    frequency:   14.0082997696
  - # 18
    frequency:   14.1794283433
  - # 19
    frequency:   15.6133542706
  - # 20
    frequency:   17.0845384206
  - # 21
    frequency:   17.1877449899
  - # 22
    frequency:   17.3099383909
  - # 23
    frequency:   17.4645049688
  - # 24
    frequency:   27.3544719625
  - # 25
    frequency:   38.5501169578
  - # 26
    frequency:   57.1509015562
  - # 27
    frequency:   68.6185838286

- q-position: [    0.1212121,    0.0000000,    0.0000000 ]
  distance:    0.0437057
  band:
  - # 1
    frequency:   -0.5747290474
  - # 2
    frequency:    0.9986033612
  - # 3
    frequency:    1.4317455439
  - # 4
    frequency:    1.5301114426
  - # 5
    frequency:    2.1583857906
  - # 6
    frequency:    2.7019951730
  - # 7
    frequency:    3.3029502285
  - # 8
    frequency:    5.0924001689
  - # 9
    frequency:    5.3456180826
  - # 10
    frequency:    5.5925757091