nqpoint: 300    
npath: 3      
segment_nqpoint:
- 100
- 100
- 100
labels:
- [ 'G', 'M' ]
- [ 'M', 'K' ]
- [ 'K', 'G' ]
reciprocal_lattice:
- [   0.30801647,   0.17783339,   0.00000000 ] # a*
- [   0.00000000,   0.35566679,   0.00000000 ] # b*
- [   0.00000000,   0.00000000,   0.03756662 ] # c*
natom: 7      
lattice:
- [     3.246579609158651,     0.000000000000000,     0.000000000000000 ] # a
- [    -1.623289804579325,     2.811620416936049,     0.000000000000000 ] # b
- [     0.000000000000000,     0.000000000000000,    26.619379776816448 ] # c
points:
- symbol: C # 1
  coordinates: [  0.333332985432215,  0.666666983183674,  0.616377065653843 ]
  mass: 12.010700
- symbol: Hf # 2
  coordinates: [  0.333332985432215,  0.666666983183674,  0.466508869505639 ]
  mass: 178.490000
- symbol: Hf # 3
  coordinates: [  0.666666984744047,  0.333332985985145,  0.561297862830494 ]
  mass: 178.490000
- symbol: N # 4
  coordinates: [  0.000000000000000,  0.000000000000000,  0.514645722092499 ]
  mass: 14.006700
- symbol: N # 5
  coordinates: [  0.333332985432215,  0.666666983183674,  0.661900462164849 ]
  mass: 14.006700
- symbol: O # 6
  coordinates: [  0.666666984744047,  0.333332985985145,  0.338099537835151 ]
  mass: 15.999400
- symbol: P # 7
  coordinates: [  0.666666984744047,  0.333332985985145,  0.394213750559829 ]
  mass: 30.973762

phonon:
- q-position: [    0.0000000,    0.0000000,    0.0000000 ]
  distance:    0.0000000
  band:
  - # 1
    frequency:   -2.0764277481
  - # 2
    frequency:   -2.0764277481
  - # 3
    frequency:   -0.0000100204
  - # 4
    frequency:   -0.0000002432
  - # 5
    frequency:    0.0000069781
  - # 6
    frequency:    1.9211448804
  - # 7
    frequency:    1.9211448804
  - # 8
    frequency:    3.0109967797
  - # 9
    frequency:    3.0109967797
  - # 10
    frequency:    4.2426096991
  - # 11
    frequency:    4.3996822232
  - # 12
    frequency:    4.3996822232
  - # 13
    frequency:    8.0890150044
  - # 14
    frequency:    8.3306677467
  - # 15
    frequency:    8.3306677467
  - # 16
    frequency:    8.9254132857
  - # 17
    frequency:   13.1579612399
  - # 18
    frequency:   15.9312674352
  - # 19
    frequency:   15.9312674352
  - # 20
    frequency:   34.0665534733
  - # 21
    frequency:   58.6199536554

- q-position: [    0.0050505,    0.0000000,    0.0000000 ]
  distance:    0.0017963
  band:
  - # 1
    frequency:   -2.0777077420
  - # 2
    frequency:   -2.0722594019
  - # 3
    frequency:    0.0015790738
  - # 4
    frequency:    0.0464809912
  - # 5
    frequency:    0.0792271529
  - # 6
    frequency:    1.9214881128
  - # 7
    frequency:    1.9223652261
  - # 8
    frequency:    3.0112724795
  - # 9
    frequency:    3.0113246191
  - # 10
    frequency:    4.2400424532
  - # 11
    frequency:    4.3996999602
  - # 12
    frequency:    4.4026424228
  - # 13
    frequency:    8.0886713492
  - # 14
    frequency:    8.3305159973
  - # 15
    frequency:    8.3315244501
  - # 16
    frequency:    8.9254297178
  - # 17
    frequency:   13.1580423992
  - # 18
    frequency:   15.9309591656
  - # 19
    frequency:   15.9311502595
  - # 20
    frequency:   34.0664123100
  - # 21
    frequency:   58.6198395212

- q-position: [    0.0101010,    0.0000000,    0.0000000 ]
  distance:    0.0035926
  band:
  - # 1
    frequency:   -2.0815410576
  - # 2
    frequency:   -2.0597275768
  - # 3
    frequency:    0.0063083789
  - # 4
    frequency:    0.0930249223
  - # 5
    frequency:    0.1584856642
  - # 6
    frequency:    1.9225145381
  - # 7
    frequency:    1.9260186816
  - # 8
    frequency:    3.0120994816
  - # 9
    frequency:    3.0123089648
  - # 10
    frequency:    4.2328663451
  - # 11
    frequency:    4.3997535788
  - # 12
    frequency:    4.4109997030
  - # 13
    frequency:    8.0876494106
  - # 14
    frequency:    8.3300621840
  - # 15
    frequency:    8.3340821179
  - # 16
    frequency:    8.9254801630
  - # 17
    frequency:   13.1582855348
  - # 18
    frequency:   15.9300343565
  - # 19
    frequency:   15.9307991305
  - # 20
    frequency:   34.0659890237
  - # 21
    frequency:   58.6194972985

- q-position: [    0.0151515,    0.0000000,    0.0000000 ]
  distance:    0.0053889
  band:
  - # 1
    frequency:   -2.0879075843
  - # 2
    frequency:   -2.0387506279
  - # 3
    frequency:    0.0141641168
  - # 4
    frequency:    0.1396906314
  - # 5
    frequency:    0.2378078163
  - # 6
    frequency:    1.9242144277
  - # 7
    frequency:    1.9320829180
  - # 8
    frequency:    3.0134774796
  - # 9
    frequency:    3.0139523636
  - # 10
    frequency:    4.2222666293
  - # 11
    frequency:    4.3998442955
  - # 12
    frequency:    4.4235757748
  - # 13
    frequency:    8.0859749094
  - # 14
    frequency:    8.3293105981
  - # 15
    frequency:    8.3383047783
  - # 16
    frequency:    8.9255680994
  - # 17
    frequency:   13.1586896170
  - # 18
    frequency:   15.9284930096
  - # 19
    frequency:   15.9302152426
  - # 20
    frequency:   34.0652842246
  - # 21
    frequency:   58.6189275263

- q-position: [    0.0202020,    0.0000000,    0.0000000 ]
  distance:    0.0071852
  band:
  - # 1
    frequency:   -2.0967734560
  - # 2
    frequency:   -2.0091880463
  - # 3
    frequency:    0.0251088118
  - # 4
    frequency:    0.1865290987
  - # 5
    frequency:    0.3172278108
  - # 6
    frequency:    1.9265718545
  - # 7
    frequency:    1.9405220722
  - # 8
    frequency:    3.0154059136
  - # 9
    frequency:    3.0162592739
  - # 10
    frequency:    4.2094444816
  - # 11
    frequency:    4.3999741139
  - # 12
    frequency:    4.4391811779
  - # 13
    frequency:    8.0836865778
  - # 14
    frequency:    8.3282683476
  - # 15
    frequency:    8.3441365967
  - # 16
    frequency:    8.9256994307
  - # 17
    frequency:   13.1592529207
  - # 18
    frequency:   15.9263351364
  - # 19
    frequency:   15.9294005891
  - # 20
    frequency:   34.0642989284
  - # 21
    frequency:   58.6181311015

- q-position: [    0.0252525,    0.0000000,    0.0000000 ]
  distance:    0.0089815
  band:
  - # 1
    frequency:   -2.1080906254
  - # 2
    frequency:   -1.9708332565
  - # 3
    frequency:    0.0390944087
  - # 4
    frequency:    0.2335803383
  - # 5
    frequency:    0.3967828985
  - # 6
    frequency:    1.9295651132
  - # 7
    frequency:    1.9512886712
  - # 8
    frequency:    3.0178838965
  - # 9
    frequency:    3.0192363842
  - # 10
    frequency:    4.1953173123
  - # 11
    frequency:    4.4001457904
  - # 12
    frequency:    4.4569151324
  - # 13
    frequency:    8.0808311675
  - # 14
    frequency:    8.3269452925
  - # 15
    frequency:    8.3515068362
  - # 16
    frequency:    8.9258826499
  - # 17
    frequency:   13.1599730126
  - # 18
    frequency:   15.9235607704
  - # 19
    frequency:   15.9283579647
  - # 20
    frequency:   34.0630345537
  - # 21
    frequency:   58.6171092765

- q-position: [    0.0303030,    0.0000000,    0.0000000 ]
  distance:    0.0107778
  band:
  - # 1
    frequency:   -2.1217964389
  - # 2
    frequency:   -1.9234023018
  - # 3
    frequency:    0.0560668765
  - # 4
    frequency:    0.2808711511
  - # 5
    frequency:    0.4765147223
  - # 6
    frequency:    1.9331672877
  - # 7
    frequency:    1.9643261346
  - # 8
    frequency:    3.0209101150
  - # 9
    frequency:    3.0228930558
  - # 10
    frequency:    4.1805148313
  - # 11
    frequency:    4.4003627866
  - # 12
    frequency:    4.4761697165
  - # 13
    frequency:    8.0774583199
  - # 14
    frequency:    8.3253539532
  - # 15
    frequency:    8.3603349280
  - # 16
    frequency:    8.9261290793
  - # 17
    frequency:   13.1608467335
  - # 18
    frequency:   15.9201699847
  - # 19
    frequency:   15.9270909701
  - # 20
    frequency:   34.0614929195
  - # 21
    frequency:   58.6158636561

- q-position: [    0.0353535,    0.0000000,    0.0000000 ]
  distance:    0.0125741
  band:
  - # 1
    frequency:   -2.1378133453
  - # 2
    frequency:   -1.8665168396
  - # 3
    frequency:    0.0759726131
  - # 4
    frequency:    0.3284138456
  - # 5
    frequency:    0.5564709515
  - # 6
    frequency:    1.9373469473
  - # 7
    frequency:    1.9795717055
  - # 8
    frequency:    3.0244827048
  - # 9
    frequency:    3.0272418848
  - # 10
    frequency:    4.1654616013
  - # 11
    frequency:    4.4006292100
  - # 12
    frequency:    4.4965476427
  - # 13
    frequency:    8.0736162217
  - # 14
    frequency:    8.3235093954
  - # 15
    frequency:    8.3705347155
  - # 16
    frequency:    8.9264531956
  - # 17
    frequency:   13.1618701768
  - # 18
    frequency:   15.9161629145
  - # 19
    frequency:   15.9256040167
  - # 20
    frequency:   34.0596762409
  - # 21
    frequency:   58.6143961933

- q-position: [    0.0404040,    0.0000000,    0.0000000 ]
  distance:    0.0143704
  band:
  - # 1
    frequency:   -2.1560488584
  - # 2
    frequency:   -1.7996787731
  - # 3
    frequency:    0.0987674633
  - # 4
    frequency:    0.3762059209
  - # 5
    frequency:    0.6367072806
  - # 6
    frequency:    1.9420689503
  - # 7
    frequency:    1.9969596602
  - # 8
    frequency:    3.0285991064
  - # 9
    frequency:    3.0322993814
  - # 10
    frequency:    4.1504521720
  - # 11
    frequency:    4.4009497456
  - # 12
    frequency:    4.5177875569
  - # 13
    frequency:    8.0693485200
  - # 14
    frequency:    8.3214290908
  - # 15
    frequency:    8.3820173808
  - # 16
    frequency:    8.9268730532
  - # 17
    frequency:   13.1630386626
  - # 18
    frequency:   15.9115397844
  - # 19
    frequency:   15.9239023327
  - # 20
    frequency:   34.0575871242
  - # 21
    frequency:   58.6127091844

- q-position: [    0.0454545,    0.0000000,    0.0000000 ]
  distance:    0.0161667
  band:
  - # 1
    frequency:   -2.1763958657
  - # 2
    frequency:   -1.7222319177
  - # 3
    frequency:    0.1244300714
  - # 4
    frequency:    0.4242306110
  - # 5
    frequency:    0.7172898523
  - # 6
    frequency:    1.9472953311
  - # 7
    frequency:    2.0164246684
  - # 8
    frequency:    3.0332559032
  - # 9
    frequency:    3.0380867597
  - # 10
    frequency:    4.1357021294
  - # 11
    frequency:    4.4013295771
  - # 12
    frequency:    4.5397135420
  - # 13
    frequency:    8.0646925511
  - # 14
    frequency:    8.3191327550
  - # 15
    frequency:    8.3946929733
  - # 16
    frequency:    8.9274108232
  - # 17
    frequency:   13.1643467100
  - # 18
    frequency:   15.9063009409
  - # 19
    frequency:   15.9219919691
  - # 20
    frequency:   34.0552285617
  - # 21
    frequency:   58.6108052633

- q-position: [    0.0505051,    0.0000000,    0.0000000 ]
  distance:    0.0179630
  band:
  - # 1
    frequency:   -2.1987333274
  - # 2
    frequency:   -1.6333025201
  - # 3
    frequency:    0.1529832017
  - # 4
    frequency:    0.4724581133
  - # 5
    frequency:    0.7982980980
  - # 6
    frequency:    1.9529862490
  - # 7
    frequency:    2.0379052083
  - # 8
    frequency:    3.0384486483
  - # 9
    frequency:    3.0446308344
  - # 10
    frequency:    4.1213801052
  - # 11
    frequency:    4.4017743026
  - # 12
    frequency:    4.5622038039
  - # 13
    frequency:    8.0596786786
  - # 14
    frequency:    8.3166421645
  - # 15
    frequency:    8.4084707226
  - # 16
    frequency:    8.9280934693
  - # 17
    frequency:   13.1657880072
  - # 18
    frequency:   15.9004468885
  - # 19
    frequency:   15.9198798061
  - # 20
    frequency:   34.0526039249
  - # 21
    frequency:   58.6086873946

- q-position: [    0.0555556,    0.0000000,    0.0000000 ]
  distance:    0.0197593
  band:
  - # 1
    frequency:   -2.2229273667
  - # 2
    frequency:   -1.5317034195
  - # 3
    frequency:    0.1845309369
  - # 4
    frequency:    0.5208472911
  - # 5
    frequency:    0.8798278429
  - # 6
    frequency:    1.9591009754
  - # 7
    frequency:    2.0613469733
  - # 8
    frequency:    3.0441716852
  - # 9
    frequency:    3.0519650148
  - # 10
    frequency:    4.1076276702
  - # 11
    frequency:    4.4022898448
  - # 12
    frequency:    4.5851716403
  - # 13
    frequency:    8.0543304281
  - # 14
    frequency:    8.3139809536
  - # 15
    frequency:    8.4232584124
  - # 16
    frequency:    8.9289535824
  - # 17
    frequency:   13.1673553799
  - # 18
    frequency:   15.8939783316
  - # 19
    frequency:   15.9175735590
  - # 20
    frequency:   34.0497169573
  - # 21
    frequency:   58.6063588667

- q-position: [    0.0606061,    0.0000000,    0.0000000 ]
  distance:    0.0215556
  band:
  - # 1
    frequency:   -2.2488327038
  - # 2
    frequency:   -1.4157721210
  - # 3
    frequency:    0.2193300834
  - # 4
    frequency:    0.5693476282
  - # 5
    frequency:    0.9619941992
  - # 6
    frequency:    1.9655988990
  - # 7
    frequency:    2.0867062304
  - # 8
    frequency:    3.0504179697
  - # 9
    frequency:    3.0601303816
  - # 10
    frequency:    4.0945720153
  - # 11
    frequency:    4.4028823573
  - # 12
    frequency:    4.6085538192
  - # 13
    frequency:    8.0486651172
  - # 14
    frequency:    8.3111743933
  - # 15
    frequency:    8.4389610884
  - # 16
    frequency:    8.9300304025
  - # 17
    frequency:   13.1690407610
  - # 18
    frequency:   15.8868962203
  - # 19
    frequency:   15.9150817839
  - # 20
    frequency:   34.0465717667
  - # 21
    frequency:   58.6038232832

- q-position: [    0.0656566,    0.0000000,    0.0000000 ]
  distance:    0.0233519
  band:
  - # 1
    frequency:   -2.2762943577
  - # 2
    frequency:   -1.2830814153
  - # 3
    frequency:    0.2579421586
  - # 4
    frequency:    0.6179012379
  - # 5
    frequency:    1.0449331033
  - # 6
    frequency:    1.9724405321
  - # 7
    frequency:    2.1139530831
  - # 8
    frequency:    3.0571788992
  - # 9
    frequency:    3.0691768239
  - # 10
    frequency:    4.0823344281
  - # 11
    frequency:    4.4035581298
  - # 12
    frequency:    4.6323033889
  - # 13
    frequency:    8.0426947381
  - # 14
    frequency:    8.3082491543
  - # 15
    frequency:    8.4554793081
  - # 16
    frequency:    8.9313710506
  - # 17
    frequency:   13.1708351608
  - # 18
    frequency:   15.8792017998
  - # 19
    frequency:   15.9124138824
  - # 20
    frequency:   34.0431728157
  - # 21
    frequency:   58.6010845545

- q-position: [    0.0707071,    0.0000000,    0.0000000 ]
  distance:    0.0251482
  band:
  - # 1
    frequency:   -2.3051495185
  - # 2
    frequency:   -1.1298900675
  - # 3
    frequency:    0.3015972863
  - # 4
    frequency:    0.6664447620
  - # 5
    frequency:    1.1287991098
  - # 6
    frequency:    1.9795885011
  - # 7
    frequency:    2.1430745399
  - # 8
    frequency:    3.0644441564
  - # 9
    frequency:    3.0791641887
  - # 10
    frequency:    4.0710363469
  - # 11
    frequency:    4.4043234937
  - # 12
    frequency:    4.6563851734
  - # 13
    frequency:    8.0364269228
  - # 14
    frequency:    8.3052330556
  - # 15
    frequency:    8.4727070795
  - # 16
    frequency:    8.9330319899
  - # 17
    frequency:   13.1727286397
  - # 18
    frequency:   15.8708966645
  - # 19
    frequency:   15.9095801044
  - # 20
    frequency:   34.0395249129
  - # 21
    frequency:   58.5981468878

- q-position: [    0.0757576,    0.0000000,    0.0000000 ]
  distance:    0.0269445
  band:
  - # 1
    frequency:   -2.3352294900
  - # 2
    frequency:   -0.9500525296
  - # 3
    frequency:    0.3531951112
  - # 4
    frequency:    0.7149110428
  - # 5
    frequency:    1.2137549416
  - # 6
    frequency:    1.9870085091
  - # 7
    frequency:    2.1740771489
  - # 8
    frequency:    3.0722015769
  - # 9
    frequency:    3.0901633650
  - # 10
    frequency:    4.0608040462
  - # 11
    frequency:    4.4051847285
  - # 12
    frequency:    4.6807729310
  - # 13
    frequency:    8.0298658852
  - # 14
    frequency:    8.3021548007
  - # 15
    frequency:    8.4905295876
  - # 16
    frequency:    8.9350807153
  - # 17
    frequency:   13.1747102846
  - # 18
    frequency:   15.8619828151
  - # 19
    frequency:   15.9065915502
  - # 20
    frequency:   34.0356332019
  - # 21
    frequency:   58.5950147776

- q-position: [    0.0808081,    0.0000000,    0.0000000 ]
  distance:    0.0287408
  band:
  - # 1
    frequency:   -2.3663616107
  - # 2
    frequency:   -0.7330236964
  - # 3
    frequency:    0.4204842919
  - # 4
    frequency:    0.7632304952
  - # 5
    frequency:    1.2999453352
  - # 6
    frequency:    1.9946702620
  - # 7
    frequency:    2.2069886937
  - # 8
    frequency:    3.0804370454
  - # 9
    frequency:    3.1022571632
  - # 10
    frequency:    4.0517725842
  - # 11
    frequency:    4.4061479719
  - # 12
    frequency:    4.7054475728
  - # 13
    frequency:    8.0230132826
  - # 14
    frequency:    8.2990437054
  - # 15
    frequency:    8.5088207977
  - # 16
    frequency:    8.9375976345
  - # 17
    frequency:   13.1767681906
  - # 18
    frequency:   15.8524627187
  - # 19
    frequency:   15.9034601695
  - # 20
    frequency:   34.0315031508
  - # 21
    frequency:   58.5916929943

- q-position: [    0.0858586,    0.0000000,    0.0000000 ]
  distance:    0.0305370
  band:
  - # 1
    frequency:   -2.3983710759
  - # 2
    frequency:   -0.4631635656
  - # 3
    frequency:    0.5255441796
  - # 4
    frequency:    0.8113321428
  - # 5
    frequency:    1.3874452142
  - # 6
    frequency:    2.0025483496
  - # 7
    frequency:    2.2418579771
  - # 8
    frequency:    3.0891344279
  - # 9
    frequency:    3.1155407573
  - # 10
    frequency:    4.0440893855
  - # 11
    frequency:    4.4072191345
  - # 12
    frequency:    4.7303960763
  - # 13
    frequency:    8.0158689717
  - # 14
    frequency:    8.2959294169
  - # 15
    frequency:    8.5274410609
  - # 16
    frequency:    8.9406780349
  - # 17
    frequency:   13.1788894484
  - # 18
    frequency:   15.8423393723
  - # 19
    frequency:   15.9001987584
  - # 20
    frequency:   34.0271405405
  - # 21
    frequency:   58.5881865737

- q-position: [    0.0909091,    0.0000000,    0.0000000 ]
  distance:    0.0323333
  band:
  - # 1
    frequency:   -2.4310826045
  - # 2
    frequency:   -0.0518199769
  - # 3
    frequency:    0.6976284298
  - # 4
    frequency:    0.8591443180
  - # 5
    frequency:    1.4761745039
  - # 6
    frequency:    2.0106230789
  - # 7
    frequency:    2.2787510064
  - # 8
    frequency:    3.0982755463
  - # 9
    frequency:    3.1301213198
  - # 10
    frequency:    4.0379176604
  - # 11
    frequency:    4.4084038188
  - # 12
    frequency:    4.7556108703
  - # 13
    frequency:    8.0084316526
  - # 14
    frequency:    8.2928416294
  - # 15
    frequency:    8.5462349400
  - # 16
    frequency:    8.9444339195
  - # 17
    frequency:   13.1810601394
  - # 18
    frequency:   15.8316163673
  - # 19
    frequency:   15.8968209530
  - # 20
    frequency:   34.0225514523
  - # 21
    frequency:   58.5845008046

- q-position: [    0.0959596,    0.0000000,    0.0000000 ]
  distance:    0.0341296
  band:
  - # 1
    frequency:   -2.4643219150
  - # 2
    frequency:    0.3216512190
  - # 3
    frequency:    0.8936948525
  - # 4
    frequency:    0.9065950416
  - # 5
    frequency:    1.5657868897
  - # 6
    frequency:    2.0188812567
  - # 7
    frequency:    2.3177409565
  - # 8
    frequency:    3.1078401981
  - # 9
    frequency:    3.1461162780
  - # 10
    frequency:    4.0334397162
  - # 11
    frequency:    4.4097072455
  - # 12
    frequency:    4.7810895506
  - # 13
    frequency:    8.0006994085
  - # 14
    frequency:    8.2898097969
  - # 15
    frequency:    8.5650296323
  - # 16
    frequency:    8.9489953253
  - # 17
    frequency:   13.1832653397
  - # 18
    frequency:   15.8202979564
  - # 19
    frequency:   15.8933412201
  - # 20
    frequency:   34.0177422549
  - # 21
    frequency:   58.5806412171

- q-position: [    0.1010101,    0.0000000,    0.0000000 ]
  distance:    0.0359259
  band:
  - # 1
    frequency:   -2.4979169914
  - # 2
    frequency:    0.4145775141
  - # 3
    frequency:    0.9536121138
  - # 4
    frequency:    1.0681825593
  - # 5
    frequency:    1.6555717020
  - # 6
    frequency:    2.0273169222
  - # 7
    frequency:    2.3588884519
  - # 8
    frequency:    3.1178062241
  - # 9
    frequency:    3.1636493694
  - # 10
    frequency:    4.0308600586
  - # 11
    frequency:    4.4111341863
  - # 12
    frequency:    4.8068348317
  - # 13
    frequency:    7.9926701501
  - # 14
    frequency:    8.2868628475
  - # 15
    frequency:    8.5836345880
  - # 16
    frequency:    8.9545105118
  - # 17
    frequency:   13.1854891340
  - # 18
    frequency:   15.8083891207
  - # 19
    frequency:   15.8897748439
  - # 20
    frequency:   34.0127195915
  - # 21
    frequency:   58.5766135700

- q-position: [    0.1060606,    0.0000000,    0.0000000 ]
  distance:    0.0377222
  band:
  - # 1
    frequency:   -2.5316991392
  - # 2
    frequency:    0.4804826388
  - # 3
    frequency:    1.0001229570
  - # 4
    frequency:    1.2180887497
  - # 5
    frequency:    1.7444389339
  - # 6
    frequency:    2.0359320285
  - # 7
    frequency:    2.4022088583
  - # 8
    frequency:    3.1281496254
  - # 9
    frequency:    3.1828434175
  - # 10
    frequency:    4.0304079774
  - # 11
    frequency:    4.4126889039
  - # 12
    frequency:    4.8328546753
  - # 13
    frequency:    7.9843419798
  - # 14
    frequency:    8.2840289004
  - # 15
    frequency:    8.6018431647
  - # 16
    frequency:    8.9611441623
  - # 17
    frequency:   13.1877146402
  - # 18
    frequency:   15.7958956375
  - # 19
    frequency:   15.8861379084
  - # 20
    frequency:   34.0074903651
  - # 21
    frequency:   58.5724238374

- q-position: [    0.1111111,    0.0000000,    0.0000000 ]
  distance:    0.0395185
  band:
  - # 1
    frequency:   -2.5655038384
  - # 2
    frequency:    0.5375286018
  - # 3
    frequency:    1.0460542507
  - # 4
    frequency:    1.3485325821
  - # 5
    frequency:    1.8310435551
  - # 6
    frequency:    2.0447370754
  - # 7
    frequency:    2.4476260908
  - # 8
    frequency:    3.1388447279
  - # 9
    frequency:    3.2038085989
  - # 10
    frequency:    4.0323390252
  - # 11
    frequency:    4.4143750999
  - # 12
    frequency:    4.8591625461
  - # 13
    frequency:    7.9757134875
  - # 14
    frequency:    8.2813349894
  - # 15
    frequency:    8.6194373198
  - # 16
    frequency:    8.9690725841
  - # 17
    frequency:   13.1899240464
  - # 18
    frequency:   15.7828241463
  - # 19
    frequency:   15.8824472756
  - # 20
    frequency:   34.0020617249
  - # 21
    frequency:   58.5680781963

- q-position: [    0.1161616,    0.0000000,    0.0000000 ]
  distance:    0.0413148
  band:
  - # 1
    frequency:   -2.5991714130
  - # 2
    frequency:    0.5909354299
  - # 3
    frequency:    1.0913314021
  - # 4
    frequency:    1.4642186281
  - # 5
    frequency:    1.9140290017
  - # 6
    frequency:    2.0537516884
  - # 7
    frequency:    2.4949196358
  - # 8
    frequency:    3.1498643917
  - # 9
    frequency:    3.2266252073
  - # 10
    frequency:    4.0369344145
  - # 11
    frequency:    4.4161958705
  - # 12
    frequency:    4.8857777623
  - # 13
    frequency:    7.9667839894
  - # 14
    frequency:    8.2788067956
  - # 15
    frequency:    8.6361962142
  - # 16
    frequency:    8.9784750199
  - # 17
    frequency:   13.1920986615
  - # 18
    frequency:   15.7691822137
  - # 19
    frequency:   15.8787205586
  - # 20
    frequency:   33.9964410509
  - # 21
    frequency:   58.5635830124

- q-position: [    0.1212121,    0.0000000,    0.0000000 ]
  distance:    0.0431111
  band:
  - # 1
    frequency:   -2.6325475353
  - # 2
    frequency:    0.6426964114
  - # 3
    frequency:    1.1358779011
  - # 4
    frequency:    1.5687440375
  - # 5
    frequency:    1.9922905845
  - # 6
    frequency:    2.0630051379
  - # 7
    frequency:    2.5436822802
  - # 8
    frequency:    3.1611802602
  - # 9
    frequency:    3.2513209128
  - # 10
    frequency:    4.0444968925
  - # 11
    frequency:    4.4181536706
  - # 12
    frequency:    4.9127259020
  - # 13
    frequency:    7.9575537216
  - # 14
    frequency:    8.2764683908
  - # 15
    frequency:    8.6519089501
  - # 16
    frequency:    8.9895208389
  - # 17
    frequency:   13.1942189791
  - # 18
    frequency:   15.7549783959
  - # 19
    frequency:   15.8749760902
  - # 20
    frequency:   33.9906359386
  - # 21
    frequency:   58.5589448265

- q-position: [    0.1262626,    0.0000000,    0.0000000 ]
  distance:    0.0449074
  band:
  - # 1
    frequency:   -2.6654835905
  - # 2
    frequency:    0.6937007059
  - # 3
    frequency:    1.1796146076
  - # 4
    frequency:    1.6647638826
  - # 5
    frequency:    2.0651523425
  - # 6
    frequency:    2.0725367806
  - # 7
    frequency:    2.5933138511
  - # 8
    frequency:    3.1727630438
  - # 9
    frequency:    3.2778446795
  - # 10
    frequency:    4.0553412121
  - # 11
    frequency:    4.4202502849
  - # 12
    frequency:    4.9400392323
  - # 13
    frequency:    7.9480239941
  - # 14
    frequency:    8.2743419964
  - # 15
    frequency:    8.6663903743
  - # 16
    frequency:    9.0023536664
  - # 17
    frequency:   13.1962647567
  - # 18
    frequency:   15.7402222966
  - # 19
    frequency:   15.8712328850
  - # 20
    frequency:   33.9846541840
  - # 21
    frequency:   58.5541703411

- q-position: [    0.1313131,    0.0000000,    0.0000000 ]
  distance:    0.0467037
  band:
  - # 1
    frequency:   -2.6978369232
  - # 2
    frequency:    0.7443800297
  - # 3
    frequency:    1.2224590350
  - # 4
    frequency:    1.7541996399
  - # 5
    frequency:    2.0823963939
  - # 6
    frequency:    2.1324099543
  - # 7
    frequency:    2.6430704060
  - # 8
    frequency:    3.1845828300
  - # 9
    frequency:    3.3060428167
  - # 10
    frequency:    4.0697771500
  - # 11
    frequency:    4.4224868081
  - # 12
    frequency:    4.9677571132
  - # 13
    frequency:    7.9381973154
  - # 14
    frequency:    8.2724477586
  - # 15
    frequency:    8.6794972440
  - # 16
    frequency:    9.0170751524
  - # 17
    frequency:   13.1982151098
  - # 18
    frequency:   15.7249246204
  - # 19
    frequency:   15.8675105969
  - # 20
    frequency:   33.9785037672
  - # 21
    frequency:   58.5492664057

- q-position: [    0.1363636,    0.0000000,    0.0000000 ]
  distance:    0.0485000
  band:
  - # 1
    frequency:   -2.7294709877
  - # 2
    frequency:    0.7949501768
  - # 3
    frequency:    1.2643247031
  - # 4
    frequency:    1.8384189361
  - # 5
    frequency:    2.0926443546
  - # 6
    frequency:    2.1942586450
  - # 7
    frequency:    2.6921650199
  - # 8
    frequency:    3.1966094121
  - # 9
    frequency:    3.3356460240
  - # 10
    frequency:    4.0880835682
  - # 11
    frequency:    4.4248636317
  - # 12
    frequency:    4.9959263199
  - # 13
    frequency:    7.9280774900
  - # 14
    frequency:    8.2708035422
  - # 15
    frequency:    8.6911408970
  - # 16
    frequency:    9.0337322300
  - # 17
    frequency:   13.2000486223
  - # 18
    frequency:   15.7090972205
  - # 19
    frequency:   15.8638294703
  - # 20
    frequency:   33.9721928365
  - # 21
    frequency:   58.5442400031

- q-position: [    0.1414141,    0.0000000,    0.0000000 ]
  distance:    0.0502963
  band:
  - # 1
    frequency:   -2.7602554212
  - # 2
    frequency:    0.8455149363
  - # 3
    frequency:    1.3051206556
  - # 4
    frequency:    1.9183808006
  - # 5
    frequency:    2.1033515881
  - # 6
    frequency:    2.2511610351
  - # 7
    frequency:    2.7398888115
  - # 8
    frequency:    3.2088126293
  - # 9
    frequency:    3.3662773221
  - # 10
    frequency:    4.1104737803
  - # 11
    frequency:    4.4273804387
  - # 12
    frequency:    5.0246012092
  - # 13
    frequency:    7.9176696955
  - # 14
    frequency:    8.2694247470
  - # 15
    frequency:    8.7012928746
  - # 16
    frequency:    9.0523114155
  - # 17
    frequency:   13.2017434728
  - # 18
    frequency:   15.6927531391
  - # 19
    frequency:   15.8602102855
  - # 20
    frequency:   33.9657296919
  - # 21
    frequency:   58.5390982350

- q-position: [    0.1464646,    0.0000000,    0.0000000 ]
  distance:    0.0520926
  band:
  - # 1
    frequency:   -2.7900660568
  - # 2
    frequency:    0.8961157402
  - # 3
    frequency:    1.3447512650
  - # 4
    frequency:    1.9947464558
  - # 5
    frequency:    2.1145991882
  - # 6
    frequency:    2.3037115353
  - # 7
    frequency:    2.7857101935
  - # 8
    frequency:    3.2211627089
  - # 9
    frequency:    3.3974867583
  - # 10
    frequency:    4.1370556600
  - # 11
    frequency:    4.4300362057
  - # 12
    frequency:    5.0538436297
  - # 13
    frequency:    7.9069805404
  - # 14
    frequency:    8.2683241475
  - # 15
    frequency:    8.7099819556
  - # 16
    frequency:    9.0727416908
  - # 17
    frequency:   13.2032775777
  - # 18
    frequency:   15.6759066391
  - # 19
    frequency:   15.8566742973
  - # 20
    frequency:   33.9591227691
  - # 21
    frequency:   58.5338483077

- q-position: [    0.1515152,    0.0000000,    0.0000000 ]
  distance:    0.0538889
  band:
  - # 1
    frequency:   -2.8187848916
  - # 2
    frequency:    0.9467573766
  - # 3
    frequency:    1.3831164678
  - # 4
    frequency:    2.0679591016
  - # 5
    frequency:    2.1264775770
  - # 6
    frequency:    2.3525335346
  - # 7
    frequency:    2.8293238059
  - # 8
    frequency:    3.2336306026
  - # 9
    frequency:    3.4288094126
  - # 10
    frequency:    4.1677937918
  - # 11
    frequency:    4.4328292118
  - # 12
    frequency:    5.0837224566
  - # 13
    frequency:    7.8960181071
  - # 14
    frequency:    8.2675117569
  - # 15
    frequency:    8.7172838502
  - # 16
    frequency:    9.0949047188
  - # 17
    frequency:   13.2046287491
  - # 18
    frequency:   15.6585732273
  - # 19
    frequency:   15.8532431682
  - # 20
    frequency:   33.9523806225
  - # 21