nqpoint: 300    
npath: 3      
segment_nqpoint:
- 100
- 100
- 100
labels:
- [ 'G', 'M' ]
- [ 'M', 'K' ]
- [ 'K', 'G' ]
reciprocal_lattice:
- [   0.30010864,   0.17326781,   0.00000000 ] # a*
- [   0.00000000,   0.34653561,   0.00000000 ] # b*
- [   0.00000000,   0.00000000,   0.03531358 ] # c*
natom: 9      
lattice:
- [     3.332126621139505,     0.000000000000000,     0.000000000000000 ] # a
- [    -1.666063310569752,     2.885706302530042,     0.000000000000000 ] # b
- [     0.000000000000000,     0.000000000000000,    28.317715233668551 ] # c
points:
- symbol: C # 1
  coordinates: [  0.333332985432215,  0.666666983183674,  0.639611786182033 ]
  mass: 12.010700
- symbol: C # 2
  coordinates: [  0.666666984744047,  0.333332985985145,  0.372525323303563 ]
  mass: 12.010700
- symbol: Hf # 3
  coordinates: [  0.333332985432215,  0.666666983183674,  0.464415575480507 ]
  mass: 178.490000
- symbol: Hf # 4
  coordinates: [  0.666666984744047,  0.333332985985145,  0.545479868550437 ]
  mass: 178.490000
- symbol: N # 5
  coordinates: [  0.000000000000000,  0.000000000000000,  0.505601678100940 ]
  mass: 14.006700
- symbol: N # 6
  coordinates: [  0.333332985432215,  0.666666983183674,  0.595447785810318 ]
  mass: 14.006700
- symbol: N # 7
  coordinates: [  0.666666984744047,  0.333332985985145,  0.417224903438750 ]
  mass: 14.006700
- symbol: O # 8
  coordinates: [  0.333332985432215,  0.666666983183674,  0.682177748955559 ]
  mass: 15.999400
- symbol: S # 9
  coordinates: [  0.666666984744047,  0.333332985985145,  0.317822251044441 ]
  mass: 32.065000

phonon:
- q-position: [    0.0000000,    0.0000000,    0.0000000 ]
  distance:    0.0000000
  band:
  - # 1
    frequency:   -1.3127272414
  - # 2
    frequency:   -1.3127272414
  - # 3
    frequency:   -0.0000084534
  - # 4
    frequency:   -0.0000006212
  - # 5
    frequency:    0.0000064105
  - # 6
    frequency:    1.0507242663
  - # 7
    frequency:    1.0507242664
  - # 8
    frequency:    3.1949172977
  - # 9
    frequency:    3.1949172977
  - # 10
    frequency:    4.8278590794
  - # 11
    frequency:    5.8320676139
  - # 12
    frequency:    5.8320676139
  - # 13
    frequency:    6.9047279717
  - # 14
    frequency:    6.9047279717
  - # 15
    frequency:    6.9336483005
  - # 16
    frequency:    7.6088885456
  - # 17
    frequency:   12.8347971701
  - # 18
    frequency:   12.8347971701
  - # 19
    frequency:   14.2540532123
  - # 20
    frequency:   14.3562778073
  - # 21
    frequency:   14.3562778073
  - # 22
    frequency:   16.7249066403
  - # 23
    frequency:   16.7249066403
  - # 24
    frequency:   26.7424792763
  - # 25
    frequency:   37.7508228197
  - # 26
    frequency:   54.3383890547
  - # 27
    frequency:   68.4454792386

- q-position: [    0.0050505,    0.0000000,    0.0000000 ]
  distance:    0.0017502
  band:
  - # 1
    frequency:   -1.3127553198
  - # 2
    frequency:   -1.3119651178
  - # 3
    frequency:    0.0013739399
  - # 4
    frequency:    0.0529102741
  - # 5
    frequency:    0.0891024418
  - # 6
    frequency:    1.0522637170
  - # 7
    frequency:    1.0545511871
  - # 8
    frequency:    3.1944983258
  - # 9
    frequency:    3.1949681528
  - # 10
    frequency:    4.8274281754
  - # 11
    frequency:    5.8320123236
  - # 12
    frequency:    5.8326361144
  - # 13
    frequency:    6.8979137830
  - # 14
    frequency:    6.9046392142
  - # 15
    frequency:    6.9405725940
  - # 16
    frequency:    7.6085098532
  - # 17
    frequency:   12.8347328156
  - # 18
    frequency:   12.8350614680
  - # 19
    frequency:   14.2536304716
  - # 20
    frequency:   14.3566813420
  - # 21
    frequency:   14.3568037552
  - # 22
    frequency:   16.7244610159
  - # 23
    frequency:   16.7250356274
  - # 24
    frequency:   26.7421069736
  - # 25
    frequency:   37.7508540465
  - # 26
    frequency:   54.3379202801
  - # 27
    frequency:   68.4443942407

- q-position: [    0.0101010,    0.0000000,    0.0000000 ]
  distance:    0.0035004
  band:
  - # 1
    frequency:   -1.3128339548
  - # 2
    frequency:   -1.3096540475
  - # 3
    frequency:    0.0054845906
  - # 4
    frequency:    0.1057452806
  - # 5
    frequency:    0.1779659750
  - # 6
    frequency:    1.0568604932
  - # 7
    frequency:    1.0659394267
  - # 8
    frequency:    3.1932434833
  - # 9
    frequency:    3.1951205969
  - # 10
    frequency:    4.8261422934
  - # 11
    frequency:    5.8318471421
  - # 12
    frequency:    5.8343364820
  - # 13
    frequency:    6.8849138813
  - # 14
    frequency:    6.9043735541
  - # 15
    frequency:    6.9539008169
  - # 16
    frequency:    7.6073752033
  - # 17
    frequency:   12.8345402968
  - # 18
    frequency:   12.8358529142
  - # 19
    frequency:   14.2523616397
  - # 20
    frequency:   14.3578907522
  - # 21
    frequency:   14.3583822203
  - # 22
    frequency:   16.7231253999
  - # 23
    frequency:   16.7254186312
  - # 24
    frequency:   26.7409911193
  - # 25
    frequency:   37.7509476572
  - # 26
    frequency:   54.3365150072
  - # 27
    frequency:   68.4411414354

- q-position: [    0.0151515,    0.0000000,    0.0000000 ]
  distance:    0.0052505
  band:
  - # 1
    frequency:   -1.3129466368
  - # 2
    frequency:   -1.3057224747
  - # 3
    frequency:    0.0123045172
  - # 4
    frequency:    0.1584305707
  - # 5
    frequency:    0.2663657046
  - # 6
    frequency:    1.0644510445
  - # 7
    frequency:    1.0846212832
  - # 8
    frequency:    3.1911589951
  - # 9
    frequency:    3.1953742993
  - # 10
    frequency:    4.8240217094
  - # 11
    frequency:    5.8315741364
  - # 12
    frequency:    5.8371535100
  - # 13
    frequency:    6.8706299144
  - # 14
    frequency:    6.9039328270
  - # 15
    frequency:    6.9687253631
  - # 16
    frequency:    7.6054888668
  - # 17
    frequency:   12.8342212345
  - # 18
    frequency:   12.8371671597
  - # 19
    frequency:   14.2502459170
  - # 20
    frequency:   14.3599024630
  - # 21
    frequency:   14.3610140020
  - # 22
    frequency:   16.7209035635
  - # 23
    frequency:   16.7260438393
  - # 24
    frequency:   26.7391348705
  - # 25
    frequency:   37.7511034431
  - # 26
    frequency:   54.3341763856
  - # 27
    frequency:   68.4357273818

- q-position: [    0.0202020,    0.0000000,    0.0000000 ]
  distance:    0.0070007
  band:
  - # 1
    frequency:   -1.3130667824
  - # 2
    frequency:   -1.3000589802
  - # 3
    frequency:    0.0217935002
  - # 4
    frequency:    0.2108932325
  - # 5
    frequency:    0.3541023885
  - # 6
    frequency:    1.0749332372
  - # 7
    frequency:    1.1101810203
  - # 8
    frequency:    3.1882552538
  - # 9
    frequency:    3.1957288177
  - # 10
    frequency:    4.8210995196
  - # 11
    frequency:    5.8311967460
  - # 12
    frequency:    5.8410624861
  - # 13
    frequency:    6.8560998010
  - # 14
    frequency:    6.9033200860
  - # 15
    frequency:    6.9839984571
  - # 16
    frequency:    7.6028579272
  - # 17
    frequency:   12.8337782886
  - # 18
    frequency:   12.8389969363
  - # 19
    frequency:   14.2472849015
  - # 20
    frequency:   14.3627105402
  - # 21
    frequency:   14.3646973901
  - # 22
    frequency:   16.7178017897
  - # 23
    frequency:   16.7268917618
  - # 24
    frequency:   26.7365434768
  - # 25
    frequency:   37.7513210575
  - # 26
    frequency:   54.3309096538
  - # 27
    frequency:   68.4281629914

- q-position: [    0.0252525,    0.0000000,    0.0000000 ]
  distance:    0.0087509
  band:
  - # 1
    frequency:   -1.3131590269
  - # 2
    frequency:   -1.2925220789
  - # 3
    frequency:    0.0339059511
  - # 4
    frequency:    0.2630624282
  - # 5
    frequency:    0.4410100473
  - # 6
    frequency:    1.0881715746
  - # 7
    frequency:    1.1420929851
  - # 8
    frequency:    3.1845468448
  - # 9
    frequency:    3.1961837571
  - # 10
    frequency:    4.8174206491
  - # 11
    frequency:    5.8307197757
  - # 12
    frequency:    5.8460300871
  - # 13
    frequency:    6.8416257394
  - # 14
    frequency:    6.9025395922
  - # 15
    frequency:    6.9994042532
  - # 16
    frequency:    7.5994922274
  - # 17
    frequency:   12.8332150954
  - # 18
    frequency:   12.8413320271
  - # 19
    frequency:   14.2434855638
  - # 20
    frequency:   14.3663067247
  - # 21
    frequency:   14.3694250266
  - # 22
    frequency:   16.7138288697
  - # 23
    frequency:   16.7279355216
  - # 24
    frequency:   26.7332242609
  - # 25
    frequency:   37.7516000163
  - # 26
    frequency:   54.3267221229
  - # 27
    frequency:   68.4184634975

- q-position: [    0.0303030,    0.0000000,    0.0000000 ]
  distance:    0.0105011
  band:
  - # 1
    frequency:   -1.3131808367
  - # 2
    frequency:   -1.2829507882
  - # 3
    frequency:    0.0485974779
  - # 4
    frequency:    0.3148697022
  - # 5
    frequency:    0.5269589940
  - # 6
    frequency:    1.1040036865
  - # 7
    frequency:    1.1797630593
  - # 8
    frequency:    3.1800525797
  - # 9
    frequency:    3.1967389844
  - # 10
    frequency:    4.8130405679
  - # 11
    frequency:    5.8301493849
  - # 12
    frequency:    5.8520155310
  - # 13
    frequency:    6.8273349248
  - # 14
    frequency:    6.9015968017
  - # 15
    frequency:    7.0147982714
  - # 16
    frequency:    7.5954042976
  - # 17
    frequency:   12.8325361837
  - # 18
    frequency:   12.8441592290
  - # 19
    frequency:   14.2388625002
  - # 20
    frequency:   14.3706804804
  - # 21
    frequency:   14.3751814363
  - # 22
    frequency:   16.7089960967
  - # 23
    frequency:   16.7291412468
  - # 24
    frequency:   26.7291865927
  - # 25
    frequency:   37.7519397005
  - # 26
    frequency:   54.3216231548
  - # 27
    frequency:   68.4066484127

- q-position: [    0.0353535,    0.0000000,    0.0000000 ]
  distance:    0.0122513
  band:
  - # 1
    frequency:   -1.3130842897
  - # 2
    frequency:   -1.2711741847
  - # 3
    frequency:    0.0658296855
  - # 4
    frequency:    0.3662490486
  - # 5
    frequency:    0.6118547446
  - # 6
    frequency:    1.1222474562
  - # 7
    frequency:    1.2225669586
  - # 8
    frequency:    3.1747955354
  - # 9
    frequency:    3.1973948896
  - # 10
    frequency:    4.8080237987
  - # 11
    frequency:    5.8294930741
  - # 12
    frequency:    5.8589719032
  - # 13
    frequency:    6.8132954997
  - # 14
    frequency:    6.9004983492
  - # 15
    frequency:    7.0300916406
  - # 16
    frequency:    7.5906092625
  - # 17
    frequency:   12.8317468700
  - # 18
    frequency:   12.8474623064
  - # 19
    frequency:   14.2334389311
  - # 20
    frequency:   14.3758190529
  - # 21
    frequency:   14.3819417681
  - # 22
    frequency:   16.7033172576
  - # 23
    frequency:   16.7304685549
  - # 24
    frequency:   26.7244418551
  - # 25
    frequency:   37.7523393580
  - # 26
    frequency:   54.3156241330
  - # 27
    frequency:   68.3927414746

- q-position: [    0.0404040,    0.0000000,    0.0000000 ]
  distance:    0.0140014
  band:
  - # 1
    frequency:   -1.3128178736
  - # 2
    frequency:   -1.2570188047
  - # 3
    frequency:    0.0855728348
  - # 4
    frequency:    0.4171367672
  - # 5
    frequency:    0.6956338905
  - # 6
    frequency:    1.1427081823
  - # 7
    frequency:    1.2698814103
  - # 8
    frequency:    3.1688030962
  - # 9
    frequency:    3.1981526842
  - # 10
    frequency:    4.8024423080
  - # 11
    frequency:    5.8287596705
  - # 12
    frequency:    5.8668475689
  - # 13
    frequency:    6.7995492239
  - # 14
    frequency:    6.8992520277
  - # 15
    frequency:    7.0452186643
  - # 16
    frequency:    7.5851247305
  - # 17
    frequency:   12.8308531366
  - # 18
    frequency:   12.8512219424
  - # 19
    frequency:   14.2272465203
  - # 20
    frequency:   14.3817075390
  - # 21
    frequency:   14.3896716852
  - # 22
    frequency:   16.6968086202
  - # 23
    frequency:   16.7318711135
  - # 24
    frequency:   26.7190034035
  - # 25
    frequency:   37.7527981063
  - # 26
    frequency:   54.3087384276
  - # 27
    frequency:   68.3767705792

- q-position: [    0.0454545,    0.0000000,    0.0000000 ]
  distance:    0.0157516
  band:
  - # 1
    frequency:   -1.3123281747
  - # 2
    frequency:   -1.2403134344
  - # 3
    frequency:    0.1078066932
  - # 4
    frequency:    0.4674711597
  - # 5
    frequency:    0.7782581832
  - # 6
    frequency:    1.1651852736
  - # 7
    frequency:    1.3211068297
  - # 8
    frequency:    3.1621069951
  - # 9
    frequency:    3.1990147240
  - # 10
    frequency:    4.7963738653
  - # 11
    frequency:    5.8279593096
  - # 12
    frequency:    5.8755875895
  - # 13
    frequency:    6.7861228758
  - # 14
    frequency:    6.8978667657
  - # 15
    frequency:    7.0601256950
  - # 16
    frequency:    7.5789706653
  - # 17
    frequency:   12.8298614948
  - # 18
    frequency:   12.8554156872
  - # 19
    frequency:   14.2203244150
  - # 20
    frequency:   14.3883289641
  - # 21
    frequency:   14.3983280154
  - # 22
    frequency:   16.6894889168
  - # 23
    frequency:   16.7332972631
  - # 24
    frequency:   26.7128865177
  - # 25
    frequency:   37.7533149358
  - # 26
    frequency:   54.3009813551
  - # 27
    frequency:   68.3587677029

- q-position: [    0.0505051,    0.0000000,    0.0000000 ]
  distance:    0.0175018
  band:
  - # 1
    frequency:   -1.3115613620
  - # 2
    frequency:   -1.2208913600
  - # 3
    frequency:    0.1325202142
  - # 4
    frequency:    0.5171921347
  - # 5
    frequency:    0.8597079348
  - # 6
    frequency:    1.1894781187
  - # 7
    frequency:    1.3756819870
  - # 8
    frequency:    3.1547433504
  - # 9
    frequency:    3.1999848421
  - # 10
    frequency:    4.7899004441
  - # 11
    frequency:    5.8271034158
  - # 12
    frequency:    5.8851350726
  - # 13
    frequency:    6.7730328678
  - # 14
    frequency:    6.8963526005
  - # 15
    frequency:    7.0747668318
  - # 16
    frequency:    7.5721692418
  - # 17
    frequency:   12.8287788377
  - # 18
    frequency:   12.8600179099
  - # 19
    frequency:   14.2127179403
  - # 20
    frequency:   14.3956643668
  - # 21
    frequency:   14.4078597428
  - # 22
    frequency:   16.6813793207
  - # 23
    frequency:   16.7346906846
  - # 24
    frequency:   26.7061083471
  - # 25
    frequency:   37.7538887135
  - # 26
    frequency:   54.2923701308
  - # 27
    frequency:   68.3387688134

- q-position: [    0.0555556,    0.0000000,    0.0000000 ]
  distance:    0.0192520
  band:
  - # 1
    frequency:   -1.3104644089
  - # 2
    frequency:   -1.1985904258
  - # 3
    frequency:    0.1597106644
  - # 4
    frequency:    0.5662407957
  - # 5
    frequency:    0.9399755380
  - # 6
    frequency:    1.2153909263
  - # 7
    frequency:    1.4330921250
  - # 8
    frequency:    3.1467526924
  - # 9
    frequency:    3.2010686773
  - # 10
    frequency:    4.7831067227
  - # 11
    frequency:    5.8262046817
  - # 12
    frequency:    5.8954324006
  - # 13
    frequency:    6.7602873418
  - # 14
    frequency:    6.8947206497
  - # 15
    frequency:    7.0891021743
  - # 16
    frequency:    7.5647446872
  - # 17
    frequency:   12.8276122852
  - # 18
    frequency:   12.8649997557
  - # 19
    frequency:   14.2044772519
  - # 20
    frequency:   14.4036928891
  - # 21
    frequency:   14.4182090493
  - # 22
    frequency:   16.6725034174
  - # 23
    frequency:   16.7359910968
  - # 24
    frequency:   26.6986878493
  - # 25
    frequency:   37.7545181868
  - # 26
    frequency:   54.2829238167
  - # 27
    frequency:   68.3168137691

- q-position: [    0.0606061,    0.0000000,    0.0000000 ]
  distance:    0.0210022
  band:
  - # 1
    frequency:   -1.3089860258
  - # 2
    frequency:   -1.1732513049
  - # 3
    frequency:    0.1893826300
  - # 4
    frequency:    0.6145590796
  - # 5
    frequency:    1.0190596075
  - # 6
    frequency:    1.2427364629
  - # 7
    frequency:    1.4928722507
  - # 8
    frequency:    3.1381799741
  - # 9
    frequency:    3.2022739800
  - # 10
    frequency:    4.7760787223
  - # 11
    frequency:    5.8252770443
  - # 12
    frequency:    5.9064223024
  - # 13
    frequency:    6.7478872325
  - # 14
    frequency:    6.8929830784
  - # 15
    frequency:    7.1030971412
  - # 16
    frequency:    7.5567231109
  - # 17
    frequency:   12.8263690262
  - # 18
    frequency:   12.8703291125
  - # 19
    frequency:   14.1956561075
  - # 20
    frequency:   14.4123918701
  - # 21
    frequency:   14.4293122576
  - # 22
    frequency:   16.6628871666
  - # 23
    frequency:   16.7371349683
  - # 24
    frequency:   26.6906457221
  - # 25
    frequency:   37.7552019880
  - # 26
    frequency:   54.2726632632
  - # 27
    frequency:   68.2929462073

- q-position: [    0.0656566,    0.0000000,    0.0000000 ]
  distance:    0.0227523
  band:
  - # 1
    frequency:   -1.3070773068
  - # 2
    frequency:   -1.1447142965
  - # 3
    frequency:    0.2215471116
  - # 4
    frequency:    0.6620895016
  - # 5
    frequency:    1.0969599933
  - # 6
    frequency:    1.2713387177
  - # 7
    frequency:    1.5546071651
  - # 8
    frequency:    3.1290745597
  - # 9
    frequency:    3.2036108799
  - # 10
    frequency:    4.7689026057
  - # 11
    frequency:    5.8243356598
  - # 12
    frequency:    5.9180487475
  - # 13
    frequency:    6.7358268897
  - # 14
    frequency:    6.8911530657
  - # 15
    frequency:    7.1167222582
  - # 16
    frequency:    7.5481323254
  - # 17
    frequency:   12.8250561603
  - # 18
    frequency:   12.8759705919
  - # 19
    frequency:   14.1863108120
  - # 20
    frequency:   14.4217369419
  - # 21
    frequency:   14.4411006307
  - # 22
    frequency:   16.6525588548
  - # 23
    frequency:   16.7380562299
  - # 24
    frequency:   26.6820043298
  - # 25
    frequency:   37.7559386393
  - # 26
    frequency:   54.2616110460
  - # 27
    frequency:   68.2672134230

- q-position: [    0.0707071,    0.0000000,    0.0000000 ]
  distance:    0.0245025
  band:
  - # 1
    frequency:   -1.3046921092
  - # 2
    frequency:   -1.1128147586
  - # 3
    frequency:    0.2562207092
  - # 4
    frequency:    0.7087750535
  - # 5
    frequency:    1.1736737485
  - # 6
    frequency:    1.3010345937
  - # 7
    frequency:    1.6179294773
  - # 8
    frequency:    3.1194901830
  - # 9
    frequency:    3.2050920964
  - # 10
    frequency:    4.7616636416
  - # 11
    frequency:    5.8233968757
  - # 12
    frequency:    5.9302576569
  - # 13
    frequency:    6.7240945184
  - # 14
    frequency:    6.8892447674
  - # 15
    frequency:    7.1299531523
  - # 16
    frequency:    7.5390016622
  - # 17
    frequency:   12.8236805447
  - # 18
    frequency:   12.8818855271
  - # 19
    frequency:   14.1764993340
  - # 20
    frequency:   14.4317021273
  - # 21
    frequency:   14.4535010377
  - # 22
    frequency:   16.6415490371
  - # 23
    frequency:   16.7386869761
  - # 24
    frequency:   26.6727876236
  - # 25
    frequency:   37.7567265578
  - # 26
    frequency:   54.2497913971
  - # 27
    frequency:   68.2396662356

- q-position: [    0.0757576,    0.0000000,    0.0000000 ]
  distance:    0.0262527
  band:
  - # 1
    frequency:   -1.3017871981
  - # 2
    frequency:   -1.0773769862
  - # 3
    frequency:    0.2934247147
  - # 4
    frequency:    0.7545592864
  - # 5
    frequency:    1.2491920239
  - # 6
    frequency:    1.3316747573
  - # 7
    frequency:    1.6825165077
  - # 8
    frequency:    3.1094848678
  - # 9
    frequency:    3.2067330754
  - # 10
    frequency:    4.7544453295
  - # 11
    frequency:    5.8224782005
  - # 12
    frequency:    5.9429974364
  - # 13
    frequency:    6.7126725593
  - # 14
    frequency:    6.8872732772
  - # 15
    frequency:    7.1427706221
  - # 16
    frequency:    7.5293617871
  - # 17
    frequency:   12.8222486478
  - # 18
    frequency:   12.8880319923
  - # 19
    frequency:   14.1662805728
  - # 20
    frequency:   14.4422599373
  - # 21
    frequency:   14.4664365139
  - # 22
    frequency:   16.6298904669
  - # 23
    frequency:   16.7389581448
  - # 24
    frequency:   26.6630210561
  - # 25
    frequency:   37.7575640609
  - # 26
    frequency:   54.2372301317
  - # 27
    frequency:   68.2103588479

- q-position: [    0.0808081,    0.0000000,    0.0000000 ]
  distance:    0.0280029
  band:
  - # 1
    frequency:   -1.2983221913
  - # 2
    frequency:   -1.0382058854
  - # 3
    frequency:    0.3331837484
  - # 4
    frequency:    0.7993865976
  - # 5
    frequency:    1.3234978081
  - # 6
    frequency:    1.3631237923
  - # 7
    frequency:    1.7480866922
  - # 8
    frequency:    3.0991208005
  - # 9
    frequency:    3.2085520363
  - # 10
    frequency:    4.7473286699
  - # 11
    frequency:    5.8215982682
  - # 12
    frequency:    5.9562193452
  - # 13
    frequency:    6.7015380709
  - # 14
    frequency:    6.8852545860
  - # 15
    frequency:    7.1551607146
  - # 16
    frequency:    7.5192445222
  - # 17
    frequency:   12.8207664144
  - # 18
    frequency:   12.8943648464
  - # 19
    frequency:   14.1557137462
  - # 20
    frequency:   14.4533814685
  - # 21
    frequency:   14.4798267468
  - # 22
    frequency:   16.6176180120
  - # 23
    frequency:   16.7388001682
  - # 24
    frequency:   26.6527314915
  - # 25
    frequency:   37.7584493722
  - # 26
    frequency:   54.2239545699
  - # 27
    frequency:   68.1793486940

- q-position: [    0.0858586,    0.0000000,    0.0000000 ]
  distance:    0.0297531
  band:
  - # 1
    frequency:   -1.2942593418
  - # 2
    frequency:   -0.9950750429
  - # 3
    frequency:    0.3755233740
  - # 4
    frequency:    0.8432027318
  - # 5
    frequency:    1.3952598010
  - # 6
    frequency:    1.3965644153
  - # 7
    frequency:    1.8143958796
  - # 8
    frequency:    3.0884641465
  - # 9
    frequency:    3.2105699137
  - # 10
    frequency:    4.7403915589
  - # 11
    frequency:    5.8207767999
  - # 12
    frequency:    5.9698777180
  - # 13
    frequency:    6.6906631458
  - # 14
    frequency:    6.8832055387
  - # 15
    frequency:    7.1671147654
  - # 16
    frequency:    7.5086826837
  - # 17
    frequency:   12.8192391454
  - # 18
    frequency:   12.9008358067
  - # 19
    frequency:   14.1448578767
  - # 20
    frequency:   14.4650364997
  - # 21
    frequency:   14.4935885129
  - # 22
    frequency:   16.6047685552
  - # 23
    frequency:   16.7381435880
  - # 24
    frequency:   26.6419471101
  - # 25
    frequency:   37.7593806277
  - # 26
    frequency:   54.2099934542
  - # 27
    frequency:   68.1466962787

- q-position: [    0.0909091,    0.0000000,    0.0000000 ]
  distance:    0.0315032
  band:
  - # 1
    frequency:   -1.2895631899
  - # 2
    frequency:   -0.9477084478
  - # 3
    frequency:    0.4204659045
  - # 4
    frequency:    0.8859554949
  - # 5
    frequency:    1.4279735828
  - # 6
    frequency:    1.4683546210
  - # 7
    frequency:    1.8812337478
  - # 8
    frequency:    3.0775847999
  - # 9
    frequency:    3.2128101825
  - # 10
    frequency:    4.7337082805
  - # 11
    frequency:    5.8200345575
  - # 12
    frequency:    5.9839300595
  - # 13
    frequency:    6.6800153763
  - # 14
    frequency:    6.8811437905
  - # 15
    frequency:    7.1786293685
  - # 16
    frequency:    7.4977099468
  - # 17
    frequency:   12.8176713944
  - # 18
    frequency:   12.9073935530
  - # 19
    frequency:   14.1337713563
  - # 20
    frequency:   14.4771935878
  - # 21
    frequency:   14.5076360818
  - # 22
    frequency:   16.5913808798
  - # 23
    frequency:   16.7369196314
  - # 24
    frequency:   26.6306973097
  - # 25
    frequency:   37.7603558820
  - # 26
    frequency:   54.1953768634
  - # 27
    frequency:   68.1124650089

- q-position: [    0.0959596,    0.0000000,    0.0000000 ]
  distance:    0.0332534
  band:
  - # 1
    frequency:   -1.2842001141
  - # 2
    frequency:   -0.8957506257
  - # 3
    frequency:    0.4680234268
  - # 4
    frequency:    0.9275956690
  - # 5
    frequency:    1.4611675055
  - # 6
    frequency:    1.5388203717
  - # 7
    frequency:    1.9484204518
  - # 8
    frequency:    3.0665560557
  - # 9
    frequency:    3.2152985564
  - # 10
    frequency:    4.7273490728
  - # 11
    frequency:    5.8193932919
  - # 12
    frequency:    5.9983370335
  - # 13
    frequency:    6.6695583780
  - # 14
    frequency:    6.8790877603
  - # 15
    frequency:    7.1897062491
  - # 16
    frequency:    7.4863607593
  - # 17
    frequency:   12.8160668837
  - # 18
    frequency:   12.9139838677
  - # 19
    frequency:   14.1225115748
  - # 20
    frequency:   14.4898201632
  - # 21
    frequency:   14.5218816022
  - # 22
    frequency:   16.5774955376
  - # 23
    frequency:   16.7350607453
  - # 24
    frequency:   26.6190126019
  - # 25
    frequency:   37.7613731146
  - # 26
    frequency:   54.1801361217
  - # 27
    frequency:   68.0767210163

- q-position: [    0.1010101,    0.0000000,    0.0000000 ]
  distance:    0.0350036
  band:
  - # 1
    frequency:   -1.2781378046
  - # 2
    frequency:   -0.8387150870
  - # 3
    frequency:    0.5181870665
  - # 4
    frequency:    0.9680781075
  - # 5
    frequency:    1.4947541734
  - # 6
    frequency:    1.6079030164
  - # 7
    frequency:    2.0158035313
  - # 8
    frequency:    3.0554541969
  - # 9
    frequency:    3.2180625568
  - # 10
    frequency:    4.7213797385
  - # 11
    frequency:    5.8188756811
  - # 12
    frequency:    6.0130623629
  - # 13
    frequency:    6.6592523736
  - # 14
    frequency:    6.8770565842
  - # 15
    frequency:    7.2003520016
  - # 16
    frequency:    7.4746703301
  - # 17
    frequency:   12.8144284414
  - # 18
    frequency:   12.9205498143
  - # 19
    frequency:   14.1111345984
  - # 20
    frequency:   14.5028826248
  - # 21
    frequency:   14.5362354746
  - # 22
    frequency:   16.5631546991
  - # 23
    frequency:   16.7325010880
  - # 24
    frequency:   26.6069245057
  - # 25
    frequency:   37.7624302370
  - # 26
    frequency:   54.1643037049
  - # 27
    frequency:   68.0395329730

- q-position: [    0.1060606,    0.0000000,    0.0000000 ]
  distance:    0.0367538
  band:
  - # 1
    frequency:   -1.2713446777
  - # 2
    frequency:   -0.7758909952
  - # 3
    frequency:    0.5709119903
  - # 4
    frequency:    1.0073629766
  - # 5
    frequency:    1.5286549808
  - # 6
    frequency:    1.6755340369
  - # 7
    frequency:    2.0832550489
  - # 8
    frequency:    3.0443579873
  - # 9
    frequency:    3.2211309523
  - # 10
    frequency:    4.7158612757
  - # 11
    frequency:    5.8185052595
  - # 12
    frequency:    6.0280726596
  - # 13
    frequency:    6.6490548357
  - # 14
    frequency:    6.8750700668
  - # 15
    frequency:    7.2105776490
  - # 16
    frequency:    7.4626747392
  - # 17
    frequency:   12.8127579629
  - # 18
    frequency:   12.9270319568
  - # 19
    frequency:   14.0996948880
  - # 20
    frequency:   14.5163464365
  - # 21
    frequency:   14.5506067176
  - # 22
    frequency:   16.5484019847
  - # 23
    frequency:   16.7291769782
  - # 24
    frequency:   26.5944654377
  - # 25
    frequency:   37.7635250992
  - # 26
    frequency:   54.1479131440
  - # 27
    frequency:   68.0009718997

- q-position: [    0.1111111,    0.0000000,    0.0000000 ]
  distance:    0.0385040
  band:
  - # 1
    frequency:   -1.2637892445
  - # 2
    frequency:   -0.7061653111
  - # 3
    frequency:    0.6260989485
  - # 4
    frequency:    1.0454171001
  - # 5
    frequency:    1.5627986349
  - # 6
    frequency:    1.7416362759
  - # 7
    frequency:    2.1506688917
  - # 8
    frequency:    3.0333480641
  - # 9
    frequency:    3.2245330813
  - # 10
    frequency:    4.7108495065
  - # 11
    frequency:    5.8183063340
  - # 12
    frequency:    6.0433371962
  - # 13
    frequency:    6.6389211855
  - # 14
    frequency:    6.8731486321
  - # 15
    frequency:    7.2203979439
  - # 16
    frequency:    7.4504112462
  - # 17
    frequency:   12.8110563950
  - # 18
    frequency:   12.9333686224
  - # 19
    frequency:   14.0882450464
  - # 20
    frequency:   14.5301762244
  - # 21
    frequency:   14.5649033284
  - # 22
    frequency:   16.5332822781
  - # 23
    frequency:   16.7250273028
  - # 24
    frequency:   26.5816686002
  - # 25
    frequency:   37.7646554967
  - # 26
    frequency:   54.1309989244
  - # 27
    frequency:   67.9611109683

- q-position: [    0.1161616,    0.0000000,    0.0000000 ]
  distance:    0.0402541
  band:
  - # 1
    frequency:   -1.2554394449
  - # 2
    frequency:   -0.6276579120
  - # 3
    frequency:    0.6835754693
  - # 4
    frequency:    1.0822153563
  - # 5
    frequency:    1.5971197194
  - # 6
    frequency:    1.8061256708
  - # 7
    frequency:    2.2179581434
  - # 8
    frequency:    3.0225062265
  - # 9
    frequency:    3.2282980764
  - # 10
    frequency:    4.7063946828
  - # 11
    frequency:    5.8183038885
  - # 12
    frequency:    6.0588276301
  - # 13
    frequency:    6.6288055438
  - # 14
    frequency:    6.8713132733
  - # 15
    frequency:    7.2298302846
  - # 16
    frequency:    7.4379189296
  - # 17
    frequency:   12.8093237456
  - # 18
    frequency:   12.9394962100
  - # 19
    frequency:   14.0768355852
  - # 20
    frequency:   14.5443358775
  - # 21
    frequency:   14.5790326410
  - # 22
    frequency:   16.5178415193
  - # 23
    frequency:   16.7199938854
  - # 24
    frequency:   26.5685678664
  - # 25
    frequency:   37.7658191777
  - # 26
    frequency:   54.1135963839
  - # 27
    frequency:   67.9200252981

- q-position: [    0.1212121,    0.0000000,    0.0000000 ]
  distance:    0.0420043
  band:
  - # 1
    frequency:   -1.2462619529
  - # 2
    frequency:   -0.5368725218
  - # 3
    frequency:    0.7430824934
  - # 4
    frequency:    1.1177420677
  - # 5
    frequency:    1.6315573652
  - # 6
    frequency:    1.8689135012
  - # 7
    frequency:    2.2850524274
  - # 8
    frequency:    3.0119146224
  - # 9
    frequency:    3.2324540322
  - # 10