nqpoint: 300    
npath: 3      
segment_nqpoint:
- 100
- 100
- 100
labels:
- [ 'G', 'M' ]
- [ 'M', 'K' ]
- [ 'K', 'G' ]
reciprocal_lattice:
- [   0.30045214,   0.17346612,   0.00000000 ] # a*
- [   0.00000000,   0.34693225,   0.00000000 ] # b*
- [   0.00000000,   0.00000000,   0.04412704 ] # c*
natom: 5      
lattice:
- [     3.328317104181005,     0.000000000000000,     0.000000000000000 ] # a
- [    -1.664158552090502,     2.882407164039262,     0.000000000000000 ] # b
- [     0.000000000000000,     0.000000000000000,    22.661841717864323 ] # c
points:
- symbol: C # 1
  coordinates: [  0.000000000000000,  0.000000000000000,  0.500000037211639 ]
  mass: 12.010700
- symbol: O # 2
  coordinates: [  0.333332985432215,  0.666666983183674,  0.602856638394694 ]
  mass: 15.999400
- symbol: O # 3
  coordinates: [  0.666666984744047,  0.333332985985145,  0.397143361605306 ]
  mass: 15.999400
- symbol: Zr # 4
  coordinates: [  0.333332985432215,  0.666666983183674,  0.438118819539249 ]
  mass: 91.224000
- symbol: Zr # 5
  coordinates: [  0.666666984744047,  0.333332985985145,  0.561881179905344 ]
  mass: 91.224000

phonon:
- q-position: [    0.0000000,    0.0000000,    0.0000000 ]
  distance:    0.0000000
  band:
  - # 1
    frequency:   -0.0000434216
  - # 2
    frequency:   -0.0000001974
  - # 3
    frequency:    0.0000343312
  - # 4
    frequency:    3.2326310353
  - # 5
    frequency:    3.2326310356
  - # 6
    frequency:    6.6810942323
  - # 7
    frequency:    8.5003059624
  - # 8
    frequency:    8.5003059626
  - # 9
    frequency:   11.3291823064
  - # 10
    frequency:   11.3291823065
  - # 11
    frequency:   14.0045144323
  - # 12
    frequency:   14.0045144324
  - # 13
    frequency:   14.6941315387
  - # 14
    frequency:   15.1577947357
  - # 15
    frequency:   20.0142935073

- q-position: [    0.0050505,    0.0000000,    0.0000000 ]
  distance:    0.0017522
  band:
  - # 1
    frequency:    0.0101357056
  - # 2
    frequency:    0.0877101161
  - # 3
    frequency:    0.1404400297
  - # 4
    frequency:    3.2323947226
  - # 5
    frequency:    3.2343222059
  - # 6
    frequency:    6.6808217766
  - # 7
    frequency:    8.5005534307
  - # 8
    frequency:    8.5140003255
  - # 9
    frequency:   11.3278161193
  - # 10
    frequency:   11.3290367971
  - # 11
    frequency:   14.0034351597
  - # 12
    frequency:   14.0044463884
  - # 13
    frequency:   14.6938527556
  - # 14
    frequency:   15.1574792376
  - # 15
    frequency:   20.0139034973

- q-position: [    0.0101010,    0.0000000,    0.0000000 ]
  distance:    0.0035044
  band:
  - # 1
    frequency:    0.0217010732
  - # 2
    frequency:    0.1753356334
  - # 3
    frequency:    0.2808144993
  - # 4
    frequency:    3.2316882978
  - # 5
    frequency:    3.2393961084
  - # 6
    frequency:    6.6800046780
  - # 7
    frequency:    8.5012982016
  - # 8
    frequency:    8.5548820066
  - # 9
    frequency:   11.3237232084
  - # 10
    frequency:   11.3285996243
  - # 11
    frequency:   14.0002042549
  - # 12
    frequency:   14.0042422862
  - # 13
    frequency:   14.6930174197
  - # 14
    frequency:   15.1565380367
  - # 15
    frequency:   20.0127339437

- q-position: [    0.0151515,    0.0000000,    0.0000000 ]
  distance:    0.0052565
  band:
  - # 1
    frequency:    0.0358278606
  - # 2
    frequency:    0.2627920615
  - # 3
    frequency:    0.4210593096
  - # 4
    frequency:    3.2305192928
  - # 5
    frequency:    3.2478526627
  - # 6
    frequency:    6.6786437489
  - # 7
    frequency:    8.5025473382
  - # 8
    frequency:    8.6223560241
  - # 9
    frequency:   11.3169208445
  - # 10
    frequency:   11.3278688717
  - # 11
    frequency:   13.9948426370
  - # 12
    frequency:   14.0039022141
  - # 13
    frequency:   14.6916284635
  - # 14
    frequency:   15.1549872510
  - # 15
    frequency:   20.0107862646

- q-position: [    0.0202020,    0.0000000,    0.0000000 ]
  distance:    0.0070087
  band:
  - # 1
    frequency:    0.0532516274
  - # 2
    frequency:    0.3499952230
  - # 3
    frequency:    0.5611129296
  - # 4
    frequency:    3.2289002342
  - # 5
    frequency:    3.2596879189
  - # 6
    frequency:    6.6767403627
  - # 7
    frequency:    8.5043124970
  - # 8
    frequency:    8.7154601932
  - # 9
    frequency:   11.3074389515
  - # 10
    frequency:   11.3268414038
  - # 11
    frequency:   13.9873857784
  - # 12
    frequency:   14.0034263191
  - # 13
    frequency:   14.6896904247
  - # 14
    frequency:   15.1528545489
  - # 15
    frequency:   20.0080627865

- q-position: [    0.0252525,    0.0000000,    0.0000000 ]
  distance:    0.0087609
  band:
  - # 1
    frequency:    0.0743800850
  - # 2
    frequency:    0.4368613785
  - # 3
    frequency:    0.7009169641
  - # 4
    frequency:    3.2268486018
  - # 5
    frequency:    3.2748894887
  - # 6
    frequency:    6.6742964843
  - # 7
    frequency:    8.5066097582
  - # 8
    frequency:    8.8329048357
  - # 9
    frequency:   11.2953221049
  - # 10
    frequency:   11.3255129519
  - # 11
    frequency:   13.9778846478
  - # 12
    frequency:   14.0028148052
  - # 13
    frequency:   14.6872089593
  - # 14
    frequency:   15.1501803841
  - # 15
    frequency:   20.0045666900

- q-position: [    0.0303030,    0.0000000,    0.0000000 ]
  distance:    0.0105131
  band:
  - # 1
    frequency:    0.0994009313
  - # 2
    frequency:    0.5233073826
  - # 3
    frequency:    0.8404159954
  - # 4
    frequency:    3.2243867704
  - # 5
    frequency:    3.2934320530
  - # 6
    frequency:    6.6713147126
  - # 7
    frequency:    8.5094593904
  - # 8
    frequency:    8.9731202143
  - # 9
    frequency:   11.2806330469
  - # 10
    frequency:   11.3238782322
  - # 11
    frequency:   13.9664071037
  - # 12
    frequency:   14.0020679316
  - # 13
    frequency:   14.6841902285
  - # 14
    frequency:   15.1470197917
  - # 15
    frequency:   20.0003019356

- q-position: [    0.0353535,    0.0000000,    0.0000000 ]
  distance:    0.0122653
  band:
  - # 1
    frequency:    0.1283642734
  - # 2
    frequency:    0.6092508454
  - # 3
    frequency:    0.9795566880
  - # 4
    frequency:    3.2215419310
  - # 5
    frequency:    3.3152740875
  - # 6
    frequency:    6.6677983372
  - # 7
    frequency:    8.5128855565
  - # 8
    frequency:    9.1343049403
  - # 9
    frequency:   11.2634588453
  - # 10
    frequency:   11.3219310936
  - # 11
    frequency:   13.9530398386
  - # 12
    frequency:   14.0011860102
  - # 13
    frequency:   14.6806402203
  - # 14
    frequency:   15.1434448213
  - # 15
    frequency:   19.9952731724

- q-position: [    0.0404040,    0.0000000,    0.0000000 ]
  distance:    0.0140175
  band:
  - # 1
    frequency:    0.1612332449
  - # 2
    frequency:    0.6946103020
  - # 3
    frequency:    1.1182862307
  - # 4
    frequency:    3.2183459918
  - # 5
    frequency:    3.3403565622
  - # 6
    frequency:    6.6637514085
  - # 7
    frequency:    8.5169159636
  - # 8
    frequency:    9.3144676417
  - # 9
    frequency:   11.2439220823
  - # 10
    frequency:   11.3196646917
  - # 11
    frequency:   13.9378910399
  - # 12
    frequency:   14.0001694007
  - # 13
    frequency:   14.6765640702
  - # 14
    frequency:   15.1395477314
  - # 15
    frequency:   19.9894856310

- q-position: [    0.0454545,    0.0000000,    0.0000000 ]
  distance:    0.0157696
  band:
  - # 1
    frequency:    0.1979134743
  - # 2
    frequency:    0.7793053894
  - # 3
    frequency:    1.2565502583
  - # 4
    frequency:    3.2148354550
  - # 5
    frequency:    3.3686038680
  - # 6
    frequency:    6.6591788226
  - # 7
    frequency:    8.5215814637
  - # 8
    frequency:    9.5114520666
  - # 9
    frequency:   11.2222024451
  - # 10
    frequency:   11.3170716864
  - # 11
    frequency:   13.9210940388
  - # 12
    frequency:   13.9990185055
  - # 13
    frequency:   14.6719654451
  - # 14
    frequency:   15.1354451304
  - # 15
    frequency:   19.9829450059

- q-position: [    0.0505051,    0.0000000,    0.0000000 ]
  distance:    0.0175218
  band:
  - # 1
    frequency:    0.2382709520
  - # 2
    frequency:    0.8632570359
  - # 3
    frequency:    1.3942904087
  - # 4
    frequency:    3.2110512689
  - # 5
    frequency:    3.3999267891
  - # 6
    frequency:    6.6540864219
  - # 7
    frequency:    8.5269156111
  - # 8
    frequency:    9.7229290088
  - # 9
    frequency:   11.1985819457
  - # 10
    frequency:   11.3141444580
  - # 11
    frequency:   13.9028123699
  - # 12
    frequency:   13.9977337614
  - # 13
    frequency:   14.6668460533
  - # 14
    frequency:   15.1312833384
  - # 15
    frequency:   19.9756573279

- q-position: [    0.0555556,    0.0000000,    0.0000000 ]
  distance:    0.0192740
  band:
  - # 1
    frequency:    0.2821439004
  - # 2
    frequency:    0.9463876587
  - # 3
    frequency:    1.5314416555
  - # 4
    frequency:    3.2070386521
  - # 5
    frequency:    3.4342270522
  - # 6
    frequency:    6.6484811129
  - # 7
    frequency:    8.5329541837
  - # 8
    frequency:    9.9463160449
  - # 9
    frequency:   11.1735503173
  - # 10
    frequency:   11.3108753397
  - # 11
    frequency:   13.8832469049
  - # 12
    frequency:   13.9963156294
  - # 13
    frequency:   14.6612053324
  - # 14
    frequency:   15.1272453722
  - # 15
    frequency:   19.9676288336

- q-position: [    0.0606061,    0.0000000,    0.0000000 ]
  distance:    0.0210262
  band:
  - # 1
    frequency:    0.3293514528
  - # 2
    frequency:    1.0286213744
  - # 3
    frequency:    1.6679295147
  - # 4
    frequency:    3.2028468876
  - # 5
    frequency:    3.4714028795
  - # 6
    frequency:    6.6423710026
  - # 7
    frequency:    8.5397346748
  - # 8
    frequency:   10.1785055302
  - # 9
    frequency:   11.1480881964
  - # 10
    frequency:   11.3072568607
  - # 11
    frequency:   13.8626460822
  - # 12
    frequency:   13.9947645816
  - # 13
    frequency:   14.6550403653
  - # 14
    frequency:   15.1235601376
  - # 15
    frequency:   19.9588658332

- q-position: [    0.0656566,    0.0000000,    0.0000000 ]
  distance:    0.0227784
  band:
  - # 1
    frequency:    0.3797004222
  - # 2
    frequency:    1.1098842200
  - # 3
    frequency:    1.8036671774
  - # 4
    frequency:    3.1985290852
  - # 5
    frequency:    3.5113550072
  - # 6
    frequency:    6.6357655562
  - # 7
    frequency:    8.5472957633
  - # 8
    frequency:   10.4149347700
  - # 9
    frequency:   11.1245921629
  - # 10
    frequency:   11.3032819968
  - # 11
    frequency:   13.8413208286
  - # 12
    frequency:   13.9930810853
  - # 13
    frequency:   14.6483460661
  - # 14
    frequency:   15.1205146709
  - # 15
    frequency:   19.9493745840

- q-position: [    0.0707071,    0.0000000,    0.0000000 ]
  distance:    0.0245306
  band:
  - # 1
    frequency:    0.4329907134
  - # 2
    frequency:    1.1901043848
  - # 3
    frequency:    1.9385525828
  - # 4
    frequency:    3.1941419099
  - # 5
    frequency:    3.5539927468
  - # 6
    frequency:    6.6286757799
  - # 7
    frequency:    8.5556767698
  - # 8
    frequency:   10.6456149550
  - # 9
    frequency:   11.1108222430
  - # 10
    frequency:   11.2989444230
  - # 11
    frequency:   13.8196666569
  - # 12
    frequency:   13.9912655826
  - # 13
    frequency:   14.6411156768
  - # 14
    frequency:   15.1184706348
  - # 15
    frequency:   19.9391611714

- q-position: [    0.0757576,    0.0000000,    0.0000000 ]
  distance:    0.0262827
  band:
  - # 1
    frequency:    0.4890196273
  - # 2
    frequency:    1.2692124524
  - # 3
    frequency:    2.0724654191
  - # 4
    frequency:    3.1897452753
  - # 5
    frequency:    3.5992398097
  - # 6
    frequency:    6.6211144317
  - # 7
    frequency:    8.5649171051
  - # 8
    frequency:   10.8348414588
  - # 9
    frequency:   11.1401447865
  - # 10
    frequency:   11.2942387665
  - # 11
    frequency:   13.7981968240
  - # 12
    frequency:   13.9893184674
  - # 13
    frequency:   14.6333416119
  - # 14
    frequency:   15.1178867757
  - # 15
    frequency:   19.9282314049

- q-position: [    0.0808081,    0.0000000,    0.0000000 ]
  distance:    0.0280349
  band:
  - # 1
    frequency:    0.5475851918
  - # 2
    frequency:    1.3471416524
  - # 3
    frequency:    2.2052640426
  - # 4
    frequency:    3.1854020009
  - # 5
    frequency:    3.6470397290
  - # 6
    frequency:    6.6130962677
  - # 7
    frequency:    8.5750557197
  - # 8
    frequency:   10.9073142066
  - # 9
    frequency:   11.2853348079
  - # 10
    frequency:   11.2891608542
  - # 11
    frequency:   13.7775925269
  - # 12
    frequency:   13.9872400579
  - # 13
    frequency:   14.6250166874
  - # 14
    frequency:   15.1193496925
  - # 15
    frequency:   19.9165907327

- q-position: [    0.0858586,    0.0000000,    0.0000000 ]
  distance:    0.0297871
  band:
  - # 1
    frequency:    0.6084886309
  - # 2
    frequency:    1.4238281193
  - # 3
    frequency:    2.3367823356
  - # 4
    frequency:    3.1811774330
  - # 5
    frequency:    3.6973607827
  - # 6
    frequency:    6.6046383290
  - # 7
    frequency:    8.5861305595
  - # 8
    frequency:   10.9001338497
  - # 9
    frequency:   11.2837079516
  - # 10
    frequency:   11.5064612429
  - # 11
    frequency:   13.7587789226
  - # 12
    frequency:   13.9850305652
  - # 13
    frequency:   14.6161357629
  - # 14
    frequency:   15.1236160037
  - # 15
    frequency:   19.9042441806

- q-position: [    0.0909091,    0.0000000,    0.0000000 ]
  distance:    0.0315393
  band:
  - # 1
    frequency:    0.6715360815
  - # 2
    frequency:    1.4992111575
  - # 3
    frequency:    2.4668266006
  - # 4
    frequency:    3.1771390294
  - # 5
    frequency:    3.7502003164
  - # 6
    frequency:    6.5957602813
  - # 7
    frequency:    8.5981780352
  - # 8
    frequency:   10.8704468400
  - # 9
    frequency:   11.2778789915
  - # 10
    frequency:   11.7430680948
  - # 11
    frequency:   13.7430382042
  - # 12
    frequency:   13.9826900578
  - # 13
    frequency:   14.6066978084
  - # 14
    frequency:   15.1316695433
  - # 15
    frequency:   19.8911963213

- q-position: [    0.0959596,    0.0000000,    0.0000000 ]
  distance:    0.0332915
  band:
  - # 1
    frequency:    0.7365396736
  - # 2
    frequency:    1.5732335093
  - # 3
    frequency:    2.5951727224
  - # 4
    frequency:    3.1733559094
  - # 5
    frequency:    3.8055882734
  - # 6
    frequency:    6.5864848170
  - # 7
    frequency:    8.6112325122
  - # 8
    frequency:   10.8327376103
  - # 9
    frequency:   11.2716747872
  - # 10
    frequency:   11.9766427458
  - # 11
    frequency:   13.7321678958
  - # 12
    frequency:   13.9802184231
  - # 13
    frequency:   14.5967083809
  - # 14
    frequency:   15.1447967357
  - # 15
    frequency:   19.8774512799

- q-position: [    0.1010101,    0.0000000,    0.0000000 ]
  distance:    0.0350437
  band:
  - # 1
    frequency:    0.8033180868
  - # 2
    frequency:    1.6458416252
  - # 3
    frequency:    2.7215640383
  - # 4
    frequency:    3.1698983706
  - # 5
    frequency:    3.8635895479
  - # 6
    frequency:    6.5768381384
  - # 7
    frequency:    8.6253258246
  - # 8
    frequency:   10.7909199776
  - # 9
    frequency:   11.2650982296
  - # 10
    frequency:   12.1982387796
  - # 11
    frequency:   13.7286660181
  - # 12
    frequency:   13.9776153243
  - # 13
    frequency:   14.5861824411
  - # 14
    frequency:   15.1646797270
  - # 15
    frequency:   19.8630127822

- q-position: [    0.1060606,    0.0000000,    0.0000000 ]
  distance:    0.0367958
  band:
  - # 1
    frequency:    0.8716966897
  - # 2
    frequency:    1.7169859310
  - # 3
    frequency:    2.8457106625
  - # 4
    frequency:    3.1668373748
  - # 5
    frequency:    3.9243044814
  - # 6
    frequency:    6.5668505425
  - # 7
    frequency:    8.6404868204
  - # 8
    frequency:   10.7464774108
  - # 9
    frequency:   11.2581544649
  - # 10
    frequency:   12.4001316588
  - # 11
    frequency:   13.7358272522
  - # 12
    frequency:   13.9748801554
  - # 13
    frequency:   14.5751473627
  - # 14
    frequency:   15.1934957766
  - # 15
    frequency:   19.8478842549

- q-position: [    0.1111111,    0.0000000,    0.0000000 ]
  distance:    0.0385480
  band:
  - # 1
    frequency:    0.9415073579
  - # 2
    frequency:    1.7866210912
  - # 3
    frequency:    2.9672913794
  - # 4
    frequency:    3.1642440072
  - # 5
    frequency:    3.9878664346
  - # 6
    frequency:    6.5565571373
  - # 7
    frequency:    8.6567409416
  - # 8
    frequency:   10.7001488872
  - # 9
    frequency:   11.2508510516
  - # 10
    frequency:   12.5744024271
  - # 11
    frequency:   13.7573960995
  - # 12
    frequency:   13.9720119934
  - # 13
    frequency:   14.5636458731
  - # 14
    frequency:   15.2339856290
  - # 15
    frequency:   19.8320689850

- q-position: [    0.1161616,    0.0000000,    0.0000000 ]
  distance:    0.0403002
  band:
  - # 1
    frequency:    1.0125880521
  - # 2
    frequency:    1.8547062646
  - # 3
    frequency:    3.0859596077
  - # 4
    frequency:    3.1621889119
  - # 5
    frequency:    4.0544349730
  - # 6
    frequency:    6.5459987261
  - # 7
    frequency:    8.6741098443
  - # 8
    frequency:   10.6523914676
  - # 9
    frequency:   11.2431980940
  - # 10
    frequency:   12.7139143478
  - # 11
    frequency:   13.7961647638
  - # 12
    frequency:   13.9690095484
  - # 13
    frequency:   14.5517385001
  - # 14
    frequency:   15.2894077667
  - # 15
    frequency:   19.8155703518

- q-position: [    0.1212121,    0.0000000,    0.0000000 ]
  distance:    0.0420524
  band:
  - # 1
    frequency:    1.0847822249
  - # 2
    frequency:    1.9212053488
  - # 3
    frequency:    3.1607417090
  - # 4
    frequency:    3.2013551237
  - # 5
    frequency:    4.1241829829
  - # 6
    frequency:    6.5352229125
  - # 7
    frequency:    8.6926110609
  - # 8
    frequency:   10.6035390041
  - # 9
    frequency:   11.2352083522
  - # 10
    frequency:   12.8149452923
  - # 11
    frequency:   13.8514664575
  - # 12
    frequency:   13.9658711137
  - # 13
    frequency:   14.5395048801
  - # 14
    frequency:   15.3632464252
  - # 15
    frequency:   19.7983921459

- q-position: [    0.1262626,    0.0000000,    0.0000000 ]
  distance:    0.0438046
  band:
  - # 1
    frequency:    1.1579381099
  - # 2
    frequency:    1.9860872122
  - # 3
    frequency:    3.1599703974
  - # 4
    frequency:    3.3131229266
  - # 5
    frequency:    4.1972763219
  - # 6
    frequency:    6.5242854949
  - # 7
    frequency:    8.7122577096
  - # 8
    frequency:   10.5538658790
  - # 9
    frequency:   11.2268973263
  - # 10
    frequency:   12.8793546116
  - # 11
    frequency:   13.9175870208
  - # 12
    frequency:   13.9625945161
  - # 13
    frequency:   14.5270430014
  - # 14
    frequency:   15.4585638693
  - # 15
    frequency:   19.7805389941

- q-position: [    0.1313131,    0.0000000,    0.0000000 ]
  distance:    0.0455568
  band:
  - # 1
    frequency:    1.2319079397
  - # 2
    frequency:    2.0493259104
  - # 3
    frequency:    3.1599407497
  - # 4
    frequency:    3.4209394099
  - # 5
    frequency:    4.2738457802
  - # 6
    frequency:    6.5132522414
  - # 7
    frequency:    8.7330582518
  - # 8
    frequency:   10.5036155929
  - # 9
    frequency:   11.2182833143
  - # 10
    frequency:   12.9135956084
  - # 11
    frequency:   13.9591770664
  - # 12
    frequency:   13.9856280271
  - # 13
    frequency:   14.5144651835
  - # 14
    frequency:   15.5770940709
  - # 15
    frequency:   19.7620169180

- q-position: [    0.1363636,    0.0000000,    0.0000000 ]
  distance:    0.0473089
  band:
  - # 1
    frequency:    1.3065471269
  - # 2
    frequency:    2.1109008854
  - # 3
    frequency:    3.1607157030
  - # 4
    frequency:    3.5245437055
  - # 5
    frequency:    4.3539533940
  - # 6
    frequency:    6.5022011731
  - # 7
    frequency:    8.7550163016
  - # 8
    frequency:   10.4530145668
  - # 9
    frequency:   11.2093874425
  - # 10
    frequency:   12.9254582472
  - # 11
    frequency:   13.9556155141
  - # 12
    frequency:   14.0474847212
  - # 13
    frequency:   14.5018895243
  - # 14
    frequency:   15.7185107074
  - # 15
    frequency:   19.7428340624

- q-position: [    0.1414141,    0.0000000,    0.0000000 ]
  distance:    0.0490611
  band:
  - # 1
    frequency:    1.3817134373
  - # 2
    frequency:    2.1707971471
  - # 3
    frequency:    3.1623547515
  - # 4
    frequency:    3.6237691292
  - # 5
    frequency:    4.4375580282
  - # 6
    frequency:    6.4912255256
  - # 7
    frequency:    8.7781304863
  - # 8
    frequency:   10.4022790682
  - # 9
    frequency:   11.2002336680
  - # 10
    frequency:   12.9216203788
  - # 11
    frequency:   13.9519060043
  - # 12
    frequency:   14.0983500142
  - # 13
    frequency:   14.4894261510
  - # 14
    frequency:   15.8803726992
  - # 15
    frequency:   19.7230016470

- q-position: [    0.1464646,    0.0000000,    0.0000000 ]
  distance:    0.0508133
  band:
  - # 1
    frequency:    1.4572661792
  - # 2
    frequency:    2.2290054361
  - # 3
    frequency:    3.1649133456
  - # 4
    frequency:    3.7185674492
  - # 5
    frequency:    4.5244872857
  - # 6
    frequency:    6.4804376201
  - # 7
    frequency:    8.8023943615
  - # 8
    frequency:   10.3516186628
  - # 9
    frequency:   11.1908487527
  - # 10
    frequency:   12.9069636773
  - # 11
    frequency:   13.9480440404
  - # 12
    frequency:   14.1367347339
  - # 13
    frequency:   14.4771594697
  - # 14
    frequency:   16.0587962223
  - # 15
    frequency:   19.7025352150

- q-position: [    0.1515152,    0.0000000,    0.0000000 ]
  distance:    0.0525655
  band:
  - # 1
    frequency:    1.5330654307
  - # 2
    frequency:    2.2855223689
  - # 3
    frequency:    3.1684423021
  - # 4
    frequency:    3.8090189797
  - # 5
    frequency:    4.6144224300
  - # 6
    frequency:    6.4699739619
  - # 7
    frequency:    8.8277963796
  - # 8
    frequency:   10.3012377859
  - # 9
    frequency:   11.1812622083
  - # 10
    frequency:   12.8848323334
  - # 11
    frequency:   13.9440244528
  - # 12
    frequency:   14.1632832544
  - # 13
    frequency:   14.4651307739
  - # 14
    frequency:   16.2493899549
  - # 15
    frequency:   19.6814562903

- q-position: [    0.1565657,    0.0000000,    0.0000000 ]
  distance:    0.0543177
  band:
  - # 1
    frequency:    1.6089713243
  - # 2
    frequency:    2.3403505652
  - # 3
    frequency:    3.1729872294
  - # 4
    frequency:    3.8953250383
  - # 5
    frequency:    4.7068993574
  - # 6
    frequency:    6.4600019852
  - # 7
    frequency:    8.8543199110
  - # 8
    frequency:   10.2513362298
  - # 9
    frequency:   11.1715062119
  - # 10
    frequency:   12.8574853283
  - # 11
    frequency:   13.9398413745
  - # 12
    frequency:   14.1796029675
  - # 13
    frequency:   14.4533284315
  - # 14
    frequency:   16.4479760810
  - # 15
    frequency:   19.6597946053

- q-position: [    0.1616162,    0.0000000,    0.0000000 ]
  distance:    0.0560699
  band:
  - # 1
    frequency:    1.6848434083
  - # 2
    frequency:    2.3934987591
  - # 3
    frequency:    3.1785879727
  - # 4
    frequency:    3.9777847401
  - # 5
    frequency:    4.8013230791
  - # 6
    frequency:    6.4507290027
  - # 7
    frequency:    8.8819433185
  - # 8
    frequency:   10.2021089736
  - # 9
    frequency:   11.1616154926
  - # 10
    frequency:   12.8264671739
  - # 11
    frequency:   13.9354882262
  - # 12
    frequency:   14.1875282560
  - # 13
    frequency:   14.4416921821
  - # 14
    frequency:   16.6509442846
  - # 15
    frequency:   19.6375911450

- q-position: [    0.1666667,    0.0000000,    0.0000000 ]
  distance:    0.0578220
  band:
  - # 1
    frequency:    1.7605401064
  - # 2
    frequency:    2.4449818931
  - # 3
    frequency:    3.1852780836
  - # 4
    frequency:    4.0567626280
  - # 5
    frequency:    4.8969884995
  - # 6
    frequency:    6.4424140579
  - # 7
    frequency:    8.9106400824
  - # 8
    frequency:   10.1537455960
  - # 9
    frequency:   11.1516271883
  - # 10
    frequency:   12.7928604390
  - # 11
    frequency:   13.9309577102
  - # 12
    frequency:   14.1887658871
  - # 13
    frequency:   14.4301321198
  - # 14
    frequency:   16.8553272943
  - # 15
    frequency:   19.6149023847

- q-position: [    0.1717172,    0.0000000,    0.0000000 ]
  distance:    0.0595742
  band:
  - # 1
    frequency:    1.8359182971
  - # 2
    frequency:    2.4948211943
  - # 3
    frequency:    3.1930843216
  - # 4
    frequency:    4.1326550551
  - # 5
    frequency:    4.9930987445
  - # 6
    frequency:    6.4353834851
  - # 7
    frequency:    8.9403789738
  - # 8
    frequency:   10.1064294163
  - # 9
    frequency:   11.1415806736
  - # 10
    frequency:   12.7574474948
  - # 11
    frequency:   13.9262418151
  - # 12
    frequency:   14.1847639648
  - # 13
    frequency:   14.4185552197
  - # 14
    frequency:   17.0587347984
  - # 15
    frequency:   19.5918063105

- q-position: [    0.1767677,    0.0000000,    0.0000000 ]
  distance:    0.0613264
  band:
  - # 1
    frequency:    1.9108330367
  - # 2
    frequency:    2.5430442276
  - # 3
    frequency:    3.2020261943
  - # 4
    frequency:    4.2058615418
  - # 5
    frequency:    5.0887740420
  - # 6
    frequency:    6.4300509266
  - # 7
    frequency:    8.9711242741
  - # 8
    frequency:   10.0603364558
  - # 9
    frequency:   11.1315173587
  - # 10
    frequency:   12.7208126176
  - # 11
    frequency:   13.9213318315
  - # 12
    frequency:   14.1766888968
  - # 13
    frequency:   14.4068891112
  - # 14
    frequency:   17.2592393959
  - # 15
    frequency:   19.5684111589

- q-position: [    0.1818182,    0.0000000,    0.0000000 ]
  distance:    0.0630786
  band:
  - # 1
    frequency:    1.9851374523
  - # 2
    frequency:    2.5896849169
  - # 3
    frequency:    3.2121155510
  - # 4
    frequency:    4.2767641539
  - # 5
    frequency:    5.1830478501
  - # 6
    frequency:    6.4269420278
  - # 7
    frequency:    9.0028360378
  - # 8
    frequency:   10.0156342879
  - # 9
    frequency:   11.1214804598
  - # 10
    frequency:   12.6834068271
  - # 11
    frequency:   13.9162183803
  - # 12
    frequency:   14.1654488227
  - # 13
    frequency:   14.3950962596
  - # 14
    frequency:   17.4552590065
  - # 15
    frequency:   19.5448683950

- q-position: [    0.1868687,    0.0000000,    0.0000000 ]
  distance:    0.0648308
  band:
  - # 1
    frequency:    2.0586828300
  - # 2
    frequency:    2.6347835235
  - # 3
    frequency:    3.2233562445
  - # 4
    frequency:    4.3457150754
  - # 5
    frequency:    5.2748513915
  - # 6
    frequency:    6.4267224388
  - # 7
    frequency:    9.0354703930
  - # 8
    frequency:    9.9724808274
  - # 9
    frequency:   11.1115147420
  - # 10
    frequency:   12.6455896856
  - # 11
    frequency:   13.9108914526
  - # 12
    frequency:   14.1517338560
  - # 13
    frequency:   14.3831777102
  - # 14
    frequency:   17.6454494485
  - # 15
    frequency:   19.5213924370

- q-position: [    0.1919192,    0.0000000,    0.0000000 ]
  distance:    0.0665830
  band:
  - # 1
    frequency:    2.1313189278
  - # 2
    frequency:    2.6783865585
  - # 3
    frequency:    3.2357438830
  - # 4
    frequency:    4.4130308406
  - # 5
    frequency:    5.3629932078
  - # 6
    frequency:    6.4302240026
  - # 7
    frequency:    9.0689798773
  - # 8
    frequency:    9.9310231020
  - # 9
    frequency:   11.1016662355
  - # 10
    frequency:   12.6076567536
  - # 11
    frequency:   13.9053404625
  - # 12
    frequency:   14.1360588757
  - # 13
    frequency:   14.3711694544
  - # 14
    frequency:   17.8286054651
  - # 15
    frequency:   19.4982913129

- q-position: [    0.1969697,    0.0000000,    0.0000000 ]
  distance:    0.0683351
  band:
  - # 1
    frequency:    2.2028945364
  - # 2
    frequency:    2.7205466089
  - # 3
    frequency:    3.2492656999
  - # 4
    frequency:    4.4789911197
  - # 5
    frequency:    5.4461481454
  - # 6
    frequency:    6.4384567753
  - # 7
    frequency:    9.1033138043
  - # 8
    frequency:    9.8913960477
  - # 9
    frequency:   11.0919819253
  - # 10
    frequency:   12.5698579778
  - # 11
    frequency:   13.8995543130
  - # 12
    frequency:   14.1188023097
  - # 13
    frequency:   14.3591351805
  - # 14
    frequency:   18.0035606688
  - # 15
    frequency:   19.4760152696

- q-position: [    0.2020202,    0.0000000,    0.0000000 ]
  distance:    0.0700873
  band:
  - # 1
    frequency:    2.2732583094
  - # 2
    frequency:    2.7613220473
  - # 3
    frequency:    3.2639005675
  - # 4
    frequency:    4.5438401093
  - # 5
    frequency:    5.5228808934
  - # 6
    frequency:    6.4525836667
  - # 7
    frequency:    9.1384186547
  - # 8
    frequency:    9.8537213654
  - # 9
    frequency:   11.0825094181
  - # 10
    frequency:   12.5324102333
  - # 11
    frequency:   13.8935214734
  - # 12
    frequency:   14.1002385947
  - # 13
    frequency:   14.3471581010
  - # 14
    frequency:   18.1690712664
  - # 15
    frequency:   19.4552348428

- q-position: [    0.2070707,    0.0000000,    0.0000000 ]
  distance:    0.0718395
  band:
  - # 1
    frequency:    2.3422598797
  - # 2
    frequency:    2.8007765972
  - # 3
    frequency:    3.2796191857
  - # 4
    frequency:    4.6077890153
  - # 5
    frequency:    5.5917379236
  - # 6
    frequency:    6.4738253221
  - # 7
    frequency:    9.1742384888
  - # 8
    frequency:    9.8181064767
  - # 9
    frequency:   11.0732965850
  - # 10
    frequency:   12.4955060157
  - # 11
    frequency:   13.8872300697
  - # 12
    frequency:   14.0805642392
  - # 13
    frequency:   14.3353332316
  - # 14
    frequency:   18.3236628562
  - # 15
    frequency:   19.4369657779

- q-position: [    0.2121212,    0.0000000,    0.0000000 ]
  distance:    0.0735917
  band:
  - # 1
    frequency:    2.4097512638
  - # 2