nqpoint: 300    
npath: 3      
segment_nqpoint:
- 100
- 100
- 100
labels:
- [ 'G', 'M' ]
- [ 'M', 'K' ]
- [ 'K', 'G' ]
reciprocal_lattice:
- [   0.30962572,   0.17876249,   0.00000000 ] # a*
- [   0.00000000,   0.35752499,   0.00000000 ] # b*
- [   0.00000000,   0.00000000,   0.04155401 ] # c*
natom: 6      
lattice:
- [     3.229705855758343,     0.000000000000000,     0.000000000000000 ] # a
- [    -1.614852927879171,     2.797007317837963,     0.000000000000000 ] # b
- [     0.000000000000000,     0.000000000000000,    24.065064837263012 ] # c
points:
- symbol: C # 1
  coordinates: [  0.000000000000000,  0.000000000000000,  0.470506600405078 ]
  mass: 12.010700
- symbol: C # 2
  coordinates: [  0.333332985432215,  0.666666983183674,  0.575981317353663 ]
  mass: 12.010700
- symbol: F # 3
  coordinates: [  0.666666984744047,  0.333332985985145,  0.373986110607280 ]
  mass: 18.998403
- symbol: N # 4
  coordinates: [  0.333332985432215,  0.666666983183674,  0.626013889392721 ]
  mass: 14.006700
- symbol: Ti # 5
  coordinates: [  0.333332985432215,  0.666666983183674,  0.424735552571769 ]
  mass: 47.867000
- symbol: Ti # 6
  coordinates: [  0.666666984744047,  0.333332985985145,  0.517967787087305 ]
  mass: 47.867000

phonon:
- q-position: [    0.0000000,    0.0000000,    0.0000000 ]
  distance:    0.0000000
  band:
  - # 1
    frequency:   -0.0000027796
  - # 2
    frequency:    0.0000003534
  - # 3
    frequency:    0.0000019741
  - # 4
    frequency:    0.3463860993
  - # 5
    frequency:    0.3463860993
  - # 6
    frequency:    5.3855515943
  - # 7
    frequency:    5.3855515943
  - # 8
    frequency:    6.1609903840
  - # 9
    frequency:    6.1609903840
  - # 10
    frequency:    7.4685250078
  - # 11
    frequency:    7.8863502031
  - # 12
    frequency:    7.8863502031
  - # 13
    frequency:   10.2680303737
  - # 14
    frequency:   12.8344315155
  - # 15
    frequency:   17.0591820619
  - # 16
    frequency:   17.0591820619
  - # 17
    frequency:   18.0880388958
  - # 18
    frequency:   60.8197377843

- q-position: [    0.0050505,    0.0000000,    0.0000000 ]
  distance:    0.0018057
  band:
  - # 1
    frequency:    0.0020256006
  - # 2
    frequency:    0.0774908813
  - # 3
    frequency:    0.1270311833
  - # 4
    frequency:    0.3471395046
  - # 5
    frequency:    0.3515522090
  - # 6
    frequency:    5.3853325906
  - # 7
    frequency:    5.3858446121
  - # 8
    frequency:    6.1612307430
  - # 9
    frequency:    6.1622892575
  - # 10
    frequency:    7.4682331437
  - # 11
    frequency:    7.8864366535
  - # 12
    frequency:    7.8877550631
  - # 13
    frequency:   10.2677693194
  - # 14
    frequency:   12.8338439624
  - # 15
    frequency:   17.0587919485
  - # 16
    frequency:   17.0588429991
  - # 17
    frequency:   18.0875293801
  - # 18
    frequency:   60.8196845099

- q-position: [    0.0101010,    0.0000000,    0.0000000 ]
  distance:    0.0036114
  band:
  - # 1
    frequency:    0.0080220549
  - # 2
    frequency:    0.1539294320
  - # 3
    frequency:    0.2518136669
  - # 4
    frequency:    0.3498564223
  - # 5
    frequency:    0.3681328899
  - # 6
    frequency:    5.3846779101
  - # 7
    frequency:    5.3867276572
  - # 8
    frequency:    6.1619503064
  - # 9
    frequency:    6.1661749171
  - # 10
    frequency:    7.4673737147
  - # 11
    frequency:    7.8866956040
  - # 12
    frequency:    7.8919496813
  - # 13
    frequency:   10.2669864774
  - # 14
    frequency:   12.8320811979
  - # 15
    frequency:   17.0576230919
  - # 16
    frequency:   17.0578264263
  - # 17
    frequency:   18.0860019237
  - # 18
    frequency:   60.8195248221

- q-position: [    0.0151515,    0.0000000,    0.0000000 ]
  distance:    0.0054170
  band:
  - # 1
    frequency:    0.0177958237
  - # 2
    frequency:    0.2267668839
  - # 3
    frequency:    0.3557149200
  - # 4
    frequency:    0.3568089691
  - # 5
    frequency:    0.4135344976
  - # 6
    frequency:    5.3835945007
  - # 7
    frequency:    5.3882123966
  - # 8
    frequency:    6.1631445682
  - # 9
    frequency:    6.1726148843
  - # 10
    frequency:    7.4659932372
  - # 11
    frequency:    7.8871258546
  - # 12
    frequency:    7.8988761626
  - # 13
    frequency:   10.2656828154
  - # 14
    frequency:   12.8291429135
  - # 15
    frequency:   17.0556799346
  - # 16
    frequency:   17.0561341913
  - # 17
    frequency:   18.0834597937
  - # 18
    frequency:   60.8192591271

- q-position: [    0.0202020,    0.0000000,    0.0000000 ]
  distance:    0.0072227
  band:
  - # 1
    frequency:    0.0311343666
  - # 2
    frequency:    0.2867120511
  - # 3
    frequency:    0.3771447667
  - # 4
    frequency:    0.4011170701
  - # 5
    frequency:    0.5240098302
  - # 6
    frequency:    5.3820937960
  - # 7
    frequency:    5.3903172856
  - # 8
    frequency:    6.1648061315
  - # 9
    frequency:    6.1815563366
  - # 10
    frequency:    7.4641631703
  - # 11
    frequency:    7.8877254125
  - # 12
    frequency:    7.9084441424
  - # 13
    frequency:   10.2638599650
  - # 14
    frequency:   12.8250286208
  - # 15
    frequency:   17.0529698558
  - # 16
    frequency:   17.0537693779
  - # 17
    frequency:   18.0799084206
  - # 18
    frequency:   60.8188881004

- q-position: [    0.0252525,    0.0000000,    0.0000000 ]
  distance:    0.0090284
  band:
  - # 1
    frequency:    0.0478685754
  - # 2
    frequency:    0.3173074864
  - # 3
    frequency:    0.4272408194
  - # 4
    frequency:    0.4366497657
  - # 5
    frequency:    0.6496037157
  - # 6
    frequency:    5.3801915033
  - # 7
    frequency:    5.3930662049
  - # 8
    frequency:    6.1669248723
  - # 9
    frequency:    6.1929279384
  - # 10
    frequency:    7.4619723706
  - # 11
    frequency:    7.8884915039
  - # 12
    frequency:    7.9205384196
  - # 13
    frequency:   10.2615202494
  - # 14
    frequency:   12.8197376881
  - # 15
    frequency:   17.0495031338
  - # 16
    frequency:   17.0507363113
  - # 17
    frequency:   18.0753553771
  - # 18
    frequency:   60.8184126841

- q-position: [    0.0303030,    0.0000000,    0.0000000 ]
  distance:    0.0108341
  band:
  - # 1
    frequency:    0.0678838337
  - # 2
    frequency:    0.3283501360
  - # 3
    frequency:    0.4743369231
  - # 4
    frequency:    0.4972525375
  - # 5
    frequency:    0.7771334684
  - # 6
    frequency:    5.3779073197
  - # 7
    frequency:    5.3964867721
  - # 8
    frequency:    6.1694881568
  - # 9
    frequency:    6.2066421675
  - # 10
    frequency:    7.4595189996
  - # 11
    frequency:    7.8894205887
  - # 12
    frequency:    7.9350271767
  - # 13
    frequency:   10.2586667216
  - # 14
    frequency:   12.8132693926
  - # 15
    frequency:   17.0452928943
  - # 16
    frequency:   17.0470405659
  - # 17
    frequency:   18.0698103470
  - # 18
    frequency:   60.8178340843

- q-position: [    0.0353535,    0.0000000,    0.0000000 ]
  distance:    0.0126398
  band:
  - # 1
    frequency:    0.0911034972
  - # 2
    frequency:    0.3337042119
  - # 3
    frequency:    0.5146640964
  - # 4
    frequency:    0.5732861621
  - # 5
    frequency:    0.9051628246
  - # 6
    frequency:    5.3752645876
  - # 7
    frequency:    5.4006085020
  - # 8
    frequency:    6.1724811023
  - # 9
    frequency:    6.2225979449
  - # 10
    frequency:    7.4569032258
  - # 11
    frequency:    7.8905083794
  - # 12
    frequency:    7.9517694436
  - # 13
    frequency:   10.2553032131
  - # 14
    frequency:   12.8056229863
  - # 15
    frequency:   17.0403550445
  - # 16
    frequency:   17.0426889750
  - # 17
    frequency:   18.0632850878
  - # 18
    frequency:   60.8171537665

- q-position: [    0.0404040,    0.0000000,    0.0000000 ]
  distance:    0.0144455
  band:
  - # 1
    frequency:    0.1174684992
  - # 2
    frequency:    0.3373501591
  - # 3
    frequency:    0.5572376460
  - # 4
    frequency:    0.6513419516
  - # 5
    frequency:    1.0333309840
  - # 6
    frequency:    5.3722899039
  - # 7
    frequency:    5.4054609809
  - # 8
    frequency:    6.1758868686
  - # 9
    frequency:    6.2406833822
  - # 10
    frequency:    7.4542215362
  - # 11
    frequency:    7.8917498642
  - # 12
    frequency:    7.9706209944
  - # 13
    frequency:   10.2514343929
  - # 14
    frequency:   12.7967977738
  - # 15
    frequency:   17.0347081950
  - # 16
    frequency:   17.0376896411
  - # 17
    frequency:   18.0557933842
  - # 18
    frequency:   60.8163734509

- q-position: [    0.0454545,    0.0000000,    0.0000000 ]
  distance:    0.0162511
  band:
  - # 1
    frequency:    0.1469226400
  - # 2
    frequency:    0.3404173218
  - # 3
    frequency:    0.6016142484
  - # 4
    frequency:    0.7302769536
  - # 5
    frequency:    1.1614905606
  - # 6
    frequency:    5.3690126961
  - # 7
    frequency:    5.4110722001
  - # 8
    frequency:    6.1796869694
  - # 9
    frequency:    6.2607784762
  - # 10
    frequency:    7.4515629179
  - # 11
    frequency:    7.8931393312
  - # 12
    frequency:    7.9914384203
  - # 13
    frequency:   10.2470658351
  - # 14
    frequency:   12.7867932038
  - # 15
    frequency:   17.0283735683
  - # 16
    frequency:   17.0320519487
  - # 17
    frequency:   18.0473509951
  - # 18
    frequency:   60.8154951065

- q-position: [    0.0505051,    0.0000000,    0.0000000 ]
  distance:    0.0180568
  band:
  - # 1
    frequency:    0.1794042324
  - # 2
    frequency:    0.3433167966
  - # 3
    frequency:    0.6474161044
  - # 4
    frequency:    0.8096692744
  - # 5
    frequency:    1.2895571368
  - # 6
    frequency:    5.3654647789
  - # 7
    frequency:    5.4174671508
  - # 8
    frequency:    6.1838615903
  - # 9
    frequency:    6.2827576229
  - # 10
    frequency:    7.4490067674
  - # 11
    frequency:    7.8946703969
  - # 12
    frequency:    8.0140815206
  - # 13
    frequency:   10.2422040960
  - # 14
    frequency:   12.7756089702
  - # 15
    frequency:   17.0213748976
  - # 16
    frequency:   17.0257865759
  - # 17
    frequency:   18.0379755929
  - # 18
    frequency:   60.8145209440

- q-position: [    0.0555556,    0.0000000,    0.0000000 ]
  distance:    0.0198625
  band:
  - # 1
    frequency:    0.2148420934
  - # 2
    frequency:    0.3462289954
  - # 3
    frequency:    0.6943411434
  - # 4
    frequency:    0.8893285656
  - # 5
    frequency:    1.4174684260
  - # 6
    frequency:    5.3616799058
  - # 7
    frequency:    5.4246667422
  - # 8
    frequency:    6.1883899036
  - # 9
    frequency:    6.3064918596
  - # 10
    frequency:    7.4466221819
  - # 11
    frequency:    7.8963360356
  - # 12
    frequency:    8.0384143620
  - # 13
    frequency:   10.2368567990
  - # 14
    frequency:   12.7632451240
  - # 15
    frequency:   17.0137383142
  - # 16
    frequency:   17.0189055075
  - # 17
    frequency:   18.0276866978
  - # 18
    frequency:   60.8134534091

- q-position: [    0.0606061,    0.0000000,    0.0000000 ]
  distance:    0.0216682
  band:
  - # 1
    frequency:    0.2531539462
  - # 2
    frequency:    0.3492432255
  - # 3
    frequency:    0.7421532148
  - # 4
    frequency:    0.9691550310
  - # 5
    frequency:    1.5451698535
  - # 6
    frequency:    5.3576933245
  - # 7
    frequency:    5.4326870652
  - # 8
    frequency:    6.1932503701
  - # 9
    frequency:    6.3318507844
  - # 10
    frequency:    7.4444682332
  - # 11
    frequency:    7.8981286099
  - # 12
    frequency:    8.0643054064
  - # 13
    frequency:   10.2310327278
  - # 14
    frequency:   12.7497021930
  - # 15
    frequency:   17.0054922274
  - # 16
    frequency:   17.0114220468
  - # 17
    frequency:   18.0165056050
  - # 18
    frequency:   60.8122951732

- q-position: [    0.0656566,    0.0000000,    0.0000000 ]
  distance:    0.0234739
  band:
  - # 1
    frequency:    0.2942459606
  - # 2
    frequency:    0.3524065058
  - # 3
    frequency:    0.7906699283
  - # 4
    frequency:    1.0490895344
  - # 5
    frequency:    1.6726084578
  - # 6
    frequency:    5.3535413477
  - # 7
    frequency:    5.4415389919
  - # 8
    frequency:    6.1984210212
  - # 9
    frequency:    6.3587041346
  - # 10
    frequency:    7.4425948686
  - # 11
    frequency:    7.9000399033
  - # 12
    frequency:    8.0916270653
  - # 13
    frequency:   10.2247419257
  - # 14
    frequency:   12.7349813091
  - # 15
    frequency:   16.9966671962
  - # 16
    frequency:   17.0033508267
  - # 17
    frequency:   18.0044553081
  - # 18
    frequency:   60.8110491253

- q-position: [    0.0707071,    0.0000000,    0.0000000 ]
  distance:    0.0252795
  band:
  - # 1
    frequency:    0.3380127169
  - # 2
    frequency:    0.3557433302
  - # 3
    frequency:    0.8397522314
  - # 4
    frequency:    1.1290929895
  - # 5
    frequency:    1.7997299404
  - # 6
    frequency:    5.3492609460
  - # 7
    frequency:    5.4512280763
  - # 8
    frequency:    6.2038797157
  - # 9
    frequency:    6.3869230297
  - # 10
    frequency:    7.4410441614
  - # 11
    frequency:    7.9020611518
  - # 12
    frequency:    8.1202549568
  - # 13
    frequency:   10.2179958031
  - # 14
    frequency:   12.7190843404
  - # 15
    frequency:   16.9872957952
  - # 16
    frequency:   16.9947078192
  - # 17
    frequency:   17.9915604171
  - # 18
    frequency:   60.8097183616

- q-position: [    0.0757576,    0.0000000,    0.0000000 ]
  distance:    0.0270852
  band:
  - # 1
    frequency:    0.3592645664
  - # 2
    frequency:    0.3843372219
  - # 3
    frequency:    0.8892964109
  - # 4
    frequency:    1.2091367784
  - # 5
    frequency:    1.9264770814
  - # 6
    frequency:    5.3448893683
  - # 7
    frequency:    5.4617547104
  - # 8
    frequency:    6.2096043683
  - # 9
    frequency:    6.4163809003
  - # 10
    frequency:    7.4398517158
  - # 11
    frequency:    7.9041830769
  - # 12
    frequency:    8.1500670622
  - # 13
    frequency:   10.2108072497
  - # 14
    frequency:   12.7020140280
  - # 15
    frequency:   16.9774124763
  - # 16
    frequency:   16.9855103420
  - # 17
    frequency:   17.9778470736
  - # 18
    frequency:   60.8083061752

- q-position: [    0.0808081,    0.0000000,    0.0000000 ]
  distance:    0.0288909
  band:
  - # 1
    frequency:    0.3629717947
  - # 2
    frequency:    0.4330907864
  - # 3
    frequency:    0.9392283125
  - # 4
    frequency:    1.2891978654
  - # 5
    frequency:    2.0527888174
  - # 6
    frequency:    5.3404637932
  - # 7
    frequency:    5.4731144825
  - # 8
    frequency:    6.2155731483
  - # 9
    frequency:    6.4469541316
  - # 10
    frequency:    7.4390481024
  - # 11
    frequency:    7.9063959174
  - # 12
    frequency:    8.1809429039
  - # 13
    frequency:   10.2031907535
  - # 14
    frequency:   12.6837741244
  - # 15
    frequency:   16.9670534266
  - # 16
    frequency:   16.9757770631
  - # 17
    frequency:   17.9633428625
  - # 18
    frequency:   60.8068160452

- q-position: [    0.0858586,    0.0000000,    0.0000000 ]
  distance:    0.0306966
  band:
  - # 1
    frequency:    0.3668595581
  - # 2
    frequency:    0.4841326621
  - # 3
    frequency:    0.9894994003
  - # 4
    frequency:    1.3692561086
  - # 5
    frequency:    2.1785996751
  - # 6
    frequency:    5.3360210144
  - # 7
    frequency:    5.4852986842
  - # 8
    frequency:    6.2217646481
  - # 9
    frequency:    6.4785224558
  - # 10
    frequency:    7.4386602505
  - # 11
    frequency:    7.9086894610
  - # 12
    frequency:    8.2127628171
  - # 13
    frequency:   10.1951625252
  - # 14
    frequency:   12.6643695323
  - # 15
    frequency:   16.9562564252
  - # 16
    frequency:   16.9655280011
  - # 17
    frequency:   17.9480767214
  - # 18
    frequency:   60.8052516247

- q-position: [    0.0909091,    0.0000000,    0.0000000 ]
  distance:    0.0325023
  band:
  - # 1
    frequency:    0.3709165985
  - # 2
    frequency:    0.5373093800
  - # 3
    frequency:    1.0400843034
  - # 4
    frequency:    1.4492926851
  - # 5
    frequency:    2.3038394118
  - # 6
    frequency:    5.3315971602
  - # 7
    frequency:    5.4982949171
  - # 8
    frequency:    6.2281580232
  - # 9
    frequency:    6.5109691239
  - # 10
    frequency:    7.4387127616
  - # 11
    frequency:    7.9110530753
  - # 12
    frequency:    8.2454073481
  - # 13
    frequency:   10.1867406280
  - # 14
    frequency:   12.6438064434
  - # 15
    frequency:   16.9450606989
  - # 16
    frequency:   16.9547845215
  - # 17
    frequency:   17.9320788482
  - # 18
    frequency:   60.8036167288

- q-position: [    0.0959596,    0.0000000,    0.0000000 ]
  distance:    0.0343080
  band:
  - # 1
    frequency:    0.3751265783
  - # 2
    frequency:    0.5924537549
  - # 3
    frequency:    1.0909795664
  - # 4
    frequency:    1.5292891182
  - # 5
    frequency:    2.4284327899
  - # 6
    frequency:    5.3272274466
  - # 7
    frequency:    5.5120877561
  - # 8
    frequency:    6.2347331051
  - # 9
    frequency:    6.5441808876
  - # 10
    frequency:    7.4392291300
  - # 11
    frequency:    7.9134757379
  - # 12
    frequency:    8.2787567898
  - # 13
    frequency:   10.1779451120
  - # 14
    frequency:   12.6220924727
  - # 15
    frequency:   16.9335067801
  - # 16
    frequency:   16.9435693285
  - # 17
    frequency:   17.9153806085
  - # 18
    frequency:   60.8019153217

- q-position: [    0.1010101,    0.0000000,    0.0000000 ]
  distance:    0.0361136
  band:
  - # 1
    frequency:    0.3794685368
  - # 2
    frequency:    0.6493835386
  - # 3
    frequency:    1.1422033830
  - # 4
    frequency:    1.6092266486
  - # 5
    frequency:    2.5522994420
  - # 6
    frequency:    5.3229459645
  - # 7
    frequency:    5.5266594330
  - # 8
    frequency:    6.2414704893
  - # 9
    frequency:    6.5780478161
  - # 10
    frequency:    7.4402328722
  - # 11
    frequency:    7.9159460657
  - # 12
    frequency:    8.3126908494
  - # 13
    frequency:   10.1687981550
  - # 14
    frequency:   12.5992367899
  - # 15
    frequency:   16.9216363654
  - # 16
    frequency:   16.9319064508
  - # 17
    frequency:   17.8980144411
  - # 18
    frequency:   60.8001515037

- q-position: [    0.1060606,    0.0000000,    0.0000000 ]
  distance:    0.0379193
  band:
  - # 1
    frequency:    0.3839172091
  - # 2
    frequency:    0.7078997362
  - # 3
    frequency:    1.1937961241
  - # 4
    frequency:    1.6890858122
  - # 5
    frequency:    2.6753538064
  - # 6
    frequency:    5.3187854974
  - # 7
    frequency:    5.5419905125
  - # 8
    frequency:    6.2483516031
  - # 9
    frequency:    6.6124629704
  - # 10
    frequency:    7.4417485710
  - # 11
    frequency:    7.9184523430
  - # 12
    frequency:    8.3470884350
  - # 13
    frequency:   10.1593242065
  - # 14
    frequency:   12.5752502445
  - # 15
    frequency:   16.9094921779
  - # 16
    frequency:   16.9198212222
  - # 17
    frequency:   17.8800137650
  - # 18
    frequency:   60.7983294973

- q-position: [    0.1111111,    0.0000000,    0.0000000 ]
  distance:    0.0397250
  band:
  - # 1
    frequency:    0.3884432753
  - # 2
    frequency:    0.7677846510
  - # 3
    frequency:    1.2458214670
  - # 4
    frequency:    1.7688461490
  - # 5
    frequency:    2.7975051194
  - # 6
    frequency:    5.3147773700
  - # 7
    frequency:    5.5580605380
  - # 8
    frequency:    6.2553587537
  - # 9
    frequency:    6.6473219549
  - # 10
    frequency:    7.4438028448
  - # 11
    frequency:    7.9209825497
  - # 12
    frequency:    8.3818275457
  - # 13
    frequency:   10.1495501377
  - # 14
    frequency:   12.5501454834
  - # 15
    frequency:   16.8971178341
  - # 16
    frequency:   16.9073402553
  - # 17
    frequency:   17.8614128858
  - # 18
    frequency:   60.7964536331

- q-position: [    0.1161616,    0.0000000,    0.0000000 ]
  distance:    0.0415307
  band:
  - # 1
    frequency:    0.3930135724
  - # 2
    frequency:    0.8287998141
  - # 3
    frequency:    1.2983678763
  - # 4
    frequency:    1.8484859979
  - # 5
    frequency:    2.9186574573
  - # 6
    frequency:    5.3109513243
  - # 7
    frequency:    5.5748486324
  - # 8
    frequency:    6.2624751610
  - # 9
    frequency:    6.6825223636
  - # 10
    frequency:    7.4464252510
  - # 11
    frequency:    7.9235243883
  - # 12
    frequency:    8.4167852469
  - # 13
    frequency:   10.1395053939
  - # 14
    frequency:   12.5239370601
  - # 15
    frequency:   16.8845577148
  - # 16
    frequency:   16.8944914080
  - # 17
    frequency:   17.8422469042
  - # 18
    frequency:   60.7945283362

- q-position: [    0.1212121,    0.0000000,    0.0000000 ]
  distance:    0.0433364
  band:
  - # 1
    frequency:    0.3975912875
  - # 2
    frequency:    0.8906840984
  - # 3
    frequency:    1.3515500705
  - # 4
    frequency:    1.9279823497
  - # 5
    frequency:    3.0387098257
  - # 6
    frequency:    5.3073354221
  - # 7
    frequency:    5.5923340425
  - # 8
    frequency:    6.2696849777
  - # 9
    frequency:    6.7179631406
  - # 10
    frequency:    7.4496491258
  - # 11
    frequency:    7.9260653107
  - # 12
    frequency:    8.4518377136
  - # 13
    frequency:   10.1292221505
  - # 14
    frequency:   12.4966415353
  - # 15
    frequency:   16.8718568408
  - # 16
    frequency:   16.8813037437
  - # 17
    frequency:   17.8225516239
  - # 18
    frequency:   60.7925581108

- q-position: [    0.1262626,    0.0000000,    0.0000000 ]
  distance:    0.0451420
  band:
  - # 1
    frequency:    0.4021361367
  - # 2
    frequency:    0.9531525180
  - # 3
    frequency:    1.4055099211
  - # 4
    frequency:    2.0073107433
  - # 5
    frequency:    3.1575562964
  - # 6
    frequency:    5.3039559715
  - # 7
    frequency:    5.6104966205
  - # 8
    frequency:    6.2769732990
  - # 9
    frequency:    6.7535438769
  - # 10
    frequency:    7.4535123586
  - # 11
    frequency:    7.9285925451
  - # 12
    frequency:    8.4868603288
  - # 13
    frequency:   10.1187354693
  - # 14
    frequency:   12.4682775660
  - # 15
    frequency:   16.8590607551
  - # 16
    frequency:   16.8678074827
  - # 17
    frequency:   17.8023634631
  - # 18
    frequency:   60.7905475258

- q-position: [    0.1313131,    0.0000000,    0.0000000 ]
  distance:    0.0469477
  band:
  - # 1
    frequency:    0.4066045289
  - # 2
    frequency:    1.0158964724
  - # 3
    frequency:    1.4604159903
  - # 4
    frequency:    2.0864451927
  - # 5
    frequency:    3.2750861947
  - # 6
    frequency:    5.3008374758
  - # 7
    frequency:    5.6293172380
  - # 8
    frequency:    6.2843261646
  - # 9
    frequency:    6.7891640745
  - # 10
    frequency:    7.4580580844
  - # 11
    frequency:    7.9310931224
  - # 12
    frequency:    8.5217278222
  - # 13
    frequency:   10.1080834522
  - # 14
    frequency:   12.4388659841
  - # 15
    frequency:   16.8462154096
  - # 16
    frequency:   16.8540339461
  - # 17
    frequency:   17.7817193660
  - # 18
    frequency:   60.7885012002

- q-position: [    0.1363636,    0.0000000,    0.0000000 ]
  distance:    0.0487534
  band:
  - # 1
    frequency:    0.4109497123
  - # 2
    frequency:    1.0785864444
  - # 3
    frequency:    1.5164606732
  - # 4
    frequency:    2.1653581379
  - # 5
    frequency:    3.3911843417
  - # 6
    frequency:    5.2980026036
  - # 7
    frequency:    5.6487781306
  - # 8
    frequency:    6.2917305544
  - # 9
    frequency:    6.8247224206
  - # 10
    frequency:    7.4633352646
  - # 11
    frequency:    7.9335539042
  - # 12
    frequency:    8.5563144431
  - # 13
    frequency:   10.0973073882
  - # 14
    frequency:   12.4084298633
  - # 15
    frequency:   16.8333670568
  - # 16
    frequency:   16.8400154921
  - # 17
    frequency:   17.7606567164
  - # 18
    frequency:   60.7864237876

- q-position: [    0.1414141,    0.0000000,    0.0000000 ]
  distance:    0.0505591
  band:
  - # 1
    frequency:    0.4151218958
  - # 2
    frequency:    1.1408782725
  - # 3
    frequency:    1.5738538005
  - # 4
    frequency:    2.2440204142
  - # 5
    frequency:    3.5057313602
  - # 6
    frequency:    5.2954721784
  - # 7
    frequency:    5.6688631706
  - # 8
    frequency:    6.2991743801
  - # 9
    frequency:    6.8601161348
  - # 10
    frequency:    7.4693991003
  - # 11
    frequency:    7.9359616094
  - # 12
    frequency:    8.5904941606
  - # 13
    frequency:   10.0864518874
  - # 14
    frequency:   12.3769945744
  - # 15
    frequency:   16.8205621464
  - # 16
    frequency:   16.8257854430
  - # 17
    frequency:   17.7392132533
  - # 18
    frequency:   60.7843199614

- q-position: [    0.1464646,    0.0000000,    0.0000000 ]
  distance:    0.0523648
  band:
  - # 1
    frequency:    0.4190683389
  - # 2
    frequency:    1.2024238883
  - # 3
    frequency:    1.6328118037
  - # 4
    frequency:    2.3224012367
  - # 5
    frequency:    3.6186040531
  - # 6
    frequency:    5.2932651859
  - # 7
    frequency:    5.6895580661
  - # 8
    frequency:    6.3066464750
  - # 9
    frequency:    6.8952404786
  - # 10
    frequency:    7.4763111966
  - # 11
    frequency:    7.9383028438
  - # 12
    frequency:    8.6241408924
  - # 13
    frequency:   10.0755649918
  - # 14
    frequency:   12.3445878279
  - # 15
    frequency:   16.8078472252
  - # 16
    frequency:   16.8113780043
  - # 17
    frequency:   17.7174269874
  - # 18
    frequency:   60.7821943998

- q-position: [    0.1515152,    0.0000000,    0.0000000 ]
  distance:    0.0541705
  band:
  - # 1
    frequency:    0.4227334013
  - # 2
    frequency:    1.2628865974
  - # 3
    frequency:    1.6935423503
  - # 4
    frequency:    2.4004681960
  - # 5
    frequency:    3.7296758679
  - # 6
    frequency:    5.2913987998
  - # 7
    frequency:    5.7108504832
  - # 8
    frequency:    6.3141365806
  - # 9
    frequency:    6.9299885529
  - # 10
    frequency:    7.4841393578
  - # 11
    frequency:    7.9405641287
  - # 12
    frequency:    8.6571287642
  - # 13
    frequency:   10.0646982519
  - # 14
    frequency:   12.3112397052
  - # 15
    frequency:   16.7952688401
  - # 16
    frequency:   16.7968281760
  - # 17
    frequency:   17.6953361196
  - # 18
    frequency:   60.7800517710

- q-position: [    0.1565657,    0.0000000,    0.0000000 ]
  distance:    0.0559761
  band:
  - # 1
    frequency:    0.4260585428
  - # 2
    frequency:    1.3219595652
  - # 3
    frequency:    1.7562257821
  - # 4
    frequency:    2.4781872631
  - # 5
    frequency:    3.8388174623
  - # 6
    frequency:    5.2898884230
  - # 7
    frequency:    5.7327300859
  - # 8
    frequency:    6.3216353352
  - # 9
    frequency:    6.9642515447
  - # 10
    frequency:    7.4929568525
  - # 11
    frequency:    7.9427319314
  - # 12
    frequency:    8.6893324122
  - # 13
    frequency:   10.0539067522
  - # 14
    frequency:   12.2769826776
  - # 15
    frequency:   16.7821716542
  - # 16
    frequency:   16.7828734418
  - # 17
    frequency:   17.6729789603
  - # 18
    frequency:   60.7778967180

- q-position: [    0.1616162,    0.0000000,    0.0000000 ]
  distance:    0.0577818
  band:
  - # 1
    frequency:    0.4289822622
  - # 2
    frequency:    1.3793845178
  - # 3
    frequency:    1.8209963441
  - # 4
    frequency:    2.5555228007
  - # 5
    frequency:    3.9458973889
  - # 6
    frequency:    5.2887477460
  - # 7
    frequency:    5.7551884861
  - # 8
    frequency:    6.3291342607
  - # 9
    frequency:    6.9979196248
  - # 10
    frequency:    7.5028409512
  - # 11
    frequency:    7.9447926970
  - # 12
    frequency:    8.7206273410
  - # 13
    frequency:   10.0432490643
  - # 14
    frequency:   12.2418516136
  - # 15
    frequency:   16.7674447266
  - # 16
    frequency:   16.7707072892
  - # 17
    frequency:   17.6503938502
  - # 18
    frequency:   60.7757338443

- q-position: [    0.1666667,    0.0000000,    0.0000000 ]
  distance:    0.0595875
  band:
  - # 1
    frequency:    0.4314399629
  - # 2
    frequency:    1.4349666162
  - # 3
    frequency:    1.8879272406
  - # 4
    frequency:    2.6324375787
  - # 5
    frequency:    4.0507829211
  - # 6
    frequency:    5.2879888209
  - # 7
    frequency:    5.7782190928
  - # 8
    frequency:    6.3366257525
  - # 9
    frequency:    7.0308837145
  - # 10
    frequency:    7.5138705192
  - # 11
    frequency:    7.9467328807
  - # 12
    frequency:    8.7508903601
  - # 13
    frequency:   10.0327871042
  - # 14
    frequency:   12.2058837751
  - # 15
    frequency:   16.7526841582
  - # 16
    frequency:   16.7588163514
  - # 17
    frequency:   17.6276190814
  - # 18
    frequency:   60.7735676994

- q-position: [    0.1717172,    0.0000000,    0.0000000 ]
  distance:    0.0613932
  band:
  - # 1
    frequency:    0.4333637295
  - # 2
    frequency:    1.4885818813
  - # 3
    frequency:    1.9570231426
  - # 4
    frequency:    2.7088927921
  - # 5
    frequency:    4.1533410431
  - # 6
    frequency:    5.2876221505
  - # 7
    frequency:    5.8018168475
  - # 8
    frequency:    6.3441030697
  - # 9
    frequency:    7.0630383175
  - # 10
    frequency:    7.5261224703
  - # 11
    frequency:    7.9485389814
  - # 12
    frequency:    8.7800001249
  - # 13
    frequency:   10.0225858603
  - # 14
    frequency:   12.1691188024
  - # 15
    frequency:   16.7379270709
  - # 16
    frequency:   16.7472462064
  - # 17
    frequency:   17.6046928203
  - # 18
    frequency:   60.7714027649

- q-position: [    0.1767677,    0.0000000,    0.0000000 ]
  distance:    0.0631989
  band:
  - # 1
    frequency:    0.4346819954
  - # 2
    frequency:    1.5401755562
  - # 3
    frequency:    2.0282217563
  - # 4
    frequency:    2.7848480790
  - # 5
    frequency:    4.2534396289
  - # 6
    frequency:    5.2876567947
  - # 7
    frequency:    5.8259778280
  - # 8
    frequency:    6.3515603276
  - # 9
    frequency:    7.0942855180
  - # 10
    frequency:    7.5396669826
  - # 11
    frequency:    7.9501975763
  - # 12
    frequency:    8.8078378134
  - # 13
    frequency:   10.0127129603
  - # 14