nqpoint: 300    
npath: 3      
segment_nqpoint:
- 100
- 100
- 100
labels:
- [ 'G', 'M' ]
- [ 'M', 'K' ]
- [ 'K', 'G' ]
reciprocal_lattice:
- [   0.30962572,   0.17876249,   0.00000000 ] # a*
- [   0.00000000,   0.35752499,   0.00000000 ] # b*
- [   0.00000000,   0.00000000,   0.04155401 ] # c*
natom: 6      
lattice:
- [     3.229705855758343,     0.000000000000000,     0.000000000000000 ] # a
- [    -1.614852927879171,     2.797007317837963,     0.000000000000000 ] # b
- [     0.000000000000000,     0.000000000000000,    24.065064837263012 ] # c
points:
- symbol: C # 1
  coordinates: [  0.000000000000000,  0.000000000000000,  0.470506600405078 ]
  mass: 12.010700
- symbol: C # 2
  coordinates: [  0.333332985432215,  0.666666983183674,  0.575981317353663 ]
  mass: 12.010700
- symbol: F # 3
  coordinates: [  0.666666984744047,  0.333332985985145,  0.373986110607280 ]
  mass: 18.998403
- symbol: N # 4
  coordinates: [  0.333332985432215,  0.666666983183674,  0.626013889392721 ]
  mass: 14.006700
- symbol: Ti # 5
  coordinates: [  0.333332985432215,  0.666666983183674,  0.424735552571769 ]
  mass: 47.867000
- symbol: Ti # 6
  coordinates: [  0.666666984744047,  0.333332985985145,  0.517967787087305 ]
  mass: 47.867000

phonon:
- q-position: [    0.0000000,    0.0000000,    0.0000000 ]
  distance:    0.0000000
  band:
  - # 1
    frequency:   -0.7750613187
  - # 2
    frequency:   -0.7750613187
  - # 3
    frequency:   -0.0000011588
  - # 4
    frequency:   -0.0000002428
  - # 5
    frequency:    0.0000002561
  - # 6
    frequency:    5.2854017602
  - # 7
    frequency:    5.2854017602
  - # 8
    frequency:    6.1613876559
  - # 9
    frequency:    6.1613876559
  - # 10
    frequency:    7.4372703745
  - # 11
    frequency:    7.7622548229
  - # 12
    frequency:    7.7622548229
  - # 13
    frequency:   10.1858145593
  - # 14
    frequency:   12.7796309003
  - # 15
    frequency:   16.9881249773
  - # 16
    frequency:   16.9881249773
  - # 17
    frequency:   17.9698354177
  - # 18
    frequency:   60.8107257399

- q-position: [    0.0050505,    0.0000000,    0.0000000 ]
  distance:    0.0018057
  band:
  - # 1
    frequency:   -0.7741508083
  - # 2
    frequency:   -0.7718089612
  - # 3
    frequency:   -0.1002058875
  - # 4
    frequency:    0.0933591753
  - # 5
    frequency:    0.1649913165
  - # 6
    frequency:    5.2855194476
  - # 7
    frequency:    5.2859589833
  - # 8
    frequency:    6.1618365046
  - # 9
    frequency:    6.1622997010
  - # 10
    frequency:    7.4367206258
  - # 11
    frequency:    7.7627398882
  - # 12
    frequency:    7.7640817359
  - # 13
    frequency:   10.1857458168
  - # 14
    frequency:   12.7791693560
  - # 15
    frequency:   16.9881858029
  - # 16
    frequency:   16.9882529703
  - # 17
    frequency:   17.9696023074
  - # 18
    frequency:   60.8106937171

- q-position: [    0.0101010,    0.0000000,    0.0000000 ]
  distance:    0.0036114
  band:
  - # 1
    frequency:   -0.7713935137
  - # 2
    frequency:   -0.7620037493
  - # 3
    frequency:   -0.0992987290
  - # 4
    frequency:    0.1865738256
  - # 5
    frequency:    0.2804177032
  - # 6
    frequency:    5.2858707900
  - # 7
    frequency:    5.2876266333
  - # 8
    frequency:    6.1631792357
  - # 9
    frequency:    6.1650334761
  - # 10
    frequency:    7.4351210494
  - # 11
    frequency:    7.7641926229
  - # 12
    frequency:    7.7695094554
  - # 13
    frequency:   10.1855383158
  - # 14
    frequency:   12.7777837856
  - # 15
    frequency:   16.9883667245
  - # 16
    frequency:   16.9886342033
  - # 17
    frequency:   17.9689022019
  - # 18
    frequency:   60.8105976373

- q-position: [    0.0151515,    0.0000000,    0.0000000 ]
  distance:    0.0054170
  band:
  - # 1
    frequency:   -0.7667200640
  - # 2
    frequency:   -0.7454895890
  - # 3
    frequency:   -0.0582051392
  - # 4
    frequency:    0.2795233872
  - # 5
    frequency:    0.3978808609
  - # 6
    frequency:    5.2864506478
  - # 7
    frequency:    5.2903928330
  - # 8
    frequency:    6.1654044854
  - # 9
    frequency:    6.1695818457
  - # 10
    frequency:    7.4326102999
  - # 11
    frequency:    7.7666056303
  - # 12
    frequency:    7.7783892462
  - # 13
    frequency:   10.1851882627
  - # 14
    frequency:   12.7754713879
  - # 15
    frequency:   16.9886630895
  - # 16
    frequency:   16.9892604692
  - # 17
    frequency:   17.9677327868
  - # 18
    frequency:   60.8104374659

- q-position: [    0.0202020,    0.0000000,    0.0000000 ]
  distance:    0.0072227
  band:
  - # 1
    frequency:   -0.7600364802
  - # 2
    frequency:   -0.7219695635
  - # 3
    frequency:    0.0888011493
  - # 4
    frequency:    0.3721247199
  - # 5
    frequency:    0.5176449696
  - # 6
    frequency:    5.2872505211
  - # 7
    frequency:    5.2942383792
  - # 8
    frequency:    6.1684935795
  - # 9
    frequency:    6.1759327381
  - # 10
    frequency:    7.4293894772
  - # 11
    frequency:    7.7699665401
  - # 12
    frequency:    7.7905031046
  - # 13
    frequency:   10.1846894216
  - # 14
    frequency:   12.7722275321
  - # 15
    frequency:   16.9890671892
  - # 16
    frequency:   16.9901181912
  - # 17
    frequency:   17.9660902336
  - # 18
    frequency:   60.8102131479

- q-position: [    0.0252525,    0.0000000,    0.0000000 ]
  distance:    0.0090284
  band:
  - # 1
    frequency:   -0.7512441667
  - # 2
    frequency:   -0.6909536047
  - # 3
    frequency:    0.1535597190
  - # 4
    frequency:    0.4643319038
  - # 5
    frequency:    0.6389376361
  - # 6
    frequency:    5.2882586518
  - # 7
    frequency:    5.2991375859
  - # 8
    frequency:    6.1724209198
  - # 9
    frequency:    6.1840689050
  - # 10
    frequency:    7.4256897408
  - # 11
    frequency:    7.7742579511
  - # 12
    frequency:    7.8055959997
  - # 13
    frequency:   10.1840332430
  - # 14
    frequency:   12.7680458142
  - # 15
    frequency:   16.9895683268
  - # 16
    frequency:   16.9911885749
  - # 17
    frequency:   17.9639692444
  - # 18
    frequency:   60.8099246109

- q-position: [    0.0303030,    0.0000000,    0.0000000 ]
  distance:    0.0108341
  band:
  - # 1
    frequency:   -0.7402530975
  - # 2
    frequency:   -0.6516782185
  - # 3
    frequency:    0.2092825763
  - # 4
    frequency:    0.5561266847
  - # 5
    frequency:    0.7612015664
  - # 6
    frequency:    5.2894601701
  - # 7
    frequency:    5.3050593799
  - # 8
    frequency:    6.1771544985
  - # 9
    frequency:    6.1939676335
  - # 10
    frequency:    7.4217437835
  - # 11
    frequency:    7.7794573606
  - # 12
    frequency:    7.8234042118
  - # 13
    frequency:   10.1832090413
  - # 14
    frequency:   12.7629181359
  - # 15
    frequency:   16.9901529125
  - # 16
    frequency:   16.9924478180
  - # 17
    frequency:   17.9613631132
  - # 18
    frequency:   60.8095717698

- q-position: [    0.0353535,    0.0000000,    0.0000000 ]
  distance:    0.0126398
  band:
  - # 1
    frequency:   -0.7269861194
  - # 2
    frequency:   -0.6029682451
  - # 3
    frequency:    0.2625494758
  - # 4
    frequency:    0.6475061995
  - # 5
    frequency:    0.8840872062
  - # 6
    frequency:    5.2908372881
  - # 7
    frequency:    5.3119685725
  - # 8
    frequency:    6.1826565187
  - # 9
    frequency:    6.2056004564
  - # 10
    frequency:    7.4177661634
  - # 11
    frequency:    7.7855370922
  - # 12
    frequency:    7.8436747867
  - # 13
    frequency:   10.1822042160
  - # 14
    frequency:   12.7568348050
  - # 15
    frequency:   16.9908045852
  - # 16
    frequency:   16.9938673747
  - # 17
    frequency:   17.9582638056
  - # 18
    frequency:   60.8091545324

- q-position: [    0.0404040,    0.0000000,    0.0000000 ]
  distance:    0.0144455
  band:
  - # 1
    frequency:   -0.7113763395
  - # 2
    frequency:   -0.5429617396
  - # 3
    frequency:    0.3156696665
  - # 4
    frequency:    0.7384726052
  - # 5
    frequency:    1.0073724880
  - # 6
    frequency:    5.2923695451
  - # 7
    frequency:    5.3198272207
  - # 8
    frequency:    6.1888840953
  - # 9
    frequency:    6.2189329074
  - # 10
    frequency:    7.4139428219
  - # 11
    frequency:    7.7924642322
  - # 12
    frequency:    7.8661757957
  - # 13
    frequency:   10.1810045158
  - # 14
    frequency:   12.7497846570
  - # 15
    frequency:   16.9915043605
  - # 16
    frequency:   16.9954142732
  - # 17
    frequency:   17.9546620553
  - # 18
    frequency:   60.8086728070

- q-position: [    0.0454545,    0.0000000,    0.0000000 ]
  distance:    0.0162511
  band:
  - # 1
    frequency:   -0.6933605356
  - # 2
    frequency:   -0.4684595695
  - # 3
    frequency:    0.3701025442
  - # 4
    frequency:    0.8290262678
  - # 5
    frequency:    1.1309102271
  - # 6
    frequency:    5.2940341029
  - # 7
    frequency:    5.3285959911
  - # 8
    frequency:    6.1957900044
  - # 9
    frequency:    6.2339243663
  - # 10
    frequency:    7.4104276199
  - # 11
    frequency:    7.8002005889
  - # 12
    frequency:    7.8906995901
  - # 13
    frequency:   10.1795943376
  - # 14
    frequency:   12.7417551986
  - # 15
    frequency:   16.9922308046
  - # 16
    frequency:   16.9970514804
  - # 17
    frequency:   17.9505474785
  - # 18
    frequency:   60.8081265099

- q-position: [    0.0505051,    0.0000000,    0.0000000 ]
  distance:    0.0180568
  band:
  - # 1
    frequency:   -0.6728706554
  - # 2
    frequency:   -0.3729297009
  - # 3
    frequency:    0.4271692520
  - # 4
    frequency:    0.9191622332
  - # 5
    frequency:    1.2545978128
  - # 6
    frequency:    5.2958060936
  - # 7
    frequency:    5.3382354417
  - # 8
    frequency:    6.2033234563
  - # 9
    frequency:    6.2505280356
  - # 10
    frequency:    7.4073432311
  - # 11
    frequency:    7.8087026865
  - # 12
    frequency:    7.9170617347
  - # 13
    frequency:   10.1779570577
  - # 14
    frequency:   12.7327327693
  - # 15
    frequency:   16.9929602334
  - # 16
    frequency:   16.9987383100
  - # 17
    frequency:   17.9459087057
  - # 18
    frequency:   60.8075155751

- q-position: [    0.0555556,    0.0000000,    0.0000000 ]
  distance:    0.0198625
  band:
  - # 1
    frequency:   -0.6498241480
  - # 2
    frequency:   -0.2364640324
  - # 3
    frequency:    0.4882443054
  - # 4
    frequency:    1.0088690009
  - # 5
    frequency:    1.3783595884
  - # 6
    frequency:    5.2976590164
  - # 7
    frequency:    5.3487071522
  - # 8
    frequency:    6.2114308623
  - # 9
    frequency:    6.2686910732
  - # 10
    frequency:    7.4047842554
  - # 11
    frequency:    7.8179218066
  - # 12
    frequency:    7.9450977800
  - # 13
    frequency:   10.1760753885
  - # 14
    frequency:   12.7227027239
  - # 15
    frequency:   16.9936669352
  - # 16
    frequency:   17.0004308703
  - # 17
    frequency:   17.9407335300
  - # 18
    frequency:   60.8068399641

- q-position: [    0.0606061,    0.0000000,    0.0000000 ]
  distance:    0.0216682
  band:
  - # 1
    frequency:   -0.6241127104
  - # 2
    frequency:    0.1649933590
  - # 3
    frequency:    0.5545417606
  - # 4
    frequency:    1.0981286463
  - # 5
    frequency:    1.5021362169
  - # 6
    frequency:    5.2995651777
  - # 7
    frequency:    5.3599746473
  - # 8
    frequency:    6.2200565722
  - # 9
    frequency:    6.2883548967
  - # 10
    frequency:    7.4028211645
  - # 11
    frequency:    7.8278040899
  - # 12
    frequency:    7.9746592837
  - # 13
    frequency:   10.1739317540
  - # 14
    frequency:   12.7116496328
  - # 15
    frequency:   16.9943234180
  - # 16
    frequency:   17.0020825443
  - # 17
    frequency:   17.9350090721
  - # 18
    frequency:   60.8060996771

- q-position: [    0.0656566,    0.0000000,    0.0000000 ]
  distance:    0.0234739
  band:
  - # 1
    frequency:   -0.5955879949
  - # 2
    frequency:    0.3283585909
  - # 3
    frequency:    0.6264225603
  - # 4
    frequency:    1.1869176011
  - # 5
    frequency:    1.6258779852
  - # 6
    frequency:    5.3014961684
  - # 7
    frequency:    5.3720040804
  - # 8
    frequency:    6.2291435631
  - # 9
    frequency:    6.3094556549
  - # 10
    frequency:    7.4015043107
  - # 11
    frequency:    7.8382907040
  - # 12
    frequency:    8.0056098711
  - # 13
    frequency:   10.1715086795
  - # 14
    frequency:   12.6995574992
  - # 15
    frequency:   16.9949006773
  - # 16
    frequency:   17.0036444981
  - # 17
    frequency:   17.9287219618
  - # 18
    frequency:   60.8052947644

- q-position: [    0.0707071,    0.0000000,    0.0000000 ]
  distance:    0.0252795
  band:
  - # 1
    frequency:   -0.5640415359
  - # 2
    frequency:    0.4301158680
  - # 3
    frequency:    0.7028070905
  - # 4
    frequency:    1.2752076765
  - # 5
    frequency:    1.7495404065
  - # 6
    frequency:    5.3034233676
  - # 7
    frequency:    5.3847646658
  - # 8
    frequency:    6.2386340647
  - # 9
    frequency:    6.3319248485
  - # 10
    frequency:    7.4008676385
  - # 11
    frequency:    7.8493180877
  - # 12
    frequency:    8.0378217127
  - # 13
    frequency:   10.1687891879
  - # 14
    frequency:   12.6864099932
  - # 15
    frequency:   16.9953684862
  - # 16
    frequency:   17.0050662120
  - # 17
    frequency:   17.9218585337
  - # 18
    frequency:   60.8044253391

- q-position: [    0.0757576,    0.0000000,    0.0000000 ]
  distance:    0.0270852
  band:
  - # 1
    frequency:   -0.5291738737
  - # 2
    frequency:    0.5097947580
  - # 3
    frequency:    0.7816679797
  - # 4
    frequency:    1.3629671082
  - # 5
    frequency:    1.8730812023
  - # 6
    frequency:    5.3053184615
  - # 7
    frequency:    5.3982288666
  - # 8
    frequency:    6.2484701122
  - # 9
    frequency:    6.3556900679
  - # 10
    frequency:    7.4009319733
  - # 11
    frequency:    7.8608182717
  - # 12
    frequency:    8.0711725589
  - # 13
    frequency:   10.1657571970
  - # 14
    frequency:   12.6721907004
  - # 15
    frequency:   16.9956957031
  - # 16
    frequency:   17.0062960271
  - # 17
    frequency:   17.9144050380
  - # 18
    frequency:   60.8034915896

- q-position: [    0.0808081,    0.0000000,    0.0000000 ]
  distance:    0.0288909
  band:
  - # 1
    frequency:   -0.4905430167
  - # 2
    frequency:    0.5784133504
  - # 3
    frequency:    0.8611370824
  - # 4
    frequency:    1.4501615248
  - # 5
    frequency:    1.9964581386
  - # 6
    frequency:    5.3071539650
  - # 7
    frequency:    5.4123723640
  - # 8
    frequency:    6.2585940223
  - # 9
    frequency:    6.3806758059
  - # 10
    frequency:    7.4017078757
  - # 11
    frequency:    7.8727192792
  - # 12
    frequency:    8.1055433503
  - # 13
    frequency:   10.1623979124
  - # 14
    frequency:   12.6568833841
  - # 15
    frequency:   16.9958505976
  - # 16
    frequency:   17.0072817033
  - # 17
    frequency:   17.9063478643
  - # 18
    frequency:   60.8024937926

- q-position: [    0.0858586,    0.0000000,    0.0000000 ]
  distance:    0.0306966
  band:
  - # 1
    frequency:   -0.4474708203
  - # 2
    frequency:    0.6410584420
  - # 3
    frequency:    0.9400399459
  - # 4
    frequency:    1.5367548056
  - # 5
    frequency:    2.1196274022
  - # 6
    frequency:    5.3089037309
  - # 7
    frequency:    5.4271738467
  - # 8
    frequency:    6.2689487956
  - # 9
    frequency:    6.4068042999
  - # 10
    frequency:    7.4031981060
  - # 11
    frequency:    7.8849456003
  - # 12
    frequency:    8.1408163655
  - # 13
    frequency:   10.1586982095
  - # 14
    frequency:   12.6404722602
  - # 15
    frequency:   16.9958011910
  - # 16
    frequency:   17.0079709818
  - # 17
    frequency:   17.8976737766
  - # 18
    frequency:   60.8014323266

- q-position: [    0.0909091,    0.0000000,    0.0000000 ]
  distance:    0.0325023
  band:
  - # 1
    frequency:   -0.3988545831
  - # 2
    frequency:    0.7003733460
  - # 3
    frequency:    1.0178082662
  - # 4
    frequency:    1.6227098277
  - # 5
    frequency:    2.2425423285
  - # 6
    frequency:    5.3105434355
  - # 7
    frequency:    5.4426146643
  - # 8
    frequency:    6.2794784481
  - # 9
    frequency:    6.4339963542
  - # 10
    frequency:    7.4053997526
  - # 11
    frequency:    7.8974187367
  - # 12
    frequency:    8.1768738466
  - # 13
    frequency:   10.1546470013
  - # 14
    frequency:   12.6229422814
  - # 15
    frequency:   16.9955156093
  - # 16
    frequency:   17.0083121474
  - # 17
    frequency:   17.8883701590
  - # 18
    frequency:   60.8003076849

- q-position: [    0.0959596,    0.0000000,    0.0000000 ]
  distance:    0.0343080
  band:
  - # 1
    frequency:   -0.3427306701
  - # 2
    frequency:    0.7578001611
  - # 3
    frequency:    1.0942399759
  - # 4
    frequency:    1.7079891113
  - # 5
    frequency:    2.3651523630
  - # 6
    frequency:    5.3120510254
  - # 7
    frequency:    5.4586783954
  - # 8
    frequency:    6.2901282832
  - # 9
    frequency:    6.4621720996
  - # 10
    frequency:    7.4083060833
  - # 11
    frequency:    7.9100578062
  - # 12
    frequency:    8.2135970388
  - # 13
    frequency:   10.1502355866
  - # 14
    frequency:   12.6042794314
  - # 15
    frequency:   16.9949624467
  - # 16
    frequency:   17.0082545845
  - # 17
    frequency:   17.8784252696
  - # 18
    frequency:   60.7991204889

- q-position: [    0.1010101,    0.0000000,    0.0000000 ]
  distance:    0.0361136
  band:
  - # 1
    frequency:   -0.2750170006
  - # 2
    frequency:    0.8141508054
  - # 3
    frequency:    1.1693220735
  - # 4
    frequency:    1.7925553793
  - # 5
    frequency:    2.4874021883
  - # 6
    frequency:    5.3134071168
  - # 7
    frequency:    5.4753503769
  - # 8
    frequency:    6.3008451130
  - # 9
    frequency:    6.4912516529
  - # 10
    frequency:    7.4119081640
  - # 11
    frequency:    7.9227801973
  - # 12
    frequency:    8.2508655829
  - # 13
    frequency:   10.1454579758
  - # 14
    frequency:   12.5844710240
  - # 15
    frequency:   16.9941111357
  - # 16
    frequency:   17.0077493223
  - # 17
    frequency:   17.8678285001
  - # 18
    frequency:   60.7978715010

- q-position: [    0.1060606,    0.0000000,    0.0000000 ]
  distance:    0.0379193
  band:
  - # 1
    frequency:   -0.1840075959
  - # 2
    frequency:    0.8698893184
  - # 3
    frequency:    1.2431316815
  - # 4
    frequency:    1.8763720422
  - # 5
    frequency:    2.6092309692
  - # 6
    frequency:    5.3145953361
  - # 7
    frequency:    5.4926172380
  - # 8
    frequency:    6.3115774425
  - # 9
    frequency:    6.5211556476
  - # 10
    frequency:    7.4161962850
  - # 11
    frequency:    7.9355022601
  - # 12
    frequency:    8.2885572045
  - # 13
    frequency:   10.1403111916
  - # 14
    frequency:   12.5635060087
  - # 15
    frequency:   16.9929323222
  - # 16
    frequency:   17.0067495638
  - # 17
    frequency:   17.8565706397
  - # 18
    frequency:   60.7965616368

- q-position: [    0.1111111,    0.0000000,    0.0000000 ]
  distance:    0.0397250
  band:
  - # 1
    frequency:    0.0871921412
  - # 2
    frequency:    0.9252771856
  - # 3
    frequency:    1.3157864130
  - # 4
    frequency:    1.9594036197
  - # 5
    frequency:    2.7305716930
  - # 6
    frequency:    5.3156025961
  - # 7
    frequency:    5.5104664746
  - # 8
    frequency:    6.3222756277
  - # 9
    frequency:    6.5518056186
  - # 10
    frequency:    7.4211612223
  - # 11
    frequency:    7.9481400217
  - # 12
    frequency:    8.3265476480
  - # 13
    frequency:   10.1347955435
  - # 14
    frequency:   12.5413752770
  - # 15
    frequency:   16.9913982412
  - # 16
    frequency:   17.0052111946
  - # 17
    frequency:   17.8446441405
  - # 18
    frequency:   60.7951919766

- q-position: [    0.1161616,    0.0000000,    0.0000000 ]
  distance:    0.0415307
  band:
  - # 1
    frequency:    0.2202149016
  - # 2
    frequency:    0.9804512491
  - # 3
    frequency:    1.3874207152
  - # 4
    frequency:    2.0416161043
  - # 5
    frequency:    2.8513505882
  - # 6
    frequency:    5.3164193041
  - # 7
    frequency:    5.5288860924
  - # 8
    frequency:    6.3328920198
  - # 9
    frequency:    6.5831242315
  - # 10
    frequency:    7.4267953564
  - # 11
    frequency:    7.9606099099
  - # 12
    frequency:    8.3647108082
  - # 13
    frequency:   10.1289148737
  - # 14
    frequency:   12.5180719690
  - # 15
    frequency:   16.9894830893
  - # 16
    frequency:   17.0030932674
  - # 17
    frequency:   17.8320433811
  - # 18
    frequency:   60.7937637769

- q-position: [    0.1212121,    0.0000000,    0.0000000 ]
  distance:    0.0433364
  band:
  - # 1
    frequency:    0.2976053744
  - # 2
    frequency:    1.0354673678
  - # 3
    frequency:    1.4581749910
  - # 4
    frequency:    2.1229772741
  - # 5
    frequency:    2.9714866153
  - # 6
    frequency:    5.3170394978
  - # 7
    frequency:    5.5478643377
  - # 8
    frequency:    6.3433811038
  - # 9
    frequency:    6.6150353595
  - # 10
    frequency:    7.4330936620
  - # 11
    frequency:    7.9728294743
  - # 12
    frequency:    8.4029190179
  - # 13
    frequency:   10.1226767760
  - # 14
    frequency:   12.4935917779
  - # 15
    frequency:   16.9871633928
  - # 16
    frequency:   17.0003584582
  - # 17
    frequency:   17.8187649266
  - # 18
    frequency:   60.7922784798

- q-position: [    0.1262626,    0.0000000,    0.0000000 ]
  distance:    0.0451420
  band:
  - # 1
    frequency:    0.3571892625
  - # 2
    frequency:    1.0903261036
  - # 3
    frequency:    1.5281907496
  - # 4
    frequency:    2.2034569550
  - # 5
    frequency:    3.0908910276
  - # 6
    frequency:    5.3174609136
  - # 7
    frequency:    5.5673895289
  - # 8
    frequency:    6.3536996407
  - # 9
    frequency:    6.6474640158
  - # 10
    frequency:    7.4400545792
  - # 11
    frequency:    7.9847180902
  - # 12
    frequency:    8.4410434503
  - # 13
    frequency:   10.1160927873
  - # 14
    frequency:   12.4679332480
  - # 15
    frequency:   16.9844183650
  - # 16
    frequency:   16.9969734902
  - # 17
    frequency:   17.8048077808
  - # 18
    frequency:   60.7907377221

- q-position: [    0.1313131,    0.0000000,    0.0000000 ]
  distance:    0.0469477
  band:
  - # 1
    frequency:    0.4065798311
  - # 2
    frequency:    1.1449887101
  - # 3
    frequency:    1.5976084388
  - # 4
    frequency:    2.2830272353
  - # 5
    frequency:    3.2094670035
  - # 6
    frequency:    5.3176849879
  - # 7
    frequency:    5.5874499907
  - # 8
    frequency:    6.3638068171
  - # 9
    frequency:    6.6803361601
  - # 10
    frequency:    7.4476807685
  - # 11
    frequency:    7.9961976335
  - # 12
    frequency:    8.4789546035
  - # 13
    frequency:   10.1091785525
  - # 14
    frequency:   12.4410980653
  - # 15
    frequency:   16.9812302507
  - # 16
    frequency:   16.9929095235
  - # 17
    frequency:   17.7901736286
  - # 18
    frequency:   60.7891433428

- q-position: [    0.1363636,    0.0000000,    0.0000000 ]
  distance:    0.0487534
  band:
  - # 1
    frequency:    0.4489032153
  - # 2
    frequency:    1.1993877800
  - # 3
    frequency:    1.6665663080
  - # 4
    frequency:    2.3616626324
  - # 5
    frequency:    3.3271093553
  - # 6
    frequency:    5.3177167970
  - # 7
    frequency:    5.6080340902
  - # 8
    frequency:    6.3736644065
  - # 9
    frequency:    6.7135784006
  - # 10
    frequency:    7.4559797489
  - # 11
    frequency:    8.0071931178
  - # 12
    frequency:    8.5165228331
  - # 13
    frequency:   10.1019539645
  - # 14
    frequency:   12.4130913371
  - # 15
    frequency:   16.9775846536
  - # 16
    frequency:   16.9881425078
  - # 17
    frequency:   17.7748670653
  - # 18
    frequency:   60.7874973892

- q-position: [    0.1414141,    0.0000000,    0.0000000 ]
  distance:    0.0505591
  band:
  - # 1
    frequency:    0.4857893372
  - # 2
    frequency:    1.2534349309
  - # 3
    frequency:    1.7351994879
  - # 4
    frequency:    2.4393402124
  - # 5
    frequency:    3.4437043225
  - # 6
    frequency:    5.3175649431
  - # 7
    frequency:    5.6291303671
  - # 8
    frequency:    6.3832369418
  - # 9
    frequency:    6.7471176214
  - # 10
    frequency:    7.4649644119
  - # 11
    frequency:    8.0176332831
  - # 12
    frequency:    8.5536189098
  - # 13
    frequency:   10.0944432793
  - # 14
    frequency:   12.3839218571
  - # 15
    frequency:   16.9734708428
  - # 16
    frequency:   16.9826534939
  - # 17
    frequency:   17.7588958084
  - # 18
    frequency:   60.7858021214

- q-position: [    0.1464646,    0.0000000,    0.0000000 ]
  distance:    0.0523648
  band:
  - # 1
    frequency:    0.5182045542
  - # 2
    frequency:    1.3070268500
  - # 3
    frequency:    1.8036389110
  - # 4
    frequency:    2.5160396621
  - # 5
    frequency:    3.5591294581
  - # 6
    frequency:    5.3172413942
  - # 7
    frequency:    5.6507277464
  - # 8
    frequency:    6.3924918983
  - # 9
    frequency:    6.7808805691
  - # 10
    frequency:    7.4746533956
  - # 11
    frequency:    8.0274511314
  - # 12
    frequency:    8.5901145768
  - # 13
    frequency:   10.0866752086
  - # 14
    frequency:   12.3536023543
  - # 15
    frequency:   16.9688820351
  - # 16
    frequency:   16.9764289050
  - # 17
    frequency:   17.7422708910
  - # 18
    frequency:   60.7840600154

- q-position: [    0.1515152,    0.0000000,    0.0000000 ]
  distance:    0.0541705
  band:
  - # 1
    frequency:    0.5467696962
  - # 2
    frequency:    1.3600504276
  - # 3
    frequency:    1.8720099301
  - # 4
    frequency:    2.5917433135
  - # 5
    frequency:    3.6732536223
  - # 6
    frequency:    5.3167612852
  - # 7
    frequency:    5.6728158175
  - # 8
    frequency:    6.4013998840
  - # 9
    frequency:    6.8147934410
  - # 10
    frequency:    7.4850712949
  - # 11
    frequency:    8.0365844012
  - # 12
    frequency:    8.6258830922
  - # 13
    frequency:   10.0786829869
  - # 14
    frequency:   12.3221497210
  - # 15
    frequency:   16.9638156488
  - # 16
    frequency:   16.9694607632
  - # 17
    frequency:   17.7250068313
  - # 18
    frequency:   60.7822737643

- q-position: [    0.1565657,    0.0000000,    0.0000000 ]
  distance:    0.0559761
  band:
  - # 1
    frequency:    0.5719056567
  - # 2
    frequency:    1.4123873557
  - # 3
    frequency:    1.9404306360
  - # 4
    frequency:    2.6664361208
  - # 5
    frequency:    3.7859370990
  - # 6
    frequency:    5.3161426903
  - # 7
    frequency:    5.6953851619
  - # 8
    frequency:    6.4099348322
  - # 9
    frequency:    6.8487815208
  - # 10
    frequency:    7.4962486750
  - # 11
    frequency:    8.0449759796
  - # 12
    frequency:    8.6607997450
  - # 13
    frequency:   10.0705044133
  - # 14
    frequency:   12.2895852190
  - # 15
    frequency:   16.9582735259
  - # 16
    frequency:   16.9617468716
  - # 17
    frequency:   17.7071217782
  - # 18
    frequency:   60.7804462774

- q-position: [    0.1616162,    0.0000000,    0.0000000 ]
  distance:    0.0577818
  band:
  - # 1
    frequency:    0.5939085189
  - # 2
    frequency:    1.4639183426
  - # 3
    frequency:    2.0090099683
  - # 4
    frequency:    2.7401055916
  - # 5
    frequency:    3.8970318551
  - # 6
    frequency:    5.3154063748
  - # 7
    frequency:    5.7184277067
  - # 8
    frequency:    6.4180741925
  - # 9
    frequency:    6.8827689223
  - # 10
    frequency:    7.5082218394
  - # 11
    frequency:    8.0525742489
  - # 12
    frequency:    8.6947423388
  - # 13
    frequency:   10.0621818618
  - # 14
    frequency:   12.2559346584
  - # 15
    frequency:   16.9522621184
  - # 16
    frequency:   16.9532909502
  - # 17
    frequency:   17.6886376270
  - # 18
    frequency:   60.7785806777

- q-position: [    0.1666667,    0.0000000,    0.0000000 ]
  distance:    0.0595875
  band:
  - # 1
    frequency:    0.6129917684
  - # 2
    frequency:    1.5145269533
  - # 3
    frequency:    2.0778457750
  - # 4
    frequency:    2.8127416716
  - # 5
    frequency:    4.0063819662
  - # 6
    frequency:    5.3145755340
  - # 7
    frequency:    5.7419370787
  - # 8
    frequency:    6.4257991127
  - # 9
    frequency:    6.9166785044
  - # 10
    frequency:    7.5210322950
  - # 11
    frequency:    8.0593333663
  - # 12
    frequency:    8.7275916463
  - # 13
    frequency:   10.0537622545
  - # 14
    frequency:   12.2212285479
  - # 15
    frequency:   16.9441027251
  - # 16
    frequency:   16.9457926365
  - # 17
    frequency:   17.6695801063
  - # 18
    frequency:   60.7766802973

- q-position: [    0.1717172,    0.0000000,    0.0000000 ]
  distance:    0.0613932
  band:
  - # 1
    frequency:    0.6293115500
  - # 2
    frequency:    1.5641030031
  - # 3
    frequency:    2.1470230033
  - # 4
    frequency:    2.8843365860
  - # 5
    frequency:    4.1138242406
  - # 6
    frequency:    5.3136755288
  - # 7
    frequency:    5.7659089301
  - # 8
    frequency:    6.4330946066
  - # 9
    frequency:    6.9504320336
  - # 10
    frequency:    7.5347258451
  - # 11
    frequency:    8.0652134783
  - # 12
    frequency:    8.7592318394
  - # 13
    frequency:   10.0452969853
  - # 14
    frequency:   12.1855022130
  - # 15
    frequency:   16.9341979691
  - # 16
    frequency:   16.9388811534
  - # 17
    frequency:   17.6499788314
  - # 18
    frequency:   60.7747486706

- q-position: [    0.1767677,    0.0000000,    0.0000000 ]
  distance:    0.0631989
  band:
  - # 1
    frequency:    0.6429825016
  - # 2
    frequency:    1.6125453960
  - # 3
    frequency:    2.2166122044
  - # 4
    frequency:    2.9548846375
  - # 5
    frequency:    4.2191890753
  - # 6
    frequency:    5.3127336219
  - # 7
    frequency:    5.7903411987
  - # 8
    frequency:    6.4399497011
  - # 9
    frequency:    6.9839506706
  - # 10
    frequency:    7.5493512318
  - # 11
    frequency:    8.0701808705
  - # 12
    frequency:    8.7895509130
  - # 13
    frequency:   10.0368417794
  - # 14