nqpoint: 300    
npath: 3      
segment_nqpoint:
- 100
- 100
- 100
labels:
- [ 'G', 'M' ]
- [ 'M', 'K' ]
- [ 'K', 'G' ]
reciprocal_lattice:
- [   0.29228165,   0.16874889,   0.00000000 ] # a*
- [   0.00000000,   0.33749778,   0.00000000 ] # b*
- [   0.00000000,   0.00000000,   0.04074406 ] # c*
natom: 6      
lattice:
- [     3.421357461132994,     0.000000000000000,     0.000000000000000 ] # a
- [    -1.710678730566497,     2.962982476760490,     0.000000000000000 ] # b
- [     0.000000000000000,     0.000000000000000,    24.543455170525501 ] # c
points:
- symbol: Br # 1
  coordinates: [  0.333332985432215,  0.666666983183674,  0.633303463694541 ]
  mass: 79.904000
- symbol: C # 2
  coordinates: [  0.000000000000000,  0.000000000000000,  0.507023153312485 ]
  mass: 12.010700
- symbol: H # 3
  coordinates: [  0.666666984744047,  0.333332985985145,  0.366696536305459 ]
  mass: 1.007940
- symbol: O # 4
  coordinates: [  0.666666984744047,  0.333332985985145,  0.406823777082648 ]
  mass: 15.999400
- symbol: Sc # 5
  coordinates: [  0.333332985432215,  0.666666983183674,  0.455694292410059 ]
  mass: 44.955912
- symbol: Sc # 6
  coordinates: [  0.666666984744047,  0.333332985985145,  0.556690460233608 ]
  mass: 44.955912

phonon:
- q-position: [    0.0000000,    0.0000000,    0.0000000 ]
  distance:    0.0000000
  band:
  - # 1
    frequency:   -0.0000179687
  - # 2
    frequency:   -0.0000008707
  - # 3
    frequency:    0.0000139220
  - # 4
    frequency:    3.0774025881
  - # 5
    frequency:    3.0774025882
  - # 6
    frequency:    5.2163113414
  - # 7
    frequency:    5.6006717315
  - # 8
    frequency:    5.6006717316
  - # 9
    frequency:    6.5386023627
  - # 10
    frequency:    6.5386023627
  - # 11
    frequency:   10.1392753330
  - # 12
    frequency:   10.9887663110
  - # 13
    frequency:   10.9887663111
  - # 14
    frequency:   12.4891155215
  - # 15
    frequency:   12.4891155216
  - # 16
    frequency:   13.3264499172
  - # 17
    frequency:   18.4162049197
  - # 18
    frequency:  114.6085164241

- q-position: [    0.0050505,    0.0000000,    0.0000000 ]
  distance:    0.0017045
  band:
  - # 1
    frequency:    0.0021282848
  - # 2
    frequency:    0.0681123463
  - # 3
    frequency:    0.1237847323
  - # 4
    frequency:    3.0778156718
  - # 5
    frequency:    3.0798749245
  - # 6
    frequency:    5.2138083297
  - # 7
    frequency:    5.6006005419
  - # 8
    frequency:    5.6041834192
  - # 9
    frequency:    6.5385815385
  - # 10
    frequency:    6.5409413600
  - # 11
    frequency:   10.1384618629
  - # 12
    frequency:   10.9886606173
  - # 13
    frequency:   10.9912835875
  - # 14
    frequency:   12.4889887232
  - # 15
    frequency:   12.4902505000
  - # 16
    frequency:   13.3292300048
  - # 17
    frequency:   18.4148936100
  - # 18
    frequency:  114.6084887719

- q-position: [    0.0101010,    0.0000000,    0.0000000 ]
  distance:    0.0034091
  band:
  - # 1
    frequency:    0.0084949859
  - # 2
    frequency:    0.1361858330
  - # 3
    frequency:    0.2474498614
  - # 4
    frequency:    3.0790544279
  - # 5
    frequency:    3.0872734596
  - # 6
    frequency:    5.2065554021
  - # 7
    frequency:    5.6003878366
  - # 8
    frequency:    5.6144286801
  - # 9
    frequency:    6.5385188097
  - # 10
    frequency:    6.5479220640
  - # 11
    frequency:   10.1360322105
  - # 12
    frequency:   10.9883434752
  - # 13
    frequency:   10.9987359197
  - # 14
    frequency:   12.4886097159
  - # 15
    frequency:   12.4937818630
  - # 16
    frequency:   13.3375260035
  - # 17
    frequency:   18.4109621020
  - # 18
    frequency:  114.6084058950

- q-position: [    0.0151515,    0.0000000,    0.0000000 ]
  distance:    0.0051136
  band:
  - # 1
    frequency:    0.0190470303
  - # 2
    frequency:    0.2041816585
  - # 3
    frequency:    0.3708752563
  - # 4
    frequency:    3.0811173758
  - # 5
    frequency:    3.0995436534
  - # 6
    frequency:    5.1952159642
  - # 7
    frequency:    5.6000361982
  - # 8
    frequency:    5.6306462570
  - # 9
    frequency:    6.5384134105
  - # 10
    frequency:    6.5594358640
  - # 11
    frequency:   10.1320176768
  - # 12
    frequency:   10.9878147051
  - # 13
    frequency:   11.0108245034
  - # 14
    frequency:   12.4879826556
  - # 15
    frequency:   12.5000843391
  - # 16
    frequency:   13.3512097913
  - # 17
    frequency:   18.4044176619
  - # 18
    frequency:  114.6082680322

- q-position: [    0.0202020,    0.0000000,    0.0000000 ]
  distance:    0.0068181
  band:
  - # 1
    frequency:    0.0336982711
  - # 2
    frequency:    0.2720611343
  - # 3
    frequency:    0.4939397639
  - # 4
    frequency:    3.0840020642
  - # 5
    frequency:    3.1165974547
  - # 6
    frequency:    5.1806310346
  - # 7
    frequency:    5.5995499039
  - # 8
    frequency:    5.6518423837
  - # 9
    frequency:    6.5382640735
  - # 10
    frequency:    6.5753027642
  - # 11
    frequency:   10.1264674393
  - # 12
    frequency:   10.9870740174
  - # 13
    frequency:   11.0270511071
  - # 14
    frequency:   12.4871144426
  - # 15
    frequency:   12.5097674078
  - # 16
    frequency:   13.3700823103
  - # 17
    frequency:   18.3952724080
  - # 18
    frequency:  114.6080755808

- q-position: [    0.0252525,    0.0000000,    0.0000000 ]
  distance:    0.0085227
  band:
  - # 1
    frequency:    0.0523329329
  - # 2
    frequency:    0.3397857417
  - # 3
    frequency:    0.6165207627
  - # 4
    frequency:    3.0877050937
  - # 5
    frequency:    3.1383172633
  - # 6
    frequency:    5.1636155267
  - # 7
    frequency:    5.5989348847
  - # 8
    frequency:    5.6770085350
  - # 9
    frequency:    6.5380690431
  - # 10
    frequency:    6.5952735070
  - # 11
    frequency:   10.1194448303
  - # 12
    frequency:   10.9861210268
  - # 13
    frequency:   11.0467207276
  - # 14
    frequency:   12.4860146830
  - # 15
    frequency:   12.5236526154
  - # 16
    frequency:   13.3938919302
  - # 17
    frequency:   18.3835433244
  - # 18
    frequency:  114.6078290947

- q-position: [    0.0303030,    0.0000000,    0.0000000 ]
  distance:    0.0102272
  band:
  - # 1
    frequency:    0.0748099064
  - # 2
    frequency:    0.4073171889
  - # 3
    frequency:    0.7384937988
  - # 4
    frequency:    3.0922221504
  - # 5
    frequency:    3.1645609111
  - # 6
    frequency:    5.1448525042
  - # 7
    frequency:    5.5981986695
  - # 8
    frequency:    5.7052440983
  - # 9
    frequency:    6.5378260941
  - # 10
    frequency:    6.6190335843
  - # 11
    frequency:   10.1110233356
  - # 12
    frequency:   10.9849552721
  - # 13
    frequency:   11.0689515519
  - # 14
    frequency:   12.4846956338
  - # 15
    frequency:   12.5427403497
  - # 16
    frequency:   13.4223547917
  - # 17
    frequency:   18.3692522818
  - # 18
    frequency:  114.6075292828

- q-position: [    0.0353535,    0.0000000,    0.0000000 ]
  distance:    0.0119317
  band:
  - # 1
    frequency:    0.1009676011
  - # 2
    frequency:    0.4746174667
  - # 3
    frequency:    0.8597323292
  - # 4
    frequency:    3.0975480465
  - # 5
    frequency:    3.1951672042
  - # 6
    frequency:    5.1248702549
  - # 7
    frequency:    5.5973503145
  - # 8
    frequency:    5.7357969261
  - # 9
    frequency:    6.5375325561
  - # 10
    frequency:    6.6462098500
  - # 11
    frequency:   10.1012829667
  - # 12
    frequency:   10.9835762418
  - # 13
    frequency:   11.0926984151
  - # 14
    frequency:   12.4831721322
  - # 15
    frequency:   12.5681628117
  - # 16
    frequency:   13.4551741321
  - # 17
    frequency:   18.3524260692
  - # 18
    frequency:  114.6071770061

- q-position: [    0.0404040,    0.0000000,    0.0000000 ]
  distance:    0.0136363
  band:
  - # 1
    frequency:    0.1306289974
  - # 2
    frequency:    0.5416489041
  - # 3
    frequency:    0.9801075996
  - # 4
    frequency:    3.1036767703
  - # 5
    frequency:    3.2299615643
  - # 6
    frequency:    5.1040613338
  - # 7
    frequency:    5.5964003186
  - # 8
    frequency:    5.7680604802
  - # 9
    frequency:    6.5371853424
  - # 10
    frequency:    6.6763802186
  - # 11
    frequency:   10.0903073867
  - # 12
    frequency:   10.9819834048
  - # 13
    frequency:   11.1167961410
  - # 14
    frequency:   12.4814615100
  - # 15
    frequency:   12.6011189628
  - # 16
    frequency:   13.4920567351
  - # 17
    frequency:   18.3330964379
  - # 18
    frequency:  114.6067732747

- q-position: [    0.0454545,    0.0000000,    0.0000000 ]
  distance:    0.0153408
  band:
  - # 1
    frequency:    0.1636065792
  - # 2
    frequency:    0.6083742236
  - # 3
    frequency:    1.0994886843
  - # 4
    frequency:    3.1106015435
  - # 5
    frequency:    3.2687613575
  - # 6
    frequency:    5.0827138281
  - # 7
    frequency:    5.5953605265
  - # 8
    frequency:    5.8015556018
  - # 9
    frequency:    6.5367809855
  - # 10
    frequency:    6.7090864939
  - # 11
    frequency:   10.0781818868
  - # 12
    frequency:   10.9801762452
  - # 13
    frequency:   11.1400263522
  - # 14
    frequency:   12.4795834906
  - # 15
    frequency:   12.6427890930
  - # 16
    frequency:   13.5327259018
  - # 17
    frequency:   18.3113001646
  - # 18
    frequency:  114.6063192440

- q-position: [    0.0505051,    0.0000000,    0.0000000 ]
  distance:    0.0170453
  band:
  - # 1
    frequency:    0.1997068933
  - # 2
    frequency:    0.6747565956
  - # 3
    frequency:    1.2177427159
  - # 4
    frequency:    3.1183148860
  - # 5
    frequency:    3.3113805799
  - # 6
    frequency:    5.0610407972
  - # 7
    frequency:    5.5942440204
  - # 8
    frequency:    5.8359099266
  - # 9
    frequency:    6.5363156767
  - # 10
    frequency:    6.7438498082
  - # 11
    frequency:   10.0649921114
  - # 12
    frequency:   10.9781543025
  - # 13
    frequency:   11.1612046723
  - # 14
    frequency:   12.4775600715
  - # 15
    frequency:   12.6942324881
  - # 16
    frequency:   13.5769313630
  - # 17
    frequency:   18.2870791373
  - # 18
    frequency:  114.6058162106

- q-position: [    0.0555556,    0.0000000,    0.0000000 ]
  distance:    0.0187499
  band:
  - # 1
    frequency:    0.2387345579
  - # 2
    frequency:    0.7407596912
  - # 3
    frequency:    1.3347353319
  - # 4
    frequency:    3.1268086868
  - # 5
    frequency:    3.3576336725
  - # 6
    frequency:    5.0392034836
  - # 7
    frequency:    5.5930650015
  - # 8
    frequency:    5.8708390990
  - # 9
    frequency:    6.5357853118
  - # 10
    frequency:    6.7801876232
  - # 11
    frequency:   10.0508233359
  - # 12
    frequency:   10.9759172152
  - # 13
    frequency:   11.1792760620
  - # 14
    frequency:   12.4754153899
  - # 15
    frequency:   12.7562801724
  - # 16
    frequency:   13.6244572193
  - # 17
    frequency:   18.2604804739
  - # 18
    frequency:  114.6052656078

- q-position: [    0.0606061,    0.0000000,    0.0000000 ]
  distance:    0.0204544
  band:
  - # 1
    frequency:    0.2804956250
  - # 2
    frequency:    0.8063477348
  - # 3
    frequency:    1.4503313613
  - # 4
    frequency:    3.1360742810
  - # 5
    frequency:    3.4073383327
  - # 6
    frequency:    5.0173281346
  - # 7
    frequency:    5.5918386633
  - # 8
    frequency:    5.9061303787
  - # 9
    frequency:    6.5351855423
  - # 10
    frequency:    6.8176309090
  - # 11
    frequency:   10.0357600939
  - # 12
    frequency:   10.9734647675
  - # 13
    frequency:   11.1933987175
  - # 14
    frequency:   12.4731755739
  - # 15
    frequency:   12.8294414363
  - # 16
    frequency:   13.6751294335
  - # 17
    frequency:   18.2315566818
  - # 18
    frequency:  114.6046689997

- q-position: [    0.0656566,    0.0000000,    0.0000000 ]
  distance:    0.0221589
  band:
  - # 1
    frequency:    0.3248002631
  - # 2
    frequency:    0.8714855545
  - # 3
    frequency:    1.5643957706
  - # 4
    frequency:    3.1461025311
  - # 5
    frequency:    3.4603172822
  - # 6
    frequency:    4.9955176398
  - # 7
    frequency:    5.5905810584
  - # 8
    frequency:    5.9416283189
  - # 9
    frequency:    6.5345118318
  - # 10
    frequency:    6.8557400480
  - # 11
    frequency:   10.0198859871
  - # 12
    frequency:   10.9707969390
  - # 13
    frequency:   11.2029968197
  - # 14
    frequency:   12.4708685773
  - # 15
    frequency:   12.9138423494
  - # 16
    frequency:   13.7288247890
  - # 17
    frequency:   18.2003658728
  - # 18
    frequency:  114.6040280761

- q-position: [    0.0707071,    0.0000000,    0.0000000 ]
  distance:    0.0238635
  band:
  - # 1
    frequency:    0.3714647831
  - # 2
    frequency:    0.9361386309
  - # 3
    frequency:    1.6767948761
  - # 4
    frequency:    3.1568839134
  - # 5
    frequency:    3.5163990187
  - # 6
    frequency:    4.9738593610
  - # 7
    frequency:    5.5893089590
  - # 8
    frequency:    5.9772222110
  - # 9
    frequency:    6.5337595175
  - # 10
    frequency:    6.8941182322
  - # 11
    frequency:   10.0032835688
  - # 12
    frequency:   10.9679139560
  - # 13
    frequency:   11.2077713085
  - # 14
    frequency:   12.4685240007
  - # 15
    frequency:   13.0092046822
  - # 16
    frequency:   13.7854838261
  - # 17
    frequency:   18.1669720516
  - # 18
    frequency:  114.6033446464

- q-position: [    0.0757576,    0.0000000,    0.0000000 ]
  distance:    0.0255680
  band:
  - # 1
    frequency:    0.4203130627
  - # 2
    frequency:    1.0002731438
  - # 3
    frequency:    1.7873978158
  - # 4
    frequency:    3.1684086054
  - # 5
    frequency:    3.5754176371
  - # 6
    frequency:    4.9524303119
  - # 7
    frequency:    5.5880397154
  - # 8
    frequency:    6.0128351529
  - # 9
    frequency:    6.5329238779
  - # 10
    frequency:    6.9324215295
  - # 11
    frequency:    9.9860342362
  - # 12
    frequency:   10.9648163430
  - # 13
    frequency:   11.2076714935
  - # 14
    frequency:   12.4661728984
  - # 15
    frequency:   13.1148586338
  - # 16
    frequency:   13.8451313877
  - # 17
    frequency:   18.1314454990
  - # 18
    frequency:  114.6026206325

- q-position: [    0.0808081,    0.0000000,    0.0000000 ]
  distance:    0.0272725
  band:
  - # 1
    frequency:    0.4711774489
  - # 2
    frequency:    1.0638560167
  - # 3
    frequency:    1.8960782534
  - # 4
    frequency:    3.1806665775
  - # 5
    frequency:    3.6372118439
  - # 6
    frequency:    4.9313005557
  - # 7
    frequency:    5.5867911110
  - # 8
    frequency:    6.0484146944
  - # 9
    frequency:    6.5320002048
  - # 10
    frequency:    6.9703652809
  - # 11
    frequency:    9.9682181081
  - # 12
    frequency:   10.9615049746
  - # 13
    frequency:   11.2028411975
  - # 14
    frequency:   12.4638475725
  - # 15
    frequency:   13.2297696055
  - # 16
    frequency:   13.9079104398
  - # 17
    frequency:   18.0938632843
  - # 18
    frequency:  114.6018580626

- q-position: [    0.0858586,    0.0000000,    0.0000000 ]
  distance:    0.0289771
  band:
  - # 1
    frequency:    0.5238992208
  - # 2
    frequency:    1.1268549587
  - # 3
    frequency:    2.0027162607
  - # 4
    frequency:    3.1936476832
  - # 5
    frequency:    3.7016233199
  - # 6
    frequency:    4.9105354409
  - # 7
    frequency:    5.5855812186
  - # 8
    frequency:    6.0839250077
  - # 9
    frequency:    6.5309838813
  - # 10
    frequency:    7.0077269378
  - # 11
    frequency:    9.9499138825
  - # 12
    frequency:   10.9579811246
  - # 13
    frequency:   11.1935564895
  - # 14
    frequency:   12.4615813548
  - # 15
    frequency:   13.3525523615
  - # 16
    frequency:   13.9741382190
  - # 17
    frequency:   18.0543099470
  - # 18
    frequency:  114.6010590631

- q-position: [    0.0909091,    0.0000000,    0.0000000 ]
  distance:    0.0306816
  band:
  - # 1
    frequency:    0.5783287027
  - # 2
    frequency:    1.1892385031
  - # 3
    frequency:    2.1072002990
  - # 4
    frequency:    3.2073417503
  - # 5
    frequency:    3.7684946040
  - # 6
    frequency:    4.8901971064
  - # 7
    frequency:    5.5844282573
  - # 8
    frequency:    6.1193404855
  - # 9
    frequency:    6.5298704646
  - # 10
    frequency:    7.0443457835
  - # 11
    frequency:    9.9311986830
  - # 12
    frequency:   10.9542465136
  - # 13
    frequency:   11.1801685699
  - # 14
    frequency:   12.4594083800
  - # 15
    frequency:   13.4814447806
  - # 16
    frequency:   14.0443983065
  - # 17
    frequency:   18.0128784072
  - # 18
    frequency:  114.6002258517

- q-position: [    0.0959596,    0.0000000,    0.0000000 ]
  distance:    0.0323862
  band:
  - # 1
    frequency:    0.6343251034
  - # 2
    frequency:    1.2509760439
  - # 3
    frequency:    2.2094291904
  - # 4
    frequency:    3.2217386698
  - # 5
    frequency:    3.8376666812
  - # 6
    frequency:    4.8703455607
  - # 7
    frequency:    5.5833504524
  - # 8
    frequency:    6.1546406213
  - # 9
    frequency:    6.5286557725
  - # 10
    frequency:    7.0801201762
  - # 11
    frequency:    9.9121479076
  - # 12
    frequency:   10.9503033505
  - # 13
    frequency:   11.1630590200
  - # 14
    frequency:   12.4573633488
  - # 15
    frequency:   13.6142180859
  - # 16
    frequency:   14.1196838796
  - # 17
    frequency:   17.9696711861
  - # 18
    frequency:  114.5993607288

- q-position: [    0.1010101,    0.0000000,    0.0000000 ]
  distance:    0.0340907
  band:
  - # 1
    frequency:    0.6917561546
  - # 2
    frequency:    1.3120378684
  - # 3
    frequency:    2.3093139506
  - # 4
    frequency:    3.2368284817
  - # 5
    frequency:    3.9089764472
  - # 6
    frequency:    4.8510395604
  - # 7
    frequency:    5.5823659009
  - # 8
    frequency:    6.1898059937
  - # 9
    frequency:    6.5273359747
  - # 10
    frequency:    7.1150030109
  - # 11
    frequency:    9.8928350903
  - # 12
    frequency:   10.9461543692
  - # 13
    frequency:   11.1426090038
  - # 14
    frequency:   12.4554812859
  - # 15
    frequency:   13.7480263220
  - # 16
    frequency:   14.2015871635
  - # 17
    frequency:   17.9248020487
  - # 18
    frequency:  114.5984660696

- q-position: [    0.1060606,    0.0000000,    0.0000000 ]
  distance:    0.0357952
  band:
  - # 1
    frequency:    0.7504976070
  - # 2
    frequency:    1.3723951867
  - # 3
    frequency:    2.4067793410
  - # 4
    frequency:    3.2526014567
  - # 5
    frequency:    3.9822541874
  - # 6
    frequency:    4.8323374855
  - # 7
    frequency:    5.5814924414
  - # 8
    frequency:    6.2248151797
  - # 9
    frequency:    6.5259076879
  - # 10
    frequency:    7.1489960558
  - # 11
    frequency:    9.8733317880
  - # 12
    frequency:   10.9418028577
  - # 13
    frequency:   11.1191806509
  - # 14
    frequency:   12.4537972939
  - # 15
    frequency:   13.8793002511
  - # 16
    frequency:   14.2924311154
  - # 17
    frequency:   17.8783982316
  - # 18
    frequency:  114.5975443156

- q-position: [    0.1111111,    0.0000000,    0.0000000 ]
  distance:    0.0374998
  band:
  - # 1
    frequency:    0.8104326335
  - # 2
    frequency:    1.4320201594
  - # 3
    frequency:    2.5017650018
  - # 4
    frequency:    3.2690481712
  - # 5
    frequency:    4.0573211191
  - # 6
    frequency:    4.8142984387
  - # 7
    frequency:    5.5807475334
  - # 8
    frequency:    6.2596424348
  - # 9
    frequency:    6.5243680721
  - # 10
    frequency:    7.1821437104
  - # 11
    frequency:    9.8537074975
  - # 12
    frequency:   10.9372526776
  - # 13
    frequency:   11.0931075877
  - # 14
    frequency:   12.4523463044
  - # 15
    frequency:   14.0040342383
  - # 16
    frequency:   14.3949972773
  - # 17
    frequency:   17.8306034884
  - # 18
    frequency:  114.5965979658

- q-position: [    0.1161616,    0.0000000,    0.0000000 ]
  distance:    0.0392043
  band:
  - # 1
    frequency:    0.8714511787
  - # 2
    frequency:    1.4908859208
  - # 3
    frequency:    2.5942260473
  - # 4
    frequency:    3.2861595763
  - # 5
    frequency:    4.1339868490
  - # 6
    frequency:    4.7969839322
  - # 7
    frequency:    5.5801481431
  - # 8
    frequency:    6.2942560148
  - # 9
    frequency:    6.5227149296
  - # 10
    frequency:    7.2145265953
  - # 11
    frequency:    9.8340296085
  - # 12
    frequency:   10.9325082742
  - # 13
    frequency:   11.0646916208
  - # 14
    frequency:   12.4511628317
  - # 15
    frequency:   14.1189202065
  - # 16
    frequency:   14.5113981969
  - # 17
    frequency:   17.7815822917
  - # 18
    frequency:  114.5956295680

- q-position: [    0.1212121,    0.0000000,    0.0000000 ]
  distance:    0.0409088
  band:
  - # 1
    frequency:    0.9334492857
  - # 2
    frequency:    1.5489666011
  - # 3
    frequency:    2.6841330391
  - # 4
    frequency:    3.3039270560
  - # 5
    frequency:    4.2120461424
  - # 6
    frequency:    4.7804609178
  - # 7
    frequency:    5.5797106411
  - # 8
    frequency:    6.3286170495
  - # 9
    frequency:    6.5209468040
  - # 10
    frequency:    7.2462552413
  - # 11
    frequency:    9.8143633933
  - # 12
    frequency:   10.9275746748
  - # 13
    frequency:   11.0342031691
  - # 14
    frequency:   12.4502807289
  - # 15
    frequency:   14.2228573944
  - # 16
    frequency:   14.6415675009
  - # 17
    frequency:   17.7315256993
  - # 18
    frequency:  114.5946417096

- q-position: [    0.1262626,    0.0000000,    0.0000000 ]
  distance:    0.0426134
  band:
  - # 1
    frequency:    0.9963284222
  - # 2
    frequency:    1.6062373462
  - # 3
    frequency:    2.7714713017
  - # 4
    frequency:    3.3223424763
  - # 5
    frequency:    4.2912732062
  - # 6
    frequency:    4.7648080414
  - # 7
    frequency:    5.5794507091
  - # 8
    frequency:    6.3626789194
  - # 9
    frequency:    6.5190630775
  - # 10
    frequency:    7.2774640158
  - # 11
    frequency:    9.7947720331
  - # 12
    frequency:   10.9224574745
  - # 13
    frequency:   11.0018837400
  - # 14
    frequency:   12.4497329504
  - # 15
    frequency:   14.3171673749
  - # 16
    frequency:   14.7830391149
  - # 17
    frequency:   17.6806596411
  - # 18
    frequency:  114.5936370086

- q-position: [    0.1313131,    0.0000000,    0.0000000 ]
  distance:    0.0443179
  band:
  - # 1
    frequency:    1.0599948234
  - # 2
    frequency:    1.6626743361
  - # 3
    frequency:    2.8562395984
  - # 4
    frequency:    3.3413982221
  - # 5
    frequency:    4.3714079709
  - # 6
    frequency:    4.7501306489
  - # 7
    frequency:    5.5793832596
  - # 8
    frequency:    6.3963871177
  - # 9
    frequency:    6.5170640661
  - # 10
    frequency:    7.3083053238
  - # 11
    frequency:    9.7753166785
  - # 12
    frequency:   10.9171628090
  - # 13
    frequency:   10.9679493407
  - # 14
    frequency:   12.4495513243
  - # 15
    frequency:   14.4042582892
  - # 16
    frequency:   14.9322716870
  - # 17
    frequency:   17.6292567864
  - # 18
    frequency:  114.5926181043

- q-position: [    0.1363636,    0.0000000,    0.0000000 ]
  distance:    0.0460224
  band:
  - # 1
    frequency:    1.1243588620
  - # 2
    frequency:    1.7182548036
  - # 3
    frequency:    2.9384482350
  - # 4
    frequency:    3.3610872195
  - # 5
    frequency:    4.4521145195
  - # 6
    frequency:    4.7366043503
  - # 7
    frequency:    5.5795223663
  - # 8
    frequency:    6.4296796086
  - # 9
    frequency:    6.5149511097
  - # 10
    frequency:    7.3389440404
  - # 11
    frequency:    9.7560565428
  - # 12
    frequency:   10.9116973137
  - # 13
    frequency:   10.9325941556
  - # 14
    frequency:   12.4497663354
  - # 15
    frequency:   14.4863553544
  - # 16
    frequency:   15.0859001471
  - # 17
    frequency:   17.5776537726
  - # 18
    frequency:  114.5915876482

- q-position: [    0.1414141,    0.0000000,    0.0000000 ]
  distance:    0.0477270
  band:
  - # 1
    frequency:    1.1893344550
  - # 2
    frequency:    1.7729570525
  - # 3
    frequency:    3.0181167009
  - # 4
    frequency:    3.3814029446
  - # 5
    frequency:    4.5328170553
  - # 6
    frequency:    4.7246416439
  - # 7
    frequency:    5.5798812088
  - # 8
    frequency:    6.4624877027
  - # 9
    frequency:    6.5127266555
  - # 10
    frequency:    7.3695520925
  - # 11
    frequency:    9.7370490222
  - # 12
    frequency:   10.8959941199
  - # 13
    frequency:   10.9060680695
  - # 14
    frequency:   12.4504069221
  - # 15
    frequency:   14.5650675289
  - # 16
    frequency:   15.2411422466
  - # 17
    frequency:   17.5262765589
  - # 18
    frequency:  114.5905482948

- q-position: [    0.1464646,    0.0000000,    0.0000000 ]
  distance:    0.0494315
  band:
  - # 1
    frequency:    1.2548385094
  - # 2
    frequency:    1.8267604780
  - # 3
    frequency:    3.0952709805
  - # 4
    frequency:    3.4023394145
  - # 5
    frequency:    4.6116872548
  - # 6
    frequency:    4.7159076258
  - # 7
    frequency:    5.5804720291
  - # 8
    frequency:    6.4947374706
  - # 9
    frequency:    6.5103943327
  - # 10
    frequency:    7.4003030900
  - # 11
    frequency:    9.7183498402
  - # 12
    frequency:   10.8583102078
  - # 13
    frequency:   10.9002825355
  - # 14
    frequency:   12.4515002902
  - # 15
    frequency:   14.6414426460
  - # 16
    frequency:   15.3957038192
  - # 17
    frequency:   17.4756781697
  - # 18
    frequency:  114.5895026924

- q-position: [    0.1515152,    0.0000000,    0.0000000 ]
  distance:    0.0511360
  band:
  - # 1
    frequency:    1.3207904101
  - # 2
    frequency:    1.8796455894
  - # 3
    frequency:    3.1699406813
  - # 4
    frequency:    3.4238911619
  - # 5
    frequency:    4.6731820909
  - # 6
    frequency:    4.7257855431
  - # 7
    frequency:    5.5813061018
  - # 8
    frequency:    6.5079590159
  - # 9
    frequency:    6.5263516968
  - # 10
    frequency:    7.4313669229
  - # 11
    frequency:    9.7000132094
  - # 12
    frequency:   10.8196913663
  - # 13
    frequency:   10.8943484696
  - # 14
    frequency:   12.4530717429
  - # 15
    frequency:   14.7161325849
  - # 16
    frequency:   15.5475549560
  - # 17
    frequency:   17.4265952608
  - # 18
    frequency:  114.5884534739

- q-position: [    0.1565657,    0.0000000,    0.0000000 ]
  distance:    0.0528406
  band:
  - # 1
    frequency:    1.3871115502
  - # 2
    frequency:    1.9315940354
  - # 3
    frequency:    3.2421561140
  - # 4
    frequency:    3.4460531911
  - # 5
    frequency:    4.6810663058
  - # 6
    frequency:    4.7903578584
  - # 7
    frequency:    5.5823937166
  - # 8
    frequency:    6.5054268754
  - # 9
    frequency:    6.5572523382
  - # 10
    frequency:    7.4629042870
  - # 11
    frequency:    9.6820920041
  - # 12
    frequency:   10.7802770923
  - # 13
    frequency:   10.8882738385
  - # 14
    frequency:   12.4551445316
  - # 15
    frequency:   14.7895314181
  - # 16
    frequency:   15.6947052162
  - # 17
    frequency:   17.3800325772
  - # 18
    frequency:  114.5874032478

- q-position: [    0.1616162,    0.0000000,    0.0000000 ]
  distance:    0.0545451
  band:
  - # 1
    frequency:    1.4537249016
  - # 2
    frequency:    1.9825886350
  - # 3
    frequency:    3.3119454531
  - # 4
    frequency:    3.4688209140
  - # 5
    frequency:    4.6754211581
  - # 6
    frequency:    4.8694010513
  - # 7
    frequency:    5.5837441741
  - # 8
    frequency:    6.5028054116
  - # 9
    frequency:    6.5873633996
  - # 10
    frequency:    7.4950611569
  - # 11
    frequency:    9.6646379345
  - # 12
    frequency:   10.7401996826
  - # 13
    frequency:   10.8820667181
  - # 14
    frequency:   12.4577397258
  - # 15
    frequency:   14.8618677191
  - # 16
    frequency:   15.8349862697
  - # 17
    frequency:   17.3373858037
  - # 18
    frequency:  114.5863545896

- q-position: [    0.1666667,    0.0000000,    0.0000000 ]
  distance:    0.0562496
  band:
  - # 1
    frequency:    1.5205546248
  - # 2
    frequency:    2.0326134120
  - # 3
    frequency:    3.3793320842
  - # 4
    frequency:    3.4921900686
  - # 5
    frequency:    4.6691042668
  - # 6
    frequency:    4.9499291963
  - # 7
    frequency:    5.5853657927
  - # 8
    frequency:    6.5001034716
  - # 9
    frequency:    6.6166140808
  - # 10
    frequency:    7.5279633089
  - # 11
    frequency:    9.6477017097
  - # 12
    frequency:   10.6995862065
  - # 13
    frequency:   10.8757351879
  - # 14
    frequency:   12.4608761039
  - # 15
    frequency:   14.9332618219
  - # 16
    frequency:   15.9658269464
  - # 17
    frequency:   17.3006070917
  - # 18
    frequency:  114.5853100327

- q-position: [    0.1717172,    0.0000000,    0.0000000 ]
  distance:    0.0579542
  band:
  - # 1
    frequency:    1.5875257144
  - # 2
    frequency:    2.0816536357
  - # 3
    frequency:    3.4443322369
  - # 4
    frequency:    3.5161566166
  - # 5
    frequency:    4.6635909495
  - # 6
    frequency:    5.0303557844
  - # 7
    frequency:    5.5872659270
  - # 8
    frequency:    6.4973312467
  - # 9
    frequency:    6.6449419881
  - # 10
    frequency:    7.5617110615
  - # 11
    frequency:    9.6313331732
  - # 12
    frequency:   10.6585602558
  - # 13
    frequency:   10.8692872206
  - # 14
    frequency:   12.4645700658
  - # 15
    frequency:   15.0037602194
  - # 16
    frequency:   16.0840369632
  - # 17
    frequency:   17.2723848398
  - # 18
    frequency:  114.5842720603

- q-position: [    0.1767677,    0.0000000,    0.0000000 ]
  distance:    0.0596587
  band:
  - # 1
    frequency:    1.6545636782
  - # 2
    frequency:    2.1296958670
  - # 3
    frequency:    3.5069530011
  - # 4
    frequency:    3.5407166242
  - # 5
    frequency:    4.6592931855
  - # 6
    frequency:    5.1101775211
  - # 7
    frequency:    5.5894509959
  - # 8
    frequency:    6.4945002472
  - # 9
    frequency:    6.6722961660
  - # 10
    frequency:    7.5963744671
  - # 11
    frequency:    9.6155813871
  - # 12
    frequency:   10.6172435318
  - # 13
    frequency:   10.8627305701
  - # 14