nqpoint: 300    
npath: 3      
segment_nqpoint:
- 100
- 100
- 100
labels:
- [ 'G', 'M' ]
- [ 'M', 'K' ]
- [ 'K', 'G' ]
reciprocal_lattice:
- [   0.30000282,   0.17320671,   0.00000000 ] # a*
- [   0.00000000,   0.34641342,   0.00000000 ] # b*
- [   0.00000000,   0.00000000,   0.03992897 ] # c*
natom: 6      
lattice:
- [     3.333301977746192,     0.000000000000000,     0.000000000000000 ] # a
- [    -1.666650988873096,     2.886724191211299,     0.000000000000000 ] # b
- [     0.000000000000000,     0.000000000000000,    25.044474168484747 ] # c
points:
- symbol: F # 1
  coordinates: [  0.666666984744047,  0.333332985985145,  0.359360709250799 ]
  mass: 18.998403
- symbol: Hf # 2
  coordinates: [  0.333332985432215,  0.666666983183674,  0.411463938672016 ]
  mass: 178.490000
- symbol: Hf # 3
  coordinates: [  0.666666984744047,  0.333332985985145,  0.505163614314069 ]
  mass: 178.490000
- symbol: N # 4
  coordinates: [  0.000000000000000,  0.000000000000000,  0.451836588076068 ]
  mass: 14.006700
- symbol: O # 5
  coordinates: [  0.333332985432215,  0.666666983183674,  0.640639290749201 ]
  mass: 15.999400
- symbol: P # 6
  coordinates: [  0.333332985432215,  0.666666983183674,  0.580859454060564 ]
  mass: 30.973762

phonon:
- q-position: [    0.0000000,    0.0000000,    0.0000000 ]
  distance:    0.0000000
  band:
  - # 1
    frequency:   -0.9986643016
  - # 2
    frequency:   -0.9986643016
  - # 3
    frequency:   -0.0000059821
  - # 4
    frequency:   -0.0000001847
  - # 5
    frequency:    0.0000049048
  - # 6
    frequency:    2.9670545284
  - # 7
    frequency:    2.9670545284
  - # 8
    frequency:    4.3293020499
  - # 9
    frequency:    4.3293020499
  - # 10
    frequency:    4.4171001354
  - # 11
    frequency:    5.4251966903
  - # 12
    frequency:    5.4251966903
  - # 13
    frequency:    7.8396157266
  - # 14
    frequency:   10.9106202729
  - # 15
    frequency:   12.2259869708
  - # 16
    frequency:   16.1635389273
  - # 17
    frequency:   16.1635389273
  - # 18
    frequency:   33.6564655850

- q-position: [    0.0050505,    0.0000000,    0.0000000 ]
  distance:    0.0017496
  band:
  - # 1
    frequency:   -0.9973142107
  - # 2
    frequency:   -0.9963200427
  - # 3
    frequency:    0.0008762335
  - # 4
    frequency:    0.0424344748
  - # 5
    frequency:    0.0811264408
  - # 6
    frequency:    2.9672284180
  - # 7
    frequency:    2.9675844651
  - # 8
    frequency:    4.3233539761
  - # 9
    frequency:    4.3293749925
  - # 10
    frequency:    4.4232530803
  - # 11
    frequency:    5.4252152635
  - # 12
    frequency:    5.4254885545
  - # 13
    frequency:    7.8393795955
  - # 14
    frequency:   10.9104193511
  - # 15
    frequency:   12.2260152418
  - # 16
    frequency:   16.1635350632
  - # 17
    frequency:   16.1637063726
  - # 18
    frequency:   33.6563352859

- q-position: [    0.0101010,    0.0000000,    0.0000000 ]
  distance:    0.0034991
  band:
  - # 1
    frequency:   -0.9932815738
  - # 2
    frequency:   -0.9892485414
  - # 3
    frequency:    0.0035033746
  - # 4
    frequency:    0.0851064264
  - # 5
    frequency:    0.1622038998
  - # 6
    frequency:    2.9677493449
  - # 7
    frequency:    2.9691711706
  - # 8
    frequency:    4.3088396825
  - # 9
    frequency:    4.3295933950
  - # 10
    frequency:    4.4383824666
  - # 11
    frequency:    5.4252711040
  - # 12
    frequency:    5.4263630774
  - # 13
    frequency:    7.8386712380
  - # 14
    frequency:   10.9098146216
  - # 15
    frequency:   12.2261024731
  - # 16
    frequency:   16.1635236555
  - # 17
    frequency:   16.1642071624
  - # 18
    frequency:   33.6559445721

- q-position: [    0.0151515,    0.0000000,    0.0000000 ]
  distance:    0.0052487
  band:
  - # 1
    frequency:   -0.9866200027
  - # 2
    frequency:   -0.9773312230
  - # 3
    frequency:    0.0078787878
  - # 4
    frequency:    0.1282512866
  - # 5
    frequency:    0.2431843711
  - # 6
    frequency:    2.9686150910
  - # 7
    frequency:    2.9718053778
  - # 8
    frequency:    4.2903455989
  - # 9
    frequency:    4.3299559856
  - # 10
    frequency:    4.4579033193
  - # 11
    frequency:    5.4253645725
  - # 12
    frequency:    5.4278170555
  - # 13
    frequency:    7.8374907662
  - # 14
    frequency:   10.9088002264
  - # 15
    frequency:   12.2262558846
  - # 16
    frequency:   16.1635052559
  - # 17
    frequency:   16.1650366638
  - # 18
    frequency:   33.6552939935

- q-position: [    0.0202020,    0.0000000,    0.0000000 ]
  distance:    0.0069983
  band:
  - # 1
    frequency:   -0.9774210698
  - # 2
    frequency:   -0.9603619835
  - # 3
    frequency:    0.0139984157
  - # 4
    frequency:    0.1720995868
  - # 5
    frequency:    0.3240217012
  - # 6
    frequency:    2.9698219865
  - # 7
    frequency:    2.9754717944
  - # 8
    frequency:    4.2702023157
  - # 9
    frequency:    4.3304606592
  - # 10
    frequency:    4.4794875263
  - # 11
    frequency:    5.4254962636
  - # 12
    frequency:    5.4298451656
  - # 13
    frequency:    7.8358383831
  - # 14
    frequency:   10.9073665168
  - # 15
    frequency:   12.2264873944
  - # 16
    frequency:   16.1634807770
  - # 17
    frequency:   16.1661871753
  - # 18
    frequency:   33.6543844656

- q-position: [    0.0252525,    0.0000000,    0.0000000 ]
  distance:    0.0087478
  band:
  - # 1
    frequency:   -0.9658171692
  - # 2
    frequency:   -0.9380326485
  - # 3
    frequency:    0.0218580840
  - # 4
    frequency:    0.2168724970
  - # 5
    frequency:    0.4046722799
  - # 6
    frequency:    2.9713649491
  - # 7
    frequency:    2.9801493274
  - # 8
    frequency:    4.2494132812
  - # 9
    frequency:    4.3311044976
  - # 10
    frequency:    4.5021352212
  - # 11
    frequency:    5.4256669971
  - # 12
    frequency:    5.4324399903
  - # 13
    frequency:    7.8337144058
  - # 14
    frequency:   10.9055002255
  - # 15
    frequency:   12.2268134464
  - # 16
    frequency:   16.1634514829
  - # 17
    frequency:   16.1676479553
  - # 18
    frequency:   33.6532172671

- q-position: [    0.0303030,    0.0000000,    0.0000000 ]
  distance:    0.0104974
  band:
  - # 1
    frequency:   -0.9519844890
  - # 2
    frequency:   -0.9099083697
  - # 3
    frequency:    0.0314554546
  - # 4
    frequency:    0.2627750364
  - # 5
    frequency:    0.4850955011
  - # 6
    frequency:    2.9732375379
  - # 7
    frequency:    2.9858113842
  - # 8
    frequency:    4.2284492680
  - # 9
    frequency:    4.3318837993
  - # 10
    frequency:    4.5253804263
  - # 11
    frequency:    5.4258778042
  - # 12
    frequency:    5.4355920512
  - # 13
    frequency:    7.8311192983
  - # 14
    frequency:   10.9031847072
  - # 15
    frequency:   12.2272547691
  - # 16
    frequency:   16.1634189749
  - # 17
    frequency:   16.1694052636
  - # 18
    frequency:   33.6517940382

- q-position: [    0.0353535,    0.0000000,    0.0000000 ]
  distance:    0.0122469
  band:
  - # 1
    frequency:   -0.9361448956
  - # 2
    frequency:   -0.8753869253
  - # 3
    frequency:    0.0427934521
  - # 4
    frequency:    0.3099864695
  - # 5
    frequency:    0.5652539778
  - # 6
    frequency:    2.9754320195
  - # 7
    frequency:    2.9924262403
  - # 8
    frequency:    4.2075629014
  - # 9
    frequency:    4.3327941159
  - # 10
    frequency:    4.5489766626
  - # 11
    frequency:    5.4261299110
  - # 12
    frequency:    5.4392898525
  - # 13
    frequency:    7.8280537109
  - # 14
    frequency:   10.9004002456
  - # 15
    frequency:   12.2278360669
  - # 16
    frequency:   16.1633851747
  - # 17
    frequency:   16.1714424135
  - # 18
    frequency:   33.6501167763

- q-position: [    0.0404040,    0.0000000,    0.0000000 ]
  distance:    0.0139965
  band:
  - # 1
    frequency:   -0.9185650960
  - # 2
    frequency:   -0.8336303280
  - # 3
    frequency:    0.0558865883
  - # 4
    frequency:    0.3586479276
  - # 5
    frequency:    0.6451135356
  - # 6
    frequency:    2.9779394440
  - # 7
    frequency:    2.9999574615
  - # 8
    frequency:    4.1869090878
  - # 9
    frequency:    4.3338302966
  - # 10
    frequency:    4.5727766853
  - # 11
    frequency:    5.4264247187
  - # 12
    frequency:    5.4435199327
  - # 13
    frequency:    7.8245185271
  - # 14
    frequency:   10.8971244270
  - # 15
    frequency:   12.2285856452
  - # 16
    frequency:   16.1633523039
  - # 17
    frequency:   16.1737398364
  - # 18
    frequency:   33.6481878328

- q-position: [    0.0454545,    0.0000000,    0.0000000 ]
  distance:    0.0157461
  band:
  - # 1
    frequency:   -0.8995512268
  - # 2
    frequency:   -0.7834450607
  - # 3
    frequency:    0.0707736235
  - # 4
    frequency:    0.4088481882
  - # 5
    frequency:    0.7246430275
  - # 6
    frequency:    2.9807497304
  - # 7
    frequency:    3.0083643653
  - # 8
    frequency:    4.1665950557
  - # 9
    frequency:    4.3349865391
  - # 10
    frequency:    4.5966826299
  - # 11
    frequency:    5.4267637799
  - # 12
    frequency:    5.4482669241
  - # 13
    frequency:    7.8205149164
  - # 14
    frequency:   10.8933325770
  - # 15
    frequency:   12.2295349722
  - # 16
    frequency:   16.1633228605
  - # 17
    frequency:   16.1762751569
  - # 18
    frequency:   33.6460099080

- q-position: [    0.0505051,    0.0000000,    0.0000000 ]
  distance:    0.0174956
  band:
  - # 1
    frequency:   -0.8794373372
  - # 2
    frequency:   -0.7230581492
  - # 3
    frequency:    0.0875457909
  - # 4
    frequency:    0.4606097230
  - # 5
    frequency:    0.8038140238
  - # 6
    frequency:    2.9838517570
  - # 7
    frequency:    3.0176025084
  - # 8
    frequency:    4.1467031767
  - # 9
    frequency:    4.3362564470
  - # 10
    frequency:    4.6206233991
  - # 11
    frequency:    5.4271487716
  - # 12
    frequency:    5.4535136207
  - # 13
    frequency:    7.8160443907
  - # 14
    frequency:   10.8889982549
  - # 15
    frequency:   12.2307181817
  - # 16
    frequency:   16.1632995933
  - # 17
    frequency:   16.1790232807
  - # 18
    frequency:   33.6435860455

- q-position: [    0.0555556,    0.0000000,    0.0000000 ]
  distance:    0.0192452
  band:
  - # 1
    frequency:   -0.8585673867
  - # 2
    frequency:   -0.6496566015
  - # 3
    frequency:    0.1064193431
  - # 4
    frequency:    0.5138782076
  - # 5
    frequency:    0.8826004313
  - # 6
    frequency:    2.9872334549
  - # 7
    frequency:    3.0276241856
  - # 8
    frequency:    4.1273022864
  - # 9
    frequency:    4.3376330931
  - # 10
    frequency:    4.6445435656
  - # 11
    frequency:    5.4275814664
  - # 12
    frequency:    5.4592410528
  - # 13
    frequency:    7.8111088644
  - # 14
    frequency:   10.8840938016
  - # 15
    frequency:   12.2321715212
  - # 16
    frequency:   16.1632854736
  - # 17
    frequency:   16.1819564923
  - # 18
    frequency:   33.6409196266

- q-position: [    0.0606061,    0.0000000,    0.0000000 ]
  distance:    0.0209948
  band:
  - # 1
    frequency:   -0.8372723210
  - # 2
    frequency:   -0.5582990419
  - # 3
    frequency:    0.1279630733
  - # 4
    frequency:    0.5685189969
  - # 5
    frequency:    0.9609780872
  - # 6
    frequency:    2.9908819033
  - # 7
    frequency:    3.0383789299
  - # 8
    frequency:    4.1084537300
  - # 9
    frequency:    4.3391090870
  - # 10
    frequency:    4.6683975637
  - # 11
    frequency:    5.4280636993
  - # 12
    frequency:    5.4654285688
  - # 13
    frequency:    7.8057107166
  - # 14
    frequency:   10.8785909323
  - # 15
    frequency:   12.2339327554
  - # 16
    frequency:   16.1632836655
  - # 17
    frequency:   16.1850445653
  - # 18
    frequency:   33.6380143631

- q-position: [    0.0656566,    0.0000000,    0.0000000 ]
  distance:    0.0227443
  band:
  - # 1
    frequency:   -0.8158458961
  - # 2
    frequency:   -0.4387382188
  - # 3
    frequency:    0.1540692800
  - # 4
    frequency:    0.6243230145
  - # 5
    frequency:    1.0389243583
  - # 6
    frequency:    2.9947834221
  - # 7
    frequency:    3.0498140010
  - # 8
    frequency:    4.0902148041
  - # 9
    frequency:    4.3406766474
  - # 10
    frequency:    4.6921464925
  - # 11
    frequency:    5.4285973332
  - # 12
    frequency:    5.4720539231
  - # 13
    frequency:    7.7998528529
  - # 14
    frequency:   10.8724613634
  - # 15
    frequency:   12.2360405326
  - # 16
    frequency:   16.1632974950
  - # 17
    frequency:   16.1882548825
  - # 18
    frequency:   33.6348742900

- q-position: [    0.0707071,    0.0000000,    0.0000000 ]
  distance:    0.0244939
  band:
  - # 1
    frequency:   -0.7945240918
  - # 2
    frequency:   -0.2625325908
  - # 3
    frequency:    0.1950947287
  - # 4
    frequency:    0.6810220942
  - # 5
    frequency:    1.1164177676
  - # 6
    frequency:    2.9989236612
  - # 7
    frequency:    3.0618748573
  - # 8
    frequency:    4.0726408319
  - # 9
    frequency:    4.3423276771
  - # 10
    frequency:    4.7157562892
  - # 11
    frequency:    5.4291842222
  - # 12
    frequency:    5.4790933707
  - # 13
    frequency:    7.7935387670
  - # 14
    frequency:   10.8656774618
  - # 15
    frequency:   12.2385337280
  - # 16
    frequency:   16.1633304183
  - # 17
    frequency:   16.1915525679
  - # 18
    frequency:   33.6315037575

- q-position: [    0.0757576,    0.0000000,    0.0000000 ]
  distance:    0.0262434
  band:
  - # 1
    frequency:   -0.7734723343
  - # 2
    frequency:    0.1176948058
  - # 3
    frequency:    0.3234752161
  - # 4
    frequency:    0.7383109864
  - # 5
    frequency:    1.1934376545
  - # 6
    frequency:    3.0032876838
  - # 7
    frequency:    3.0745056048
  - # 8
    frequency:    4.0557864799
  - # 9
    frequency:    4.3440538412
  - # 10
    frequency:    4.7391966586
  - # 11
    frequency:    5.4298261720
  - # 12
    frequency:    5.4865217684
  - # 13
    frequency:    7.7867726003
  - # 14
    frequency:   10.8582129028
  - # 15
    frequency:   12.2414507753
  - # 16
    frequency:   16.1633859897
  - # 17
    frequency:   16.1949006283
  - # 18
    frequency:   33.6279074223

- q-position: [    0.0808081,    0.0000000,    0.0000000 ]
  distance:    0.0279930
  band:
  - # 1
    frequency:   -0.7527824523
  - # 2
    frequency:    0.1870160275
  - # 3
    frequency:    0.4943931941
  - # 4
    frequency:    0.7958714018
  - # 5
    frequency:    1.2699638671
  - # 6
    frequency:    3.0078600427
  - # 7
    frequency:    3.0876494234
  - # 8
    frequency:    4.0397066295
  - # 9
    frequency:    4.3458466458
  - # 10
    frequency:    4.7624404373
  - # 11
    frequency:    5.4305249003
  - # 12
    frequency:    5.4943126810
  - # 13
    frequency:    7.7795591987
  - # 14
    frequency:   10.8500433201
  - # 15
    frequency:   12.2448290042
  - # 16
    frequency:   16.1634678299
  - # 17
    frequency:   16.1982601055
  - # 18
    frequency:   33.6240902381

- q-position: [    0.0858586,    0.0000000,    0.0000000 ]
  distance:    0.0297426
  band:
  - # 1
    frequency:   -0.7324784619
  - # 2
    frequency:    0.2215736011
  - # 3
    frequency:    0.6347030715
  - # 4
    frequency:    0.8533934676
  - # 5
    frequency:    1.3459764805
  - # 6
    frequency:    3.0126248481
  - # 7
    frequency:    3.1012489731
  - # 8
    frequency:    4.0244569730
  - # 9
    frequency:    4.3476975173
  - # 10
    frequency:    4.7854632161
  - # 11
    frequency:    5.4312819949
  - # 12
    frequency:    5.5024384952
  - # 13
    frequency:    7.7719041646
  - # 14
    frequency:   10.8411469311
  - # 15
    frequency:   12.2487039984
  - # 16
    frequency:   16.1635795945
  - # 17
    frequency:   16.2015902382
  - # 18
    frequency:   33.6200574462

- q-position: [    0.0909091,    0.0000000,    0.0000000 ]
  distance:    0.0314921
  band:
  - # 1
    frequency:   -0.7125282629
  - # 2
    frequency:    0.2523742519
  - # 3
    frequency:    0.7566089016
  - # 4
    frequency:    0.9105915577
  - # 5
    frequency:    1.4214555260
  - # 6
    frequency:    3.0175658264
  - # 7
    frequency:    3.1152467878
  - # 8
    frequency:    4.0100944253
  - # 9
    frequency:    4.3495978823
  - # 10
    frequency:    4.8082431187
  - # 11
    frequency:    5.4320988713
  - # 12
    frequency:    5.5108705385
  - # 13
    frequency:    7.7638139052
  - # 14
    frequency:   10.8315051218
  - # 15
    frequency:   12.2531089906
  - # 16
    frequency:   16.1637249442
  - # 17
    frequency:   16.2048486330
  - # 18
    frequency:   33.6158145648

- q-position: [    0.0959596,    0.0000000,    0.0000000 ]
  distance:    0.0332417
  band:
  - # 1
    frequency:   -0.6928577669
  - # 2
    frequency:    0.2828470624
  - # 3
    frequency:    0.8671837103
  - # 4
    frequency:    0.9672135876
  - # 5
    frequency:    1.4963807195
  - # 6
    frequency:    3.0226663702
  - # 7
    frequency:    3.1295856686
  - # 8
    frequency:    3.9966773999
  - # 9
    frequency:    4.3515392441
  - # 10
    frequency:    4.8307606743
  - # 11
    frequency:    5.4329767311
  - # 12
    frequency:    5.5195792060
  - # 13
    frequency:    7.7552956748
  - # 14
    frequency:   10.8211029740
  - # 15
    frequency:   12.2580743112
  - # 16
    frequency:   16.1639075161
  - # 17
    frequency:   16.2079914448
  - # 18
    frequency:   33.6113673782

- q-position: [    0.1010101,    0.0000000,    0.0000000 ]
  distance:    0.0349913
  band:
  - # 1
    frequency:   -0.6733646139
  - # 2
    frequency:    0.3138667788
  - # 3
    frequency:    0.9700284270
  - # 4
    frequency:    1.0230445549
  - # 5
    frequency:    1.5707311717
  - # 6
    frequency:    3.0279095800
  - # 7
    frequency:    3.1442090930
  - # 8
    frequency:    3.9842659725
  - # 9
    frequency:    4.3535132585
  - # 10
    frequency:    4.8529987474
  - # 11
    frequency:    5.4339165188
  - # 12
    frequency:    5.5285340920
  - # 13
    frequency:    7.7463576117
  - # 14
    frequency:   10.8099297198
  - # 15
    frequency:   12.2636269033
  - # 16
    frequency:   16.1641308965
  - # 17
    frequency:   16.2109735646
  - # 18
    frequency:   33.6067219253

- q-position: [    0.1060606,    0.0000000,    0.0000000 ]
  distance:    0.0367408
  band:
  - # 1
    frequency:   -0.6539297822
  - # 2
    frequency:    0.3457412257
  - # 3
    frequency:    1.0671833610
  - # 4
    frequency:    1.0779059321
  - # 5
    frequency:    1.6444850679
  - # 6
    frequency:    3.0332782980
  - # 7
    frequency:    3.1590616622
  - # 8
    frequency:    3.9729219372
  - # 9
    frequency:    4.3555118054
  - # 10
    frequency:    4.8749424994
  - # 11
    frequency:    5.4349188807
  - # 12
    frequency:    5.5377041298
  - # 13
    frequency:    7.7370087681
  - # 14
    frequency:   10.7979791122
  - # 15
    frequency:   12.2697899172
  - # 16
    frequency:   16.1643985968
  - # 17
    frequency:   16.2137488162
  - # 18
    frequency:   33.6018844880

- q-position: [    0.1111111,    0.0000000,    0.0000000 ]
  distance:    0.0384904
  band:
  - # 1
    frequency:   -0.6344264699
  - # 2
    frequency:    0.3785948206
  - # 3
    frequency:    1.1316526058
  - # 4
    frequency:    1.1599005812
  - # 5
    frequency:    1.7176193036
  - # 6
    frequency:    3.0387551369
  - # 7
    frequency:    3.1740896124
  - # 8
    frequency:    3.9627087503
  - # 9
    frequency:    4.3575270565
  - # 10
    frequency:    4.8965793655
  - # 11
    frequency:    5.4359841247
  - # 12
    frequency:    5.5470577363
  - # 13
    frequency:    7.7272591346
  - # 14
    frequency:   10.7852497019
  - # 15
    frequency:   12.2765823919
  - # 16
    frequency:   16.1647140308
  - # 17
    frequency:   16.2162701584
  - # 18
    frequency:   33.5968615784

- q-position: [    0.1161616,    0.0000000,    0.0000000 ]
  distance:    0.0402399
  band:
  - # 1
    frequency:   -0.6147263449
  - # 2
    frequency:    0.4124781708
  - # 3
    frequency:    1.1841687225
  - # 4
    frequency:    1.2489908447
  - # 5
    frequency:    1.7901090663
  - # 6
    frequency:    3.0443225050
  - # 7
    frequency:    3.1892414186
  - # 8
    frequency:    3.9536913476
  - # 9
    frequency:    4.3595515381
  - # 10
    frequency:    4.9178990374
  - # 11
    frequency:    5.4371121807
  - # 12
    frequency:    5.5565629641
  - # 13
    frequency:    7.7171196576
  - # 14
    frequency:   10.7717450139
  - # 15
    frequency:   12.2840190303
  - # 16
    frequency:   16.1650804950
  - # 17
    frequency:   16.2184898946
  - # 18
    frequency:   33.5916599270

- q-position: [    0.1212121,    0.0000000,    0.0000000 ]
  distance:    0.0419895
  band:
  - # 1
    frequency:   -0.5947036201
  - # 2
    frequency:    0.4474075299
  - # 3
    frequency:    1.2353633559
  - # 4
    frequency:    1.3349976521
  - # 5
    frequency:    1.8619273590
  - # 6
    frequency:    3.0499626294
  - # 7
    frequency:    3.2044685249
  - # 8
    frequency:    3.9459358151
  - # 9
    frequency:    4.3615781879
  - # 10
    frequency:    4.9388934441
  - # 11
    frequency:    5.4383025649
  - # 12
    frequency:    5.5661876578
  - # 13
    frequency:    7.7066022503
  - # 14
    frequency:   10.7574736238
  - # 15
    frequency:   12.2921100673
  - # 16
    frequency:   16.1655011521
  - # 17
    frequency:   16.2203598879
  - # 18
    frequency:   33.5862864687

- q-position: [    0.1262626,    0.0000000,    0.0000000 ]
  distance:    0.0437391
  band:
  - # 1
    frequency:   -0.5742375108
  - # 2
    frequency:    0.4833813565
  - # 3
    frequency:    1.2851665139
  - # 4
    frequency:    1.4182926270
  - # 5
    frequency:    1.9330444646
  - # 6
    frequency:    3.0556575819
  - # 7
    frequency:    3.2197262290
  - # 8
    frequency:    3.9395088916
  - # 9
    frequency:    4.3636004060
  - # 10
    frequency:    4.9595567259
  - # 11
    frequency:    5.4395543452
  - # 12
    frequency:    5.5758996161
  - # 13
    frequency:    7.6957197976
  - # 14
    frequency:   10.7424491337
  - # 15
    frequency:   12.3008612315
  - # 16
    frequency:   16.1659790167
  - # 17
    frequency:   16.2218317800
  - # 18
    frequency:   33.5807483300

- q-position: [    0.1313131,    0.0000000,    0.0000000 ]
  distance:    0.0454886
  band:
  - # 1
    frequency:   -0.5532135933
  - # 2
    frequency:    0.5203880542
  - # 3
    frequency:    1.3335257220
  - # 4
    frequency:    1.4991315679
  - # 5
    frequency:    2.0034273567
  - # 6
    frequency:    3.0613893091
  - # 7
    frequency:    3.2349747490
  - # 8
    frequency:    3.9344772826
  - # 9
    frequency:    4.3656120986
  - # 10
    frequency:    4.9798851995
  - # 11
    frequency:    5.4408661107
  - # 12
    frequency:    5.5856667573
  - # 13
    frequency:    7.6844861543
  - # 14
    frequency:   10.7266900545
  - # 15
    frequency:   12.3102737928
  - # 16
    frequency:   16.1665169441
  - # 17
    frequency:   16.2228572155
  - # 18
    frequency:   33.5750528153

- q-position: [    0.1363636,    0.0000000,    0.0000000 ]
  distance:    0.0472382
  band:
  - # 1
    frequency:   -0.5315244945
  - # 2
    frequency:    0.5584098791
  - # 3
    frequency:    1.3804032416
  - # 4
    frequency:    1.5776893023
  - # 5
    frequency:    2.0730390710
  - # 6
    frequency:    3.0671396702
  - # 7
    frequency:    3.2501804858
  - # 8
    frequency:    3.9309067725
  - # 9
    frequency:    4.3676077145
  - # 10
    frequency:    4.9998773130
  - # 11
    frequency:    5.4422359444
  - # 12
    frequency:    5.5954572882
  - # 13
    frequency:    7.6729161373
  - # 14
    frequency:   10.7102196030
  - # 15
    frequency:   12.3203446877
  - # 16
    frequency:   16.1671176220
  - # 17
    frequency:   16.2233880675
  - # 18
    frequency:   33.5692073927

- q-position: [    0.1414141,    0.0000000,    0.0000000 ]
  distance:    0.0489878
  band:
  - # 1
    frequency:   -0.5090702503
  - # 2
    frequency:    0.5974250213
  - # 3
    frequency:    1.4257738882
  - # 4
    frequency:    1.6540823949
  - # 5
    frequency:    2.1418380598
  - # 6
    frequency:    3.0728904849
  - # 7
    frequency:    3.2653174785
  - # 8
    frequency:    3.9288611334
  - # 9
    frequency:    4.3695822740
  - # 10
    frequency:    5.0195335899
  - # 11
    frequency:    5.4436614008
  - # 12
    frequency:    5.6052398735
  - # 13
    frequency:    7.6610255125
  - # 14
    frequency:   10.6930654235
  - # 15
    frequency:   12.3310667124
  - # 16
    frequency:   16.1677835650
  - # 17
    frequency:   16.2233766672
  - # 18
    frequency:   33.5632196800

- q-position: [    0.1464646,    0.0000000,    0.0000000 ]
  distance:    0.0507373
  band:
  - # 1
    frequency:   -0.4857585998
  - # 2
    frequency:    0.6374087509
  - # 3
    frequency:    1.4696233727
  - # 4
    frequency:    1.7283845274
  - # 5
    frequency:    2.2097775604
  - # 6
    frequency:    3.0786235948
  - # 7
    frequency:    3.2803690255
  - # 8
    frequency:    3.9284008472
  - # 9
    frequency:    4.3715313894
  - # 10
    frequency:    5.0388565632
  - # 11
    frequency:    5.4451394872
  - # 12
    frequency:    5.6149838064
  - # 13
    frequency:    7.6488309747
  - # 14
    frequency:   10.6752592472
  - # 15
    frequency:   12.3424287722
  - # 16
    frequency:   16.1685171114
  - # 17
    frequency:   16.2227760335
  - # 18
    frequency:   33.5570974307

- q-position: [    0.1515152,    0.0000000,    0.0000000 ]
  distance:    0.0524869
  band:
  - # 1
    frequency:   -0.4615054484
  - # 2
    frequency:    0.6783340577
  - # 3
    frequency:    1.5119470764
  - # 4
    frequency:    1.8006372578
  - # 5
    frequency:    2.2768050176
  - # 6
    frequency:    3.0843209391
  - # 7
    frequency:    3.2953294112
  - # 8
    frequency:    3.9295816816
  - # 9
    frequency:    4.3734512779
  - # 10
    frequency:    5.0578507007
  - # 11
    frequency:    5.4466666514
  - # 12
    frequency:    5.6246591775
  - # 13
    frequency:    7.6363501231
  - # 14
    frequency:   10.6568365023
  - # 15
    frequency:   12.3544161718
  - # 16
    frequency:   16.1693204226
  - # 17
    frequency:   16.2215401033
  - # 18
    frequency:   33.5508485188

- q-position: [    0.1565657,    0.0000000,    0.0000000 ]
  distance:    0.0542364
  band:
  - # 1
    frequency:   -0.4362357372
  - # 2
    frequency:    0.7201720046
  - # 3
    frequency:    1.5527491729
  - # 4
    frequency:    1.8708577490
  - # 5
    frequency:    2.3428616123
  - # 6
    frequency:    3.0899646467
  - # 7
    frequency:    3.3102056444
  - # 8
    frequency:    3.9324531837
  - # 9
    frequency:    4.3753387652
  - # 10
    frequency:    5.0765223220
  - # 11
    frequency:    5.4482387742
  - # 12
    frequency:    5.6342370406
  - # 13
    frequency:    7.6236014305
  - # 14
    frequency:   10.6378358877
  - # 15
    frequency:   12.3670109379
  - # 16
    frequency:   16.1701954847
  - # 17
    frequency:   16.2196239622
  - # 18
    frequency:   33.5444809251

- q-position: [    0.1616162,    0.0000000,    0.0000000 ]
  distance:    0.0559860
  band:
  - # 1
    frequency:   -0.4098850222
  - # 2
    frequency:    0.7628919144
  - # 3
    frequency:    1.5920420247
  - # 4
    frequency:    1.9390444418
  - # 5
    frequency:    2.4078819525
  - # 6
    frequency:    3.0955371444
  - # 7
    frequency:    3.3250190775
  - # 8
    frequency:    3.9370571765
  - # 9
    frequency:    4.3771912815
  - # 10
    frequency:    5.0948795099
  - # 11
    frequency:    5.4498511682
  - # 12
    frequency:    5.6436895743
  - # 13
    frequency:    7.6106042071
  - # 14
    frequency:   10.6182989237
  - # 15
    frequency:   12.3801921582
  - # 16
    frequency:   16.1711441115
  - # 17
    frequency:   16.2169840720
  - # 18
    frequency:   33.5380027218

- q-position: [    0.1666667,    0.0000000,    0.0000000 ]
  distance:    0.0577356
  band:
  - # 1
    frequency:   -0.3824022227
  - # 2
    frequency:    0.8064614588
  - # 3
    frequency:    1.6298457870
  - # 4
    frequency:    2.0051812952
  - # 5
    frequency:    2.4717939938
  - # 6
    frequency:    3.1010212804
  - # 7
    frequency:    3.3398067485
  - # 8
    frequency:    3.9434263543
  - # 9
    frequency:    4.3790068493
  - # 10
    frequency:    5.1129320171
  - # 11
    frequency:    5.4514985839
  - # 12
    frequency:    5.6529902381
  - # 13
    frequency:    7.5973785597
  - # 14
    frequency:   10.5982694908
  - # 15
    frequency:   12.3939363290
  - # 16
    frequency:   16.1721679490
  - # 17
    frequency:   16.2135784983
  - # 18
    frequency:   33.5314220584

- q-position: [    0.1717172,    0.0000000,    0.0000000 ]
  distance:    0.0594851
  band:
  - # 1
    frequency:   -0.3537543187
  - # 2
    frequency:    0.8508466887
  - # 3
    frequency:    1.6661881692
  - # 4
    frequency:    2.0692410148
  - # 5
    frequency:    2.5345192614
  - # 6
    frequency:    3.1064004622
  - # 7
    frequency:    3.3546222692
  - # 8
    frequency:    3.9515830710
  - # 9
    frequency:    4.3807840622
  - # 10
    frequency:    5.1306911698
  - # 11
    frequency:    5.4531752214
  - # 12
    frequency:    5.6621139216
  - # 13
    frequency:    7.5839453444
  - # 14
    frequency:   10.5777933675
  - # 15
    frequency:   12.4082177002
  - # 16
    frequency:   16.1732684819
  - # 17
    frequency:   16.2093671324
  - # 18
    frequency:   33.5247471466

- q-position: [    0.1767677,    0.0000000,    0.0000000 ]
  distance:    0.0612347
  band:
  - # 1
    frequency:   -0.3239344411
  - # 2
    frequency:    0.8960120312
  - # 3
    frequency:    1.7011043066
  - # 4
    frequency:    2.1311875759
  - # 5
    frequency:    2.5959734483
  - # 6
    frequency:    3.1116588050
  - # 7
    frequency:    3.3695360792
  - # 8
    frequency:    3.9615383950
  - # 9
    frequency:    4.3825220572
  - # 10
    frequency:    5.1481697689
  - # 11
    frequency:    5.4548747503
  - # 12
    frequency:    5.6710370851
  - # 13
    frequency:    7.5703261143
  - # 14