nqpoint: 300    
npath: 3      
segment_nqpoint:
- 100
- 100
- 100
labels:
- [ 'G', 'M' ]
- [ 'M', 'K' ]
- [ 'K', 'G' ]
reciprocal_lattice:
- [   0.28915514,   0.16694380,   0.00000000 ] # a*
- [   0.00000000,   0.33388759,   0.00000000 ] # b*
- [   0.00000000,   0.00000000,   0.03808299 ] # c*
natom: 7      
lattice:
- [     3.458351152289251,     0.000000000000000,     0.000000000000000 ] # a
- [    -1.729175576144626,     2.995019953082382,     0.000000000000000 ] # b
- [     0.000000000000000,     0.000000000000000,    26.258445786546151 ] # c
points:
- symbol: Br # 1
  coordinates: [  0.333332985432215,  0.666666983183674,  0.657253133975992 ]
  mass: 79.904000
- symbol: C # 2
  coordinates: [  0.000000000000000,  0.000000000000000,  0.535774329513942 ]
  mass: 12.010700
- symbol: C # 3
  coordinates: [  0.666666984744048,  0.333332985985145,  0.388010580591090 ]
  mass: 12.010700
- symbol: N # 4
  coordinates: [  0.666666984744048,  0.333332985985145,  0.342746866024008 ]
  mass: 14.006700
- symbol: O # 5
  coordinates: [  0.666666984744048,  0.333332985985145,  0.438854225562704 ]
  mass: 15.999400
- symbol: Zr # 6
  coordinates: [  0.333332985432215,  0.666666983183674,  0.491083843428767 ]
  mass: 91.224000
- symbol: Zr # 7
  coordinates: [  0.666666984744048,  0.333332985985145,  0.582131364898058 ]
  mass: 91.224000

phonon:
- q-position: [    0.0000000,    0.0000000,    0.0000000 ]
  distance:    0.0000000
  band:
  - # 1
    frequency:   -0.7055446511
  - # 2
    frequency:   -0.7055446510
  - # 3
    frequency:   -0.0000146283
  - # 4
    frequency:   -0.0000004353
  - # 5
    frequency:    0.0000111903
  - # 6
    frequency:    3.1664943863
  - # 7
    frequency:    3.1664943864
  - # 8
    frequency:    4.5549504007
  - # 9
    frequency:    5.4014485185
  - # 10
    frequency:    5.4014485185
  - # 11
    frequency:    5.7593019223
  - # 12
    frequency:    5.7593019223
  - # 13
    frequency:    7.3774820662
  - # 14
    frequency:    9.5539810316
  - # 15
    frequency:   14.1353942171
  - # 16
    frequency:   14.1353942172
  - # 17
    frequency:   15.4640609619
  - # 18
    frequency:   17.1029926493
  - # 19
    frequency:   17.1029926493
  - # 20
    frequency:   31.8464725717
  - # 21
    frequency:   67.7019400382

- q-position: [    0.0050505,    0.0000000,    0.0000000 ]
  distance:    0.0016863
  band:
  - # 1
    frequency:   -0.7052088193
  - # 2
    frequency:   -0.7024915349
  - # 3
    frequency:    0.0017867224
  - # 4
    frequency:    0.0588980834
  - # 5
    frequency:    0.0965940648
  - # 6
    frequency:    3.1666660989
  - # 7
    frequency:    3.1676103148
  - # 8
    frequency:    4.5545860527
  - # 9
    frequency:    5.4009543973
  - # 10
    frequency:    5.4016275647
  - # 11
    frequency:    5.7595328305
  - # 12
    frequency:    5.7598539414
  - # 13
    frequency:    7.3772712191
  - # 14
    frequency:    9.5530979055
  - # 15
    frequency:   14.1354236415
  - # 16
    frequency:   14.1355062984
  - # 17
    frequency:   15.4637747949
  - # 18
    frequency:   17.1026480399
  - # 19
    frequency:   17.1031835937
  - # 20
    frequency:   31.8460867567
  - # 21
    frequency:   67.7017297812

- q-position: [    0.0101010,    0.0000000,    0.0000000 ]
  distance:    0.0033726
  band:
  - # 1
    frequency:   -0.7041836729
  - # 2
    frequency:   -0.6932681611
  - # 3
    frequency:    0.0071564732
  - # 4
    frequency:    0.1176865449
  - # 5
    frequency:    0.1932010366
  - # 6
    frequency:    3.1671811735
  - # 7
    frequency:    3.1709506012
  - # 8
    frequency:    4.5534959547
  - # 9
    frequency:    5.3994769824
  - # 10
    frequency:    5.4021695011
  - # 11
    frequency:    5.7602215977
  - # 12
    frequency:    5.7615011602
  - # 13
    frequency:    7.3766396504
  - # 14
    frequency:    9.5504504620
  - # 15
    frequency:   14.1355118768
  - # 16
    frequency:   14.1358424244
  - # 17
    frequency:   15.4629170933
  - # 18
    frequency:   17.1016158499
  - # 19
    frequency:   17.1037538531
  - # 20
    frequency:   31.8449302248
  - # 21
    frequency:   67.7010994571

- q-position: [    0.0151515,    0.0000000,    0.0000000 ]
  distance:    0.0050589
  band:
  - # 1
    frequency:   -0.7024189688
  - # 2
    frequency:   -0.6776732594
  - # 3
    frequency:    0.0161439440
  - # 4
    frequency:    0.1762672856
  - # 5
    frequency:    0.2898289900
  - # 6
    frequency:    3.1680394216
  - # 7
    frequency:    3.1764929253
  - # 8
    frequency:    4.5516889720
  - # 9
    frequency:    5.3970308755
  - # 10
    frequency:    5.4030883072
  - # 11
    frequency:    5.7613565932
  - # 12
    frequency:    5.7642174627
  - # 13
    frequency:    7.3755902805
  - # 14
    frequency:    9.5460444899
  - # 15
    frequency:   14.1356588105
  - # 16
    frequency:   14.1364022419
  - # 17
    frequency:   15.4614902544
  - # 18
    frequency:   17.0999009882
  - # 19
    frequency:   17.1046957330
  - # 20
    frequency:   31.8430057127
  - # 21
    frequency:   67.7000504048

- q-position: [    0.0202020,    0.0000000,    0.0000000 ]
  distance:    0.0067452
  band:
  - # 1
    frequency:   -0.6998390559
  - # 2
    frequency:   -0.6553394446
  - # 3
    frequency:    0.0288228283
  - # 4
    frequency:    0.2345624024
  - # 5
    frequency:    0.3864779235
  - # 6
    frequency:    3.1692405306
  - # 7
    frequency:    3.1842006679
  - # 8
    frequency:    4.5491799626
  - # 9
    frequency:    5.3936396310
  - # 10
    frequency:    5.4044059592
  - # 11
    frequency:    5.7629192012
  - # 12
    frequency:    5.7679606050
  - # 13
    frequency:    7.3741279837
  - # 14
    frequency:    9.5398895880
  - # 15
    frequency:   14.1358642537
  - # 16
    frequency:   14.1371851593
  - # 17
    frequency:   15.4594982666
  - # 18
    frequency:   17.0975116172
  - # 19
    frequency:   17.1059964978
  - # 20
    frequency:   31.8403177716
  - # 21
    frequency:   67.6985848510

- q-position: [    0.0252525,    0.0000000,    0.0000000 ]
  distance:    0.0084315
  band:
  - # 1
    frequency:   -0.6963521964
  - # 2
    frequency:   -0.6256796942
  - # 3
    frequency:    0.0453379022
  - # 4
    frequency:    0.2925183956
  - # 5
    frequency:    0.4831387830
  - # 6
    frequency:    3.1707840671
  - # 7
    frequency:    3.1940237429
  - # 8
    frequency:    4.5459898836
  - # 9
    frequency:    5.3893346908
  - # 10
    frequency:    5.4061506262
  - # 11
    frequency:    5.7648848670
  - # 12
    frequency:    5.7726739787
  - # 13
    frequency:    7.3722595985
  - # 14
    frequency:    9.5319990922
  - # 15
    frequency:   14.1361279402
  - # 16
    frequency:   14.1381903439
  - # 17
    frequency:   15.4569466994
  - # 18
    frequency:   17.0944591238
  - # 19
    frequency:   17.1076385029
  - # 20
    frequency:   31.8368727524
  - # 21
    frequency:   67.6967059031

- q-position: [    0.0303030,    0.0000000,    0.0000000 ]
  distance:    0.0101178
  band:
  - # 1
    frequency:   -0.6918594791
  - # 2
    frequency:   -0.5877974868
  - # 3
    frequency:    0.0659714099
  - # 4
    frequency:    0.3501059447
  - # 5
    frequency:    0.5797943660
  - # 6
    frequency:    3.1726694806
  - # 7
    frequency:    3.2058996923
  - # 8
    frequency:    4.5421459057
  - # 9
    frequency:    5.3841540850
  - # 10
    frequency:    5.4083544673
  - # 11
    frequency:    5.7672243706
  - # 12
    frequency:    5.7782887924
  - # 13
    frequency:    7.3699939391
  - # 14
    frequency:    9.5223899761
  - # 15
    frequency:   14.1364495247
  - # 16
    frequency:   14.1394167171
  - # 17
    frequency:   15.4538426889
  - # 18
    frequency:   17.0907580791
  - # 19
    frequency:   17.1095993756
  - # 20
    frequency:   31.8326787845
  - # 21
    frequency:   67.6944175387

- q-position: [    0.0353535,    0.0000000,    0.0000000 ]
  distance:    0.0118041
  band:
  - # 1
    frequency:   -0.6862615432
  - # 2
    frequency:   -0.5403388636
  - # 3
    frequency:    0.0912879814
  - # 4
    frequency:    0.4073164990
  - # 5
    frequency:    0.6764211320
  - # 6
    frequency:    3.1748961087
  - # 7
    frequency:    3.2197549789
  - # 8
    frequency:    4.5376815096
  - # 9
    frequency:    5.3781410365
  - # 10
    frequency:    5.4110512728
  - # 11
    frequency:    5.7699051878
  - # 12
    frequency:    5.7847264581
  - # 13
    frequency:    7.3673418076
  - # 14
    frequency:    9.5110827280
  - # 15
    frequency:   14.1368285811
  - # 16
    frequency:   14.1408629487
  - # 17
    frequency:   15.4501949186
  - # 18
    frequency:   17.0864261860
  - # 19
    frequency:   17.1118522424
  - # 20
    frequency:   31.8277457498
  - # 21
    frequency:   67.6917245932

- q-position: [    0.0404040,    0.0000000,    0.0000000 ]
  distance:    0.0134904
  band:
  - # 1
    frequency:   -0.6794624246
  - # 2
    frequency:   -0.4812620920
  - # 3
    frequency:    0.1224776805
  - # 4
    frequency:    0.4641573119
  - # 5
    frequency:    0.7729910085
  - # 6
    frequency:    3.1774631829
  - # 7
    frequency:    3.2355064078
  - # 8
    frequency:    4.5326365370
  - # 9
    frequency:    5.3713425984
  - # 10
    frequency:    5.4142741798
  - # 11
    frequency:    5.7728928129
  - # 12
    frequency:    5.7919009833
  - # 13
    frequency:    7.3643160034
  - # 14
    frequency:    9.4981012074
  - # 15
    frequency:   14.1372645996
  - # 16
    frequency:   14.1425274506
  - # 17
    frequency:   15.4460135961
  - # 18
    frequency:   17.0814842156
  - # 19
    frequency:   17.1143659990
  - # 20
    frequency:   31.8220852500
  - # 21
    frequency:   67.6886327438

- q-position: [    0.0454545,    0.0000000,    0.0000000 ]
  distance:    0.0151767
  band:
  - # 1
    frequency:   -0.6713706874
  - # 2
    frequency:   -0.4076021747
  - # 3
    frequency:    0.1622291228
  - # 4
    frequency:    0.5206462808
  - # 5
    frequency:    0.8694726838
  - # 6
    frequency:    3.1803698357
  - # 7
    frequency:    3.2530626043
  - # 8
    frequency:    4.5270571753
  - # 9
    frequency:    5.3638084205
  - # 10
    frequency:    5.4180536414
  - # 11
    frequency:    5.7761519457
  - # 12
    frequency:    5.7997212118
  - # 13
    frequency:    7.3609313278
  - # 14
    frequency:    9.4834724837
  - # 15
    frequency:   14.1377569844
  - # 16
    frequency:   14.1444083699
  - # 17
    frequency:   15.4413104237
  - # 18
    frequency:   17.0759559315
  - # 19
    frequency:   17.1171056179
  - # 20
    frequency:   31.8157105690
  - # 21
    frequency:   67.6851484911

- q-position: [    0.0505051,    0.0000000,    0.0000000 ]
  distance:    0.0168630
  band:
  - # 1
    frequency:   -0.6618984169
  - # 2
    frequency:   -0.3161487924
  - # 3
    frequency:    0.2167552317
  - # 4
    frequency:    0.5768074341
  - # 5
    frequency:    0.9658322686
  - # 6
    frequency:    3.1836151087
  - # 7
    frequency:    3.2723254817
  - # 8
    frequency:    4.5209958607
  - # 9
    frequency:    5.3555897037
  - # 10
    frequency:    5.4224157764
  - # 11
    frequency:    5.7796474839
  - # 12
    frequency:    5.8080928097
  - # 13
    frequency:    7.3572045806
  - # 14
    frequency:    9.4672266623
  - # 15
    frequency:   14.1383050513
  - # 16
    frequency:   14.1465035812
  - # 17
    frequency:   15.4360985655
  - # 18
    frequency:   17.0698680019
  - # 19
    frequency:   17.1200324894
  - # 20
    frequency:   31.8086366299
  - # 21
    frequency:   67.6812791386

- q-position: [    0.0555556,    0.0000000,    0.0000000 ]
  distance:    0.0185493
  band:
  - # 1
    frequency:   -0.6509586889
  - # 2
    frequency:   -0.2081993535
  - # 3
    frequency:    0.2959737334
  - # 4
    frequency:    0.6326674148
  - # 5
    frequency:    1.0620334343
  - # 6
    frequency:    3.1871979611
  - # 7
    frequency:    3.2931916368
  - # 8
    frequency:    4.5145110955
  - # 9
    frequency:    5.3467383695
  - # 10
    frequency:    5.4273811573
  - # 11
    frequency:    5.7833452954
  - # 12
    frequency:    5.8169199450
  - # 13
    frequency:    7.3531545442
  - # 14
    frequency:    9.4493967008
  - # 15
    frequency:   14.1389080251
  - # 16
    frequency:   14.1488106798
  - # 17
    frequency:   15.4303926079
  - # 18
    frequency:   17.0632499006
  - # 19
    frequency:   17.1231047895
  - # 20
    frequency:   31.8008799463
  - # 21
    frequency:   67.6770327685

- q-position: [    0.0606061,    0.0000000,    0.0000000 ]
  distance:    0.0202356
  band:
  - # 1
    frequency:   -0.6384619680
  - # 2
    frequency:   -0.0702531712
  - # 3
    frequency:    0.3963393708
  - # 4
    frequency:    0.6882529858
  - # 5
    frequency:    1.1580372082
  - # 6
    frequency:    3.1911172800
  - # 7
    frequency:    3.3155536263
  - # 8
    frequency:    4.5076671879
  - # 9
    frequency:    5.3373064401
  - # 10
    frequency:    5.4329640470
  - # 11
    frequency:    5.7872127743
  - # 12
    frequency:    5.8261066524
  - # 13
    frequency:    7.3488019537
  - # 14
    frequency:    9.4300182209
  - # 15
    frequency:   14.1395650377
  - # 16
    frequency:   14.1513269736
  - # 17
    frequency:   15.4242085157
  - # 18
    frequency:   17.0561337952
  - # 19
    frequency:   17.1262778703
  - # 20
    frequency:   31.7924585693
  - # 21
    frequency:   67.6724182168

- q-position: [    0.0656566,    0.0000000,    0.0000000 ]
  distance:    0.0219219
  band:
  - # 1
    frequency:   -0.6243116444
  - # 2
    frequency:    0.1495206506
  - # 3
    frequency:    0.4986689219
  - # 4
    frequency:    0.7435894109
  - # 5
    frequency:    1.2538015842
  - # 6
    frequency:    3.1953718903
  - # 7
    frequency:    3.3393010824
  - # 8
    frequency:    4.5005339277
  - # 9
    frequency:    5.3273456077
  - # 10
    frequency:    5.4391720508
  - # 11
    frequency:    5.7912192031
  - # 12
    frequency:    5.8355579077
  - # 13
    frequency:    7.3441694469
  - # 14
    frequency:    9.4091293183
  - # 15
    frequency:   14.1402751257
  - # 16
    frequency:   14.1540494771
  - # 17
    frequency:   15.4175635818
  - # 18
    frequency:   17.0485544239
  - # 19
    frequency:   17.1295046659
  - # 20
    frequency:   31.7833920289
  - # 21
    frequency:   67.6674450440

- q-position: [    0.0707071,    0.0000000,    0.0000000 ]
  distance:    0.0236082
  band:
  - # 1
    frequency:   -0.6083986580
  - # 2
    frequency:    0.2173161950
  - # 3
    frequency:    0.5949448787
  - # 4
    frequency:    0.7986995135
  - # 5
    frequency:    1.3492810657
  - # 6
    frequency:    3.1999605667
  - # 7
    frequency:    3.3643216430
  - # 8
    frequency:    4.4931862246
  - # 9
    frequency:    5.3169069615
  - # 10
    frequency:    5.4460061258
  - # 11
    frequency:    5.7953359526
  - # 12
    frequency:    5.8451804524
  - # 13
    frequency:    7.3392814927
  - # 14
    frequency:    9.3867703751
  - # 15
    frequency:   14.1410372298
  - # 16
    frequency:   14.1569749052
  - # 17
    frequency:   15.4104763732
  - # 18
    frequency:   17.0405489597
  - # 19
    frequency:   17.1327361097
  - # 20
    frequency:   31.7737012718
  - # 21
    frequency:   67.6621235058

- q-position: [    0.0757576,    0.0000000,    0.0000000 ]
  distance:    0.0252945
  band:
  - # 1
    frequency:   -0.5905948848
  - # 2
    frequency:    0.2713397551
  - # 3
    frequency:    0.6850450253
  - # 4
    frequency:    0.8536032178
  - # 5
    frequency:    1.4444262059
  - # 6
    frequency:    3.2048820460
  - # 7
    frequency:    3.3905016780
  - # 8
    frequency:    4.4857037369
  - # 9
    frequency:    5.3060408377
  - # 10
    frequency:    5.4534608785
  - # 11
    frequency:    5.7995365552
  - # 12
    frequency:    5.8548834198
  - # 13
    frequency:    7.3341642933
  - # 14
    frequency:    9.3629838791
  - # 15
    frequency:   14.1418501940
  - # 16
    frequency:   14.1600996678
  - # 17
    frequency:   15.4029666696
  - # 18
    frequency:   17.0321568631
  - # 19
    frequency:   17.1359215553
  - # 20
    frequency:   31.7634085943
  - # 21
    frequency:   67.6564645198

- q-position: [    0.0808081,    0.0000000,    0.0000000 ]
  distance:    0.0269808
  band:
  - # 1
    frequency:   -0.5707446147
  - # 2
    frequency:    0.3214510427
  - # 3
    frequency:    0.7701592801
  - # 4
    frequency:    0.9083174135
  - # 5
    frequency:    1.5391831851
  - # 6
    frequency:    3.2101350405
  - # 7
    frequency:    3.4177268036
  - # 8
    frequency:    4.4781705248
  - # 9
    frequency:    5.2947967578
  - # 10
    frequency:    5.4615250738
  - # 11
    frequency:    5.8037966851
  - # 12
    frequency:    5.8645788125
  - # 13
    frequency:    7.3288456583
  - # 14
    frequency:    9.3378142502
  - # 15
    frequency:   14.1427127662
  - # 16
    frequency:   14.1634198666
  - # 17
    frequency:   15.3950553993
  - # 18
    frequency:   17.0234197230
  - # 19
    frequency:   17.1390091979
  - # 20
    frequency:   31.7525375710
  - # 21
    frequency:   67.6504796317

- q-position: [    0.0858586,    0.0000000,    0.0000000 ]
  distance:    0.0286671
  band:
  - # 1
    frequency:   -0.5486529466
  - # 2
    frequency:    0.3705983251
  - # 3
    frequency:    0.8513434818
  - # 4
    frequency:    0.9628560215
  - # 5
    frequency:    1.6334934382
  - # 6
    frequency:    3.2157182525
  - # 7
    frequency:    3.4458821835
  - # 8
    frequency:    4.4706747580
  - # 9
    frequency:    5.2832234278
  - # 10
    frequency:    5.4701822889
  - # 11
    frequency:    5.8080940760
  - # 12
    frequency:    5.8741818783
  - # 13
    frequency:    7.3233548465
  - # 14
    frequency:    9.3113076803
  - # 15
    frequency:   14.1436235995
  - # 16
    frequency:   14.1669312925
  - # 17
    frequency:   15.3867645681
  - # 18
    frequency:   17.0143810858
  - # 19
    frequency:   17.1419464899
  - # 20
    frequency:   31.7411129801
  - # 21
    frequency:   67.6441809791

- q-position: [    0.0909091,    0.0000000,    0.0000000 ]
  distance:    0.0303534
  band:
  - # 1
    frequency:   -0.5240690469
  - # 2
    frequency:    0.4199438892
  - # 3
    frequency:    0.9293792256
  - # 4
    frequency:    1.0172301735
  - # 5
    frequency:    1.7272933387
  - # 6
    frequency:    3.2216303900
  - # 7
    frequency:    3.4748526226
  - # 8
    frequency:    4.4633085098
  - # 9
    frequency:    5.2713687719
  - # 10
    frequency:    5.4794116491
  - # 11
    frequency:    5.8124083993
  - # 12
    frequency:    5.8836114224
  - # 13
    frequency:    7.3177223763
  - # 14
    frequency:    9.2835119844
  - # 15
    frequency:   14.1445812547
  - # 16
    frequency:   14.1706294250
  - # 17
    frequency:   15.3781171856
  - # 18
    frequency:   17.0050862732
  - # 19
    frequency:   17.1446805464
  - # 20
    frequency:   31.7291607253
  - # 21
    frequency:   67.6375812534

- q-position: [    0.0959596,    0.0000000,    0.0000000 ]
  distance:    0.0320397
  band:
  - # 1
    frequency:   -0.4966605514
  - # 2
    frequency:    0.4700059858
  - # 3
    frequency:    1.0048302596
  - # 4
    frequency:    1.0714484470
  - # 5
    frequency:    1.8205139385
  - # 6
    frequency:    3.2278701839
  - # 7
    frequency:    3.5045224602
  - # 8
    frequency:    4.4561676613
  - # 9
    frequency:    5.2592799845
  - # 10
    frequency:    5.4891885947
  - # 11
    frequency:    5.8167211228
  - # 12
    frequency:    5.8927900896
  - # 13
    frequency:    7.3119798017
  - # 14
    frequency:    9.2544764678
  - # 15
    frequency:   14.1455842048
  - # 16
    frequency:   14.1745094337
  - # 17
    frequency:   15.3691371859
  - # 18
    frequency:   16.9955821890
  - # 19
    frequency:   17.1471585370
  - # 20
    frequency:   31.7167077540
  - # 21
    frequency:   67.6306936609

- q-position: [    0.1010101,    0.0000000,    0.0000000 ]
  distance:    0.0337260
  band:
  - # 1
    frequency:   -0.4659719192
  - # 2
    frequency:    0.5210248183
  - # 3
    frequency:    1.0781060896
  - # 4
    frequency:    1.1255171169
  - # 5
    frequency:    1.9130807592
  - # 6
    frequency:    3.2344364058
  - # 7
    frequency:    3.5347752799
  - # 8
    frequency:    4.4493519340
  - # 9
    frequency:    5.2470035847
  - # 10
    frequency:    5.4994856405
  - # 11
    frequency:    5.8210153631
  - # 12
    frequency:    5.9016446371
  - # 13
    frequency:    7.3061594557
  - # 14
    frequency:    9.2242518081
  - # 15
    frequency:   14.1466308397
  - # 16
    frequency:   14.1785661811
  - # 17
    frequency:   15.3598493451
  - # 18
    frequency:   16.9859171157
  - # 19
    frequency:   17.1493280594
  - # 20
    frequency:   31.7037819730
  - # 21
    frequency:   67.6235318821

- q-position: [    0.1060606,    0.0000000,    0.0000000 ]
  distance:    0.0354123
  band:
  - # 1
    frequency:   -0.4313516807
  - # 2
    frequency:    0.5731056718
  - # 3
    frequency:    1.1495085953
  - # 4
    frequency:    1.1794403995
  - # 5
    frequency:    2.0049136326
  - # 6
    frequency:    3.2413278887
  - # 7
    frequency:    3.5654934564
  - # 8
    frequency:    4.4429650580
  - # 9
    frequency:    5.2345854648
  - # 10
    frequency:    5.5102730971
  - # 11
    frequency:    5.8252757420
  - # 12
    frequency:    5.9101062157
  - # 13
    frequency:    7.3002941626
  - # 14
    frequency:    9.1928899539
  - # 15
    frequency:   14.1477194735
  - # 16
    frequency:   14.1827942284
  - # 17
    frequency:   15.3502791956
  - # 18
    frequency:   16.9761405003
  - # 19
    frequency:   17.1511374936
  - # 20
    frequency:   31.6904121615
  - # 21
    frequency:   67.6161100300

- q-position: [    0.1111111,    0.0000000,    0.0000000 ]
  distance:    0.0370986
  band:
  - # 1
    frequency:   -0.3918135264
  - # 2
    frequency:    0.6262828777
  - # 3
    frequency:    1.2192637542
  - # 4
    frequency:    1.2332206767
  - # 5
    frequency:    2.0959265853
  - # 6
    frequency:    3.2485435485
  - # 7
    frequency:    3.5965575703
  - # 8
    frequency:    4.4371150711
  - # 9
    frequency:    5.2220709265
  - # 10
    frequency:    5.5215197344
  - # 11
    frequency:    5.8294882531
  - # 12
    frequency:    5.9181106666
  - # 13
    frequency:    7.2944169225
  - # 14
    frequency:    9.1604440379
  - # 15
    frequency:   14.1488483527
  - # 16
    frequency:   14.1871878424
  - # 17
    frequency:   15.3404529364
  - # 18
    frequency:   16.9663027318
  - # 19
    frequency:   17.1525363317
  - # 20
    frequency:   31.6766278816
  - # 21
    frequency:   67.6084426075

- q-position: [    0.1161616,    0.0000000,    0.0000000 ]
  distance:    0.0387849
  band:
  - # 1
    frequency:   -0.3457372551
  - # 2
    frequency:    0.6805513177
  - # 3
    frequency:    1.2868586918
  - # 4
    frequency:    1.2875430714
  - # 5
    frequency:    2.1860277637
  - # 6
    frequency:    3.2560824075
  - # 7
    frequency:    3.6278457386
  - # 8
    frequency:    4.4319147229
  - # 9
    frequency:    5.2095047009
  - # 10
    frequency:    5.5331933731
  - # 11
    frequency:    5.8336401418
  - # 12
    frequency:    5.9255988377
  - # 13
    frequency:    7.2885605725
  - # 14
    frequency:    9.1269683067
  - # 15
    frequency:   14.1500156661
  - # 16
    frequency:   14.1917410058
  - # 17
    frequency:   15.3303973418
  - # 18
    frequency:   16.9564549101
  - # 19
    frequency:   17.1534754846
  - # 20
    frequency:   31.6624593870
  - # 21
    frequency:   67.6005444637

- q-position: [    0.1212121,    0.0000000,    0.0000000 ]
  distance:    0.0404712
  band:
  - # 1
    frequency:   -0.2900997408
  - # 2
    frequency:    0.7358831248
  - # 3
    frequency:    1.3403537149
  - # 4
    frequency:    1.3544782330
  - # 5
    frequency:    2.2751193951
  - # 6
    frequency:    3.2639436206
  - # 7
    frequency:    3.6592329305
  - # 8
    frequency:    4.4274819318
  - # 9
    frequency:    5.1969309509
  - # 10
    frequency:    5.5452613975
  - # 11
    frequency:    5.8377198006
  - # 12
    frequency:    5.9325169172
  - # 13
    frequency:    7.2827574318
  - # 14
    frequency:    9.0925180632
  - # 15
    frequency:   14.1512195560
  - # 16
    frequency:   14.1964474289
  - # 17
    frequency:   15.3201396664
  - # 18
    frequency:   16.9466486065
  - # 19
    frequency:   17.1539075615
  - # 20
    frequency:   31.6479375299
  - # 21
    frequency:   67.5924307495

- q-position: [    0.1262626,    0.0000000,    0.0000000 ]
  distance:    0.0421575
  band:
  - # 1
    frequency:   -0.2177922485
  - # 2
    frequency:    0.7922370512
  - # 3
    frequency:    1.3937036776
  - # 4
    frequency:    1.4201713062
  - # 5
    frequency:    2.3630977795
  - # 6
    frequency:    3.2721265031
  - # 7
    frequency:    3.6905903778
  - # 8
    frequency:    4.4239402041
  - # 9
    frequency:    5.1843932560
  - # 10
    frequency:    5.5576911866
  - # 11
    frequency:    5.8417166809
  - # 12
    frequency:    5.9388167785
  - # 13
    frequency:    7.2770389370
  - # 14
    frequency:    9.0571496229
  - # 15
    frequency:   14.1524581313
  - # 16
    frequency:   14.2013005640
  - # 17
    frequency:   15.3097075493
  - # 18
    frequency:   16.9369356190
  - # 19
    frequency:   17.1537871232
  - # 20
    frequency:   31.6330936666
  - # 21
    frequency:   67.5841168735

- q-position: [    0.1313131,    0.0000000,    0.0000000 ]
  distance:    0.0438438
  band:
  - # 1
    frequency:   -0.0969852955
  - # 2
    frequency:    0.8495639533
  - # 3
    frequency:    1.4469052770
  - # 4
    frequency:    1.4847019792
  - # 5
    frequency:    2.4498533062
  - # 6
    frequency:    3.2806305614
  - # 7
    frequency:    3.7217852335
  - # 8
    frequency:    4.4214188736
  - # 9
    frequency:    5.1719345798
  - # 10
    frequency:    5.5704504619
  - # 11
    frequency:    5.8456212181
  - # 12
    frequency:    5.9444563258
  - # 13
    frequency:    7.2714352791
  - # 14
    frequency:    9.0209202810
  - # 15
    frequency:   14.1537294808
  - # 16
    frequency:   14.2062936218
  - # 17
    frequency:   15.2991289149
  - # 18
    frequency:   16.9273677222
  - # 19
    frequency:   17.1530709079
  - # 20
    frequency:   31.6179595616
  - # 21
    frequency:   67.5756184563

- q-position: [    0.1363636,    0.0000000,    0.0000000 ]
  distance:    0.0455301
  band:
  - # 1
    frequency:    0.1728548818
  - # 2
    frequency:    0.9078101044
  - # 3
    frequency:    1.4999540529
  - # 4
    frequency:    1.5481327978
  - # 5
    frequency:    2.5352704867
  - # 6
    frequency:    3.2894555261
  - # 7
    frequency:    3.7526807051
  - # 8
    frequency:    4.4200529511
  - # 9
    frequency:    5.1595972225
  - # 10
    frequency:    5.5835075544
  - # 11
    frequency:    5.8494247717
  - # 12
    frequency:    5.9493998317
  - # 13
    frequency:    7.2659750485
  - # 14
    frequency:    8.9838882892
  - # 15
    frequency:   14.1550316891
  - # 16
    frequency:   14.2114195901
  - # 17
    frequency:   15.2884318733
  - # 18
    frequency:   16.9179964127
  - # 19
    frequency:   17.1517180309
  - # 20
    frequency:   31.6025672917
  - # 21
    frequency:   67.5669512860

- q-position: [    0.1414141,    0.0000000,    0.0000000 ]
  distance:    0.0472164
  band:
  - # 1
    frequency:    0.2652847637
  - # 2
    frequency:    0.9669192367
  - # 3
    frequency:    1.5528444378
  - # 4
    frequency:    1.6105130214
  - # 5
    frequency:    2.6192279950
  - # 6
    frequency:    3.2986013878
  - # 7
    frequency:    3.7831369621
  - # 8
    frequency:    4.4199822987
  - # 9
    frequency:    5.1474227588
  - # 10
    frequency:    5.5968315919
  - # 11
    frequency:    5.8531195757
  - # 12
    frequency:    5.9536182523
  - # 13
    frequency:    7.2606849014
  - # 14
    frequency:    8.9461128398
  - # 15
    frequency:   14.1563628518
  - # 16
    frequency:   14.2166712548
  - # 17
    frequency:   15.2776446180
  - # 18
    frequency:   16.9088726531
  - # 19
    frequency:   17.1496901567
  - # 20
    frequency:   31.5869491489
  - # 21
    frequency:   67.5581312723

- q-position: [    0.1464646,    0.0000000,    0.0000000 ]
  distance:    0.0489027
  band:
  - # 1
    frequency:    0.3347236910
  - # 2
    frequency:    1.0268338092
  - # 3
    frequency:    1.6055697835
  - # 4
    frequency:    1.6718815118
  - # 5
    frequency:    2.7015987019
  - # 6
    frequency:    3.3080684367
  - # 7
    frequency:    3.8130131940
  - # 8
    frequency:    4.4213497657
  - # 9
    frequency:    5.1354519660
  - # 10
    frequency:    5.6103926098
  - # 11
    frequency:    5.8566986990
  - # 12
    frequency:    5.9570895074
  - # 13
    frequency:    7.2555892546
  - # 14
    frequency:    8.9076540564
  - # 15
    frequency:   14.1577210921
  - # 16
    frequency:   14.2220412227
  - # 17
    frequency:   15.2667953233
  - # 18
    frequency:   16.9000466149
  - # 19
    frequency:   17.1469516464
  - # 20
    frequency:   31.5711375433
  - # 21
    frequency:   67.5491744022

- q-position: [    0.1515152,    0.0000000,    0.0000000 ]
  distance:    0.0505890
  band:
  - # 1
    frequency:    0.3934781851
  - # 2
    frequency:    1.0874957901
  - # 3
    frequency:    1.6581223665
  - # 4
    frequency:    1.7322689302
  - # 5
    frequency:    2.7822496910
  - # 6
    frequency:    3.3178573039
  - # 7
    frequency:    3.8421712429
  - # 8
    frequency:    4.4242978808
  - # 9
    frequency:    5.1237247410
  - # 10
    frequency:    5.6241615856
  - # 11
    frequency:    5.8601560129
  - # 12
    frequency:    5.9597987165
  - # 13
    frequency:    7.2507100184
  - # 14
    frequency:    8.8685729883
  - # 15
    frequency:   14.1591045773
  - # 16
    frequency:   14.2275219459
  - # 17
    frequency:   15.2559120387
  - # 18
    frequency:   16.8915674227
  - # 19
    frequency:   17.1434696807
  - # 20
    frequency:   31.5551649065
  - # 21