nqpoint: 300    
npath: 3      
segment_nqpoint:
- 100
- 100
- 100
labels:
- [ 'G', 'M' ]
- [ 'M', 'K' ]
- [ 'K', 'G' ]
reciprocal_lattice:
- [   0.29499444,   0.17031512,   0.00000000 ] # a*
- [   0.00000000,   0.34063024,   0.00000000 ] # b*
- [   0.00000000,   0.00000000,   0.03856459 ] # c*
natom: 7      
lattice:
- [     3.389894433167473,     0.000000000000000,     0.000000000000000 ] # a
- [    -1.694947216583736,     2.935734695245172,     0.000000000000000 ] # b
- [     0.000000000000000,     0.000000000000000,    25.930525271501811 ] # c
points:
- symbol: C # 1
  coordinates: [  0.000000000000000,  0.000000000000000,  0.430694038864729 ]
  mass: 12.010700
- symbol: C # 2
  coordinates: [  0.333332985432215,  0.666666983183674,  0.607014144277134 ]
  mass: 12.010700
- symbol: H # 3
  coordinates: [  0.666666984744048,  0.333332985985145,  0.347081283767560 ]
  mass: 1.007940
- symbol: Hf # 4
  coordinates: [  0.333332985432215,  0.666666983183674,  0.384708826309062 ]
  mass: 178.490000
- symbol: Hf # 5
  coordinates: [  0.666666984744048,  0.333332985985145,  0.477217771478595 ]
  mass: 178.490000
- symbol: N # 6
  coordinates: [  0.333332985432215,  0.666666983183674,  0.652918716232440 ]
  mass: 14.006700
- symbol: S # 7
  coordinates: [  0.333332985432215,  0.666666983183674,  0.542132302217034 ]
  mass: 32.065000

phonon:
- q-position: [    0.0000000,    0.0000000,    0.0000000 ]
  distance:    0.0000000
  band:
  - # 1
    frequency:   -0.6844731144
  - # 2
    frequency:   -0.6844731142
  - # 3
    frequency:   -0.0000239576
  - # 4
    frequency:    0.0000000399
  - # 5
    frequency:    0.0000223792
  - # 6
    frequency:    3.4468360859
  - # 7
    frequency:    3.4468360860
  - # 8
    frequency:    4.0522711097
  - # 9
    frequency:    6.4164428105
  - # 10
    frequency:    6.5304815671
  - # 11
    frequency:    6.5304815672
  - # 12
    frequency:   10.9757367589
  - # 13
    frequency:   10.9757367590
  - # 14
    frequency:   14.7139236894
  - # 15
    frequency:   17.4844881991
  - # 16
    frequency:   17.4844881992
  - # 17
    frequency:   19.9392594670
  - # 18
    frequency:   27.4661129701
  - # 19
    frequency:   27.5031721938
  - # 20
    frequency:   27.5031721941
  - # 21
    frequency:   64.8732709644

- q-position: [    0.0050505,    0.0000000,    0.0000000 ]
  distance:    0.0017204
  band:
  - # 1
    frequency:   -0.6830939795
  - # 2
    frequency:   -0.6817793956
  - # 3
    frequency:    0.0017355163
  - # 4
    frequency:    0.0433616697
  - # 5
    frequency:    0.0746856589
  - # 6
    frequency:    3.4469055241
  - # 7
    frequency:    3.4474655626
  - # 8
    frequency:    4.0532846822
  - # 9
    frequency:    6.4164820079
  - # 10
    frequency:    6.5305611307
  - # 11
    frequency:    6.5312955794
  - # 12
    frequency:   10.9753129534
  - # 13
    frequency:   10.9754309579
  - # 14
    frequency:   14.7141290022
  - # 15
    frequency:   17.4843639906
  - # 16
    frequency:   17.4847303164
  - # 17
    frequency:   19.9391533587
  - # 18
    frequency:   27.4639730054
  - # 19
    frequency:   27.5028782760
  - # 20
    frequency:   27.5045108707
  - # 21
    frequency:   64.8732246377

- q-position: [    0.0101010,    0.0000000,    0.0000000 ]
  distance:    0.0034407
  band:
  - # 1
    frequency:   -0.6789454601
  - # 2
    frequency:   -0.6736435660
  - # 3
    frequency:    0.0069580712
  - # 4
    frequency:    0.0867998201
  - # 5
    frequency:    0.1493629741
  - # 6
    frequency:    3.4471143099
  - # 7
    frequency:    3.4493498735
  - # 8
    frequency:    4.0563159363
  - # 9
    frequency:    6.4166188095
  - # 10
    frequency:    6.5307994384
  - # 11
    frequency:    6.5337172216
  - # 12
    frequency:   10.9740431261
  - # 13
    frequency:   10.9745150003
  - # 14
    frequency:   14.7147449530
  - # 15
    frequency:   17.4839919420
  - # 16
    frequency:   17.4854547095
  - # 17
    frequency:   19.9388357142
  - # 18
    frequency:   27.4582320716
  - # 19
    frequency:   27.5019971330
  - # 20
    frequency:   27.5078508780
  - # 21
    frequency:   64.8730856462

- q-position: [    0.0151515,    0.0000000,    0.0000000 ]
  distance:    0.0051611
  band:
  - # 1
    frequency:   -0.6719931530
  - # 2
    frequency:   -0.6598962243
  - # 3
    frequency:    0.0157209398
  - # 4
    frequency:    0.1303884012
  - # 5
    frequency:    0.2240220277
  - # 6
    frequency:    3.4474638486
  - # 7
    frequency:    3.4524767309
  - # 8
    frequency:    4.0613367081
  - # 9
    frequency:    6.4169069328
  - # 10
    frequency:    6.5311953488
  - # 11
    frequency:    6.5376891839
  - # 12
    frequency:   10.9719320397
  - # 13
    frequency:   10.9729932158
  - # 14
    frequency:   14.7157715667
  - # 15
    frequency:   17.4833737852
  - # 16
    frequency:   17.4866555248
  - # 17
    frequency:   19.9383085665
  - # 18
    frequency:   27.4499966855
  - # 19
    frequency:   27.5005305961
  - # 20
    frequency:   27.5120944985
  - # 21
    frequency:   64.8728539557

- q-position: [    0.0202020,    0.0000000,    0.0000000 ]
  distance:    0.0068814
  band:
  - # 1
    frequency:   -0.6621760565
  - # 2
    frequency:   -0.6402363690
  - # 3
    frequency:    0.0281301021
  - # 4
    frequency:    0.1741963084
  - # 5
    frequency:    0.2986500118
  - # 6
    frequency:    3.4479564505
  - # 7
    frequency:    3.4568258824
  - # 8
    frequency:    4.0683008010
  - # 9
    frequency:    6.4174245246
  - # 10
    frequency:    6.5317469852
  - # 11
    frequency:    6.5431272114
  - # 12
    frequency:   10.9689876112
  - # 13
    frequency:   10.9708728002
  - # 14
    frequency:   14.7172088489
  - # 15
    frequency:   17.4825124059
  - # 16
    frequency:   17.4883230795
  - # 17
    frequency:   19.9375752782
  - # 18
    frequency:   27.4399546006
  - # 19
    frequency:   27.4984817101
  - # 20
    frequency:   27.5165686057
  - # 21
    frequency:   64.8725295102

- q-position: [    0.0252525,    0.0000000,    0.0000000 ]
  distance:    0.0086018
  band:
  - # 1
    frequency:   -0.6494005589
  - # 2
    frequency:   -0.6142008829
  - # 3
    frequency:    0.0443773130
  - # 4
    frequency:    0.2182849558
  - # 5
    frequency:    0.3732303184
  - # 6
    frequency:    3.4485952852
  - # 7
    frequency:    3.4623694487
  - # 8
    frequency:    4.0771450678
  - # 9
    frequency:    6.4182617101
  - # 10
    frequency:    6.5324517734
  - # 11
    frequency:    6.5499323776
  - # 12
    frequency:   10.9652208813
  - # 13
    frequency:   10.9681637842
  - # 14
    frequency:   14.7190567318
  - # 15
    frequency:   17.4814118426
  - # 16
    frequency:   17.4904439705
  - # 17
    frequency:   19.9366405027
  - # 18
    frequency:   27.4284295749
  - # 19
    frequency:   27.4958547229
  - # 20
    frequency:   27.5209698374
  - # 21
    frequency:   64.8721122327

- q-position: [    0.0303030,    0.0000000,    0.0000000 ]
  distance:    0.0103221
  band:
  - # 1
    frequency:   -0.6335308695
  - # 2
    frequency:   -0.5811174596
  - # 3
    frequency:    0.0648050448
  - # 4
    frequency:    0.2627060000
  - # 5
    frequency:    0.4477421304
  - # 6
    frequency:    3.4493843181
  - # 7
    frequency:    3.4690723846
  - # 8
    frequency:    4.0877908620
  - # 9
    frequency:    6.4195093640
  - # 10
    frequency:    6.5333064941
  - # 11
    frequency:    6.5580020733
  - # 12
    frequency:   10.9606459718
  - # 13
    frequency:   10.9648789907
  - # 14
    frequency:   14.7213150009
  - # 15
    frequency:   17.4800772852
  - # 16
    frequency:   17.4930012250
  - # 17
    frequency:   19.9355101316
  - # 18
    frequency:   27.4155657290
  - # 19
    frequency:   27.4926550707
  - # 20
    frequency:   27.5251801564
  - # 21
    frequency:   64.8716020268

- q-position: [    0.0353535,    0.0000000,    0.0000000 ]
  distance:    0.0120425
  band:
  - # 1
    frequency:   -0.6143744034
  - # 2
    frequency:   -0.5400417288
  - # 3
    frequency:    0.0900364290
  - # 4
    frequency:    0.3074993435
  - # 5
    frequency:    0.5221604788
  - # 6
    frequency:    3.4503282318
  - # 7
    frequency:    3.4768930551
  - # 8
    frequency:    4.1001457995
  - # 9
    frequency:    6.4212510058
  - # 10
    frequency:    6.5343073481
  - # 11
    frequency:    6.5672378157
  - # 12
    frequency:   10.9552800309
  - # 13
    frequency:   10.9610339805
  - # 14
    frequency:   14.7239832042
  - # 15
    frequency:   17.4785150728
  - # 16
    frequency:   17.4959744889
  - # 17
    frequency:   19.9341912264
  - # 18
    frequency:   27.4014279041
  - # 19
    frequency:   27.4888893593
  - # 20
    frequency:   27.5291663880
  - # 21
    frequency:   64.8709987786

- q-position: [    0.0404040,    0.0000000,    0.0000000 ]
  distance:    0.0137628
  band:
  - # 1
    frequency:   -0.5916595159
  - # 2
    frequency:   -0.4897053480
  - # 3
    frequency:    0.1212438921
  - # 4
    frequency:    0.3526915730
  - # 5
    frequency:    0.5964566535
  - # 6
    frequency:    3.4514323339
  - # 7
    frequency:    3.4857839137
  - # 8
    frequency:    4.1141057641
  - # 9
    frequency:    6.4235580133
  - # 10
    frequency:    6.5354500342
  - # 11
    frequency:    6.5775496949
  - # 12
    frequency:   10.9491431659
  - # 13
    frequency:   10.9566469866
  - # 14
    frequency:   14.7270605461
  - # 15
    frequency:   17.4767326898
  - # 16
    frequency:   17.4993402514
  - # 17
    frequency:   19.9326919380
  - # 18
    frequency:   27.3860471629
  - # 19
    frequency:   27.4845653411
  - # 20
    frequency:   27.5329345935
  - # 21
    frequency:   64.8703023592

- q-position: [    0.0454545,    0.0000000,    0.0000000 ]
  distance:    0.0154832
  band:
  - # 1
    frequency:   -0.5650008227
  - # 2
    frequency:   -0.4286284884
  - # 3
    frequency:    0.1606980427
  - # 4
    frequency:    0.3982950152
  - # 5
    frequency:    0.6705988200
  - # 6
    frequency:    3.4527024532
  - # 7
    frequency:    3.4956922685
  - # 8
    frequency:    4.1295570816
  - # 9
    frequency:    6.4264874190
  - # 10
    frequency:    6.5367298368
  - # 11
    frequency:    6.5888582062
  - # 12
    frequency:   10.9422583650
  - # 13
    frequency:   10.9517388373
  - # 14
    frequency:   14.7305457683
  - # 15
    frequency:   17.4747387611
  - # 16
    frequency:   17.5030721026
  - # 17
    frequency:   19.9310214126
  - # 18
    frequency:   27.3694415760
  - # 19
    frequency:   27.4796918885
  - # 20
    frequency:   27.5365091354
  - # 21
    frequency:   64.8695126272

- q-position: [    0.0505051,    0.0000000,    0.0000000 ]
  distance:    0.0172035
  band:
  - # 1
    frequency:   -0.5338427848
  - # 2
    frequency:   -0.3560377787
  - # 3
    frequency:    0.2126202303
  - # 4
    frequency:    0.4443075734
  - # 5
    frequency:    0.7445526978
  - # 6
    frequency:    3.4541448269
  - # 7
    frequency:    3.5065611192
  - # 8
    frequency:    4.1463787898
  - # 9
    frequency:    6.4300813511
  - # 10
    frequency:    6.5381417244
  - # 11
    frequency:    6.6010944185
  - # 12
    frequency:   10.9346514074
  - # 13
    frequency:   10.9463328704
  - # 14
    frequency:   14.7344370220
  - # 15
    frequency:   17.4725430459
  - # 16
    frequency:   17.5071410184
  - # 17
    frequency:   19.9291896862
  - # 18
    frequency:   27.3516261462
  - # 19
    frequency:   27.4742789636
  - # 20
    frequency:   27.5399225844
  - # 21
    frequency:   64.8686294321

- q-position: [    0.0555556,    0.0000000,    0.0000000 ]
  distance:    0.0189239
  band:
  - # 1
    frequency:   -0.4973616935
  - # 2
    frequency:   -0.2747812626
  - # 3
    frequency:    0.2824673710
  - # 4
    frequency:    0.4907134599
  - # 5
    frequency:    0.8182821885
  - # 6
    frequency:    3.4557659813
  - # 7
    frequency:    3.5183300481
  - # 8
    frequency:    4.1644449286
  - # 9
    frequency:    6.4343673580
  - # 10
    frequency:    6.5396804532
  - # 11
    frequency:    6.6141992597
  - # 12
    frequency:   10.9263507619
  - # 13
    frequency:   10.9404548362
  - # 14
    frequency:   14.7387317331
  - # 15
    frequency:   17.4701564286
  - # 16
    frequency:   17.5115156702
  - # 17
    frequency:   19.9272075692
  - # 18
    frequency:   27.3326177204
  - # 19
    frequency:   27.4683375834
  - # 20
    frequency:   27.5432106187
  - # 21
    frequency:   64.8676526179

- q-position: [    0.0606061,    0.0000000,    0.0000000 ]
  distance:    0.0206443
  band:
  - # 1
    frequency:   -0.4542790117
  - # 2
    frequency:   -0.1907747101
  - # 3
    frequency:    0.3693116774
  - # 4
    frequency:    0.5374848382
  - # 5
    frequency:    0.8917498904
  - # 6
    frequency:    3.4575726082
  - # 7
    frequency:    3.5309361461
  - # 8
    frequency:    4.1836267842
  - # 9
    frequency:    6.4393591218
  - # 10
    frequency:    6.5413406786
  - # 11
    frequency:    6.6281224286
  - # 12
    frequency:   10.9173874746
  - # 13
    frequency:   10.9341327929
  - # 14
    frequency:   14.7434264653
  - # 15
    frequency:   17.4675909081
  - # 16
    frequency:   17.5161627540
  - # 17
    frequency:   19.9250865206
  - # 18
    frequency:   27.3124374372
  - # 19
    frequency:   27.4618797831
  - # 20
    frequency:   27.5464093675
  - # 21
    frequency:   64.8665820268

- q-position: [    0.0656566,    0.0000000,    0.0000000 ]
  distance:    0.0223646
  band:
  - # 1
    frequency:   -0.4024574029
  - # 2
    frequency:   -0.0879382690
  - # 3
    frequency:    0.4622788903
  - # 4
    frequency:    0.5845842767
  - # 5
    frequency:    0.9649174701
  - # 6
    frequency:    3.4595714402
  - # 7
    frequency:    3.5443149566
  - # 8
    frequency:    4.2037950251
  - # 9
    frequency:    6.4450572915
  - # 10
    frequency:    6.5431170683
  - # 11
    frequency:    6.6428212226
  - # 12
    frequency:   10.9077950465
  - # 13
    frequency:   10.9273969928
  - # 14
    frequency:   14.7485167833
  - # 15
    frequency:   17.4648595829
  - # 16
    frequency:   17.5210473339
  - # 17
    frequency:   19.9228385161
  - # 18
    frequency:   27.2911118912
  - # 19
    frequency:   27.4549185742
  - # 20
    frequency:   27.5495540204
  - # 21
    frequency:   64.8654175036

- q-position: [    0.0707071,    0.0000000,    0.0000000 ]
  distance:    0.0240850
  band:
  - # 1
    frequency:   -0.3378438714
  - # 2
    frequency:    0.1287525642
  - # 3
    frequency:    0.5531794635
  - # 4
    frequency:    0.6319677974
  - # 5
    frequency:    1.0377458990
  - # 6
    frequency:    3.4617691278
  - # 7
    frequency:    3.5584014186
  - # 8
    frequency:    4.2248216770
  - # 9
    frequency:    6.4514503168
  - # 10
    frequency:    6.5450044184
  - # 11
    frequency:    6.6582594184
  - # 12
    frequency:   10.8976093004
  - # 13
    frequency:   10.9202797618
  - # 14
    frequency:   14.7539971219
  - # 15
    frequency:   17.4619766345
  - # 16
    frequency:   17.5261331960
  - # 17
    frequency:   19.9204759087
  - # 18
    frequency:   27.2686735956
  - # 19
    frequency:   27.4474679015
  - # 20
    frequency:   27.5526781202
  - # 21
    frequency:   64.8641589004

- q-position: [    0.0757576,    0.0000000,    0.0000000 ]
  distance:    0.0258053
  band:
  - # 1
    frequency:   -0.2506292462
  - # 2
    frequency:    0.2017575257
  - # 3
    frequency:    0.6399335127
  - # 4
    frequency:    0.6795882363
  - # 5
    frequency:    1.1101955741
  - # 6
    frequency:    3.4641721190
  - # 7
    frequency:    3.5731307928
  - # 8
    frequency:    4.2465818951
  - # 9
    frequency:    6.4585152521
  - # 10
    frequency:    6.5469977679
  - # 11
    frequency:    6.6744062539
  - # 12
    frequency:   10.8868682383
  - # 13
    frequency:   10.9128153712
  - # 14
    frequency:   14.7598606614
  - # 15
    frequency:   17.4589573059
  - # 16
    frequency:   17.5313832062
  - # 17
    frequency:   19.9180112859
  - # 18
    frequency:   27.2451610502
  - # 19
    frequency:   27.4395425952
  - # 20
    frequency:   27.5558132341
  - # 21
    frequency:   64.8628060817

- q-position: [    0.0808081,    0.0000000,    0.0000000 ]
  distance:    0.0275257
  band:
  - # 1
    frequency:   -0.0890874659
  - # 2
    frequency:    0.2585289932
  - # 3
    frequency:    0.7227744338
  - # 4
    frequency:    0.7273986076
  - # 5
    frequency:    1.1822263530
  - # 6
    frequency:    3.4667865462
  - # 7
    frequency:    3.5884395546
  - # 8
    frequency:    4.2689554999
  - # 9
    frequency:    6.4662185403
  - # 10
    frequency:    6.5490925112
  - # 11
    frequency:    6.6912355172
  - # 12
    frequency:   10.8756118897
  - # 13
    frequency:   10.9050399042
  - # 14
    frequency:   14.7660992157
  - # 15
    frequency:   17.4558178761
  - # 16
    frequency:   17.5367596683
  - # 17
    frequency:   19.9154573236
  - # 18
    frequency:   27.2206185820
  - # 19
    frequency:   27.4311583218
  - # 20
    frequency:   27.5589888376
  - # 21
    frequency:   64.8613589294

- q-position: [    0.0858586,    0.0000000,    0.0000000 ]
  distance:    0.0292460
  band:
  - # 1
    frequency:    0.2248692429
  - # 2
    frequency:    0.3101552127
  - # 3
    frequency:    0.7753552062
  - # 4
    frequency:    0.8023646557
  - # 5
    frequency:    1.2537975317
  - # 6
    frequency:    3.4696181207
  - # 7
    frequency:    3.6042662389
  - # 8
    frequency:    4.2918282554
  - # 9
    frequency:    6.4745168077
  - # 10
    frequency:    6.5512845056
  - # 11
    frequency:    6.7087247267
  - # 12
    frequency:   10.8638821514
  - # 13
    frequency:   10.8969911159
  - # 14
    frequency:   14.7727031344
  - # 15
    frequency:   17.4525756307
  - # 16
    frequency:   17.5422246776
  - # 17
    frequency:   19.9128266403
  - # 18
    frequency:   27.1950960570
  - # 19
    frequency:   27.4223315319
  - # 20
    frequency:   27.5622323122
  - # 21
    frequency:   64.8598173486

- q-position: [    0.0909091,    0.0000000,    0.0000000 ]
  distance:    0.0309664
  band:
  - # 1
    frequency:    0.3357962492
  - # 2
    frequency:    0.3599683196
  - # 3
    frequency:    0.8234202573
  - # 4
    frequency:    0.8793167121
  - # 5
    frequency:    1.3248677910
  - # 6
    frequency:    3.4726720371
  - # 7
    frequency:    3.6205522248
  - # 8
    frequency:    4.3150928779
  - # 9
    frequency:    6.4833576987
  - # 10
    frequency:    6.5535701722
  - # 11
    frequency:    6.7268543813
  - # 12
    frequency:   10.8517226195
  - # 13
    frequency:   10.8887082903
  - # 14
    frequency:   14.7796612226
  - # 15
    frequency:   17.4492488268
  - # 16
    frequency:   17.5477404639
  - # 17
    frequency:   19.9101316512
  - # 18
    frequency:   27.1686485194
  - # 19
    frequency:   27.4130794056
  - # 20
    frequency:   27.5655690039
  - # 21
    frequency:   64.8581812736

- q-position: [    0.0959596,    0.0000000,    0.0000000 ]
  distance:    0.0326867
  band:
  - # 1
    frequency:    0.4093446599
  - # 2
    frequency:    0.4227248813
  - # 3
    frequency:    0.8715640116
  - # 4
    frequency:    0.9541151793
  - # 5
    frequency:    1.3953951316
  - # 6
    frequency:    3.4759528900
  - # 7
    frequency:    3.6372424459
  - # 8
    frequency:    4.3386497732
  - # 9
    frequency:    6.4926807743
  - # 10
    frequency:    6.5559465884
  - # 11
    frequency:    6.7456072641
  - # 12
    frequency:   10.8391784136
  - # 13
    frequency:   10.8802320914
  - # 14
    frequency:   14.7869606799
  - # 15
    frequency:   17.4458566537
  - # 16
    frequency:   17.5532697216
  - # 17
    frequency:   19.9073844271
  - # 18
    frequency:   27.1413357921
  - # 19
    frequency:   27.4034197963
  - # 20
    frequency:   27.5690223081
  - # 21
    frequency:   64.8564506737

- q-position: [    0.1010101,    0.0000000,    0.0000000 ]
  distance:    0.0344071
  band:
  - # 1
    frequency:    0.4589334993
  - # 2
    frequency:    0.4984090206
  - # 3
    frequency:    0.9197662564
  - # 4
    frequency:    1.0271284464
  - # 5
    frequency:    1.4653368142
  - # 6
    frequency:    3.4794646023
  - # 7
    frequency:    3.6542860164
  - # 8
    frequency:    4.3624075110
  - # 9
    frequency:    6.5024184888
  - # 10
    frequency:    6.5584115694
  - # 11
    frequency:    6.7649677845
  - # 12
    frequency:   10.8262959959
  - # 13
    frequency:   10.8716044124
  - # 14
    frequency:   14.7945870628
  - # 15
    frequency:   17.4424191872
  - # 16
    frequency:   17.5587759214
  - # 17
    frequency:   19.9045965570
  - # 18
    frequency:   27.1132220592
  - # 19
    frequency:   27.3933711724
  - # 20
    frequency:   27.5726137624
  - # 21
    frequency:   64.8546255598

- q-position: [    0.1060606,    0.0000000,    0.0000000 ]
  distance:    0.0361274
  band:
  - # 1
    frequency:    0.5090576915
  - # 2
    frequency:    0.5673711510
  - # 3
    frequency:    0.9680172647
  - # 4
    frequency:    1.0986341234
  - # 5
    frequency:    1.5346493176
  - # 6
    frequency:    3.4832103686
  - # 7
    frequency:    3.6716367629
  - # 8
    frequency:    4.3862830511
  - # 9
    frequency:    6.5124972462
  - # 10
    frequency:    6.5609637382
  - # 11
    frequency:    6.7849213563
  - # 12
    frequency:   10.8131229834
  - # 13
    frequency:   10.8628682218
  - # 14
    frequency:   14.8025242694
  - # 15
    frequency:   17.4389573390
  - # 16
    frequency:   17.5642236004
  - # 17
    frequency:   19.9017790188
  - # 18
    frequency:   27.0843754422
  - # 19
    frequency:   27.3829525577
  - # 20
    frequency:   27.5763631374
  - # 21
    frequency:   64.8527059909

- q-position: [    0.1111111,    0.0000000,    0.0000000 ]
  distance:    0.0378478
  band:
  - # 1
    frequency:    0.5598752022
  - # 2
    frequency:    0.6317917252
  - # 3
    frequency:    1.0163182153
  - # 4
    frequency:    1.1688414591
  - # 5
    frequency:    1.6032883210
  - # 6
    frequency:    3.4871926115
  - # 7
    frequency:    3.6892536521
  - # 8
    frequency:    4.4102017452
  - # 9
    frequency:    6.5228385240
  - # 10
    frequency:    6.5636025821
  - # 11
    frequency:    6.8054538110
  - # 12
    frequency:   10.7997079569
  - # 13
    frequency:   10.8540674073
  - # 14
    frequency:   14.8107545501
  - # 15
    frequency:   17.4354928000
  - # 16
    frequency:   17.5695786278
  - # 17
    frequency:   19.8989420583
  - # 18
    frequency:   27.0548675751
  - # 19
    frequency:   27.3721834707
  - # 20
    frequency:   27.5802885198
  - # 21
    frequency:   64.8506920807

- q-position: [    0.1161616,    0.0000000,    0.0000000 ]
  distance:    0.0395682
  band:
  - # 1
    frequency:    0.6114536022
  - # 2
    frequency:    0.6928852641
  - # 3
    frequency:    1.0646811102
  - # 4
    frequency:    1.2379084295
  - # 5
    frequency:    1.6712087217
  - # 6
    frequency:    3.4914129535
  - # 7
    frequency:    3.7071011069
  - # 8
    frequency:    4.4340971435
  - # 9
    frequency:    6.5333600462
  - # 10
    frequency:    6.5663284938
  - # 11
    frequency:    6.8265508558
  - # 12
    frequency:   10.7861002650
  - # 13
    frequency:   10.8452466190
  - # 14
    frequency:   14.8192585434
  - # 15
    frequency:   17.4320479778
  - # 16
    frequency:   17.5748084427
  - # 17
    frequency:   19.8960950794
  - # 18
    frequency:   27.0247731840
  - # 19
    frequency:   27.3610838620
  - # 20
    frequency:   27.5844063860
  - # 21
    frequency:   64.8485840048

- q-position: [    0.1212121,    0.0000000,    0.0000000 ]
  distance:    0.0412885
  band:
  - # 1
    frequency:    0.6638078781
  - # 2
    frequency:    0.7513823696
  - # 3
    frequency:    1.1131281922
  - # 4
    frequency:    1.3059542645
  - # 5
    frequency:    1.7383646893
  - # 6
    frequency:    3.4958722022
  - # 7
    frequency:    3.7251492041
  - # 8
    frequency:    4.4579106377
  - # 9
    frequency:    6.5439769734
  - # 10
    frequency:    6.5691427975
  - # 11
    frequency:    6.8481975875
  - # 12
    frequency:   10.7723498274
  - # 13
    frequency:   10.8364511114
  - # 14
    frequency:   14.8280153374
  - # 15
    frequency:   17.4286459281
  - # 16
    frequency:   17.5798822630
  - # 17
    frequency:   19.8932465463
  - # 18
    frequency:   26.9941696701
  - # 19
    frequency:   27.3496740528
  - # 20
    frequency:   27.5887316670
  - # 21
    frequency:   64.8463820073

- q-position: [    0.1262626,    0.0000000,    0.0000000 ]
  distance:    0.0430089
  band:
  - # 1
    frequency:    0.7169210726
  - # 2
    frequency:    0.8077394104
  - # 3
    frequency:    1.1616908347
  - # 4
    frequency:    1.3730685728
  - # 5
    frequency:    1.8047097645
  - # 6
    frequency:    3.5005703497
  - # 7
    frequency:    3.7433737496
  - # 8
    frequency:    4.4815909762
  - # 9
    frequency:    6.5546030783
  - # 10
    frequency:    6.5720477582
  - # 11
    frequency:    6.8703780784
  - # 12
    frequency:   10.7585069348
  - # 13
    frequency:   10.8277265853
  - # 14
    frequency:   14.8370025572
  - # 15
    frequency:   17.4253102807
  - # 16
    frequency:   17.5847712620
  - # 17
    frequency:   19.8904038990
  - # 18
    frequency:   26.9631366975
  - # 19
    frequency:   27.3379746707
  - # 20
    frequency:   27.5932778038
  - # 21
    frequency:   64.8440864080

- q-position: [    0.1313131,    0.0000000,    0.0000000 ]
  distance:    0.0447292
  band:
  - # 1
    frequency:    0.7707562228
  - # 2
    frequency:    0.8622438687
  - # 3
    frequency:    1.2104078709
  - # 4
    frequency:    1.4393180291
  - # 5
    frequency:    1.8701970049
  - # 6
    frequency:    3.5055065848
  - # 7
    frequency:    3.7617562260
  - # 8
    frequency:    4.5050936871
  - # 9
    frequency:    6.5651518706
  - # 10
    frequency:    6.5750465732
  - # 11
    frequency:    6.8930750455
  - # 12
    frequency:   10.7446220498
  - # 13
    frequency:   10.8191190310
  - # 14
    frequency:   14.8461964764
  - # 15
    frequency:   17.4220651591
  - # 16
    frequency:   17.5894487139
  - # 17
    frequency:   19.8875734843
  - # 18
    frequency:   26.9317557868
  - # 19
    frequency:   27.3260065873
  - # 20
    frequency:   27.5980567970
  - # 21
    frequency:   64.8416976096

- q-position: [    0.1363636,    0.0000000,    0.0000000 ]
  distance:    0.0464496
  band:
  - # 1
    frequency:    0.8252635980
  - # 2
    frequency:    0.9150734005
  - # 3
    frequency:    1.2593233341
  - # 4
    frequency:    1.5047513281
  - # 5
    frequency:    1.9347791812
  - # 6
    frequency:    3.5106793168
  - # 7
    frequency:    3.7802836128
  - # 8
    frequency:    4.5283804422
  - # 9
    frequency:    6.5755376387
  - # 10
    frequency:    6.5781433481
  - # 11
    frequency:    6.9162696154
  - # 12
    frequency:   10.7307456081
  - # 13
    frequency:   10.8106745713
  - # 14
    frequency:   14.8555721517
  - # 15
    frequency:   17.4189350948
  - # 16
    frequency:   17.5938901047
  - # 17
    frequency:   19.8847605019
  - # 18
    frequency:   26.9001099106
  - # 19
    frequency:   27.3137908550
  - # 20
    frequency:   27.6030792509
  - # 21
    frequency:   64.8392161049

- q-position: [    0.1414141,    0.0000000,    0.0000000 ]
  distance:    0.0481699
  band:
  - # 1
    frequency:    0.8803852652
  - # 2
    frequency:    0.9663321512
  - # 3
    frequency:    1.3084836339
  - # 4
    frequency:    1.5694029003
  - # 5
    frequency:    1.9984090281
  - # 6
    frequency:    3.5160862097
  - # 7
    frequency:    3.7989480807
  - # 8
    frequency:    4.5514183954
  - # 9
    frequency:    6.5813430538
  - # 10
    frequency:    6.5856763826
  - # 11
    frequency:    6.9399411900
  - # 12
    frequency:   10.7169278216
  - # 13
    frequency:   10.8024393070
  - # 14
    frequency:   14.8651035793
  - # 15
    frequency:   17.4159449359
  - # 16
    frequency:   17.5980732118
  - # 17
    frequency:   19.8819689676
  - # 18
    frequency:   26.8682830943
  - # 19
    frequency:   27.3013486436
  - # 20
    frequency:   27.6083544147
  - # 21
    frequency:   64.8366424835

- q-position: [    0.1464646,    0.0000000,    0.0000000 ]
  distance:    0.0498903
  band:
  - # 1
    frequency:    0.9360580693
  - # 2
    frequency:    1.0160749635
  - # 3
    frequency:    1.3579342692
  - # 4
    frequency:    1.6332957333
  - # 5
    frequency:    2.0610395507
  - # 6
    frequency:    3.5217242249
  - # 7
    frequency:    3.8177465615
  - # 8
    frequency:    4.5741795218
  - # 9
    frequency:    6.5846514684
  - # 10
    frequency:    6.5954866191
  - # 11
    frequency:    6.9640674107
  - # 12
    frequency:   10.7032184847
  - # 13
    frequency:   10.7944591641
  - # 14
    frequency:   14.8747638702
  - # 15
    frequency:   17.4131197510
  - # 16
    frequency:   17.6019781505
  - # 17
    frequency:   19.8792016930
  - # 18
    frequency:   26.8363600191
  - # 19
    frequency:   27.2887011792
  - # 20
    frequency:   27.6138902214
  - # 21
    frequency:   64.8339774394

- q-position: [    0.1515152,    0.0000000,    0.0000000 ]
  distance:    0.0516106
  band:
  - # 1
    frequency:    0.9922156386
  - # 2
    frequency:    1.0643246210
  - # 3
    frequency:    1.4077162846
  - # 4
    frequency:    1.6964435402
  - # 5
    frequency:    2.1226243888
  - # 6
    frequency:    3.5275896703
  - # 7
    frequency:    3.8366802037
  - # 8
    frequency:    4.5966399812
  - # 9
    frequency:    6.5880751032
  - # 10
    frequency:    6.6048900502
  - # 11
    frequency:    6.9886242139
  - # 12
    frequency:   10.6896667839
  - # 13
    frequency:   10.7867797437
  - # 14
    frequency:   14.8845254415
  - # 15
    frequency:   17.4104847277
  - # 16
    frequency:   17.6055873887
  - # 17
    frequency:   19.8764602824
  - # 18
    frequency:   26.8044256281
  - # 19
    frequency:   27.2758696819
  - # 20
    frequency:   27.6196933278
  - # 21