nqpoint: 300    
npath: 3      
segment_nqpoint:
- 100
- 100
- 100
labels:
- [ 'G', 'M' ]
- [ 'M', 'K' ]
- [ 'K', 'G' ]
reciprocal_lattice:
- [   0.28964273,   0.16722531,   0.00000000 ] # a*
- [   0.00000000,   0.33445062,   0.00000000 ] # b*
- [   0.00000000,   0.00000000,   0.04195940 ] # c*
natom: 5      
lattice:
- [     3.452529201772145,     0.000000000000000,     0.000000000000000 ] # a
- [    -1.726264600886072,     2.989977996035229,     0.000000000000000 ] # b
- [     0.000000000000000,     0.000000000000000,    23.832563089077645 ] # c
points:
- symbol: Cl # 1
  coordinates: [  0.333332985432215,  0.666666983183674,  0.622365418005558 ]
  mass: 35.453000
- symbol: Cl # 2
  coordinates: [  0.666666984744047,  0.333332985985145,  0.377634581994442 ]
  mass: 35.453000
- symbol: N # 3
  coordinates: [  0.000000000000000,  0.000000000000000,  0.500000032883492 ]
  mass: 14.006700
- symbol: Zr # 4
  coordinates: [  0.333332985432215,  0.666666983183674,  0.452515552784988 ]
  mass: 91.224000
- symbol: Zr # 5
  coordinates: [  0.666666984744047,  0.333332985985145,  0.547484446724205 ]
  mass: 91.224000

phonon:
- q-position: [    0.0000000,    0.0000000,    0.0000000 ]
  distance:    0.0000000
  band:
  - # 1
    frequency:   -0.0000183149
  - # 2
    frequency:   -0.0000000389
  - # 3
    frequency:    0.0000086116
  - # 4
    frequency:    3.4761283844
  - # 5
    frequency:    3.4761283844
  - # 6
    frequency:    5.5832170551
  - # 7
    frequency:    5.5832170551
  - # 8
    frequency:    5.6831649611
  - # 9
    frequency:    5.9956770265
  - # 10
    frequency:    5.9956770265
  - # 11
    frequency:    8.3634862924
  - # 12
    frequency:    9.7997210056
  - # 13
    frequency:   13.2742282425
  - # 14
    frequency:   15.6656264592
  - # 15
    frequency:   15.6656264592

- q-position: [    0.0050505,    0.0000000,    0.0000000 ]
  distance:    0.0016891
  band:
  - # 1
    frequency:    0.0015116326
  - # 2
    frequency:    0.0581043024
  - # 3
    frequency:    0.0843570601
  - # 4
    frequency:    3.4762345418
  - # 5
    frequency:    3.4769952225
  - # 6
    frequency:    5.5756024424
  - # 7
    frequency:    5.5830360708
  - # 8
    frequency:    5.6910024076
  - # 9
    frequency:    5.9956388025
  - # 10
    frequency:    5.9961519048
  - # 11
    frequency:    8.3632057755
  - # 12
    frequency:    9.7987285242
  - # 13
    frequency:   13.2740330158
  - # 14
    frequency:   15.6656875437
  - # 15
    frequency:   15.6657079553

- q-position: [    0.0101010,    0.0000000,    0.0000000 ]
  distance:    0.0033783
  band:
  - # 1
    frequency:    0.0060411389
  - # 2
    frequency:    0.1161723913
  - # 3
    frequency:    0.1687037927
  - # 4
    frequency:    3.4765523407
  - # 5
    frequency:    3.4795911322
  - # 6
    frequency:    5.5574085221
  - # 7
    frequency:    5.5824948345
  - # 8
    frequency:    5.7098345389
  - # 9
    frequency:    5.9955226572
  - # 10
    frequency:    5.9976065442
  - # 11
    frequency:    8.3623649184
  - # 12
    frequency:    9.7957529625
  - # 13
    frequency:   13.2734464474
  - # 14
    frequency:   15.6658706284
  - # 15
    frequency:   15.6659519794

- q-position: [    0.0151515,    0.0000000,    0.0000000 ]
  distance:    0.0050674
  band:
  - # 1
    frequency:    0.0135724412
  - # 2
    frequency:    0.1741681799
  - # 3
    frequency:    0.2530296881
  - # 4
    frequency:    3.4770797649
  - # 5
    frequency:    3.4839024092
  - # 6
    frequency:    5.5346838637
  - # 7
    frequency:    5.5815984573
  - # 8
    frequency:    5.7335192379
  - # 9
    frequency:    5.9953242161
  - # 10
    frequency:    6.0001336098
  - # 11
    frequency:    8.3609658030
  - # 12
    frequency:    9.7907999619
  - # 13
    frequency:   13.2724658997
  - # 14
    frequency:   15.6661752028
  - # 15
    frequency:   15.6663571302

- q-position: [    0.0202020,    0.0000000,    0.0000000 ]
  distance:    0.0067566
  band:
  - # 1
    frequency:    0.0240790622
  - # 2
    frequency:    0.2320558369
  - # 3
    frequency:    0.3373238857
  - # 4
    frequency:    3.4778134669
  - # 5
    frequency:    3.4899065725
  - # 6
    frequency:    5.5102961494
  - # 7
    frequency:    5.5803553305
  - # 8
    frequency:    5.7590244010
  - # 9
    frequency:    5.9950363361
  - # 10
    frequency:    6.0038959694
  - # 11
    frequency:    8.3590119016
  - # 12
    frequency:    9.7838789076
  - # 13
    frequency:   13.2710870661
  - # 14
    frequency:   15.6666004057
  - # 15
    frequency:   15.6669210441

- q-position: [    0.0252525,    0.0000000,    0.0000000 ]
  distance:    0.0084457
  band:
  - # 1
    frequency:    0.0375245876
  - # 2
    frequency:    0.2897999119
  - # 3
    frequency:    0.4215749995
  - # 4
    frequency:    3.4787487865
  - # 5
    frequency:    3.4975728864
  - # 6
    frequency:    5.4854340248
  - # 7
    frequency:    5.5787769419
  - # 8
    frequency:    5.7849155111
  - # 9
    frequency:    5.9946493198
  - # 10
    frequency:    6.0091371500
  - # 11
    frequency:    8.3565080810
  - # 12
    frequency:    9.7750029024
  - # 13
    frequency:   13.2693041026
  - # 14
    frequency:   15.6671450084
  - # 15
    frequency:   15.6676403543

- q-position: [    0.0303030,    0.0000000,    0.0000000 ]
  distance:    0.0101349
  band:
  - # 1
    frequency:    0.0538632828
  - # 2
    frequency:    0.3473654609
  - # 3
    frequency:    0.5057709517
  - # 4
    frequency:    3.4798797777
  - # 5
    frequency:    3.5068630561
  - # 6
    frequency:    5.4606472648
  - # 7
    frequency:    5.5768776325
  - # 8
    frequency:    5.8103079084
  - # 9
    frequency:    5.9941512017
  - # 10
    frequency:    6.0161887347
  - # 11
    frequency:    8.3534606065
  - # 12
    frequency:    9.7641887308
  - # 13
    frequency:   13.2671098072
  - # 14
    frequency:   15.6678073927
  - # 15
    frequency:   15.6685106362

- q-position: [    0.0353535,    0.0000000,    0.0000000 ]
  distance:    0.0118240
  band:
  - # 1
    frequency:    0.0730408353
  - # 2
    frequency:    0.4047181689
  - # 3
    frequency:    0.5898988144
  - # 4
    frequency:    3.4811992437
  - # 5
    frequency:    3.5177320680
  - # 6
    frequency:    5.4362273333
  - # 7
    frequency:    5.5746743060
  - # 8
    frequency:    5.8344955224
  - # 9
    frequency:    5.9935280926
  - # 10
    frequency:    6.0254608688
  - # 11
    frequency:    8.3498771481
  - # 12
    frequency:    9.7514568131
  - # 13
    frequency:   13.2644958429
  - # 14
    frequency:   15.6685855221
  - # 15
    frequency:   15.6695263416

- q-position: [    0.0404040,    0.0000000,    0.0000000 ]
  distance:    0.0135132
  band:
  - # 1
    frequency:    0.0949951927
  - # 2
    frequency:    0.4618244718
  - # 3
    frequency:    0.6739446597
  - # 4
    frequency:    3.4826987801
  - # 5
    frequency:    3.5301291367
  - # 6
    frequency:    5.4123477913
  - # 7
    frequency:    5.5721861032
  - # 8
    frequency:    5.8568592954
  - # 9
    frequency:    5.9927645685
  - # 10
    frequency:    6.0373931897
  - # 11
    frequency:    8.3457667850
  - # 12
    frequency:    9.7368311512
  - # 13
    frequency:   13.2614529979
  - # 14
    frequency:   15.6694769083
  - # 15
    frequency:   15.6706807243

- q-position: [    0.0454545,    0.0000000,    0.0000000 ]
  distance:    0.0152023
  band:
  - # 1
    frequency:    0.1196574614
  - # 2
    frequency:    0.5186516741
  - # 3
    frequency:    0.7578934211
  - # 4
    frequency:    3.4843688276
  - # 5
    frequency:    3.5439987224
  - # 6
    frequency:    5.3891217328
  - # 7
    frequency:    5.5694340581
  - # 8
    frequency:    5.8769152166
  - # 9
    frequency:    5.9918440882
  - # 10
    frequency:    6.0523490934
  - # 11
    frequency:    8.3411400109
  - # 12
    frequency:    9.7203392651
  - # 13
    frequency:   13.2579714765
  - # 14
    frequency:   15.6704785722
  - # 15
    frequency:   15.6719657610

- q-position: [    0.0505051,    0.0000000,    0.0000000 ]
  distance:    0.0168914
  band:
  - # 1
    frequency:    0.1469528350
  - # 2
    frequency:    0.5751680643
  - # 3
    frequency:    0.8417287652
  - # 4
    frequency:    3.4861987333
  - # 5
    frequency:    3.5592815803
  - # 6
    frequency:    5.3666279075
  - # 7
    frequency:    5.5664407470
  - # 8
    frequency:    5.8944249814
  - # 9
    frequency:    5.9907494263
  - # 10
    frequency:    6.0704786697
  - # 11
    frequency:    8.3360087367
  - # 12
    frequency:    9.7020121222
  - # 13
    frequency:   13.2540412144
  - # 14
    frequency:   15.6715870004
  - # 15
    frequency:   15.6733720714

- q-position: [    0.0555556,    0.0000000,    0.0000000 ]
  distance:    0.0185806
  band:
  - # 1
    frequency:    0.1768015200
  - # 2
    frequency:    0.6313430271
  - # 3
    frequency:    0.9254329773
  - # 4
    frequency:    3.4881768221
  - # 5
    frequency:    3.5759158049
  - # 6
    frequency:    5.3449237767
  - # 7
    frequency:    5.5632299437
  - # 8
    frequency:    5.9094673669
  - # 9
    frequency:    5.9894631064
  - # 10
    frequency:    6.0916339772
  - # 11
    frequency:    8.3303862916
  - # 12
    frequency:    9.6818840582
  - # 13
    frequency:   13.2496522100
  - # 14
    frequency:   15.6727980973
  - # 15
    frequency:   15.6748888407

- q-position: [    0.0606061,    0.0000000,    0.0000000 ]
  distance:    0.0202697
  band:
  - # 1
    frequency:    0.2091196359
  - # 2
    frequency:    0.6871471504
  - # 3
    frequency:    1.0089868597
  - # 4
    frequency:    3.4902904784
  - # 5
    frequency:    3.5938378386
  - # 6
    frequency:    5.3240526031
  - # 7
    frequency:    5.5598262914
  - # 8
    frequency:    5.9223930003
  - # 9
    frequency:    5.9879678233
  - # 10
    frequency:    6.1154068897
  - # 11
    frequency:    8.3242874198
  - # 12
    frequency:    9.6599926929
  - # 13
    frequency:   13.2447948632
  - # 14
    frequency:   15.6741071351
  - # 15
    frequency:   15.6765037496

- q-position: [    0.0656566,    0.0000000,    0.0000000 ]
  distance:    0.0219589
  band:
  - # 1
    frequency:    0.2438200650
  - # 2
    frequency:    0.7425523287
  - # 3
    frequency:    1.0923696438
  - # 4
    frequency:    3.4925262388
  - # 5
    frequency:    3.6129834146
  - # 6
    frequency:    5.3040476017
  - # 7
    frequency:    5.5562549995
  - # 8
    frequency:    5.9336907664
  - # 9
    frequency:    5.9862468443
  - # 10
    frequency:    6.1412582514
  - # 11
    frequency:    8.3177282730
  - # 12
    frequency:    9.6363788388
  - # 13
    frequency:   13.2394603157
  - # 14
    frequency:   15.6755087001
  - # 15
    frequency:   15.6782029150

- q-position: [    0.0707071,    0.0000000,    0.0000000 ]
  distance:    0.0236480
  band:
  - # 1
    frequency:    0.2808132385
  - # 2
    frequency:    0.7975318616
  - # 3
    frequency:    1.1755589164
  - # 4
    frequency:    3.4948698951
  - # 5
    frequency:    3.6332884141
  - # 6
    frequency:    5.2849345463
  - # 7
    frequency:    5.5525415700
  - # 8
    frequency:    5.9438575343
  - # 9
    frequency:    5.9842843823
  - # 10
    frequency:    6.1686452733
  - # 11
    frequency:    8.3107263962
  - # 12
    frequency:    9.6110864054
  - # 13
    frequency:   13.2336407840
  - # 14
    frequency:   15.6769966385
  - # 15
    frequency:   15.6799708451

- q-position: [    0.0757576,    0.0000000,    0.0000000 ]
  distance:    0.0253372
  band:
  - # 1
    frequency:    0.3200078471
  - # 2
    frequency:    0.8520605465
  - # 3
    frequency:    1.2585305609
  - # 4
    frequency:    3.4973066101
  - # 5
    frequency:    3.6546896181
  - # 6
    frequency:    5.2667335169
  - # 7
    frequency:    5.5487115593
  - # 8
    frequency:    5.9533248808
  - # 9
    frequency:    5.9820659332
  - # 10
    frequency:    6.1970928192
  - # 11
    frequency:    8.3033007057
  - # 12
    frequency:    9.5841622989
  - # 13
    frequency:   13.2273298776
  - # 14
    frequency:   15.6785640003
  - # 15
    frequency:   15.6817904132

- q-position: [    0.0808081,    0.0000000,    0.0000000 ]
  distance:    0.0270263
  band:
  - # 1
    frequency:    0.3613114703
  - # 2
    frequency:    0.9061147661
  - # 3
    frequency:    1.3412587118
  - # 4
    frequency:    3.4998210445
  - # 5
    frequency:    3.6771253449
  - # 6
    frequency:    5.2494601465
  - # 7
    frequency:    5.5447903756
  - # 8
    frequency:    5.9624381429
  - # 9
    frequency:    5.9795785764
  - # 10
    frequency:    6.2262129005
  - # 11
    frequency:    8.2954714574
  - # 12
    frequency:    9.5556563177
  - # 13
    frequency:   13.2205228976
  - # 14
    frequency:   15.6802029848
  - # 15
    frequency:   15.6836428510

- q-position: [    0.0858586,    0.0000000,    0.0000000 ]
  distance:    0.0287155
  band:
  - # 1
    frequency:    0.4046311240
  - # 2
    frequency:    0.9596725697
  - # 3
    frequency:    1.4237157240
  - # 4
    frequency:    3.5023974961
  - # 5
    frequency:    3.7005359641
  - # 6
    frequency:    5.2331265586
  - # 7
    frequency:    5.5408031112
  - # 8
    frequency:    5.9714629109
  - # 9
    frequency:    5.9768112327
  - # 10
    frequency:    6.2556970827
  - # 11
    frequency:    8.2872602031
  - # 12
    frequency:    9.5256210459
  - # 13
    frequency:   13.2132171083
  - # 14
    frequency:   15.6819048865
  - # 15
    frequency:   15.6855077667

- q-position: [    0.0909091,    0.0000000,    0.0000000 ]
  distance:    0.0304046
  band:
  - # 1
    frequency:    0.4498737274
  - # 2
    frequency:    1.0127137478
  - # 3
    frequency:    1.5058721548
  - # 4
    frequency:    3.5050200514
  - # 5
    frequency:    3.7248642865
  - # 6
    frequency:    5.2177421064
  - # 7
    frequency:    5.5367744115
  - # 8
    frequency:    5.9737548811
  - # 9
    frequency:    5.9806001710
  - # 10
    frequency:    6.2853004947
  - # 11
    frequency:    8.2786897329
  - # 12
    frequency:    9.4941117440
  - # 13
    frequency:   13.2054119792
  - # 14
    frequency:   15.6836600442
  - # 15
    frequency:   15.6873631867

- q-position: [    0.0959596,    0.0000000,    0.0000000 ]
  distance:    0.0320937
  band:
  - # 1
    frequency:    0.4969464946
  - # 2
    frequency:    1.0652199011
  - # 3
    frequency:    1.5876967604
  - # 4
    frequency:    3.5076727496
  - # 5
    frequency:    3.7500558294
  - # 6
    frequency:    5.2033139761
  - # 7
    frequency:    5.5327283744
  - # 8
    frequency:    5.9704027324
  - # 9
    frequency:    5.9900012714
  - # 10
    frequency:    6.3148262115
  - # 11
    frequency:    8.2697840005
  - # 12
    frequency:    9.4611862387
  - # 13
    frequency:   13.1971093905
  - # 14
    frequency:   15.6854577931
  - # 15
    frequency:   15.6891856230

- q-position: [    0.1010101,    0.0000000,    0.0000000 ]
  distance:    0.0337829
  band:
  - # 1
    frequency:    0.5457572581
  - # 2
    frequency:    1.1171745023
  - # 3
    frequency:    1.6691565043
  - # 4
    frequency:    3.5103397576
  - # 5
    frequency:    3.7760589631
  - # 6
    frequency:    5.1898476905
  - # 7
    frequency:    5.5286884798
  - # 8
    frequency:    5.9667503614
  - # 9
    frequency:    5.9997799499
  - # 10
    frequency:    6.3441127407
  - # 11
    frequency:    8.2605680294
  - # 12
    frequency:    9.4269048128
  - # 13
    frequency:   13.1883138034
  - # 14
    frequency:   15.6872864220
  - # 15
    frequency:   15.6909501673

- q-position: [    0.1060606,    0.0000000,    0.0000000 ]
  distance:    0.0354720
  band:
  - # 1
    frequency:    0.5962147309
  - # 2
    frequency:    1.1685629509
  - # 3
    frequency:    1.7502165780
  - # 4
    frequency:    3.5130055576
  - # 5
    frequency:    3.8028249440
  - # 6
    frequency:    5.1773475373
  - # 7
    frequency:    5.5246775445
  - # 8
    frequency:    5.9627957973
  - # 9
    frequency:    6.0100212306
  - # 10
    frequency:    6.3730247875
  - # 11
    frequency:    8.2510677957
  - # 12
    frequency:    9.3913300955
  - # 13
    frequency:   13.1790323897
  - # 14
    frequency:   15.6891331361
  - # 15
    frequency:   15.6926306103

- q-position: [    0.1111111,    0.0000000,    0.0000000 ]
  distance:    0.0371612
  band:
  - # 1
    frequency:    0.6482287172
  - # 2
    frequency:    1.2193726212
  - # 3
    frequency:    1.8308404335
  - # 4
    frequency:    3.5156551443
  - # 5
    frequency:    3.8303078429
  - # 6
    frequency:    5.1658169339
  - # 7
    frequency:    5.5207176980
  - # 8
    frequency:    5.9585395744
  - # 9
    frequency:    6.0207877886
  - # 10
    frequency:    6.4014466908
  - # 11
    frequency:    8.2413100852
  - # 12
    frequency:    9.3545269559
  - # 13
    frequency:   13.1692751226
  - # 14
    frequency:   15.6909840277
  - # 15
    frequency:   15.6941995851

- q-position: [    0.1161616,    0.0000000,    0.0000000 ]
  distance:    0.0388503
  band:
  - # 1
    frequency:    0.7017102786
  - # 2
    frequency:    1.2695929044
  - # 3
    frequency:    1.9109898280
  - # 4
    frequency:    3.5182742319
  - # 5
    frequency:    3.8584643781
  - # 6
    frequency:    5.1552587417
  - # 7
    frequency:    5.5168303761
  - # 8
    frequency:    5.9539847453
  - # 9
    frequency:    6.0321244643
  - # 10
    frequency:    6.4292778404
  - # 11
    frequency:    8.2313223199
  - # 12
    frequency:    9.3165624001
  - # 13
    frequency:   13.1590548269
  - # 14
    frequency:   15.6928240535
  - # 15
    frequency:   15.6956287336

- q-position: [    0.1212121,    0.0000000,    0.0000000 ]
  distance:    0.0405395
  band:
  - # 1
    frequency:    0.7565718652
  - # 2
    frequency:    1.3192152426
  - # 3
    frequency:    1.9906248781
  - # 4
    frequency:    3.5208494689
  - # 5
    frequency:    3.8872536642
  - # 6
    frequency:    5.1456755327
  - # 7
    frequency:    5.5130363270
  - # 8
    frequency:    5.9491368566
  - # 9
    frequency:    6.0440614921
  - # 10
    frequency:    6.4564295049
  - # 11
    frequency:    8.2211323506
  - # 12
    frequency:    9.2775054749
  - # 13
    frequency:   13.1483871908
  - # 14
    frequency:   15.6946370230
  - # 15
    frequency:   15.6968888936

- q-position: [    0.1262626,    0.0000000,    0.0000000 ]
  distance:    0.0422286
  band:
  - # 1
    frequency:    0.8127274184
  - # 2
    frequency:    1.3682331568
  - # 3
    frequency:    2.0697041264
  - # 4
    frequency:    3.5233686590
  - # 5
    frequency:    3.9166368862
  - # 6
    frequency:    5.1370698184
  - # 7
    frequency:    5.5093556268
  - # 8
    frequency:    5.9440038912
  - # 9
    frequency:    6.0566168569
  - # 10
    frequency:    6.4828226528
  - # 11
    frequency:    8.2107682098
  - # 12
    frequency:    9.2374271801
  - # 13
    frequency:   13.1372907399
  - # 14
    frequency:   15.6964055955
  - # 15
    frequency:   15.6979503037

- q-position: [    0.1313131,    0.0000000,    0.0000000 ]
  distance:    0.0439178
  band:
  - # 1
    frequency:    0.8700924518
  - # 2
    frequency:    1.4166422689
  - # 3
    frequency:    2.1481846178
  - # 4
    frequency:    3.5258209851
  - # 5
    frequency:    3.9465769111
  - # 6
    frequency:    5.1294442432
  - # 7
    frequency:    5.5058076993
  - # 8
    frequency:    5.9385961784
  - # 9
    frequency:    6.0697980665
  - # 10
    frequency:    6.5083864704
  - # 11
    frequency:    8.2002578223
  - # 12
    frequency:    9.1964003932
  - # 13
    frequency:   13.1257867755
  - # 14
    frequency:   15.6981112894
  - # 15
    frequency:   15.6987828231

- q-position: [    0.1363636,    0.0000000,    0.0000000 ]
  distance:    0.0456069
  band:
  - # 1
    frequency:    0.9285841160
  - # 2
    frequency:    1.4644403161
  - # 3
    frequency:    2.2260219870
  - # 4
    frequency:    3.5281972347
  - # 5
    frequency:    3.9770378472
  - # 6
    frequency:    5.1228017501
  - # 7
    frequency:    5.5024113370
  - # 8
    frequency:    5.9329262744
  - # 9
    frequency:    6.0836035350
  - # 10
    frequency:    6.5330573738
  - # 11
    frequency:    8.1896286653
  - # 12
    frequency:    9.1544998107
  - # 13
    frequency:   13.1138992794
  - # 14
    frequency:   15.6993561635
  - # 15
    frequency:   15.6997345026

- q-position: [    0.1414141,    0.0000000,    0.0000000 ]
  distance:    0.0472960
  band:
  - # 1
    frequency:    0.9881212523
  - # 2
    frequency:    1.5116271602
  - # 3
    frequency:    2.3031705578
  - # 4
    frequency:    3.5304900214
  - # 5
    frequency:    4.0079845618
  - # 6
    frequency:    5.1171457222
  - # 7
    frequency:    5.4991847195
  - # 8
    frequency:    5.9270088165
  - # 9
    frequency:    6.0980237083
  - # 10
    frequency:    6.5567783756
  - # 11
    frequency:    8.1789073749
  - # 12
    frequency:    9.1118019103
  - # 13
    frequency:   13.1016547888
  - # 14
    frequency:   15.6996401297
  - # 15
    frequency:   15.7012545466

- q-position: [    0.1464646,    0.0000000,    0.0000000 ]
  distance:    0.0489852
  band:
  - # 1
    frequency:    1.0486244374
  - # 2
    frequency:    1.5582047900
  - # 3
    frequency:    2.3795834533
  - # 4
    frequency:    3.5326940010
  - # 5
    frequency:    4.0393821663
  - # 6
    frequency:    5.1124801070
  - # 7
    frequency:    5.4961454254
  - # 8
    frequency:    5.9208603540
  - # 9
    frequency:    6.1130420160
  - # 10
    frequency:    6.5794987090
  - # 11
    frequency:    8.1681192914
  - # 12
    frequency:    9.0683849431
  - # 13
    frequency:   13.0890822421
  - # 14
    frequency:   15.6996048652
  - # 15
    frequency:   15.7026496926

- q-position: [    0.1515152,    0.0000000,    0.0000000 ]
  distance:    0.0506743
  band:
  - # 1
    frequency:    1.1100160243
  - # 2
    frequency:    1.6041773180
  - # 3
    frequency:    2.4552127190
  - # 4
    frequency:    3.5348060750
  - # 5
    frequency:    4.0711954798
  - # 6
    frequency:    5.1088095281
  - # 7
    frequency:    5.4933104364
  - # 8
    frequency:    5.9144991590
  - # 9
    frequency:    6.1286357059
  - # 10
    frequency:    6.6011736429
  - # 11
    frequency:    8.1572879366
  - # 12
    frequency:    9.0243289625
  - # 13
    frequency:   13.0762128000
  - # 14
    frequency:   15.6992211010
  - # 15
    frequency:   15.7038972320

- q-position: [    0.1565657,    0.0000000,    0.0000000 ]
  distance:    0.0523635
  band:
  - # 1
    frequency:    1.1722201783
  - # 2
    frequency:    1.6495509707
  - # 3
    frequency:    2.5300094596
  - # 4
    frequency:    3.5368255793
  - # 5
    frequency:    4.1033884772
  - # 6
    frequency:    5.1061393889
  - # 7
    frequency:    5.4906961295
  - # 8
    frequency:    5.9079450213
  - # 9
    frequency:    6.1447765951
  - # 10
    frequency:    6.6217644381
  - # 11
    frequency:    8.1464344159
  - # 12
    frequency:    8.9797159028
  - # 13
    frequency:   13.0630796433
  - # 14
    frequency:   15.6984604024
  - # 15
    frequency:   15.7049735509

- q-position: [    0.1616162,    0.0000000,    0.0000000 ]
  distance:    0.0540526
  band:
  - # 1
    frequency:    1.2351629112
  - # 2
    frequency:    1.6943340722
  - # 3
    frequency:    2.6039239902
  - # 4
    frequency:    3.5387544507
  - # 5
    frequency:    4.1359237327
  - # 6
    frequency:    5.1044759740
  - # 7
    frequency:    5.4883182554
  - # 8
    frequency:    5.9012190309
  - # 9
    frequency:    6.1614317582
  - # 10
    frequency:    6.6412384100
  - # 11
    frequency:    8.1355767328
  - # 12
    frequency:    8.9346297218
  - # 13
    frequency:   13.0497177516
  - # 14
    frequency:   15.6972954137
  - # 15
    frequency:   15.7058542178

- q-position: [    0.1666667,    0.0000000,    0.0000000 ]
  distance:    0.0557418
  band:
  - # 1
    frequency:    1.2987721136
  - # 2
    frequency:    1.7385370215
  - # 3
    frequency:    2.6769060030
  - # 4
    frequency:    3.5405973665
  - # 5
    frequency:    4.1687618640
  - # 6
    frequency:    5.1038265492
  - # 7
    frequency:    5.4861919034
  - # 8
    frequency:    5.8943433532
  - # 9
    frequency:    6.1785641656
  - # 10
    frequency:    6.6595690684
  - # 11
    frequency:    8.1247290067
  - # 12
    frequency:    8.8891566285
  - # 13
    frequency:   13.0361636628
  - # 14
    frequency:   15.6957000956
  - # 15
    frequency:   15.7065140856

- q-position: [    0.1717172,    0.0000000,    0.0000000 ]
  distance:    0.0574309
  band:
  - # 1
    frequency:    1.3629775843
  - # 2
    frequency:    1.7821722622
  - # 3
    frequency:    2.7489047527
  - # 4
    frequency:    3.5423618516
  - # 5
    frequency:    4.2018609854
  - # 6
    frequency:    5.1041994637
  - # 7
    frequency:    5.4843314500
  - # 8
    frequency:    5.8873410007
  - # 9
    frequency:    6.1961332759
  - # 10
    frequency:    6.6767363115
  - # 11
    frequency:    8.1139005725
  - # 12
    frequency:    8.8433854205
  - # 13
    frequency:   13.0224552181
  - # 14
    frequency:   15.6936499548
  - # 15
    frequency:   15.7069274074

- q-position: [    0.1767677,    0.0000000,    0.0000000 ]
  distance:    0.0591201
  band:
  - # 1
    frequency:    1.4277110578
  - # 2
    frequency:    1.8252542433
  - # 3
    frequency:    2.8198692591
  - # 4
    frequency:    3.5440583470
  - # 5
    frequency:    4.2351761789
  - # 6
    frequency:    5.1056042528
  - # 7
    frequency:    5.4827504912
  - # 8
    frequency:    5.8802356058
  - # 9
    frequency:    6.2140955867
  - # 10
    frequency:    6.6927266529
  - # 11
    frequency:    8.1030949421
  - # 12
    frequency:    8.7974079676
  - # 13
    frequency:   13.0086312929
  - # 14
    frequency:   15.6911222633
  - # 15
    frequency:   15.7070679649

- q-position: [    0.1818182,    0.0000000,    0.0000000 ]
  distance:    0.0608092
  band:
  - # 1
    frequency:    1.4929062279
  - # 2
    frequency:    1.8677993719
  - # 3
    frequency:    2.8897485318
  - # 4
    frequency:    3.5457002338
  - # 5
    frequency:    4.2686589909
  - # 6
    frequency:    5.1080517386
  - # 7
    frequency:    5.4814617602
  - # 8
    frequency:    5.8730511994
  - # 9
    frequency:    6.2324051414
  - # 10
    frequency:    6.7075334627
  - # 11
    frequency:    8.0923085927
  - # 12
    frequency:    8.7513198861
  - # 13
    frequency:   12.9947315167
  - # 14
    frequency:   15.6880962649
  - # 15
    frequency:   15.7069092095

- q-position: [    0.1868687,    0.0000000,    0.0000000 ]
  distance:    0.0624983
  band:
  - # 1
    frequency:    1.5584987661
  - # 2
    frequency:    1.9098259540
  - # 3
    frequency:    2.9584918158
  - # 4
    frequency:    3.5473038094
  - # 5
    frequency:    4.3022569672
  - # 6
    frequency:    5.1115541203
  - # 7
    frequency:    5.4804770300
  - # 8
    frequency:    5.8658119995
  - # 9
    frequency:    6.2510139928
  - # 10
    frequency:    6.7211572050
  - # 11
    frequency:    8.0815295356
  - # 12
    frequency:    8.7052214641
  - # 13
    frequency:   12.9807959821
  - # 14
    frequency:   15.6845533690
  - # 15
    frequency:   15.7064244150

- q-position: [    0.1919192,    0.0000000,    0.0000000 ]
  distance:    0.0641875
  band:
  - # 1
    frequency:    1.6244263355
  - # 2
    frequency:    1.9513541235
  - # 3
    frequency:    3.0260488599
  - # 4
    frequency:    3.5488882088
  - # 5
    frequency:    4.3359132402
  - # 6
    frequency:    5.1161250445
  - # 7
    frequency:    5.4798070025
  - # 8
    frequency:    5.8585422142
  - # 9
    frequency:    6.2698726194
  - # 10
    frequency:    6.7336056535
  - # 11
    frequency:    8.0707356024
  - # 12
    frequency:    8.6592189187
  - # 13
    frequency:   12.9668649469
  - # 14
    frequency:   15.6804773290
  - # 15
    frequency:   15.7055868410

- q-position: [    0.1969697,    0.0000000,    0.0000000 ]
  distance:    0.0658766
  band:
  - # 1
    frequency:    1.6906285963
  - # 2
    frequency:    1.9924057572
  - # 3
    frequency:    3.0923702098
  - # 4
    frequency:    3.5504752705
  - # 5
    frequency:    4.3695661877
  - # 6
    frequency:    5.1217796367
  - # 7
    frequency:    5.4794611869
  - # 8
    frequency:    5.8512658622
  - # 9
    frequency:    6.2889302947
  - # 10
    frequency:    6.7448940696
  - # 11
    frequency:    8.0598923621
  - # 12
    frequency:    8.6134260835
  - # 13
    frequency:   12.9529785296
  - # 14
    frequency:   15.6758544048
  - # 15
    frequency:   15.7043699062

- q-position: [    0.2020202,    0.0000000,    0.0000000 ]
  distance:    0.0675658
  band:
  - # 1
    frequency:    1.7570472039
  - # 2
    frequency:    2.0330043728
  - # 3
    frequency:    3.1574075239
  - # 4
    frequency:    3.5520893434
  - # 5
    frequency:    4.4031491889
  - # 6
    frequency:    5.1285344712
  - # 7
    frequency:    5.4794477684
  - # 8
    frequency:    5.8440066152
  - # 9
    frequency:    6.3081354041
  - # 10
    frequency:    6.7550453283
  - # 11
    frequency:    8.0489505576
  - # 12
    frequency:    8.5679666537
  - # 13
    frequency:   12.9391763997
  - # 14
    frequency:   15.6706735087
  - # 15
    frequency:   15.7027473694

- q-position: [    0.2070707,    0.0000000,    0.0000000 ]
  distance:    0.0692549
  band:
  - # 1
    frequency:    1.8236257971
  - # 2
    frequency:    2.0731750089
  - # 3
    frequency:    3.2211139123
  - # 4
    frequency:    3.5537570346
  - # 5
    frequency:    4.4365905103
  - # 6
    frequency:    5.1364074477
  - # 7
    frequency:    5.4797734711
  - # 8
    frequency:    5.8367876643
  - # 9
    frequency:    6.3274357100
  - # 10
    frequency:    6.7640899784
  - # 11
    frequency:    8.0378429309
  - # 12
    frequency:    8.5229771330
  - # 13
    frequency:   12.9254974667
  - # 14
    frequency:   15.6649263346
  - # 15
    frequency:   15.7006935179

- q-position: [    0.2121212,    0.0000000,    0.0000000 ]
  distance:    0.0709441
  band:
  - # 1
    frequency:    1.8903099766