nqpoint: 300    
npath: 3      
segment_nqpoint:
- 100
- 100
- 100
labels:
- [ 'G', 'M' ]
- [ 'M', 'K' ]
- [ 'K', 'G' ]
reciprocal_lattice:
- [   0.30166921,   0.17416880,   0.00000000 ] # a*
- [   0.00000000,   0.34833760,   0.00000000 ] # b*
- [   0.00000000,   0.00000000,   0.03831607 ] # c*
natom: 7      
lattice:
- [     3.314889187841422,     0.000000000000000,     0.000000000000000 ] # a
- [    -1.657444593920711,     2.870778247415530,     0.000000000000000 ] # b
- [     0.000000000000000,     0.000000000000000,    26.098707701749916 ] # c
points:
- symbol: C # 1
  coordinates: [  0.333332985432215,  0.666666983183674,  0.609522654832913 ]
  mass: 12.010700
- symbol: Cl # 2
  coordinates: [  0.666666984744047,  0.333332985985144,  0.344844660618830 ]
  mass: 35.453000
- symbol: N # 3
  coordinates: [  0.000000000000000,  0.000000000000000,  0.445479215952691 ]
  mass: 14.006700
- symbol: N # 4
  coordinates: [  0.333332985432215,  0.666666983183674,  0.655155339381170 ]
  mass: 14.006700
- symbol: S # 5
  coordinates: [  0.333332985432215,  0.666666983183674,  0.545271284114090 ]
  mass: 32.065000
- symbol: Ti # 6
  coordinates: [  0.333332985432215,  0.666666983183674,  0.408597082715429 ]
  mass: 47.867000
- symbol: Ti # 7
  coordinates: [  0.666666984744047,  0.333332985985144,  0.485885674389677 ]
  mass: 47.867000

phonon:
- q-position: [    0.0000000,    0.0000000,    0.0000000 ]
  distance:    0.0000000
  band:
  - # 1
    frequency:   -0.0000031066
  - # 2
    frequency:   -0.0000017061
  - # 3
    frequency:    0.0000032200
  - # 4
    frequency:    1.0740678997
  - # 5
    frequency:    1.0740678997
  - # 6
    frequency:    4.0067891632
  - # 7
    frequency:    4.0067891632
  - # 8
    frequency:    5.6670328987
  - # 9
    frequency:    6.6055540264
  - # 10
    frequency:    6.6055540264
  - # 11
    frequency:    8.6430162493
  - # 12
    frequency:    8.6430162493
  - # 13
    frequency:    9.0016722151
  - # 14
    frequency:   11.1813160999
  - # 15
    frequency:   11.1813160999
  - # 16
    frequency:   11.7477659502
  - # 17
    frequency:   14.2421880572
  - # 18
    frequency:   15.9727983496
  - # 19
    frequency:   15.9727983496
  - # 20
    frequency:   20.4499862816
  - # 21
    frequency:   64.7943636010

- q-position: [    0.0050505,    0.0000000,    0.0000000 ]
  distance:    0.0017593
  band:
  - # 1
    frequency:   -0.0771175385
  - # 2
    frequency:    0.0782263964
  - # 3
    frequency:    0.1523204584
  - # 4
    frequency:    1.0749365190
  - # 5
    frequency:    1.0777421048
  - # 6
    frequency:    4.0070766499
  - # 7
    frequency:    4.0085114286
  - # 8
    frequency:    5.6662468358
  - # 9
    frequency:    6.6054279815
  - # 10
    frequency:    6.6069268777
  - # 11
    frequency:    8.6426068070
  - # 12
    frequency:    8.6430742305
  - # 13
    frequency:    9.0013750010
  - # 14
    frequency:   11.1809980006
  - # 15
    frequency:   11.1812828124
  - # 16
    frequency:   11.7467502045
  - # 17
    frequency:   14.2419321664
  - # 18
    frequency:   15.9722700967
  - # 19
    frequency:   15.9727252825
  - # 20
    frequency:   20.4498873054
  - # 21
    frequency:   64.7942627051

- q-position: [    0.0101010,    0.0000000,    0.0000000 ]
  distance:    0.0035186
  band:
  - # 1
    frequency:   -0.0735656500
  - # 2
    frequency:    0.1562608085
  - # 3
    frequency:    0.2723906370
  - # 4
    frequency:    1.0775522654
  - # 5
    frequency:    1.0887820471
  - # 6
    frequency:    4.0079396939
  - # 7
    frequency:    4.0136638578
  - # 8
    frequency:    5.6639075607
  - # 9
    frequency:    6.6050501670
  - # 10
    frequency:    6.6110250651
  - # 11
    frequency:    8.6413796601
  - # 12
    frequency:    8.6432470780
  - # 13
    frequency:    9.0004851784
  - # 14
    frequency:   11.1800453026
  - # 15
    frequency:   11.1811837304
  - # 16
    frequency:   11.7437039219
  - # 17
    frequency:   14.2411632351
  - # 18
    frequency:   15.9706904094
  - # 19
    frequency:   15.9725072482
  - # 20
    frequency:   20.4495905898
  - # 21
    frequency:   64.7939602329

- q-position: [    0.0151515,    0.0000000,    0.0000000 ]
  distance:    0.0052778
  band:
  - # 1
    frequency:   -0.0451142369
  - # 2
    frequency:    0.2339042907
  - # 3
    frequency:    0.3948095957
  - # 4
    frequency:    1.0819460040
  - # 5
    frequency:    1.1072615910
  - # 6
    frequency:    4.0093800387
  - # 7
    frequency:    4.0222036633
  - # 8
    frequency:    5.6600706191
  - # 9
    frequency:    6.6044215451
  - # 10
    frequency:    6.6177887496
  - # 11
    frequency:    8.6393383428
  - # 12
    frequency:    8.6435314916
  - # 13
    frequency:    8.9990082140
  - # 14
    frequency:   11.1784627990
  - # 15
    frequency:   11.1810211546
  - # 16
    frequency:   11.7386300345
  - # 17
    frequency:   14.2398775058
  - # 18
    frequency:   15.9680744344
  - # 19
    frequency:   15.9721477320
  - # 20
    frequency:   20.4490967733
  - # 21
    frequency:   64.7934568309

- q-position: [    0.0202020,    0.0000000,    0.0000000 ]
  distance:    0.0070371
  band:
  - # 1
    frequency:    0.0602389634
  - # 2
    frequency:    0.3109431720
  - # 3
    frequency:    0.5170572184
  - # 4
    frequency:    1.0881733087
  - # 5
    frequency:    1.1333777973
  - # 6
    frequency:    4.0114005612
  - # 7
    frequency:    4.0340605572
  - # 8
    frequency:    5.6548248037
  - # 9
    frequency:    6.6035437260
  - # 10
    frequency:    6.6271221996
  - # 11
    frequency:    8.6364887257
  - # 12
    frequency:    8.6439219360
  - # 13
    frequency:    8.9969532442
  - # 14
    frequency:   11.1762584565
  - # 15
    frequency:   11.1807987819
  - # 16
    frequency:   11.7315336575
  - # 17
    frequency:   14.2380687814
  - # 18
    frequency:   15.9644471927
  - # 19
    frequency:   15.9716524918
  - # 20
    frequency:   20.4484069169
  - # 21
    frequency:   64.7927535732

- q-position: [    0.0252525,    0.0000000,    0.0000000 ]
  distance:    0.0087964
  band:
  - # 1
    frequency:    0.1083679056
  - # 2
    frequency:    0.3871396207
  - # 3
    frequency:    0.6371854025
  - # 4
    frequency:    1.0963211202
  - # 5
    frequency:    1.1675629401
  - # 6
    frequency:    4.0140052278
  - # 7
    frequency:    4.0491382100
  - # 8
    frequency:    5.6482871305
  - # 9
    frequency:    6.6024189782
  - # 10
    frequency:    6.6388991430
  - # 11
    frequency:    8.6328389875
  - # 12
    frequency:    8.6444105855
  - # 13
    frequency:    8.9943331125
  - # 14
    frequency:   11.1734433823
  - # 15
    frequency:   11.1805214930
  - # 16
    frequency:   11.7224224328
  - # 17
    frequency:   14.2357285264
  - # 18
    frequency:   15.9598432447
  - # 19
    frequency:   15.9710294826
  - # 20
    frequency:   20.4475225005
  - # 21
    frequency:   64.7918519574

- q-position: [    0.0303030,    0.0000000,    0.0000000 ]
  distance:    0.0105557
  band:
  - # 1
    frequency:    0.1506146084
  - # 2
    frequency:    0.4622195739
  - # 3
    frequency:    0.7533482169
  - # 4
    frequency:    1.1065179524
  - # 5
    frequency:    1.2106273194
  - # 6
    frequency:    4.0171990324
  - # 7
    frequency:    4.0673161511
  - # 8
    frequency:    5.6405969271
  - # 9
    frequency:    6.6010502408
  - # 10
    frequency:    6.6529691422
  - # 11
    frequency:    8.6283995756
  - # 12
    frequency:    8.6449872478
  - # 13
    frequency:    8.9911644233
  - # 14
    frequency:   11.1700317771
  - # 15
    frequency:   11.1801950429
  - # 16
    frequency:   11.7113070145
  - # 17
    frequency:   14.2328460175
  - # 18
    frequency:   15.9543062231
  - # 19
    frequency:   15.9702887518
  - # 20
    frequency:   20.4464454163
  - # 21
    frequency:   64.7907538988

- q-position: [    0.0353535,    0.0000000,    0.0000000 ]
  distance:    0.0123150
  band:
  - # 1
    frequency:    0.1921488903
  - # 2
    frequency:    0.5358570906
  - # 3
    frequency:    0.8634392762
  - # 4
    frequency:    1.1189483475
  - # 5
    frequency:    1.2638529213
  - # 6
    frequency:    4.0209879166
  - # 7
    frequency:    4.0884519834
  - # 8
    frequency:    5.6319098098
  - # 9
    frequency:    6.5994411392
  - # 10
    frequency:    6.6691642246
  - # 11
    frequency:    8.6231831559
  - # 12
    frequency:    8.6456392635
  - # 13
    frequency:    8.9874676102
  - # 14
    frequency:   11.1660408755
  - # 15
    frequency:   11.1798256373
  - # 16
    frequency:   11.6982017020
  - # 17
    frequency:   14.2294085476
  - # 18
    frequency:   15.9478882363
  - # 19
    frequency:   15.9694423077
  - # 20
    frequency:   20.4451779622
  - # 21
    frequency:   64.7894617222

- q-position: [    0.0404040,    0.0000000,    0.0000000 ]
  distance:    0.0140742
  band:
  - # 1
    frequency:    0.2344646416
  - # 2
    frequency:    0.6076546848
  - # 3
    frequency:    0.9651817537
  - # 4
    frequency:    1.1338718425
  - # 5
    frequency:    1.3288033803
  - # 6
    frequency:    4.0253786705
  - # 7
    frequency:    4.1123837754
  - # 8
    frequency:    5.6223921990
  - # 9
    frequency:    6.5975960035
  - # 10
    frequency:    6.6873051213
  - # 11
    frequency:    8.6172045544
  - # 12
    frequency:    8.6463513809
  - # 13
    frequency:    8.9832670201
  - # 14
    frequency:   11.1614908718
  - # 15
    frequency:   11.1794193695
  - # 16
    frequency:   11.6831252397
  - # 17
    frequency:   14.2254016927
  - # 18
    frequency:   15.9406491441
  - # 19
    frequency:   15.9685039613
  - # 20
    frequency:   20.4437228321
  - # 21
    frequency:   64.7879781529

- q-position: [    0.0454545,    0.0000000,    0.0000000 ]
  distance:    0.0158335
  band:
  - # 1
    frequency:    0.2781960653
  - # 2
    frequency:    0.6771210689
  - # 3
    frequency:    1.0568721265
  - # 4
    frequency:    1.1516448878
  - # 5
    frequency:    1.4065434594
  - # 6
    frequency:    4.0303788142
  - # 7
    frequency:    4.1389324914
  - # 8
    frequency:    5.6122168180
  - # 9
    frequency:    6.5955198862
  - # 10
    frequency:    6.7072066804
  - # 11
    frequency:    8.6104806898
  - # 12
    frequency:    8.6471056077
  - # 13
    frequency:    8.9785910115
  - # 14
    frequency:   11.1564048317
  - # 15
    frequency:   11.1789814745
  - # 16
    frequency:   11.6661018124
  - # 17
    frequency:   14.2208096457
  - # 18
    frequency:   15.9326557133
  - # 19
    frequency:   15.9674891458
  - # 20
    frequency:   20.4420831057
  - # 21
    frequency:   64.7863063053

- q-position: [    0.0505051,    0.0000000,    0.0000000 ]
  distance:    0.0175928
  band:
  - # 1
    frequency:    0.3236449996
  - # 2
    frequency:    0.7436526702
  - # 3
    frequency:    1.1384451502
  - # 4
    frequency:    1.1727392542
  - # 5
    frequency:    1.4965593239
  - # 6
    frequency:    4.0359964594
  - # 7
    frequency:    4.1679043319
  - # 8
    frequency:    5.6015593970
  - # 9
    frequency:    6.5932185814
  - # 10
    frequency:    6.7286822403
  - # 11
    frequency:    8.6030304995
  - # 12
    frequency:    8.6478810383
  - # 13
    frequency:    8.9734720645
  - # 14
    frequency:   11.1508085903
  - # 15
    frequency:   11.1785153329
  - # 16
    frequency:   11.6471622947
  - # 17
    frequency:   14.2156156237
  - # 18
    frequency:   15.9239806585
  - # 19
    frequency:   15.9664147137
  - # 20
    frequency:   20.4402622366
  - # 21
    frequency:   64.7844496710

- q-position: [    0.0555556,    0.0000000,    0.0000000 ]
  distance:    0.0193521
  band:
  - # 1
    frequency:    0.3709511824
  - # 2
    frequency:    0.8065354206
  - # 3
    frequency:    1.1977403549
  - # 4
    frequency:    1.2116511143
  - # 5
    frequency:    1.5965740033
  - # 6
    frequency:    4.0422401507
  - # 7
    frequency:    4.1990928733
  - # 8
    frequency:    5.5905966215
  - # 9
    frequency:    6.5906986422
  - # 10
    frequency:    6.7515469325
  - # 11
    frequency:    8.5948748587
  - # 12
    frequency:    8.6486536614
  - # 13
    frequency:    8.9679468985
  - # 14
    frequency:   11.1447306351
  - # 15
    frequency:   11.1780211126
  - # 16
    frequency:   11.6263458533
  - # 17
    frequency:   14.2098023501
  - # 18
    frequency:   15.9147015793
  - # 19
    frequency:   15.9652987164
  - # 20
    frequency:   20.4382640389
  - # 21
    frequency:   64.7824121043

- q-position: [    0.0606061,    0.0000000,    0.0000000 ]
  distance:    0.0211114
  band:
  - # 1
    frequency:    0.4201642475
  - # 2
    frequency:    0.8649972389
  - # 3
    frequency:    1.2272950055
  - # 4
    frequency:    1.2790087284
  - # 5
    frequency:    1.7035895659
  - # 6
    frequency:    4.0491186854
  - # 7
    frequency:    4.2322809230
  - # 8
    frequency:    5.5795052326
  - # 9
    frequency:    6.5879673958
  - # 10
    frequency:    6.7756200146
  - # 11
    frequency:    8.5860364952
  - # 12
    frequency:    8.6493961536
  - # 13
    frequency:    8.9620565898
  - # 14
    frequency:   11.1382019752
  - # 15
    frequency:   11.1774938671
  - # 16
    frequency:   11.6037020729
  - # 17
    frequency:   14.2033526097
  - # 18
    frequency:   15.9048998081
  - # 19
    frequency:   15.9641601670
  - # 20
    frequency:   20.4360926728
  - # 21
    frequency:   64.7801978076

- q-position: [    0.0656566,    0.0000000,    0.0000000 ]
  distance:    0.0228707
  band:
  - # 1
    frequency:    0.4712797012
  - # 2
    frequency:    0.9183440046
  - # 3
    frequency:    1.2619757796
  - # 4
    frequency:    1.3427380034
  - # 5
    frequency:    1.8149499235
  - # 6
    frequency:    4.0566409132
  - # 7
    frequency:    4.2672420324
  - # 8
    frequency:    5.5684621179
  - # 9
    frequency:    6.5850329547
  - # 10
    frequency:    6.8007263971
  - # 11
    frequency:    8.5765399012
  - # 12
    frequency:    8.6500776695
  - # 13
    frequency:    8.9558466768
  - # 14
    frequency:   11.1312559952
  - # 15
    frequency:   11.1769207873
  - # 16
    frequency:   11.5792938993
  - # 17
    frequency:   14.1962498721
  - # 18
    frequency:   15.8946591838
  - # 19
    frequency:   15.9630187916
  - # 20
    frequency:   20.4337526288
  - # 21
    frequency:   64.7778113143

- q-position: [    0.0707071,    0.0000000,    0.0000000 ]
  distance:    0.0246299
  band:
  - # 1
    frequency:    0.5242590279
  - # 2
    frequency:    0.9661692051
  - # 3
    frequency:    1.3020717452
  - # 4
    frequency:    1.4043945422
  - # 5
    frequency:    1.9287023561
  - # 6
    frequency:    4.0648155144
  - # 7
    frequency:    4.3037416431
  - # 8
    frequency:    5.5576452006
  - # 9
    frequency:    6.5819042229
  - # 10
    frequency:    6.8266975523
  - # 11
    frequency:    8.5664112414
  - # 12
    frequency:    8.6506636472
  - # 13
    frequency:    8.9493672324
  - # 14
    frequency:   11.1239282959
  - # 15
    frequency:   11.1762770900
  - # 16
    frequency:   11.5532019078
  - # 17
    frequency:   14.1884789714
  - # 18
    frequency:   15.8840647745
  - # 19
    frequency:   15.9618947701
  - # 20
    frequency:   20.4312487111
  - # 21
    frequency:   64.7752574716

- q-position: [    0.0757576,    0.0000000,    0.0000000 ]
  distance:    0.0263892
  band:
  - # 1
    frequency:    0.5790418503
  - # 2
    frequency:    1.0085358446
  - # 3
    frequency:    1.3474069687
  - # 4
    frequency:    1.4649514119
  - # 5
    frequency:    2.0435115067
  - # 6
    frequency:    4.0736507568
  - # 7
    frequency:    4.3415378782
  - # 8
    frequency:    5.5472349295
  - # 9
    frequency:    6.5785908953
  - # 10
    frequency:    6.8533719826
  - # 11
    frequency:    8.5556782608
  - # 12
    frequency:    8.6511156571
  - # 13
    frequency:    8.9426728761
  - # 14
    frequency:   11.1162565200
  - # 15
    frequency:   11.1755196442
  - # 16
    frequency:   11.5255307885
  - # 17
    frequency:   14.1800268274
  - # 18
    frequency:   15.8732015727
  - # 19
    frequency:   15.9608084715
  - # 20
    frequency:   20.4285860198
  - # 21
    frequency:   64.7725414217

- q-position: [    0.0808081,    0.0000000,    0.0000000 ]
  distance:    0.0281485
  band:
  - # 1
    frequency:    0.6355537242
  - # 2
    frequency:    1.0459905900
  - # 3
    frequency:    1.3973267946
  - # 4
    frequency:    1.5249817443
  - # 5
    frequency:    2.1584727338
  - # 6
    frequency:    4.0831542344
  - # 7
    frequency:    4.3803820307
  - # 8
    frequency:    5.5374161760
  - # 9
    frequency:    6.5751034494
  - # 10
    frequency:    6.8805953991
  - # 11
    frequency:    8.5443701923
  - # 12
    frequency:    8.6513913325
  - # 13
    frequency:    8.9358226837
  - # 14
    frequency:   11.1082801648
  - # 15
    frequency:   11.1745767296
  - # 16
    frequency:   11.4964196498
  - # 17
    frequency:   14.1708831857
  - # 18
    frequency:   15.8621531915
  - # 19
    frequency:   15.9597801856
  - # 20
    frequency:   20.4257699324
  - # 21
    frequency:   64.7696685819

- q-position: [    0.0858586,    0.0000000,    0.0000000 ]
  distance:    0.0299078
  band:
  - # 1
    frequency:    0.6937113574
  - # 2
    frequency:    1.0793872384
  - # 3
    frequency:    1.4508747998
  - # 4
    frequency:    1.5848080033
  - # 5
    frequency:    2.2729589259
  - # 6
    frequency:    4.0933325860
  - # 7
    frequency:    4.4200188559
  - # 8
    frequency:    5.5283803363
  - # 9
    frequency:    6.5714531271
  - # 10
    frequency:    6.9082207313
  - # 11
    frequency:    8.5325176646
  - # 12
    frequency:    8.6514444390
  - # 13
    frequency:    8.9288799397
  - # 14
    frequency:   11.1000403824
  - # 15
    frequency:   11.1733310091
  - # 16
    frequency:   11.4660590547
  - # 17
    frequency:   14.1610413546
  - # 18
    frequency:   15.8510005931
  - # 19
    frequency:   15.9588298554
  - # 20
    frequency:   20.4228060850
  - # 21
    frequency:   64.7666446245

- q-position: [    0.0909091,    0.0000000,    0.0000000 ]
  distance:    0.0316671
  band:
  - # 1
    frequency:    0.7534262160
  - # 2
    frequency:    1.1096486166
  - # 3
    frequency:    1.5070313074
  - # 4
    frequency:    1.6446005335
  - # 5
    frequency:    2.3865181859
  - # 6
    frequency:    4.1041911982
  - # 7
    frequency:    4.4601868399
  - # 8
    frequency:    5.5203274091
  - # 9
    frequency:    6.5676519062
  - # 10
    frequency:    6.9361080554
  - # 11
    frequency:    8.5201526116
  - # 12
    frequency:    8.6512251510
  - # 13
    frequency:    8.9219116626
  - # 14
    frequency:   11.0915797670
  - # 15
    frequency:   11.1715903654
  - # 16
    frequency:   11.4347201385
  - # 17
    frequency:   14.1504989080
  - # 18
    frequency:   15.8398208810
  - # 19
    frequency:   15.9579768124
  - # 20
    frequency:   20.4197003517
  - # 21
    frequency:   64.7634754555

- q-position: [    0.0959596,    0.0000000,    0.0000000 ]
  distance:    0.0334263
  band:
  - # 1
    frequency:    0.8146070713
  - # 2
    frequency:    1.1375985626
  - # 3
    frequency:    1.5648817997
  - # 4
    frequency:    1.7044382086
  - # 5
    frequency:    2.4988095590
  - # 6
    frequency:    4.1157338952
  - # 7
    frequency:    4.5006187092
  - # 8
    frequency:    5.5134677652
  - # 9
    frequency:    6.5637124600
  - # 10
    frequency:    6.9641245009
  - # 11
    frequency:    8.5073081845
  - # 12
    frequency:    8.6506806201
  - # 13
    frequency:    8.9149878193
  - # 14
    frequency:   11.0829421319
  - # 15
    frequency:   11.1690370756
  - # 16
    frequency:   11.4028053342
  - # 17
    frequency:   14.1392583268
  - # 18
    frequency:   15.8286861900
  - # 19
    frequency:   15.9572395191
  - # 20
    frequency:   20.4164588253
  - # 21
    frequency:   64.7601671927

- q-position: [    0.1010101,    0.0000000,    0.0000000 ]
  distance:    0.0351856
  band:
  - # 1
    frequency:    0.8771618177
  - # 2
    frequency:    1.1638955566
  - # 3
    frequency:    1.6236836604
  - # 4
    frequency:    1.7643450423
  - # 5
    frequency:    2.6095629200
  - # 6
    frequency:    4.1279626170
  - # 7
    frequency:    4.5410425636
  - # 8
    frequency:    5.5080232307
  - # 9
    frequency:    6.5596481033
  - # 10
    frequency:    6.9921441750
  - # 11
    frequency:    8.4940186648
  - # 12
    frequency:    8.6497559211
  - # 13
    frequency:    8.9081801456
  - # 14
    frequency:   11.0741722768
  - # 15
    frequency:   11.1651404448
  - # 16
    frequency:   11.3709355870
  - # 17
    frequency:   14.1273275490
  - # 18
    frequency:   15.8176627036
  - # 19
    frequency:   15.9566353201
  - # 20
    frequency:   20.4130877959
  - # 21
    frequency:   64.7567261437

- q-position: [    0.1060606,    0.0000000,    0.0000000 ]
  distance:    0.0369449
  band:
  - # 1
    frequency:    0.9409987705
  - # 2
    frequency:    1.1890336320
  - # 3
    frequency:    1.6828656131
  - # 4
    frequency:    1.8243123074
  - # 5
    frequency:    2.7185534350
  - # 6
    frequency:    4.1408770940
  - # 7
    frequency:    4.5811841523
  - # 8
    frequency:    5.5042269849
  - # 9
    frequency:    6.5554727263
  - # 10
    frequency:    7.0200481242
  - # 11
    frequency:    8.4803193816
  - # 12
    frequency:    8.6483954519
  - # 13
    frequency:    8.9015604976
  - # 14
    frequency:   11.0653157459
  - # 15
    frequency:   11.1590206750
  - # 16
    frequency:   11.3400862825
  - # 17
    frequency:   14.1147204038
  - # 18
    frequency:   15.8068098270
  - # 19
    frequency:   15.9561802059
  - # 20
    frequency:   20.4095937306
  - # 21
    frequency:   64.7531587832

- q-position: [    0.1111111,    0.0000000,    0.0000000 ]
  distance:    0.0387042
  band:
  - # 1
    frequency:    1.0060275813
  - # 2
    frequency:    1.2133706907
  - # 3
    frequency:    1.7419997262
  - # 4
    frequency:    1.8843120133
  - # 5
    frequency:    2.8255847095
  - # 6
    frequency:    4.1544745199
  - # 7
    frequency:    4.6207709633
  - # 8
    frequency:    5.5023216348
  - # 9
    frequency:    6.5512007130
  - # 10
    frequency:    7.0477243405
  - # 11
    frequency:    8.4662466294
  - # 12
    frequency:    8.6465448220
  - # 13
    frequency:    8.8951987040
  - # 14
    frequency:   11.0564185801
  - # 15
    frequency:   11.1493056135
  - # 16
    frequency:   11.3117302502
  - # 17
    frequency:   14.1014569049
  - # 18
    frequency:   15.7961795383
  - # 19
    frequency:   15.9558885910
  - # 20
    frequency:   20.4059832523
  - # 21
    frequency:   64.7494717303

- q-position: [    0.1161616,    0.0000000,    0.0000000 ]
  distance:    0.0404635
  band:
  - # 1
    frequency:    1.0721598659
  - # 2
    frequency:    1.2371611138
  - # 3
    frequency:    1.8007690932
  - # 4
    frequency:    1.9443051980
  - # 5
    frequency:    2.9304771248
  - # 6
    frequency:    4.1687492311
  - # 7
    frequency:    4.6595388909
  - # 8
    frequency:    5.5025547338
  - # 9
    frequency:    6.5468468466
  - # 10
    frequency:    7.0750678110
  - # 11
    frequency:    8.4518375887
  - # 12
    frequency:    8.6441531956
  - # 13
    frequency:    8.8891599583
  - # 14
    frequency:   11.0475270637
  - # 15
    frequency:   11.1342186113
  - # 16
    frequency:   11.2877496153
  - # 17
    frequency:   14.0875633912
  - # 18
    frequency:   15.7858159331
  - # 19
    frequency:   15.9557731088
  - # 20
    frequency:   20.4022631185
  - # 21
    frequency:   64.7456717255

- q-position: [    0.1212121,    0.0000000,    0.0000000 ]
  distance:    0.0422227
  band:
  - # 1
    frequency:    1.1393096122
  - # 2
    frequency:    1.2605836744
  - # 3
    frequency:    1.8589401778
  - # 4
    frequency:    2.0042470727
  - # 5
    frequency:    3.0330592982
  - # 6
    frequency:    4.1836924006
  - # 7
    frequency:    4.6972422240
  - # 8
    frequency:    5.5051710270
  - # 9
    frequency:    6.5424262003
  - # 10
    frequency:    7.1019806023
  - # 11
    frequency:    8.4371302475
  - # 12
    frequency:    8.6411759504
  - # 13
    frequency:    8.8835018953
  - # 14
    frequency:   11.0386874672
  - # 15
    frequency:   11.1123101589
  - # 16
    frequency:   11.2697038341
  - # 17
    frequency:   14.0730725037
  - # 18
    frequency:   15.7757549704
  - # 19
    frequency:   15.9558444264
  - # 20
    frequency:   20.3984402008
  - # 21
    frequency:   64.7417656083

- q-position: [    0.1262626,    0.0000000,    0.0000000 ]
  distance:    0.0439820
  band:
  - # 1
    frequency:    1.2073934193
  - # 2
    frequency:    1.2837628798
  - # 3
    frequency:    1.9163416914
  - # 4
    frequency:    2.0640902268
  - # 5
    frequency:    3.1331614522
  - # 6
    frequency:    4.1992917515
  - # 7
    frequency:    4.7336674086
  - # 8
    frequency:    5.5104009751
  - # 9
    frequency:    6.5379540162
  - # 10
    frequency:    7.1283719669
  - # 11
    frequency:    8.4221633226
  - # 12
    frequency:    8.6375774008
  - # 13
    frequency:    8.8782716093
  - # 14
    frequency:   11.0299457893
  - # 15
    frequency:   11.0834854972
  - # 16
    frequency:   11.2578017233
  - # 17
    frequency:   14.0580230000
  - # 18
    frequency:   15.7660244202
  - # 19
    frequency:   15.9561110784
  - # 20
    frequency:   20.3945214640
  - # 21
    frequency:   64.7377602940

- q-position: [    0.1313131,    0.0000000,    0.0000000 ]
  distance:    0.0457413
  band:
  - # 1
    frequency:    1.2763306043
  - # 2
    frequency:    1.3067844973
  - # 3
    frequency:    1.9728492471
  - # 4
    frequency:    2.1237866239
  - # 5
    frequency:    3.2306099931
  - # 6
    frequency:    4.2155313015
  - # 7
    frequency:    4.7686503771
  - # 8
    frequency:    5.5184457339
  - # 9
    frequency:    6.5334455714
  - # 10
    frequency:    7.1541584587
  - # 11
    frequency:    8.4069761804
  - # 12
    frequency:    8.6333332392
  - # 13
    frequency:    8.8735029713
  - # 14
    frequency:   11.0213474987
  - # 15
    frequency:   11.0489687467
  - # 16
    frequency:   11.2509369405
  - # 17
    frequency:   14.0424594143
  - # 18
    frequency:   15.7566440030
  - # 19
    frequency:   15.9565793249
  - # 20
    frequency:   20.3905139450
  - # 21
    frequency:   64.7336627519

- q-position: [    0.1363636,    0.0000000,    0.0000000 ]
  distance:    0.0475006
  band:
  - # 1
    frequency:    1.3297066118
  - # 2
    frequency:    1.3460432081
  - # 3
    frequency:    2.0283744345
  - # 4
    frequency:    2.1832888345
  - # 5
    frequency:    3.3252229430
  - # 6
    frequency:    4.2323911461
  - # 7
    frequency:    4.8020961681
  - # 8
    frequency:    5.5294597785
  - # 9
    frequency:    6.5289160349
  - # 10
    frequency:    7.1792640415
  - # 11
    frequency:    8.3916087540
  - # 12
    frequency:    8.6284323159
  - # 13
    frequency:    8.8692146294
  - # 14
    frequency:   11.0103155885
  - # 15
    frequency:   11.0129372786
  - # 16
    frequency:   11.2476748887
  - # 17
    frequency:   14.0264315790
  - # 18
    frequency:   15.7476257044
  - # 19
    frequency:   15.9572530312
  - # 20
    frequency:   20.3864247335
  - # 21
    frequency:   64.7294799828

- q-position: [    0.1414141,    0.0000000,    0.0000000 ]
  distance:    0.0492599
  band:
  - # 1
    frequency:    1.3525674510
  - # 2
    frequency:    1.4164559233
  - # 3
    frequency:    2.0828570750
  - # 4
    frequency:    2.2425507826
  - # 5
    frequency:    3.4168061277
  - # 6
    frequency:    4.2498472877
  - # 7
    frequency:    4.8339982637
  - # 8
    frequency:    5.5435335651
  - # 9
    frequency:    6.5243803171
  - # 10
    frequency:    7.2036201768
  - # 11
    frequency:    8.3761014577
  - # 12
    frequency:    8.6228774410
  - # 13
    frequency:    8.8654090203
  - # 14
    frequency:   10.9687736460
  - # 15
    frequency:   11.0047587749
  - # 16
    frequency:   11.2468918985
  - # 17
    frequency:   14.0099940287
  - # 18
    frequency:   15.7389742440
  - # 19
    frequency:   15.9581335729
  - # 20
    frequency:   20.3822609512
  - # 21
    frequency:   64.7252189979

- q-position: [    0.1464646,    0.0000000,    0.0000000 ]
  distance:    0.0510191
  band:
  - # 1
    frequency:    1.3753909310
  - # 2
    frequency:    1.4874959606
  - # 3
    frequency:    2.1362596983
  - # 4
    frequency:    2.3015281816
  - # 5
    frequency:    3.5051502561
  - # 6
    frequency:    4.2678715220
  - # 7
    frequency:    4.8644540238
  - # 8
    frequency:    5.5606795468
  - # 9
    frequency:    6.5198529142
  - # 10
    frequency:    7.2271658779
  - # 11
    frequency:    8.3604950943
  - # 12
    frequency:    8.6166850434
  - # 13
    frequency:    8.8620725656
  - # 14
    frequency:   10.9252036999
  - # 15
    frequency:   10.9968543504
  - # 16
    frequency:   11.2478535573
  - # 17
    frequency:   13.9932053128
  - # 18
    frequency:   15.7306876688
  - # 19
    frequency:   15.9592197656
  - # 20
    frequency:   20.3780297331
  - # 21
    frequency:   64.7208867979

- q-position: [    0.1515152,    0.0000000,    0.0000000 ]
  distance:    0.0527784
  band:
  - # 1
    frequency:    1.3981906083
  - # 2
    frequency:    1.5590928703
  - # 3
    frequency:    2.1885635485
  - # 4
    frequency:    2.3601787715
  - # 5
    frequency:    3.5900292622
  - # 6
    frequency:    4.2864313855
  - # 7
    frequency:    4.8936723723
  - # 8
    frequency:    5.5808249036
  - # 9
    frequency:    6.5153477521
  - # 10
    frequency:    7.2498477188
  - # 11
    frequency:    8.3448307550
  - # 12
    frequency:    8.6098837274
  - # 13
    frequency:    8.8591770199
  - # 14
    frequency:   10.8801894871
  - # 15
    frequency:   10.9892648468
  - # 16
    frequency:   11.2501044371
  - # 17
    frequency:   13.9761272478
  - # 18
    frequency:   15.7227580415
  - # 19
    frequency:   15.9605078204
  - # 20
    frequency:   20.3737382081
  - # 21