nqpoint: 300    
npath: 3      
segment_nqpoint:
- 100
- 100
- 100
labels:
- [ 'G', 'M' ]
- [ 'M', 'K' ]
- [ 'K', 'G' ]
reciprocal_lattice:
- [   0.28700324,   0.16570140,   0.00000000 ] # a*
- [   0.00000000,   0.33140280,   0.00000000 ] # b*
- [   0.00000000,   0.00000000,   0.03615364 ] # c*
natom: 8      
lattice:
- [     3.484281200687632,     0.000000000000000,     0.000000000000000 ] # a
- [    -1.742140600343816,     3.017476033717760,     0.000000000000000 ] # b
- [     0.000000000000000,     0.000000000000000,    27.659732987523647 ] # c
points:
- symbol: C # 1
  coordinates: [  0.000000000000000,  0.000000000000000,  0.534905553010898 ]
  mass: 12.010700
- symbol: C # 2
  coordinates: [  0.333332985432215,  0.666666983183674,  0.631063840916775 ]
  mass: 12.010700
- symbol: C # 3
  coordinates: [  0.666666984744048,  0.333332985985145,  0.368436645635431 ]
  mass: 12.010700
- symbol: N # 4
  coordinates: [  0.333332985432215,  0.666666983183674,  0.674617249412365 ]
  mass: 14.006700
- symbol: N # 5
  coordinates: [  0.666666984744048,  0.333332985985145,  0.325382750587635 ]
  mass: 14.006700
- symbol: S # 6
  coordinates: [  0.666666984744048,  0.333332985985145,  0.429181228309600 ]
  mass: 32.065000
- symbol: Zr # 7
  coordinates: [  0.333332985432215,  0.666666983183674,  0.490237675262025 ]
  mass: 91.224000
- symbol: Zr # 8
  coordinates: [  0.666666984744048,  0.333332985985145,  0.578344328207728 ]
  mass: 91.224000

phonon:
- q-position: [    0.0000000,    0.0000000,    0.0000000 ]
  distance:    0.0000000
  band:
  - # 1
    frequency:   -3.2427446997
  - # 2
    frequency:   -3.2427446997
  - # 3
    frequency:   -0.0000016063
  - # 4
    frequency:    0.0000007363
  - # 5
    frequency:    0.0000016280
  - # 6
    frequency:    0.7819761488
  - # 7
    frequency:    0.7819761488
  - # 8
    frequency:    4.1454699542
  - # 9
    frequency:    4.1454699542
  - # 10
    frequency:    5.2279898515
  - # 11
    frequency:    6.4641667100
  - # 12
    frequency:    6.4641667100
  - # 13
    frequency:    6.7641187387
  - # 14
    frequency:    6.7641187387
  - # 15
    frequency:    7.9888346157
  - # 16
    frequency:    8.7412859883
  - # 17
    frequency:   10.5452015981
  - # 18
    frequency:   10.5452015981
  - # 19
    frequency:   14.5581657939
  - # 20
    frequency:   15.5322230100
  - # 21
    frequency:   15.5322230100
  - # 22
    frequency:   20.2257332448
  - # 23
    frequency:   60.8899126551
  - # 24
    frequency:   64.8161592942

- q-position: [    0.0050505,    0.0000000,    0.0000000 ]
  distance:    0.0016738
  band:
  - # 1
    frequency:   -3.2417366155
  - # 2
    frequency:   -3.2411668528
  - # 3
    frequency:   -0.1757738417
  - # 4
    frequency:    0.0679040815
  - # 5
    frequency:    0.2039048385
  - # 6
    frequency:    0.7826130757
  - # 7
    frequency:    0.7845536699
  - # 8
    frequency:    4.1458321618
  - # 9
    frequency:    4.1465980006
  - # 10
    frequency:    5.2277152680
  - # 11
    frequency:    6.4647065389
  - # 12
    frequency:    6.4655603297
  - # 13
    frequency:    6.7644938345
  - # 14
    frequency:    6.7648745271
  - # 15
    frequency:    7.9887080697
  - # 16
    frequency:    8.7411068304
  - # 17
    frequency:   10.5453926229
  - # 18
    frequency:   10.5455955390
  - # 19
    frequency:   14.5583237661
  - # 20
    frequency:   15.5332875816
  - # 21
    frequency:   15.5333641846
  - # 22
    frequency:   20.2256767612
  - # 23
    frequency:   60.8898642220
  - # 24
    frequency:   64.8160869270

- q-position: [    0.0101010,    0.0000000,    0.0000000 ]
  distance:    0.0033475
  band:
  - # 1
    frequency:   -3.2387202305
  - # 2
    frequency:   -3.2364446909
  - # 3
    frequency:   -0.2309189143
  - # 4
    frequency:    0.1357024569
  - # 5
    frequency:    0.3098311635
  - # 6
    frequency:    0.7845328500
  - # 7
    frequency:    0.7922832086
  - # 8
    frequency:    4.1469166852
  - # 9
    frequency:    4.1499718995
  - # 10
    frequency:    5.2268952540
  - # 11
    frequency:    6.4663187499
  - # 12
    frequency:    6.4697237169
  - # 13
    frequency:    6.7656199522
  - # 14
    frequency:    6.7671423831
  - # 15
    frequency:    7.9883293754
  - # 16
    frequency:    8.7405689638
  - # 17
    frequency:   10.5459648100
  - # 18
    frequency:   10.5467754768
  - # 19
    frequency:   14.5587954732
  - # 20
    frequency:   15.5364728157
  - # 21
    frequency:   15.5367793904
  - # 22
    frequency:   20.2255074378
  - # 23
    frequency:   60.8897189920
  - # 24
    frequency:   64.8158699651

- q-position: [    0.0151515,    0.0000000,    0.0000000 ]
  distance:    0.0050213
  band:
  - # 1
    frequency:   -3.2337190408
  - # 2
    frequency:   -3.2286121990
  - # 3
    frequency:   -0.2631234236
  - # 4
    frequency:    0.2032804011
  - # 5
    frequency:    0.4062195735
  - # 6
    frequency:    0.7877644885
  - # 7
    frequency:    0.8051794570
  - # 8
    frequency:    4.1487172503
  - # 9
    frequency:    4.1555611950
  - # 10
    frequency:    5.2255409715
  - # 11
    frequency:    6.4689816362
  - # 12
    frequency:    6.4766045470
  - # 13
    frequency:    6.7674995212
  - # 14
    frequency:    6.7709239015
  - # 15
    frequency:    7.9877013725
  - # 16
    frequency:    8.7396712131
  - # 17
    frequency:   10.5469155014
  - # 18
    frequency:   10.5487357683
  - # 19
    frequency:   14.5595742930
  - # 20
    frequency:   15.5417533449
  - # 21
    frequency:   15.5424437397
  - # 22
    frequency:   20.2252256558
  - # 23
    frequency:   60.8894771727
  - # 24
    frequency:   64.8155088275

- q-position: [    0.0202020,    0.0000000,    0.0000000 ]
  distance:    0.0066950
  band:
  - # 1
    frequency:   -3.2267718547
  - # 2
    frequency:   -3.2177255182
  - # 3
    frequency:   -0.2830777253
  - # 4
    frequency:    0.2705029764
  - # 5
    frequency:    0.4996579107
  - # 6
    frequency:    0.7923637480
  - # 7
    frequency:    0.8233596668
  - # 8
    frequency:    4.1512234816
  - # 9
    frequency:    4.1633159929
  - # 10
    frequency:    5.2236708699
  - # 11
    frequency:    6.4726594261
  - # 12
    frequency:    6.4861159276
  - # 13
    frequency:    6.7701363800
  - # 14
    frequency:    6.7762221280
  - # 15
    frequency:    7.9868288243
  - # 16
    frequency:    8.7384116277
  - # 17
    frequency:   10.5482402811
  - # 18
    frequency:   10.5514670448
  - # 19
    frequency:   14.5606492132
  - # 20
    frequency:   15.5490871349
  - # 21
    frequency:   15.5503159694
  - # 22
    frequency:   20.2248320458
  - # 23
    frequency:   60.8891391096
  - # 24
    frequency:   64.8150042103

- q-position: [    0.0252525,    0.0000000,    0.0000000 ]
  distance:    0.0083688
  band:
  - # 1
    frequency:   -3.2179322738
  - # 2
    frequency:   -3.2038622071
  - # 3
    frequency:   -0.2950124157
  - # 4
    frequency:    0.3371986700
  - # 5
    frequency:    0.5914319455
  - # 6
    frequency:    0.7984266043
  - # 7
    frequency:    0.8472461886
  - # 8
    frequency:    4.1544210217
  - # 9
    frequency:    4.1731681965
  - # 10
    frequency:    5.2213104714
  - # 11
    frequency:    6.4773029068
  - # 12
    frequency:    6.4981369149
  - # 13
    frequency:    6.7735354445
  - # 14
    frequency:    6.7830420814
  - # 15
    frequency:    7.9857184612
  - # 16
    frequency:    8.7367874957
  - # 17
    frequency:   10.5499329949
  - # 18
    frequency:   10.5549562671
  - # 19
    frequency:   14.5620048717
  - # 20
    frequency:   15.5584158514
  - # 21
    frequency:   15.5603387633
  - # 22
    frequency:   20.2243274812
  - # 23
    frequency:   60.8887052866
  - # 24
    frequency:   64.8143570835

- q-position: [    0.0303030,    0.0000000,    0.0000000 ]
  distance:    0.0100425
  band:
  - # 1
    frequency:   -3.2072679832
  - # 2
    frequency:   -3.1871202309
  - # 3
    frequency:   -0.3008349802
  - # 4
    frequency:    0.4031328491
  - # 5
    frequency:    0.6806082271
  - # 6
    frequency:    0.8061139568
  - # 7
    frequency:    0.8780414377
  - # 8
    frequency:    4.1582916966
  - # 9
    frequency:    4.1850331192
  - # 10
    frequency:    5.2184921015
  - # 11
    frequency:    6.4828503257
  - # 12
    frequency:    6.5125133370
  - # 13
    frequency:    6.7777022131
  - # 14
    frequency:    6.7913913480
  - # 15
    frequency:    7.9843790410
  - # 16
    frequency:    8.7347953642
  - # 17
    frequency:   10.5519857793
  - # 18
    frequency:   10.5591868029
  - # 19
    frequency:   14.5636216192
  - # 20
    frequency:   15.5696653674
  - # 21
    frequency:   15.5724391953
  - # 22
    frequency:   20.2237130691
  - # 23
    frequency:   60.8881763243
  - # 24
    frequency:   64.8135686868

- q-position: [    0.0353535,    0.0000000,    0.0000000 ]
  distance:    0.0117163
  band:
  - # 1
    frequency:   -3.1948598674
  - # 2
    frequency:   -3.1676167026
  - # 3
    frequency:   -0.3012657085
  - # 4
    frequency:    0.4679620037
  - # 5
    frequency:    0.7639721812
  - # 6
    frequency:    0.8156962491
  - # 7
    frequency:    0.9187100505
  - # 8
    frequency:    4.1628137229
  - # 9
    frequency:    4.1988113697
  - # 10
    frequency:    5.2152545920
  - # 11
    frequency:    6.4892285895
  - # 12
    frequency:    6.5290590578
  - # 13
    frequency:    6.7826420860
  - # 14
    frequency:    6.8012805860
  - # 15
    frequency:    7.9828214240
  - # 16
    frequency:    8.7324310671
  - # 17
    frequency:   10.5543890976
  - # 18
    frequency:   10.5641385241
  - # 19
    frequency:   14.5654756094
  - # 20
    frequency:   15.5827464090
  - # 21
    frequency:   15.5865292881
  - # 22
    frequency:   20.2229901379
  - # 23
    frequency:   60.8875529807
  - # 24
    frequency:   64.8126405238

- q-position: [    0.0404040,    0.0000000,    0.0000000 ]
  distance:    0.0133900
  band:
  - # 1
    frequency:   -3.1808009720
  - # 2
    frequency:   -3.1454864023
  - # 3
    frequency:   -0.2962653561
  - # 4
    frequency:    0.5311528839
  - # 5
    frequency:    0.8276336766
  - # 6
    frequency:    0.8359135438
  - # 7
    frequency:    0.9744249325
  - # 8
    frequency:    4.1679619545
  - # 9
    frequency:    4.2143908962
  - # 10
    frequency:    5.2116429853
  - # 11
    frequency:    6.4963547803
  - # 12
    frequency:    6.5475578978
  - # 13
    frequency:    6.7883594747
  - # 14
    frequency:    6.8127236836
  - # 15
    frequency:    7.9810586590
  - # 16
    frequency:    8.7296897629
  - # 17
    frequency:   10.5571317850
  - # 18
    frequency:   10.5697879264
  - # 19
    frequency:   14.5675389220
  - # 20
    frequency:   15.5975553340
  - # 21
    frequency:   15.6025066809
  - # 22
    frequency:   20.2221602233
  - # 23
    frequency:   60.8868361496
  - # 24
    frequency:   64.8115743556

- q-position: [    0.0454545,    0.0000000,    0.0000000 ]
  distance:    0.0150638
  band:
  - # 1
    frequency:   -3.1651953346
  - # 2
    frequency:   -3.1208801084
  - # 3
    frequency:   -0.2851678923
  - # 4
    frequency:    0.5918440452
  - # 5
    frequency:    0.8427143221
  - # 6
    frequency:    0.8935414336
  - # 7
    frequency:    1.0475877251
  - # 8
    frequency:    4.1737081628
  - # 9
    frequency:    4.2316490734
  - # 10
    frequency:    5.2077082715
  - # 11
    frequency:    6.5041379942
  - # 12
    frequency:    6.5677665302
  - # 13
    frequency:    6.7948566920
  - # 14
    frequency:    6.8257372112
  - # 15
    frequency:    7.9791060791
  - # 16
    frequency:    8.7265659817
  - # 17
    frequency:   10.5602011005
  - # 18
    frequency:   10.5761082682
  - # 19
    frequency:   14.5697797234
  - # 20
    frequency:   15.6139750350
  - # 21
    frequency:   15.6202553987
  - # 22
    frequency:   20.2212250510
  - # 23
    frequency:   60.8860268599
  - # 24
    frequency:   64.8103721926

- q-position: [    0.0505051,    0.0000000,    0.0000000 ]
  distance:    0.0167375
  band:
  - # 1
    frequency:   -3.1481567103
  - # 2
    frequency:   -3.0939627760
  - # 3
    frequency:   -0.2665799966
  - # 4
    frequency:    0.6486485303
  - # 5
    frequency:    0.8622513883
  - # 6
    frequency:    0.9414640819
  - # 7
    frequency:    1.1331061624
  - # 8
    frequency:    4.1800213491
  - # 9
    frequency:    4.2504547234
  - # 10
    frequency:    5.2035071864
  - # 11
    frequency:    6.5124814890
  - # 12
    frequency:    6.5894187839
  - # 13
    frequency:    6.8021326282
  - # 14
    frequency:    6.8403386919
  - # 15
    frequency:    7.9769814014
  - # 16
    frequency:    8.7230536857
  - # 17
    frequency:   10.5635827876
  - # 18
    frequency:   10.5830697306
  - # 19
    frequency:   14.5721624684
  - # 20
    frequency:   15.6318759612
  - # 21
    frequency:   15.6396467163
  - # 22
    frequency:   20.2201865185
  - # 23
    frequency:   60.8851262750
  - # 24
    frequency:   64.8090362856

- q-position: [    0.0555556,    0.0000000,    0.0000000 ]
  distance:    0.0184113
  band:
  - # 1
    frequency:   -3.1298072192
  - # 2
    frequency:   -3.0649115996
  - # 3
    frequency:   -0.2378837460
  - # 4
    frequency:    0.6995548056
  - # 5
    frequency:    0.8881823387
  - # 6
    frequency:    0.9852879128
  - # 7
    frequency:    1.2249178208
  - # 8
    frequency:    4.1868680814
  - # 9
    frequency:    4.2706699784
  - # 10
    frequency:    5.1991020962
  - # 11
    frequency:    6.5212850981
  - # 12
    frequency:    6.6122318441
  - # 13
    frequency:    6.8101812498
  - # 14
    frequency:    6.8565431516
  - # 15
    frequency:    7.9747048253
  - # 16
    frequency:    8.7191463421
  - # 17
    frequency:   10.5672611429
  - # 18
    frequency:   10.5906395959
  - # 19
    frequency:   14.5746481465
  - # 20
    frequency:   15.6511172479
  - # 21
    frequency:   15.6605401118
  - # 22
    frequency:   20.2190466731
  - # 23
    frequency:   60.8841356908
  - # 24
    frequency:   64.8075691164

- q-position: [    0.0606061,    0.0000000,    0.0000000 ]
  distance:    0.0200850
  band:
  - # 1
    frequency:   -3.1102759430
  - # 2
    frequency:   -3.0339140022
  - # 3
    frequency:   -0.1934650302
  - # 4
    frequency:    0.7424772245
  - # 5
    frequency:    0.9225186218
  - # 6
    frequency:    1.0279056827
  - # 7
    frequency:    1.3197092836
  - # 8
    frequency:    4.1942128532
  - # 9
    frequency:    4.2921519089
  - # 10
    frequency:    5.1945609894
  - # 11
    frequency:    6.5304478257
  - # 12
    frequency:    6.6359147723
  - # 13
    frequency:    6.8189899942
  - # 14
    frequency:    6.8743574834
  - # 15
    frequency:    7.9722991219
  - # 16
    frequency:    8.7148370112
  - # 17
    frequency:   10.5712190919
  - # 18
    frequency:   10.5987824458
  - # 19
    frequency:   14.5771945706
  - # 20
    frequency:   15.6715479453
  - # 21
    frequency:   15.6827843026
  - # 22
    frequency:   20.2178076897
  - # 23
    frequency:   60.8830565350
  - # 24
    frequency:   64.8059733868

- q-position: [    0.0656566,    0.0000000,    0.0000000 ]
  distance:    0.0217588
  band:
  - # 1
    frequency:   -3.0896975004
  - # 2
    frequency:   -3.0011655890
  - # 3
    frequency:   -0.1144501741
  - # 4
    frequency:    0.7767557685
  - # 5
    frequency:    0.9658461905
  - # 6
    frequency:    1.0705008712
  - # 7
    frequency:    1.4159119921
  - # 8
    frequency:    4.2020184579
  - # 9
    frequency:    4.3147538672
  - # 10
    frequency:    5.1899575915
  - # 11
    frequency:    6.5398705048
  - # 12
    frequency:    6.6601794415
  - # 13
    frequency:    6.8285381698
  - # 14
    frequency:    6.8937724826
  - # 15
    frequency:    7.9697897049
  - # 16
    frequency:    8.7101184507
  - # 17
    frequency:   10.5754382739
  - # 18
    frequency:   10.6074603775
  - # 19
    frequency:   14.5797567095
  - # 20
    frequency:   15.6930083340
  - # 21
    frequency:   15.7062183591
  - # 22
    frequency:   20.2164718455
  - # 23
    frequency:   60.8818903651
  - # 24
    frequency:   64.8042520070

- q-position: [    0.0707071,    0.0000000,    0.0000000 ]
  distance:    0.0234325
  band:
  - # 1
    frequency:   -3.0682106258
  - # 2
    frequency:   -2.9668681075
  - # 3
    frequency:    0.1299702559
  - # 4
    frequency:    0.8038970933
  - # 5
    frequency:    1.0165847585
  - # 6
    frequency:    1.1135245311
  - # 7
    frequency:    1.5127225589
  - # 8
    frequency:    4.2102463747
  - # 9
    frequency:    4.3383265160
  - # 10
    frequency:    5.1853716117
  - # 11
    frequency:    6.5494583591
  - # 12
    frequency:    6.6847533283
  - # 13
    frequency:    6.8387955049
  - # 14
    frequency:    6.9147530718
  - # 15
    frequency:    7.9672046689
  - # 16
    frequency:    8.7049832365
  - # 17
    frequency:   10.5798991336
  - # 18
    frequency:   10.6166332381
  - # 19
    frequency:   14.5822870605
  - # 20
    frequency:   15.7153313165
  - # 21
    frequency:   15.7306728907
  - # 22
    frequency:   20.2150414948
  - # 23
    frequency:   60.8806388668
  - # 24
    frequency:   64.8024080836

- q-position: [    0.0757576,    0.0000000,    0.0000000 ]
  distance:    0.0251063
  band:
  - # 1
    frequency:   -3.0459567769
  - # 2
    frequency:   -2.9312274503
  - # 3
    frequency:    0.2302772782
  - # 4
    frequency:    0.8262952034
  - # 5
    frequency:    1.0722674527
  - # 6
    frequency:    1.1571220053
  - # 7
    frequency:    1.6096720497
  - # 8
    frequency:    4.2188571615
  - # 9
    frequency:    4.3627185377
  - # 10
    frequency:    5.1808891193
  - # 11
    frequency:    6.5591232975
  - # 12
    frequency:    6.7093927039
  - # 13
    frequency:    6.8497210064
  - # 14
    frequency:    6.9372281372
  - # 15
    frequency:    7.9645747794
  - # 16
    frequency:    8.6994239008
  - # 17
    frequency:   10.5845810219
  - # 18
    frequency:   10.6262588762
  - # 19
    frequency:   14.5847360571
  - # 20
    frequency:   15.7383438700
  - # 21
    frequency:   15.7559712988
  - # 22
    frequency:   20.2135190412
  - # 23
    frequency:   60.8793038518
  - # 24
    frequency:   64.8004449066

- q-position: [    0.0808081,    0.0000000,    0.0000000 ]
  distance:    0.0267800
  band:
  - # 1
    frequency:   -3.0230787946
  - # 2
    frequency:   -2.8944517388
  - # 3
    frequency:    0.3094699079
  - # 4
    frequency:    0.8458999983
  - # 5
    frequency:    1.1308725992
  - # 6
    frequency:    1.2013060247
  - # 7
    frequency:    1.7064486506
  - # 8
    frequency:    4.2278108495
  - # 9
    frequency:    4.3877770428
  - # 10
    frequency:    5.1766030397
  - # 11
    frequency:    6.5687857755
  - # 12
    frequency:    6.7338939660
  - # 13
    frequency:    6.8612622770
  - # 14
    frequency:    6.9610822052
  - # 15
    frequency:    7.9619333937
  - # 16
    frequency:    8.6934330884
  - # 17
    frequency:   10.5894623034
  - # 18
    frequency:   10.6362934103
  - # 19
    frequency:   14.5870525077
  - # 20
    frequency:   15.7618685496
  - # 21
    frequency:   15.7819310892
  - # 22
    frequency:   20.2119069106
  - # 23
    frequency:   60.8778872554
  - # 24
    frequency:   64.7983659360

- q-position: [    0.0858586,    0.0000000,    0.0000000 ]
  distance:    0.0284538
  band:
  - # 1
    frequency:   -2.9997196317
  - # 2
    frequency:   -2.8567495156
  - # 3
    frequency:    0.3815260025
  - # 4
    frequency:    0.8639487161
  - # 5
    frequency:    1.1910926056
  - # 6
    frequency:    1.2460304129
  - # 7
    frequency:    1.8028199357
  - # 8
    frequency:    4.2370673363
  - # 9
    frequency:    4.4133477236
  - # 10
    frequency:    5.1726137377
  - # 11
    frequency:    6.5783760924
  - # 12
    frequency:    6.7581006859
  - # 13
    frequency:    6.8733554065
  - # 14
    frequency:    6.9861513638
  - # 15
    frequency:    7.9593162851
  - # 16
    frequency:    8.6870037298
  - # 17
    frequency:   10.5945204723
  - # 18
    frequency:   10.6466915136
  - # 19
    frequency:   14.5891840592
  - # 20
    frequency:   15.7857250252
  - # 21
    frequency:   15.8083652389
  - # 22
    frequency:   20.2102075227
  - # 23
    frequency:   60.8763911344
  - # 24
    frequency:   64.7961747881

- q-position: [    0.0909091,    0.0000000,    0.0000000 ]
  distance:    0.0301275
  band:
  - # 1
    frequency:   -2.9760211686
  - # 2
    frequency:   -2.8183280734
  - # 3
    frequency:    0.4503378256
  - # 4
    frequency:    0.8811639374
  - # 5
    frequency:    1.2521362696
  - # 6
    frequency:    1.2912235088
  - # 7
    frequency:    1.8985958161
  - # 8
    frequency:    4.2465867738
  - # 9
    frequency:    4.4392748261
  - # 10
    frequency:    5.1690296379
  - # 11
    frequency:    6.5878350577
  - # 12
    frequency:    6.7819047639
  - # 13
    frequency:    6.8859254915
  - # 14
    frequency:    7.0122250300
  - # 15
    frequency:    7.9567613405
  - # 16
    frequency:    8.6801292322
  - # 17
    frequency:   10.5997322758
  - # 18
    frequency:   10.6574067135
  - # 19
    frequency:   14.5910776789
  - # 20
    frequency:   15.8097316400
  - # 21
    frequency:   15.8350836071
  - # 22
    frequency:   20.2084232635
  - # 23
    frequency:   60.8748176640
  - # 24
    frequency:   64.7938752213

- q-position: [    0.0959596,    0.0000000,    0.0000000 ]
  distance:    0.0318013
  band:
  - # 1
    frequency:   -2.9521231249
  - # 2
    frequency:   -2.7793919360
  - # 3
    frequency:    0.5175572982
  - # 4
    frequency:    0.8979617161
  - # 5
    frequency:    1.3135209376
  - # 6
    frequency:    1.3368041225
  - # 7
    frequency:    1.9936094228
  - # 8
    frequency:    4.2563299455
  - # 9
    frequency:    4.4654010538
  - # 10
    frequency:    5.1659677924
  - # 11
    frequency:    6.5971140282
  - # 12
    frequency:    6.8052416713
  - # 13
    frequency:    6.8988877635
  - # 14
    frequency:    7.0390535842
  - # 15
    frequency:    7.9543080946
  - # 16
    frequency:    8.6728036860
  - # 17
    frequency:   10.6050738440
  - # 18
    frequency:   10.6683917062
  - # 19
    frequency:   14.5926801480
  - # 20
    frequency:   15.8337069750
  - # 21
    frequency:   15.8618943814
  - # 22
    frequency:   20.2065564580
  - # 23
    frequency:   60.8731691347
  - # 24
    frequency:   64.7914711218

- q-position: [    0.1010101,    0.0000000,    0.0000000 ]
  distance:    0.0334750
  band:
  - # 1
    frequency:   -2.9281620764
  - # 2
    frequency:   -2.7401415044
  - # 3
    frequency:    0.5840145813
  - # 4
    frequency:    0.9145831595
  - # 5
    frequency:    1.3749411873
  - # 6
    frequency:    1.3826894020
  - # 7
    frequency:    2.0877065390
  - # 8
    frequency:    4.2662586333
  - # 9
    frequency:    4.4915675591
  - # 10
    frequency:    5.1635542650
  - # 11
    frequency:    6.6061743898
  - # 12
    frequency:    6.8280813620
  - # 13
    frequency:    6.9121492394
  - # 14
    frequency:    7.0663603022
  - # 15
    frequency:    7.9519970592
  - # 16
    frequency:    8.6650220874
  - # 17
    frequency:   10.6105208271
  - # 18
    frequency:   10.6795986837
  - # 19
    frequency:   14.5939385607
  - # 20
    frequency:   15.8574714057
  - # 21
    frequency:   15.8886055496
  - # 22
    frequency:   20.2046093441
  - # 23
    frequency:   60.8714479490
  - # 24
    frequency:   64.7889664892

- q-position: [    0.1060606,    0.0000000,    0.0000000 ]
  distance:    0.0351488
  band:
  - # 1
    frequency:   -2.9042705794
  - # 2
    frequency:   -2.7007718681
  - # 3
    frequency:    0.6501612244
  - # 4
    frequency:    0.9311685704
  - # 5
    frequency:    1.4287987499
  - # 6
    frequency:    1.4361949181
  - # 7
    frequency:    2.1807394115
  - # 8
    frequency:    4.2763359671
  - # 9
    frequency:    4.5176142371
  - # 10
    frequency:    5.1619241405
  - # 11
    frequency:    6.6149866095
  - # 12
    frequency:    6.8504172800
  - # 13
    frequency:    6.9256107549
  - # 14
    frequency:    7.0938551828
  - # 15
    frequency:    7.9498688085
  - # 16
    frequency:    8.6567805736
  - # 17
    frequency:   10.6160485383
  - # 18
    frequency:   10.6909796735
  - # 19
    frequency:   14.5948008227
  - # 20
    frequency:   15.8808486365
  - # 21
    frequency:   15.9150263823
  - # 22
    frequency:   20.2025840484
  - # 23
    frequency:   60.8696566179
  - # 24
    frequency:   64.7863654214

- q-position: [    0.1111111,    0.0000000,    0.0000000 ]
  distance:    0.0368225
  band:
  - # 1
    frequency:   -2.8805764032
  - # 2
    frequency:   -2.6614717796
  - # 3
    frequency:    0.7162490102
  - # 4
    frequency:    0.9477985979
  - # 5
    frequency:    1.4750557322
  - # 6
    frequency:    1.4971423996
  - # 7
    frequency:    2.2725629456
  - # 8
    frequency:    4.2865267577
  - # 9
    frequency:    4.5433805990
  - # 10
    frequency:    5.1612208990
  - # 11
    frequency:    6.6235290096
  - # 12
    frequency:    6.8722557301
  - # 13
    frequency:    6.9391692167
  - # 14
    frequency:    7.1212484244
  - # 15
    frequency:    7.9479627823
  - # 16
    frequency:    8.6480766712
  - # 17
    frequency:   10.6216321013
  - # 18
    frequency:   10.7024868878
  - # 19
    frequency:   14.5952161419
  - # 20
    frequency:   15.9036672003
  - # 21
    frequency:   15.9409689162
  - # 22
    frequency:   20.2004825641
  - # 23
    frequency:   60.8677977565
  - # 24
    frequency:   64.7836721013

- q-position: [    0.1161616,    0.0000000,    0.0000000 ]
  distance:    0.0384963
  band:
  - # 1
    frequency:   -2.8572018667
  - # 2
    frequency:   -2.6224227812
  - # 3
    frequency:    0.7824144116
  - # 4
    frequency:    0.9645175079
  - # 5
    frequency:    1.5213889424
  - # 6
    frequency:    1.5576831653
  - # 7
    frequency:    2.3630322703
  - # 8
    frequency:    4.2967978089
  - # 9
    frequency:    4.5687075655
  - # 10
    frequency:    5.1615948308
  - # 11
    frequency:    6.6317864155
  - # 12
    frequency:    6.8936070699
  - # 13
    frequency:    6.9527199132
  - # 14
    frequency:    7.1482621149
  - # 15
    frequency:    7.9463157844
  - # 16
    frequency:    8.6389095530
  - # 17
    frequency:   10.6272466031
  - # 18
    frequency:   10.7140730813
  - # 19
    frequency:   14.5951355070
  - # 20
    frequency:   15.9257619081
  - # 21
    frequency:   15.9662494222
  - # 22
    frequency:   20.1983067318
  - # 23
    frequency:   60.8658740803
  - # 24
    frequency:   64.7808907812

- q-position: [    0.1212121,    0.0000000,    0.0000000 ]
  distance:    0.0401700
  band:
  - # 1
    frequency:   -2.8342632740
  - # 2
    frequency:   -2.5837984708
  - # 3
    frequency:    0.8487230299
  - # 4
    frequency:    0.9813467428
  - # 5
    frequency:    1.5677323167
  - # 6
    frequency:    1.6177425835
  - # 7
    frequency:    2.4520011262
  - # 8
    frequency:    4.3071182068
  - # 9
    frequency:    4.5934405524
  - # 10
    frequency:    5.1632001236
  - # 11
    frequency:    6.6397488067
  - # 12
    frequency:    6.9144792521
  - # 13
    frequency:    6.9661587436
  - # 14
    frequency:    7.1746396082
  - # 15
    frequency:    7.9449601738
  - # 16
    frequency:    8.6292803031
  - # 17
    frequency:   10.6328672487
  - # 18
    frequency:   10.7256919145
  - # 19
    frequency:   14.5945121481
  - # 20
    frequency:   15.9469752389
  - # 21
    frequency:   15.9906898449
  - # 22
    frequency:   20.1960582234
  - # 23
    frequency:   60.8638884000
  - # 24
    frequency:   64.7780257698

- q-position: [    0.1262626,    0.0000000,    0.0000000 ]
  distance:    0.0418438
  band:
  - # 1
    frequency:   -2.8118704401
  - # 2
    frequency:   -2.5457638911
  - # 3
    frequency:    0.9151949256
  - # 4
    frequency:    0.9982930803
  - # 5
    frequency:    1.6140251696
  - # 6
    frequency:    1.6772637933
  - # 7
    frequency:    2.5393207742
  - # 8
    frequency:    4.3174595846
  - # 9
    frequency:    4.6174341908
  - # 10
    frequency:    5.1661902785
  - # 11
    frequency:    6.6474100688
  - # 12
    frequency:    6.9348735742
  - # 13
    frequency:    6.9793842626
  - # 14
    frequency:    7.2001527030
  - # 15
    frequency:    7.9439217864
  - # 16
    frequency:    8.6191921854
  - # 17
    frequency:   10.6384695179
  - # 18
    frequency:   10.7372983204
  - # 19
    frequency:   14.5933019740
  - # 20
    frequency:   15.9671586558
  - # 21
    frequency:   16.0141191986
  - # 22
    frequency:   20.1937385306
  - # 23
    frequency:   60.8618436169
  - # 24
    frequency:   64.7750814178

- q-position: [    0.1313131,    0.0000000,    0.0000000 ]
  distance:    0.0435175
  band:
  - # 1
    frequency:   -2.7901262977
  - # 2
    frequency:   -2.5084750284
  - # 3
    frequency:    0.9818199897
  - # 4
    frequency:    1.0153537001
  - # 5
    frequency:    1.6602120912
  - # 6
    frequency:    1.7362027008
  - # 7
    frequency:    2.6248392572
  - # 8
    frequency:    4.3277963607
  - # 9
    frequency:    4.6405588722
  - # 10
    frequency:    5.1707116516
  - # 11
    frequency:    6.6547669057
  - # 12
    frequency:    6.9547821598
  - # 13
    frequency:    6.9922994758
  - # 14
    frequency:    7.2246070306
  - # 15
    frequency:    7.9432176685
  - # 16
    frequency:    8.6086509132
  - # 17
    frequency:   10.6440293223
  - # 18
    frequency:   10.7488488716
  - # 19
    frequency:   14.5914639825
  - # 20
    frequency:   15.9861738397
  - # 21
    frequency:   16.0363749051
  - # 22
    frequency:   20.1913489566
  - # 23
    frequency:   60.8597427174
  - # 24
    frequency:   64.7720621052

- q-position: [    0.1363636,    0.0000000,    0.0000000 ]
  distance:    0.0451913
  band:
  - # 1
    frequency:   -2.7691265764
  - # 2
    frequency:   -2.4720784054
  - # 3
    frequency:    1.0325194226
  - # 4
    frequency:    1.0485677677
  - # 5
    frequency:    1.7062427912
  - # 6
    frequency:    1.7945247731
  - # 7