nqpoint: 300    
npath: 3      
segment_nqpoint:
- 100
- 100
- 100
labels:
- [ 'G', 'M' ]
- [ 'M', 'K' ]
- [ 'K', 'G' ]
reciprocal_lattice:
- [   0.31018798,   0.17908712,   0.00000000 ] # a*
- [   0.00000000,   0.35817423,   0.00000000 ] # b*
- [   0.00000000,   0.00000000,   0.04119036 ] # c*
natom: 6      
lattice:
- [     3.223851503146520,     0.000000000000000,     0.000000000000000 ] # a
- [    -1.611925751573260,     2.791937299747234,     0.000000000000000 ] # b
- [     0.000000000000000,     0.000000000000000,    24.277523347104122 ] # c
points:
- symbol: Br # 1
  coordinates: [  0.333332985432215,  0.666666983183674,  0.629286732780610 ]
  mass: 79.904000
- symbol: C # 2
  coordinates: [  0.000000000000000,  0.000000000000000,  0.507923577626203 ]
  mass: 12.010700
- symbol: H # 3
  coordinates: [  0.666666984744047,  0.333332985985145,  0.370713267219390 ]
  mass: 1.007940
- symbol: O # 4
  coordinates: [  0.666666984744047,  0.333332985985145,  0.411311059537085 ]
  mass: 15.999400
- symbol: Ti # 5
  coordinates: [  0.333332985432215,  0.666666983183674,  0.462485870929972 ]
  mass: 47.867000
- symbol: Ti # 6
  coordinates: [  0.666666984744047,  0.333332985985145,  0.552611466385729 ]
  mass: 47.867000

phonon:
- q-position: [    0.0000000,    0.0000000,    0.0000000 ]
  distance:    0.0000000
  band:
  - # 1
    frequency:   -0.0000022631
  - # 2
    frequency:   -0.0000004098
  - # 3
    frequency:    0.0000022440
  - # 4
    frequency:    3.5280082543
  - # 5
    frequency:    3.5280082543
  - # 6
    frequency:    5.6691075412
  - # 7
    frequency:    6.8437188595
  - # 8
    frequency:    6.8437188595
  - # 9
    frequency:    7.7871090711
  - # 10
    frequency:    7.7871090711
  - # 11
    frequency:   10.9411896147
  - # 12
    frequency:   13.5135312036
  - # 13
    frequency:   13.5135312036
  - # 14
    frequency:   13.9760844020
  - # 15
    frequency:   17.3804540933
  - # 16
    frequency:   17.9946836830
  - # 17
    frequency:   17.9946836830
  - # 18
    frequency:  113.0016096383

- q-position: [    0.0050505,    0.0000000,    0.0000000 ]
  distance:    0.0018090
  band:
  - # 1
    frequency:   -0.0478978536
  - # 2
    frequency:    0.0799149550
  - # 3
    frequency:    0.1300657652
  - # 4
    frequency:    3.5286177786
  - # 5
    frequency:    3.5302253165
  - # 6
    frequency:    5.6679387518
  - # 7
    frequency:    6.8437076119
  - # 8
    frequency:    6.8451686168
  - # 9
    frequency:    7.7872258166
  - # 10
    frequency:    7.7876523412
  - # 11
    frequency:   10.9405244209
  - # 12
    frequency:   13.5058148010
  - # 13
    frequency:   13.5138809829
  - # 14
    frequency:   13.9854750354
  - # 15
    frequency:   17.3802136367
  - # 16
    frequency:   17.9950183222
  - # 17
    frequency:   17.9956150893
  - # 18
    frequency:  113.0015158192

- q-position: [    0.0101010,    0.0000000,    0.0000000 ]
  distance:    0.0036179
  band:
  - # 1
    frequency:   -0.0588947122
  - # 2
    frequency:    0.1598029239
  - # 3
    frequency:    0.2490409969
  - # 4
    frequency:    3.5304452704
  - # 5
    frequency:    3.5368576018
  - # 6
    frequency:    5.6644559080
  - # 7
    frequency:    6.8436731626
  - # 8
    frequency:    6.8494943027
  - # 9
    frequency:    7.7875755646
  - # 10
    frequency:    7.7892804146
  - # 11
    frequency:   10.9385326139
  - # 12
    frequency:   13.4843353646
  - # 13
    frequency:   13.5149293970
  - # 14
    frequency:   14.0119695559
  - # 15
    frequency:   17.3794922416
  - # 16
    frequency:   17.9960202207
  - # 17
    frequency:   17.9984033030
  - # 18
    frequency:  113.0012338879

- q-position: [    0.0151515,    0.0000000,    0.0000000 ]
  distance:    0.0054269
  band:
  - # 1
    frequency:   -0.0702358965
  - # 2
    frequency:    0.2396368635
  - # 3
    frequency:    0.3700045730
  - # 4
    frequency:    3.5334874995
  - # 5
    frequency:    3.5478491664
  - # 6
    frequency:    5.6587279999
  - # 7
    frequency:    6.8436134097
  - # 8
    frequency:    6.8566267661
  - # 9
    frequency:    7.7881568468
  - # 10
    frequency:    7.7919880722
  - # 11
    frequency:   10.9352254525
  - # 12
    frequency:   13.4528057308
  - # 13
    frequency:   13.5166736798
  - # 14
    frequency:   14.0518323885
  - # 15
    frequency:   17.3782898817
  - # 16
    frequency:   17.9976833374
  - # 17
    frequency:   18.0030303090
  - # 18
    frequency:  113.0007624302

- q-position: [    0.0202020,    0.0000000,    0.0000000 ]
  distance:    0.0072358
  band:
  - # 1
    frequency:   -0.0802318726
  - # 2
    frequency:    0.3193896155
  - # 3
    frequency:    0.4915311872
  - # 4
    frequency:    3.5377391259
  - # 5
    frequency:    3.5631092370
  - # 6
    frequency:    5.6508649819
  - # 7
    frequency:    6.8435249097
  - # 8
    frequency:    6.8664558578
  - # 9
    frequency:    7.7889672039
  - # 10
    frequency:    7.7957665853
  - # 11
    frequency:   10.9306214876
  - # 12
    frequency:   13.4148973117
  - # 13
    frequency:   13.5191092410
  - # 14
    frequency:   14.1013545101
  - # 15
    frequency:   17.3766066716
  - # 16
    frequency:   17.9999976564
  - # 17
    frequency:   18.0094660902
  - # 18
    frequency:  113.0000991165

- q-position: [    0.0252525,    0.0000000,    0.0000000 ]
  distance:    0.0090448
  band:
  - # 1
    frequency:   -0.0866876275
  - # 2
    frequency:    0.3990338476
  - # 3
    frequency:    0.6132206555
  - # 4
    frequency:    3.5431927636
  - # 5
    frequency:    3.5825156755
  - # 6
    frequency:    5.6410110397
  - # 7
    frequency:    6.8434029651
  - # 8
    frequency:    6.8788372753
  - # 9
    frequency:    7.7900031697
  - # 10
    frequency:    7.8006036743
  - # 11
    frequency:   10.9247462502
  - # 12
    frequency:   13.3733244360
  - # 13
    frequency:   13.5222296953
  - # 14
    frequency:   14.1577695281
  - # 15
    frequency:   17.3744430819
  - # 16
    frequency:   18.0029492661
  - # 17
    frequency:   18.0176686609
  - # 18
    frequency:  112.9992407429

- q-position: [    0.0303030,    0.0000000,    0.0000000 ]
  distance:    0.0108538
  band:
  - # 1
    frequency:   -0.0870614379
  - # 2
    frequency:    0.4785419927
  - # 3
    frequency:    0.7349075047
  - # 4
    frequency:    3.5498390698
  - # 5
    frequency:    3.6059194010
  - # 6
    frequency:    5.6293365594
  - # 7
    frequency:    6.8432417446
  - # 8
    frequency:    6.8936007416
  - # 9
    frequency:    7.7912602485
  - # 10
    frequency:    7.8064834560
  - # 11
    frequency:   10.9176318273
  - # 12
    frequency:   13.3298718038
  - # 13
    frequency:   13.5260269024
  - # 14
    frequency:   14.2192268001
  - # 15
    frequency:   17.3718001973
  - # 16
    frequency:   18.0065204692
  - # 17
    frequency:   18.0275841519
  - # 18
    frequency:  112.9981832866

- q-position: [    0.0353535,    0.0000000,    0.0000000 ]
  distance:    0.0126627
  band:
  - # 1
    frequency:   -0.0771669701
  - # 2
    frequency:    0.5578861863
  - # 3
    frequency:    0.8564987267
  - # 4
    frequency:    3.5576668557
  - # 5
    frequency:    3.6331494176
  - # 6
    frequency:    5.6160297736
  - # 7
    frequency:    6.8430344314
  - # 8
    frequency:    6.9105585455
  - # 9
    frequency:    7.7927328885
  - # 10
    frequency:    7.8133863862
  - # 11
    frequency:   10.9093163434
  - # 12
    frequency:   13.2856707386
  - # 13
    frequency:   13.5304910184
  - # 14
    frequency:   14.2845158913
  - # 15
    frequency:   17.3686799870
  - # 16
    frequency:   18.0106899229
  - # 17
    frequency:   18.0391469744
  - # 18
    frequency:  112.9969219782

- q-position: [    0.0404040,    0.0000000,    0.0000000 ]
  distance:    0.0144717
  band:
  - # 1
    frequency:   -0.0435197789
  - # 2
    frequency:    0.6370382012
  - # 3
    frequency:    0.9779280792
  - # 4
    frequency:    3.5666632189
  - # 5
    frequency:    3.6640180897
  - # 6
    frequency:    5.6012889051
  - # 7
    frequency:    6.8427733976
  - # 8
    frequency:    6.9295136129
  - # 9
    frequency:    7.7944144521
  - # 10
    frequency:    7.8212892046
  - # 11
    frequency:   10.8998433605
  - # 12
    frequency:   13.2414366141
  - # 13
    frequency:   13.5356105571
  - # 14
    frequency:   14.3528299769
  - # 15
    frequency:   17.3650855569
  - # 16
    frequency:   18.0154328087
  - # 17
    frequency:   18.0522800912
  - # 18
    frequency:  112.9954513870

- q-position: [    0.0454545,    0.0000000,    0.0000000 ]
  distance:    0.0162806
  band:
  - # 1
    frequency:    0.0734596763
  - # 2
    frequency:    0.7159693797
  - # 3
    frequency:    1.0991397722
  - # 4
    frequency:    3.5768136940
  - # 5
    frequency:    3.6983263381
  - # 6
    frequency:    5.5853153791
  - # 7
    frequency:    6.8424503992
  - # 8
    frequency:    6.9502665370
  - # 9
    frequency:    7.7962971853
  - # 10
    frequency:    7.8301648891
  - # 11
    frequency:   10.8892612185
  - # 12
    frequency:   13.1976252261
  - # 13
    frequency:   13.5413724610
  - # 14
    frequency:   14.4236103963
  - # 15
    frequency:   17.3610213573
  - # 16
    frequency:   18.0207210311
  - # 17
    frequency:   18.0668954114
  - # 18
    frequency:  112.9937655205

- q-position: [    0.0505051,    0.0000000,    0.0000000 ]
  distance:    0.0180896
  band:
  - # 1
    frequency:    0.1293764972
  - # 2
    frequency:    0.7946505637
  - # 3
    frequency:    1.2200815162
  - # 4
    frequency:    3.5881024197
  - # 5
    frequency:    3.7358684923
  - # 6
    frequency:    5.5683083978
  - # 7
    frequency:    6.8420567874
  - # 8
    frequency:    6.9726212660
  - # 9
    frequency:    7.7983721876
  - # 10
    frequency:    7.8399826294
  - # 11
    frequency:   10.8776223355
  - # 12
    frequency:   13.1545283688
  - # 13
    frequency:   13.5477621805
  - # 14
    frequency:   14.4964520773
  - # 15
    frequency:   17.3564933320
  - # 16
    frequency:   18.0265234430
  - # 17
    frequency:   18.0828943213
  - # 18
    frequency:  112.9918579353

- q-position: [    0.0555556,    0.0000000,    0.0000000 ]
  distance:    0.0198986
  band:
  - # 1
    frequency:    0.1815627542
  - # 2
    frequency:    0.8730520219
  - # 3
    frequency:    1.3407010954
  - # 4
    frequency:    3.6005123189
  - # 5
    frequency:    3.7764366040
  - # 6
    frequency:    5.5504609406
  - # 7
    frequency:    6.8415837302
  - # 8
    frequency:    6.9963893808
  - # 9
    frequency:    7.8006293842
  - # 10
    frequency:    7.8507078275
  - # 11
    frequency:   10.8649824887
  - # 12
    frequency:   13.1123315609
  - # 13
    frequency:   13.5547637619
  - # 14
    frequency:   14.5710468603
  - # 15
    frequency:   17.3515089990
  - # 16
    frequency:   18.0328060973
  - # 17
    frequency:   18.1001683506
  - # 18
    frequency:  112.9897218601

- q-position: [    0.0606061,    0.0000000,    0.0000000 ]
  distance:    0.0217075
  band:
  - # 1
    frequency:    0.2343194828
  - # 2
    frequency:    0.9511433753
  - # 3
    frequency:    1.4609444454
  - # 4
    frequency:    3.6140252897
  - # 5
    frequency:    3.8198241074
  - # 6
    frequency:    5.5319570918
  - # 7
    frequency:    6.8410224400
  - # 8
    frequency:    7.0213930600
  - # 9
    frequency:    7.8030575040
  - # 10
    frequency:    7.8623021343
  - # 11
    frequency:   10.8514000964
  - # 12
    frequency:   13.0711493770
  - # 13
    frequency:   13.5623599414
  - # 14
    frequency:   14.6471492456
  - # 15
    frequency:   17.3460774669
  - # 16
    frequency:   18.0395325232
  - # 17
    frequency:   18.1185999669
  - # 18
    frequency:  112.9873503281

- q-position: [    0.0656566,    0.0000000,    0.0000000 ]
  distance:    0.0235165
  band:
  - # 1
    frequency:    0.2887425531
  - # 2
    frequency:    1.0288935220
  - # 3
    frequency:    1.5807544405
  - # 4
    frequency:    3.6286224038
  - # 5
    frequency:    3.8658287735
  - # 6
    frequency:    5.5129705061
  - # 7
    frequency:    6.8403644005
  - # 8
    frequency:    7.0474669180
  - # 9
    frequency:    7.8056440640
  - # 10
    frequency:    7.8747235295
  - # 11
    frequency:   10.8369355207
  - # 12
    frequency:   13.0310475931
  - # 13
    frequency:   13.5705322460
  - # 14
    frequency:   14.7245553284
  - # 15
    frequency:   17.3402093897
  - # 16
    frequency:   18.0466640236
  - # 17
    frequency:   18.1380634842
  - # 18
    frequency:  112.9847363173

- q-position: [    0.0707071,    0.0000000,    0.0000000 ]
  distance:    0.0253255
  band:
  - # 1
    frequency:    0.3451812211
  - # 2
    frequency:    1.1062705611
  - # 3
    frequency:    1.7000700466
  - # 4
    frequency:    3.6442841085
  - # 5
    frequency:    3.9142549591
  - # 6
    frequency:    5.4936637947
  - # 7
    frequency:    6.8396015885
  - # 8
    frequency:    7.0744589373
  - # 9
    frequency:    7.8083753639
  - # 10
    frequency:    7.8879264521
  - # 11
    frequency:   10.8216504067
  - # 12
    frequency:   12.9920574649
  - # 13
    frequency:   13.5792610991
  - # 14
    frequency:   14.8030895854
  - # 15
    frequency:   17.3339168757
  - # 16
    frequency:   18.0541599935
  - # 17
    frequency:   18.1584260670
  - # 18
    frequency:  112.9818728988

- q-position: [    0.0757576,    0.0000000,    0.0000000 ]
  distance:    0.0271344
  band:
  - # 1
    frequency:    0.4037189137
  - # 2
    frequency:    1.1832417180
  - # 3
    frequency:    1.8188256769
  - # 4
    frequency:    3.6609904305
  - # 5
    frequency:    3.9649151865
  - # 6
    frequency:    5.4741886222
  - # 7
    frequency:    6.8387266841
  - # 8
    frequency:    7.1022307132
  - # 9
    frequency:    7.8112364920
  - # 10
    frequency:    7.9018619847
  - # 11
    frequency:   10.8056070729
  - # 12
    frequency:   12.9541852093
  - # 13
    frequency:   13.5885259294
  - # 14
    frequency:   14.8825964224
  - # 15
    frequency:   17.3272133583
  - # 16
    frequency:   18.0619782556
  - # 17
    frequency:   18.1795488104
  - # 18
    frequency:  112.9787533887

- q-position: [    0.0808081,    0.0000000,    0.0000000 ]
  distance:    0.0289434
  band:
  - # 1
    frequency:    0.4643246994
  - # 2
    frequency:    1.2597732723
  - # 3
    frequency:    1.9369506729
  - # 4
    frequency:    3.6787211761
  - # 5
    frequency:    4.0176311077
  - # 6
    frequency:    5.4546863362
  - # 7
    frequency:    6.8377332661
  - # 8
    frequency:    7.1306571983
  - # 9
    frequency:    7.8142113436
  - # 10
    frequency:    7.9164780954
  - # 11
    frequency:   10.7888679636
  - # 12
    frequency:   12.9174184890
  - # 13
    frequency:   13.5983052845
  - # 14
    frequency:   14.9629346674
  - # 15
    frequency:   17.3201134464
  - # 16
    frequency:   18.0700754107
  - # 17
    frequency:   18.2012878762
  - # 18
    frequency:  112.9753715052

- q-position: [    0.0858586,    0.0000000,    0.0000000 ]
  distance:    0.0307523
  band:
  - # 1
    frequency:    0.5269136735
  - # 2
    frequency:    1.3358304900
  - # 3
    frequency:    2.0543688686
  - # 4
    frequency:    3.6974561264
  - # 5
    frequency:    4.0722339125
  - # 6
    frequency:    5.4352889964
  - # 7
    frequency:    6.8366159872
  - # 8
    frequency:    7.1596261066
  - # 9
    frequency:    7.8172826561
  - # 10
    frequency:    7.9317199364
  - # 11
    frequency:   10.7714951684
  - # 12
    frequency:   12.8817309763
  - # 13
    frequency:   13.6085769447
  - # 14
    frequency:   15.0439739208
  - # 15
    frequency:   17.3126327627
  - # 16
    frequency:   18.0784072004
  - # 17
    frequency:   18.2234956659
  - # 18
    frequency:  112.9717215259

- q-position: [    0.0909091,    0.0000000,    0.0000000 ]
  distance:    0.0325613
  band:
  - # 1
    frequency:    0.5913747204
  - # 2
    frequency:    1.4113775620
  - # 3
    frequency:    2.1709982198
  - # 4
    frequency:    3.7171752219
  - # 5
    frequency:    4.1285642307
  - # 6
    frequency:    5.4161207120
  - # 7
    frequency:    6.8353707259
  - # 8
    frequency:    7.1890370968
  - # 9
    frequency:    7.8204320587
  - # 10
    frequency:    7.9475301975
  - # 11
    frequency:   10.7535500154
  - # 12
    frequency:   12.8470856548
  - # 13
    frequency:   13.6193180390
  - # 14
    frequency:   15.1255920955
  - # 15
    frequency:   17.3047877839
  - # 16
    frequency:   18.0869288783
  - # 17
    frequency:   18.2460220142
  - # 18
    frequency:  112.9677984466

- q-position: [    0.0959596,    0.0000000,    0.0000000 ]
  distance:    0.0343703
  band:
  - # 1
    frequency:    0.6575844934
  - # 2
    frequency:    1.4863775519
  - # 3
    frequency:    2.2867504866
  - # 4
    frequency:    3.7378587347
  - # 5
    frequency:    4.1864715593
  - # 6
    frequency:    5.3972992476
  - # 7
    frequency:    6.8339947121
  - # 8
    frequency:    7.2188008282
  - # 9
    frequency:    7.8236401399
  - # 10
    frequency:    7.9638495084
  - # 11
    frequency:   10.7350927349
  - # 12
    frequency:   12.8134372708
  - # 13
    frequency:   13.6305051609
  - # 14
    frequency:   15.2076737274
  - # 15
    frequency:   17.2965956909
  - # 16
    frequency:   18.0955955874
  - # 17
    frequency:   18.2687153884
  - # 18
    frequency:  112.9635981370

- q-position: [    0.1010101,    0.0000000,    0.0000000 ]
  distance:    0.0361792
  band:
  - # 1
    frequency:    0.7254148500
  - # 2
    frequency:    1.5607923560
  - # 3
    frequency:    2.4015309689
  - # 4
    frequency:    3.7594874235
  - # 5
    frequency:    4.2458132160
  - # 6
    frequency:    5.3789379026
  - # 7
    frequency:    6.8324866250
  - # 8
    frequency:    7.2488379567
  - # 9
    frequency:    7.8268865316
  - # 10
    frequency:    7.9806168835
  - # 11
    frequency:   10.7161821922
  - # 12
    frequency:   12.7807341999
  - # 13
    frequency:   13.6421144835
  - # 14
    frequency:   15.2901087875
  - # 15
    frequency:   17.2880742377
  - # 16
    frequency:   18.1043627387
  - # 17
    frequency:   18.2914240803
  - # 18
    frequency:  112.9591174934

- q-position: [    0.1060606,    0.0000000,    0.0000000 ]
  distance:    0.0379882
  band:
  - # 1
    frequency:    0.7947369009
  - # 2
    frequency:    1.6345826778
  - # 3
    frequency:    2.5152382924
  - # 4
    frequency:    3.7820426678
  - # 5
    frequency:    4.3064527703
  - # 6
    frequency:    5.3611477306
  - # 7
    frequency:    6.8308466612
  - # 8
    frequency:    7.2790781199
  - # 9
    frequency:    7.8301500106
  - # 10
    frequency:    7.9977701991
  - # 11
    frequency:   10.6968756833
  - # 12
    frequency:   12.7489199038
  - # 13
    frequency:   13.6541218729
  - # 14
    frequency:   15.3727918176
  - # 15
    frequency:   17.2792416489
  - # 16
    frequency:   18.1131863893
  - # 17
    frequency:   18.3139973816
  - # 18
    frequency:  112.9543545861

- q-position: [    0.1111111,    0.0000000,    0.0000000 ]
  distance:    0.0397971
  band:
  - # 1
    frequency:    0.8654231912
  - # 2
    frequency:    1.7077080213
  - # 3
    frequency:    2.6277642486
  - # 4
    frequency:    3.8055065785
  - # 5
    frequency:    4.3682578355
  - # 6
    frequency:    5.3440402371
  - # 7
    frequency:    6.8290765741
  - # 8
    frequency:    7.3094589445
  - # 9
    frequency:    7.8334086163
  - # 10
    frequency:    8.0152466920
  - # 11
    frequency:   10.6772287851
  - # 12
    frequency:   12.7179340947
  - # 13
    frequency:   13.6665029996
  - # 14
    frequency:   15.4556212703
  - # 15
    frequency:   17.2701165520
  - # 16
    frequency:   18.1220236151
  - # 17
    frequency:   18.3362867321
  - # 18
    frequency:  112.9493087993

- q-position: [    0.1161616,    0.0000000,    0.0000000 ]
  distance:    0.0416061
  band:
  - # 1
    frequency:    0.9373488024
  - # 2
    frequency:    1.7801267067
  - # 3
    frequency:    2.7389936894
  - # 4
    frequency:    3.8298620789
  - # 5
    frequency:    4.4310969877
  - # 6
    frequency:    5.3277308174
  - # 7
    frequency:    6.8271796838
  - # 8
    frequency:    7.3399251022
  - # 9
    frequency:    7.8366397832
  - # 10
    frequency:    8.0329834682
  - # 11
    frequency:   10.6572952527
  - # 12
    frequency:   12.6877136904
  - # 13
    frequency:   13.6792334467
  - # 14
    frequency:   15.5384989669
  - # 15
    frequency:   17.2607179566
  - # 16
    frequency:   18.1308328744
  - # 17
    frequency:   18.3581468349
  - # 18
    frequency:  112.9439809627

- q-position: [    0.1212121,    0.0000000,    0.0000000 ]
  distance:    0.0434151
  band:
  - # 1
    frequency:    1.0103918097
  - # 2
    frequency:    1.8517959125
  - # 3
    frequency:    2.8488044786
  - # 4
    frequency:    3.8550929549
  - # 5
    frequency:    4.4948353844
  - # 6
    frequency:    5.3123433833
  - # 7
    frequency:    6.8251608591
  - # 8
    frequency:    7.3704274284
  - # 9
    frequency:    7.8398204869
  - # 10
    frequency:    8.0509180092
  - # 11
    frequency:   10.6371269510
  - # 12
    frequency:   12.6581936174
  - # 13
    frequency:   13.6922888145
  - # 14
    frequency:   15.6213296105
  - # 15
    frequency:   17.2510652921
  - # 16
    frequency:   18.1395743600
  - # 17
    frequency:   18.3794367309
  - # 18
    frequency:  112.9383734715

- q-position: [    0.1262626,    0.0000000,    0.0000000 ]
  distance:    0.0452240
  band:
  - # 1
    frequency:    1.0844333507
  - # 2
    frequency:    1.9226717469
  - # 3
    frequency:    2.9570674975
  - # 4
    frequency:    3.8811838683
  - # 5
    frequency:    4.5593283033
  - # 6
    frequency:    5.2980169881
  - # 7
    frequency:    6.8230264743
  - # 8
    frequency:    7.4009221164
  - # 9
    frequency:    7.8429274020
  - # 10
    frequency:    8.0689886648
  - # 11
    frequency:   10.6167738135
  - # 12
    frequency:   12.6293075048
  - # 13
    frequency:   13.7056448213
  - # 14
    frequency:   15.7040203012
  - # 15
    frequency:   17.2411785221
  - # 16
    frequency:   18.1482103347
  - # 17
    frequency:   18.4000208289
  - # 18
    frequency:  112.9324903958

- q-position: [    0.1313131,    0.0000000,    0.0000000 ]
  distance:    0.0470330
  band:
  - # 1
    frequency:    1.1593574564
  - # 2
    frequency:    1.9927093552
  - # 3
    frequency:    3.0636467008
  - # 4
    frequency:    3.9081203308
  - # 5
    frequency:    4.6244111479
  - # 6
    frequency:    5.2849159274
  - # 7
    frequency:    6.8207843424
  - # 8
    frequency:    7.4313699929
  - # 9
    frequency:    7.8459370690
  - # 10
    frequency:    8.0871351204
  - # 11
    frequency:   10.5962838160
  - # 12
    frequency:   12.6009882993
  - # 13
    frequency:   13.7192773995
  - # 14
    frequency:   15.7864800036
  - # 15
    frequency:   17.2310783602
  - # 16
    frequency:   18.1567054477
  - # 17
    frequency:   18.4197698861
  - # 18
    frequency:  112.9263375755

- q-position: [    0.1363636,    0.0000000,    0.0000000 ]
  distance:    0.0488419
  band:
  - # 1
    frequency:    1.2350507399
  - # 2
    frequency:    2.0618630638
  - # 3
    frequency:    3.1683992109
  - # 4
    frequency:    3.9358886344
  - # 5
    frequency:    4.6898831282
  - # 6
    frequency:    5.2732461369
  - # 7
    frequency:    6.8184436273
  - # 8
    frequency:    7.4617358779
  - # 9
    frequency:    7.8488260675
  - # 10
    frequency:    8.1052988310
  - # 11
    frequency:   10.5757029573
  - # 12
    frequency:   12.5731688248
  - # 13
    frequency:   13.7331627864
  - # 14
    frequency:   15.8686189112
  - # 15
    frequency:   17.2207866258
  - # 16
    frequency:   18.1650270287
  - # 17
    frequency:   18.4385619345
  - # 18
    frequency:  112.9199227005

- q-position: [    0.1414141,    0.0000000,    0.0000000 ]
  distance:    0.0506509
  band:
  - # 1
    frequency:    1.3114020060
  - # 2
    frequency:    2.1300865672
  - # 3
    frequency:    3.2711754383
  - # 4
    frequency:    3.9644757364
  - # 5
    frequency:    4.7554790171
  - # 6
    frequency:    5.2632835168
  - # 7
    frequency:    6.8160147396
  - # 8
    frequency:    7.4919880303
  - # 9
    frequency:    7.8515711945
  - # 10
    frequency:    8.1234234119
  - # 11
    frequency:   10.5550752389
  - # 12
    frequency:   12.5457823016
  - # 13
    frequency:   13.7472776098
  - # 14
    frequency:   15.9503476383
  - # 15
    frequency:   17.2103267983
  - # 16
    frequency:   18.1731453562
  - # 17
    frequency:   18.4562831529
  - # 18
    frequency:  112.9132553750

- q-position: [    0.1464646,    0.0000000,    0.0000000 ]
  distance:    0.0524599
  band:
  - # 1
    frequency:    1.3883018169
  - # 2
    frequency:    2.1973331583
  - # 3
    frequency:    3.3718192061
  - # 4
    frequency:    3.9938690951
  - # 5
    frequency:    4.8208173355
  - # 6
    frequency:    5.2554258628
  - # 7
    frequency:    6.8135092172
  - # 8
    frequency:    7.5220976757
  - # 9
    frequency:    7.8541496439
  - # 10
    frequency:    8.1414549825
  - # 11
    frequency:   10.5344426364
  - # 12
    frequency:   12.5187628388
  - # 13
    frequency:   13.7615989683
  - # 14
    frequency:   16.0315761367
  - # 15
    frequency:   17.1997248619
  - # 16
    frequency:   18.1810338972
  - # 17
    frequency:   18.4728286791
  - # 18
    frequency:  112.9063471652

- q-position: [    0.1515152,    0.0000000,    0.0000000 ]
  distance:    0.0542688
  band:
  - # 1
    frequency:    1.4656420418
  - # 2
    frequency:    2.2635560063
  - # 3
    frequency:    3.4701678598
  - # 4
    frequency:    4.0240564557
  - # 5
    frequency:    4.8853001918
  - # 6
    frequency:    5.2502932084
  - # 7
    frequency:    6.8109395959
  - # 8
    frequency:    7.5520386152
  - # 9
    frequency:    7.8565391841
  - # 10
    frequency:    8.1593424576
  - # 11
    frequency:   10.5138450562
  - # 12
    frequency:   12.4920459061
  - # 13
    frequency:   13.7761045049
  - # 14
    frequency:   16.1122121800
  - # 15
    frequency:   17.1890105923
  - # 16
    frequency:   18.1886695161
  - # 17
    frequency:   18.4881033637
  - # 18
    frequency:  112.8992116276

- q-position: [    0.1565657,    0.0000000,    0.0000000 ]
  distance:    0.0560778
  band:
  - # 1
    frequency:    1.5433154058
  - # 2
    frequency:    2.3287084800
  - # 3
    frequency:    3.5660523481
  - # 4
    frequency:    4.0550255867
  - # 5
    frequency:    4.9479140618
  - # 6
    frequency:    5.2489273138
  - # 7
    frequency:    6.8083192730
  - # 8
    frequency:    7.5817869062
  - # 9
    frequency:    7.8587183337
  - # 10
    frequency:    8.1770377847
  - # 11
    frequency:   10.4933202758
  - # 12
    frequency:   12.4655687912
  - # 13
    frequency:   13.7907724748
  - # 14
    frequency:   16.1921591576
  - # 15
    frequency:   17.1782195392
  - # 16
    frequency:   18.1960326509
  - # 17
    frequency:   18.5020224627
  - # 18
    frequency:  112.8918643196

- q-position: [    0.1616162,    0.0000000,    0.0000000 ]
  distance:    0.0578867
  band:
  - # 1
    frequency:    1.6212150473
  - # 2
    frequency:    2.3927445185
  - # 3
    frequency:    3.6592972794
  - # 4
    frequency:    4.0867639667
  - # 5
    frequency:    5.0068533731
  - # 6
    frequency:    5.2531684406
  - # 7
    frequency:    6.8056623655
  - # 8
    frequency:    7.6113206118
  - # 9
    frequency:    7.8606665295
  - # 10
    frequency:    8.1944961284
  - # 11
    frequency:   10.4729038614
  - # 12
    frequency:   12.4392710458
  - # 13
    frequency:   13.8055818063
  - # 14
    frequency:   16.2713127331
  - # 15
    frequency:   17.1673961432
  - # 16
    frequency:   18.2031074543
  - # 17
    frequency:   18.5145122701
  - # 18
    frequency:  112.8843227909

- q-position: [    0.1666667,    0.0000000,    0.0000000 ]
  distance:    0.0596957
  band:
  - # 1
    frequency:    1.6992340915
  - # 2
    frequency:    2.4556190424
  - # 3
    frequency:    3.7497210037
  - # 4
    frequency:    4.1192584268
  - # 5
    frequency:    5.0590271545
  - # 6
    frequency:    5.2661491038
  - # 7
    frequency:    6.8029835691
  - # 8
    frequency:    7.6406196081
  - # 9
    frequency:    7.8623642877
  - # 10
    frequency:    8.2116760016
  - # 11
    frequency:   10.4526290650
  - # 12
    frequency:   12.4130949186
  - # 13
    frequency:   13.8205121555
  - # 14
    frequency:   16.3495555684
  - # 15
    frequency:   17.1565987826
  - # 16
    frequency:   18.2098818983
  - # 17
    frequency:   18.5255106917
  - # 18
    frequency:  112.8766065537

- q-position: [    0.1717172,    0.0000000,    0.0000000 ]
  distance:    0.0615047
  band:
  - # 1
    frequency:    1.7772652437
  - # 2
    frequency:    2.5172884040
  - # 3
    frequency:    3.8371358396
  - # 4
    frequency:    4.1524947526
  - # 5
    frequency:    5.1004531974
  - # 6
    frequency:    5.2919002401
  - # 7
    frequency:    6.8002980178
  - # 8
    frequency:    7.6696654420
  - # 9
    frequency:    7.8637933537
  - # 10
    frequency:    8.2285393492
  - # 11
    frequency:   10.4325266962
  - # 12
    frequency:   12.3869857784
  - # 13
    frequency:   13.8355439534
  - # 14
    frequency:   16.4267486166
  - # 15
    frequency:   17.1459082413
  - # 16
    frequency:   18.2163478417
  - # 17
    frequency:   18.5349677625
  - # 18
    frequency:  112.8687370346

- q-position: [    0.1767677,    0.0000000,    0.0000000 ]
  distance:    0.0633136
  band:
  - # 1
    frequency:    1.8552004046
  - # 2
    frequency:    2.5777108647
  - # 3
    frequency:    3.9213486876
  - # 4
    frequency:    4.1864572545
  - # 5
    frequency:    5.1293879713
  - # 6
    frequency:    5.3322213057
  - # 7
    frequency:    6.7976211490
  - # 8
    frequency:    7.6984412299
  - # 9
    frequency:    7.8649368413
  - # 10
    frequency:    8.2450515862
  - # 11
    frequency:   10.4126249733
  - # 12
    frequency:   12.3608925212
  - # 13
    frequency:   13.8506584461
  - # 14