nqpoint: 300    
npath: 3      
segment_nqpoint:
- 100
- 100
- 100
labels:
- [ 'G', 'M' ]
- [ 'M', 'K' ]
- [ 'K', 'G' ]
reciprocal_lattice:
- [   0.31018798,   0.17908712,   0.00000000 ] # a*
- [   0.00000000,   0.35817423,   0.00000000 ] # b*
- [   0.00000000,   0.00000000,   0.04119036 ] # c*
natom: 6      
lattice:
- [     3.223851503146520,     0.000000000000000,     0.000000000000000 ] # a
- [    -1.611925751573260,     2.791937299747234,     0.000000000000000 ] # b
- [     0.000000000000000,     0.000000000000000,    24.277523347104122 ] # c
points:
- symbol: Br # 1
  coordinates: [  0.333332985432215,  0.666666983183674,  0.629286732780610 ]
  mass: 79.904000
- symbol: C # 2
  coordinates: [  0.000000000000000,  0.000000000000000,  0.507923577626203 ]
  mass: 12.010700
- symbol: H # 3
  coordinates: [  0.666666984744047,  0.333332985985145,  0.370713267219390 ]
  mass: 1.007940
- symbol: O # 4
  coordinates: [  0.666666984744047,  0.333332985985145,  0.411311059537085 ]
  mass: 15.999400
- symbol: Ti # 5
  coordinates: [  0.333332985432215,  0.666666983183674,  0.462485870929972 ]
  mass: 47.867000
- symbol: Ti # 6
  coordinates: [  0.666666984744047,  0.333332985985145,  0.552611466385729 ]
  mass: 47.867000

phonon:
- q-position: [    0.0000000,    0.0000000,    0.0000000 ]
  distance:    0.0000000
  band:
  - # 1
    frequency:   -0.0000181872
  - # 2
    frequency:   -0.0000004925
  - # 3
    frequency:    0.0000146063
  - # 4
    frequency:    3.6172151851
  - # 5
    frequency:    3.6172151851
  - # 6
    frequency:    5.6585458745
  - # 7
    frequency:    6.7926057683
  - # 8
    frequency:    6.7926057684
  - # 9
    frequency:    7.6415976344
  - # 10
    frequency:    7.6415976344
  - # 11
    frequency:   10.8817650822
  - # 12
    frequency:   13.4652125319
  - # 13
    frequency:   13.4652125320
  - # 14
    frequency:   14.0661714700
  - # 15
    frequency:   17.4380589318
  - # 16
    frequency:   18.2019660332
  - # 17
    frequency:   18.2019660333
  - # 18
    frequency:  113.0995172589

- q-position: [    0.0050505,    0.0000000,    0.0000000 ]
  distance:    0.0018090
  band:
  - # 1
    frequency:    0.0023794821
  - # 2
    frequency:    0.0797005622
  - # 3
    frequency:    0.1252348250
  - # 4
    frequency:    3.6179006030
  - # 5
    frequency:    3.6194516927
  - # 6
    frequency:    5.6571479816
  - # 7
    frequency:    6.7927543226
  - # 8
    frequency:    6.7942657665
  - # 9
    frequency:    7.6418677142
  - # 10
    frequency:    7.6423452454
  - # 11
    frequency:   10.8811904815
  - # 12
    frequency:   13.4600062939
  - # 13
    frequency:   13.4656122309
  - # 14
    frequency:   14.0728340222
  - # 15
    frequency:   17.4377291848
  - # 16
    frequency:   18.2017548496
  - # 17
    frequency:   18.2024982309
  - # 18
    frequency:  113.0992035769

- q-position: [    0.0101010,    0.0000000,    0.0000000 ]
  distance:    0.0036179
  band:
  - # 1
    frequency:    0.0094995999
  - # 2
    frequency:    0.1593569124
  - # 3
    frequency:    0.2504272268
  - # 4
    frequency:    3.6199552219
  - # 5
    frequency:    3.6261425343
  - # 6
    frequency:    5.6529871981
  - # 7
    frequency:    6.7931983034
  - # 8
    frequency:    6.7992128684
  - # 9
    frequency:    7.6426765926
  - # 10
    frequency:    7.6445854501
  - # 11
    frequency:   10.8794697275
  - # 12
    frequency:   13.4450382678
  - # 13
    frequency:   13.4668102752
  - # 14
    frequency:   14.0921651714
  - # 15
    frequency:   17.4367409510
  - # 16
    frequency:   18.2011231943
  - # 17
    frequency:   18.2040912251
  - # 18
    frequency:  113.0982635771

- q-position: [    0.0151515,    0.0000000,    0.0000000 ]
  distance:    0.0054269
  band:
  - # 1
    frequency:    0.0213046177
  - # 2
    frequency:    0.2389249766
  - # 3
    frequency:    0.3755344197
  - # 4
    frequency:    3.6233741518
  - # 5
    frequency:    3.6372323773
  - # 6
    frequency:    5.6461595638
  - # 7
    frequency:    6.7939326937
  - # 8
    frequency:    6.8073510673
  - # 9
    frequency:    7.6440201833
  - # 10
    frequency:    7.6483103588
  - # 11
    frequency:   10.8766119121
  - # 12
    frequency:   13.4219465542
  - # 13
    frequency:   13.4688035123
  - # 14
    frequency:   14.1225094248
  - # 15
    frequency:   17.4350972439
  - # 16
    frequency:   18.2000767413
  - # 17
    frequency:   18.2067342453
  - # 18
    frequency:  113.0967003949

- q-position: [    0.0202020,    0.0000000,    0.0000000 ]
  distance:    0.0072358
  band:
  - # 1
    frequency:    0.0377041788
  - # 2
    frequency:    0.3183609500
  - # 3
    frequency:    0.5005129022
  - # 4
    frequency:    3.6281492925
  - # 5
    frequency:    3.6526313106
  - # 6
    frequency:    5.6368168250
  - # 7
    frequency:    6.7949492238
  - # 8
    frequency:    6.8185287566
  - # 9
    frequency:    7.6458916675
  - # 10
    frequency:    7.6535068082
  - # 11
    frequency:   10.8726320163
  - # 12
    frequency:   13.3927111651
  - # 13
    frequency:   13.4715867045
  - # 14
    frequency:   14.1618579988
  - # 15
    frequency:   17.4328030571
  - # 16
    frequency:   18.1986249014
  - # 17
    frequency:   18.2104094290
  - # 18
    frequency:  113.0945192422

- q-position: [    0.0252525,    0.0000000,    0.0000000 ]
  distance:    0.0090448
  band:
  - # 1
    frequency:    0.0585763875
  - # 2
    frequency:    0.3976214296
  - # 3
    frequency:    0.6253180993
  - # 4
    frequency:    3.6342694064
  - # 5
    frequency:    3.6722180995
  - # 6
    frequency:    5.6251555333
  - # 7
    frequency:    6.7962365083
  - # 8
    frequency:    6.8325497545
  - # 9
    frequency:    7.6482814830
  - # 10
    frequency:    7.6601563421
  - # 11
    frequency:   10.8675506587
  - # 12
    frequency:   13.3591502706
  - # 13
    frequency:   13.4751525532
  - # 14
    frequency:   14.2083528893
  - # 15
    frequency:   17.4298653224
  - # 16
    frequency:   18.1967807550
  - # 17
    frequency:   18.2150919519
  - # 18
    frequency:  113.0917273883

- q-position: [    0.0303030,    0.0000000,    0.0000000 ]
  distance:    0.0108538
  band:
  - # 1
    frequency:    0.0837719462
  - # 2
    frequency:    0.4766635403
  - # 3
    frequency:    0.7499040128
  - # 4
    frequency:    3.6417202198
  - # 5
    frequency:    3.6958443573
  - # 6
    frequency:    5.6114044376
  - # 7
    frequency:    6.7977802316
  - # 8
    frequency:    6.8491860822
  - # 9
    frequency:    7.6511773116
  - # 10
    frequency:    7.6682351890
  - # 11
    frequency:   10.8613937550
  - # 12
    frequency:   13.3227138227
  - # 13
    frequency:   13.4794917338
  - # 14
    frequency:   14.2604936792
  - # 15
    frequency:   17.4262928527
  - # 16
    frequency:   18.1945609575
  - # 17
    frequency:   18.2207502088
  - # 18
    frequency:  113.0883341322

- q-position: [    0.0353535,    0.0000000,    0.0000000 ]
  distance:    0.0126627
  band:
  - # 1
    frequency:    0.1131188824
  - # 2
    frequency:    0.5554450543
  - # 3
    frequency:    0.8742228772
  - # 4
    frequency:    3.6504845496
  - # 5
    frequency:    3.7233393145
  - # 6
    frequency:    5.5958118769
  - # 7
    frequency:    6.7995633774
  - # 8
    frequency:    6.8681907798
  - # 9
    frequency:    7.6545640687
  - # 10
    frequency:    7.6777142391
  - # 11
    frequency:   10.8541921020
  - # 12
    frequency:   13.2844767817
  - # 13
    frequency:   13.4845929389
  - # 14
    frequency:   14.3171448440
  - # 15
    frequency:   17.4220962721
  - # 16
    frequency:   18.1919856193
  - # 17
    frequency:   18.2273460403
  - # 18
    frequency:  113.0843507670

- q-position: [    0.0404040,    0.0000000,    0.0000000 ]
  distance:    0.0144717
  band:
  - # 1
    frequency:    0.1464275410
  - # 2
    frequency:    0.6339245033
  - # 3
    frequency:    0.9982248240
  - # 4
    frequency:    3.6605424547
  - # 5
    frequency:    3.7545148582
  - # 6
    frequency:    5.5786344899
  - # 7
    frequency:    6.8015664975
  - # 8
    frequency:    6.8893094423
  - # 9
    frequency:    7.6584238984
  - # 10
    frequency:    7.6885590270
  - # 11
    frequency:   10.8459808974
  - # 12
    frequency:   13.2452084390
  - # 13
    frequency:   13.4904429324
  - # 14
    frequency:   14.3774670492
  - # 15
    frequency:   17.4172879338
  - # 16
    frequency:   18.1890781605
  - # 17
    frequency:   18.2348350056
  - # 18
    frequency:  113.0797905379

- q-position: [    0.0454545,    0.0000000,    0.0000000 ]
  distance:    0.0162806
  band:
  - # 1
    frequency:    0.1834955399
  - # 2
    frequency:    0.7120612811
  - # 3
    frequency:    1.1218575561
  - # 4
    frequency:    3.6718714087
  - # 5
    frequency:    3.7891705371
  - # 6
    frequency:    5.5601280099
  - # 7
    frequency:    6.8037680104
  - # 8
    frequency:    6.9122896956
  - # 9
    frequency:    7.6627361774
  - # 10
    frequency:    7.7007297261
  - # 11
    frequency:   10.8367992143
  - # 12
    frequency:   13.2054508610
  - # 13
    frequency:   13.4970266111
  - # 14
    frequency:   14.4408393964
  - # 15
    frequency:   17.4118818294
  - # 16
    frequency:   18.1858651413
  - # 17
    frequency:   18.2431666957
  - # 18
    frequency:  113.0746685914

- q-position: [    0.0505051,    0.0000000,    0.0000000 ]
  distance:    0.0180896
  band:
  - # 1
    frequency:    0.2241124406
  - # 2
    frequency:    0.7898157354
  - # 3
    frequency:    1.2450660346
  - # 4
    frequency:    3.6844464916
  - # 5
    frequency:    3.8270982811
  - # 6
    frequency:    5.5405404063
  - # 7
    frequency:    6.8061445244
  - # 8
    frequency:    6.9368883484
  - # 9
    frequency:    7.6674775335
  - # 10
    frequency:    7.7141811628
  - # 11
    frequency:   10.8266894443
  - # 12
    frequency:   13.1655835232
  - # 13
    frequency:   13.5043270770
  - # 14
    frequency:   14.5067955327
  - # 15
    frequency:   17.4058934909
  - # 16
    frequency:   18.1823760697
  - # 17
    frequency:   18.2522850845
  - # 18
    frequency:  113.0690019184

- q-position: [    0.0555556,    0.0000000,    0.0000000 ]
  distance:    0.0198986
  band:
  - # 1
    frequency:    0.2680639509
  - # 2
    frequency:    0.8671492485
  - # 3
    frequency:    1.3677921808
  - # 4
    frequency:    3.6982405986
  - # 5
    frequency:    3.8680866460
  - # 6
    frequency:    5.5201072561
  - # 7
    frequency:    6.8086711749
  - # 8
    frequency:    6.9628763236
  - # 9
    frequency:    7.6726218822
  - # 10
    frequency:    7.7288628590
  - # 11
    frequency:   10.8156967273
  - # 12
    frequency:   13.1258709461
  - # 13
    frequency:   13.5123257164
  - # 14
    frequency:   14.5749767921
  - # 15
    frequency:   17.3993398870
  - # 16
    frequency:   18.1786431874
  - # 17
    frequency:   18.2621289158
  - # 18
    frequency:  113.0628092894

- q-position: [    0.0606061,    0.0000000,    0.0000000 ]
  distance:    0.0217075
  band:
  - # 1
    frequency:    0.3151355440
  - # 2
    frequency:    0.9440243058
  - # 3
    frequency:    1.4899745948
  - # 4
    frequency:    3.7132246613
  - # 5
    frequency:    3.9119244650
  - # 6
    frequency:    5.4990490157
  - # 7
    frequency:    6.8113219692
  - # 8
    frequency:    6.9900416933
  - # 9
    frequency:    7.6781404858
  - # 10
    frequency:    7.7447191117
  - # 11
    frequency:   10.8038683841
  - # 12
    frequency:   13.0864962897
  - # 13
    frequency:   13.5210022890
  - # 14
    frequency:   14.6450993949
  - # 15
    frequency:   17.3922393165
  - # 16
    frequency:   18.1747012347
  - # 17
    frequency:   18.2726321213
  - # 18
    frequency:  113.0561111842

- q-position: [    0.0656566,    0.0000000,    0.0000000 ]
  distance:    0.0235165
  band:
  - # 1
    frequency:    0.3651154432
  - # 2
    frequency:    1.0204045506
  - # 3
    frequency:    1.6115482952
  - # 4
    frequency:    3.7293678795
  - # 5
    frequency:    3.9584038467
  - # 6
    frequency:    5.4775697871
  - # 7
    frequency:    6.8140701295
  - # 8
    frequency:    7.0181912177
  - # 9
    frequency:    7.6840020395
  - # 10
    frequency:    7.7616891201
  - # 11
    frequency:   10.7912533666
  - # 12
    frequency:   13.0475847116
  - # 13
    frequency:   13.5303350234
  - # 14
    frequency:   14.7169318841
  - # 15
    frequency:   17.3846112999
  - # 16
    frequency:   18.1705871983
  - # 17
    frequency:   18.2837242672
  - # 18
    frequency:  113.0489297140

- q-position: [    0.0707071,    0.0000000,    0.0000000 ]
  distance:    0.0253255
  band:
  - # 1
    frequency:    0.4177969703
  - # 2
    frequency:    1.0962548255
  - # 3
    frequency:    1.7324444805
  - # 4
    frequency:    3.7466379609
  - # 5
    frequency:    4.0073225105
  - # 6
    frequency:    5.4558571800
  - # 7
    frequency:    6.8168884265
  - # 8
    frequency:    7.0471507782
  - # 9
    frequency:    7.6901727870
  - # 10
    frequency:    7.7797071679
  - # 11
    frequency:   10.7779017381
  - # 12
    frequency:   13.0092196186
  - # 13
    frequency:   13.5403007209
  - # 14
    frequency:   14.7902796497
  - # 15
    frequency:   17.3764764710
  - # 16
    frequency:   18.1663400402
  - # 17
    frequency:   18.2953310259
  - # 18
    frequency:  113.0412885377

- q-position: [    0.0757576,    0.0000000,    0.0000000 ]
  distance:    0.0271344
  band:
  - # 1
    frequency:    0.4729802938
  - # 2
    frequency:    1.1715412003
  - # 3
    frequency:    1.8525903183
  - # 4
    frequency:    3.7650013630
  - # 5
    frequency:    4.0584854839
  - # 6
    frequency:    5.4340829349
  - # 7
    frequency:    6.8197494977
  - # 8
    frequency:    7.0767650440
  - # 9
    frequency:    7.6966166696
  - # 10
    frequency:    7.7987028685
  - # 11
    frequency:   10.7638641967
  - # 12
    frequency:   12.9714540700
  - # 13
    frequency:   13.5508748656
  - # 14
    frequency:   14.8649742728
  - # 15
    frequency:   17.3678564712
  - # 16
    frequency:   18.1620004134
  - # 17
    frequency:   18.3073746706
  - # 18
    frequency:  113.0332127731

- q-position: [    0.0808081,    0.0000000,    0.0000000 ]
  distance:    0.0289434
  band:
  - # 1
    frequency:    0.5304736399
  - # 2
    frequency:    1.2462309853
  - # 3
    frequency:    1.9719087624
  - # 4
    frequency:    3.7844235379
  - # 5
    frequency:    4.1117062087
  - # 6
    frequency:    5.4124040475
  - # 7
    frequency:    6.8226261424
  - # 8
    frequency:    7.1068966340
  - # 9
    frequency:    7.7032955085
  - # 10
    frequency:    7.8186014781
  - # 11
    frequency:   10.7491916470
  - # 12
    frequency:   12.9343188739
  - # 13
    frequency:   13.5620317410
  - # 14
    frequency:   14.9408661329
  - # 15
    frequency:   17.3587738473
  - # 16
    frequency:   18.1576103637
  - # 17
    frequency:   18.3197745885
  - # 18
    frequency:  113.0247289012

- q-position: [    0.0858586,    0.0000000,    0.0000000 ]
  distance:    0.0307523
  band:
  - # 1
    frequency:    0.5900940371
  - # 2
    frequency:    1.3202927312
  - # 3
    frequency:    2.0903184030
  - # 4
    frequency:    3.8048691734
  - # 5
    frequency:    4.1668071097
  - # 6
    frequency:    5.3909642128
  - # 7
    frequency:    6.8254915899
  - # 8
    frequency:    7.1374249724
  - # 9
    frequency:    7.7101692229
  - # 10
    frequency:    7.8393242780
  - # 11
    frequency:   10.7339348289
  - # 12
    frequency:   12.8978284146
  - # 13
    frequency:   13.5737445525
  - # 14
    frequency:   15.0178192323
  - # 15
    frequency:   17.3492519552
  - # 16
    frequency:   18.1532130213
  - # 17
    frequency:   18.3324478105
  - # 18
    frequency:  113.0158646672

- q-position: [    0.0909091,    0.0000000,    0.0000000 ]
  distance:    0.0325613
  band:
  - # 1
    frequency:    0.6516676751
  - # 2
    frequency:    1.3936962157
  - # 3
    frequency:    2.2077333513
  - # 4
    frequency:    3.8263024303
  - # 5
    frequency:    4.2236196744
  - # 6
    frequency:    5.3698954764
  - # 7
    frequency:    6.8283197364
  - # 8
    frequency:    7.1682449751
  - # 9
    frequency:    7.7171960815
  - # 10
    frequency:    7.8607890265
  - # 11
    frequency:   10.7181440038
  - # 12
    frequency:   12.8619849019
  - # 13
    frequency:   13.5859855536
  - # 14
    frequency:   15.0957075380
  - # 15
    frequency:   17.3393148724
  - # 16
    frequency:   18.1488522838
  - # 17
    frequency:   18.3453095543
  - # 18
    frequency:  113.0066489748

- q-position: [    0.0959596,    0.0000000,    0.0000000 ]
  distance:    0.0343703
  band:
  - # 1
    frequency:    0.7150299508
  - # 2
    frequency:    1.4664124172
  - # 3
    frequency:    2.3240631616
  - # 4
    frequency:    3.8486871708
  - # 5
    frequency:    4.2819840794
  - # 6
    frequency:    5.3493200433
  - # 7
    frequency:    6.8310853483
  - # 8
    frequency:    7.1992656618
  - # 9
    frequency:    7.7243329873
  - # 10
    frequency:    7.8829104734
  - # 11
    frequency:   10.7018686992
  - # 12
    frequency:   12.8267815102
  - # 13
    frequency:   13.5987261778
  - # 14
    frequency:   15.1744123683
  - # 15
    frequency:   17.3289873221
  - # 16
    frequency:   18.1445724935
  - # 17
    frequency:   18.3582737773
  - # 18
    frequency:  112.9971117782

- q-position: [    0.1010101,    0.0000000,    0.0000000 ]
  distance:    0.0361792
  band:
  - # 1
    frequency:    0.7800252715
  - # 2
    frequency:    1.5384134771
  - # 3
    frequency:    2.4392127902
  - # 4
    frequency:    3.8719871776
  - # 5
    frequency:    4.3417483691
  - # 6
    frequency:    5.3293522519
  - # 7
    frequency:    6.8337642314
  - # 8
    frequency:    7.2304087570
  - # 9
    frequency:    7.7315357917
  - # 10
    frequency:    7.9056009302
  - # 11
    frequency:   10.6851575102
  - # 12
    frequency:   12.7922047216
  - # 13
    frequency:   13.6119371728
  - # 14
    frequency:   15.2538205039
  - # 15
    frequency:   17.3182946115
  - # 16
    frequency:   18.1404181111
  - # 17
    frequency:   18.3712537369
  - # 18
    frequency:  112.9872839684

- q-position: [    0.1060606,    0.0000000,    0.0000000 ]
  distance:    0.0379882
  band:
  - # 1
    frequency:    0.8465066761
  - # 2
    frequency:    1.6096726510
  - # 3
    frequency:    2.5530825923
  - # 4
    frequency:    3.8961663590
  - # 5
    frequency:    4.4027671465
  - # 6
    frequency:    5.3101007838
  - # 7
    frequency:    6.8363333647
  - # 8
    frequency:    7.2616073197
  - # 9
    frequency:    7.7387596344
  - # 10
    frequency:    7.9287708850
  - # 11
    frequency:   10.6680579518
  - # 12
    frequency:   12.7582360912
  - # 13
    frequency:   13.6255887368
  - # 14
    frequency:   15.3338228038
  - # 15
    frequency:   17.3072625905
  - # 16
    frequency:   18.1364333890
  - # 17
    frequency:   18.3841625559
  - # 18
    frequency:  112.9771972574

- q-position: [    0.1111111,    0.0000000,    0.0000000 ]
  distance:    0.0397971
  band:
  - # 1
    frequency:    0.9143353232
  - # 2
    frequency:    1.6801642514
  - # 3
    frequency:    2.6655683519
  - # 4
    frequency:    3.9211889403
  - # 5
    frequency:    4.4648996572
  - # 6
    frequency:    5.2916712725
  - # 7
    frequency:    6.8387710021
  - # 8
    frequency:    7.2928044308
  - # 9
    frequency:    7.7459593049
  - # 10
    frequency:    7.9523296472
  - # 11
    frequency:   10.6506163563
  - # 12
    frequency:   12.7248535880
  - # 13
    frequency:   13.6396506571
  - # 14
    frequency:   15.4143131677
  - # 15
    frequency:   17.2959176360
  - # 16
    frequency:   18.1326620460
  - # 17
    frequency:   18.3969137885
  - # 18
    frequency:  112.9668840589

- q-position: [    0.1161616,    0.0000000,    0.0000000 ]
  distance:    0.0416061
  band:
  - # 1
    frequency:    0.9833798904
  - # 2
    frequency:    1.7498635825
  - # 3
    frequency:    2.7765613393
  - # 4
    frequency:    3.9470196365
  - # 5
    frequency:    4.5280070051
  - # 6
    frequency:    5.2741696164
  - # 7
    frequency:    6.8410567423
  - # 8
    frequency:    7.3239519531
  - # 9
    frequency:    7.7530896194
  - # 10
    frequency:    7.9761860083
  - # 11
    frequency:   10.6328778084
  - # 12
    frequency:   12.6920326174
  - # 13
    frequency:   13.6540924484
  - # 14
    frequency:   15.4951877351
  - # 15
    frequency:   17.2842866694
  - # 16
    frequency:   18.1291469471
  - # 17
    frequency:   18.4094219855
  - # 18
    frequency:  112.9563773662

- q-position: [    0.1212121,    0.0000000,    0.0000000 ]
  distance:    0.0434151
  band:
  - # 1
    frequency:    1.0535159157
  - # 2
    frequency:    1.8187468690
  - # 3
    frequency:    2.8859483858
  - # 4
    frequency:    3.9736238066
  - # 5
    frequency:    4.5919479612
  - # 6
    frequency:    5.2577065854
  - # 7
    frequency:    6.8431715725
  - # 8
    frequency:    7.3550093785
  - # 9
    frequency:    7.7601058072
  - # 10
    frequency:    8.0002489043
  - # 11
    frequency:   10.6148861088
  - # 12
    frequency:   12.6597468073
  - # 13
    frequency:   13.6688834905
  - # 14
    frequency:   15.5763442333
  - # 15
    frequency:   17.2723972196
  - # 16
    frequency:   18.1259297898
  - # 17
    frequency:   18.4216032567
  - # 18
    frequency:  112.9457106285

- q-position: [    0.1262626,    0.0000000,    0.0000000 ]
  distance:    0.0452240
  band:
  - # 1
    frequency:    1.1246251094
  - # 2
    frequency:    1.8867911817
  - # 3
    frequency:    2.9936119590
  - # 4
    frequency:    4.0009675864
  - # 5
    frequency:    4.6565722396
  - # 6
    frequency:    5.2424048960
  - # 7
    frequency:    6.8450978875
  - # 8
    frequency:    7.3859427671
  - # 9
    frequency:    7.7669639008
  - # 10
    frequency:    8.0244280646
  - # 11
    frequency:   10.5966837566
  - # 12
    frequency:   12.6279686124
  - # 13
    frequency:   13.6839931645
  - # 14
    frequency:   15.6576814083
  - # 15
    frequency:   17.2602775473
  - # 16
    frequency:   18.1230508008
  - # 17
    frequency:   18.4333758260
  - # 18
    frequency:  112.9349176255

- q-position: [    0.1313131,    0.0000000,    0.0000000 ]
  distance:    0.0470330
  band:
  - # 1
    frequency:    1.1965946535
  - # 2
    frequency:    1.9539743610
  - # 3
    frequency:    3.0994302185
  - # 4
    frequency:    4.0290179992
  - # 5
    frequency:    4.7217087847
  - # 6
    frequency:    5.2284112612
  - # 7
    frequency:    6.8468194906
  - # 8
    frequency:    7.4167237839
  - # 9
    frequency:    7.7736211226
  - # 10
    frequency:    8.0486346343
  - # 11
    frequency:   10.5783119422
  - # 12
    frequency:   12.5966697837
  - # 13
    frequency:   13.6993909862
  - # 14
    frequency:   15.7390984741
  - # 15
    frequency:   17.2479568522
  - # 16
    frequency:   18.1205484452
  - # 17
    frequency:   18.4446605792
  - # 18
    frequency:  112.9240323409

- q-position: [    0.1363636,    0.0000000,    0.0000000 ]
  distance:    0.0488419
  band:
  - # 1
    frequency:    1.2693165047
  - # 2
    frequency:    2.0202749410
  - # 3
    frequency:    3.2032770237
  - # 4
    frequency:    4.0577430416
  - # 5
    frequency:    4.7871433114
  - # 6
    frequency:    5.2159192268
  - # 7
    frequency:    6.8483215805
  - # 8
    frequency:    7.4473288339
  - # 9
    frequency:    7.7800362625
  - # 10
    frequency:    8.0727817614
  - # 11
    frequency:   10.5598105401
  - # 12
    frequency:   12.5658217345
  - # 13
    frequency:   13.7150467350
  - # 14
    frequency:   15.8204945196
  - # 15
    frequency:   17.2354656002
  - # 16
    frequency:   18.1184591497
  - # 17
    frequency:   18.4553816018
  - # 18
    frequency:  112.9130888353

- q-position: [    0.1414141,    0.0000000,    0.0000000 ]
  distance:    0.0506509
  band:
  - # 1
    frequency:    1.3426867111
  - # 2
    frequency:    2.0856720766
  - # 3
    frequency:    3.3050218607
  - # 4
    frequency:    4.0871117439
  - # 5
    frequency:    4.8525703383
  - # 6
    frequency:    5.2052176077
  - # 7
    frequency:    6.8495907286
  - # 8
    frequency:    7.4777382942
  - # 9
    frequency:    7.7861700388
  - # 10
    frequency:    8.0967851386
  - # 11
    frequency:   10.5412180933
  - # 12
    frequency:   12.5353958311
  - # 13
    frequency:   13.7309305787
  - # 14
    frequency:   15.9017677981
  - # 15
    frequency:   17.2228360207
  - # 16
    frequency:   18.1168170438
  - # 17
    frequency:   18.4654667060
  - # 18
    frequency:  112.9021211189

- q-position: [    0.1464646,    0.0000000,    0.0000000 ]
  distance:    0.0524599
  band:
  - # 1
    frequency:    1.4166047482
  - # 2
    frequency:    2.1501454755
  - # 3
    frequency:    3.4045296516
  - # 4
    frequency:    4.1170942044
  - # 5
    frequency:    4.9174775450
  - # 6
    frequency:    5.1968067443
  - # 7
    frequency:    6.8506148535
  - # 8
    frequency:    7.5079358414
  - # 9
    frequency:    7.7919854380
  - # 10
    frequency:    8.1205634951
  - # 11
    frequency:   10.5225717830
  - # 12
    frequency:   12.5053636259
  - # 13
    frequency:   13.7470131914
  - # 14
    frequency:   15.9828147994
  - # 15
    frequency:   17.2101028589
  - # 16
    frequency:   18.1156537205
  - # 17
    frequency:   18.4748479449
  - # 18
    frequency:  112.8911630251

- q-position: [    0.1515152,    0.0000000,    0.0000000 ]
  distance:    0.0542688
  band:
  - # 1
    frequency:    1.4909728790
  - # 2
    frequency:    2.2136753381
  - # 3
    frequency:    3.5016604127
  - # 4
    frequency:    4.1476615956
  - # 5
    frequency:    4.9808272657
  - # 6
    frequency:    5.1917178150
  - # 7
    frequency:    6.8513831951
  - # 8
    frequency:    7.5379078676
  - # 9
    frequency:    7.7974480269
  - # 10
    frequency:    8.1440390358
  - # 11
    frequency:   10.5039073734
  - # 12
    frequency:   12.4756970522
  - # 13
    frequency:   13.7632658649
  - # 14
    frequency:   16.0635289598
  - # 15
    frequency:   17.1973045141
  - # 16
    frequency:   18.1149980172
  - # 17
    frequency:   18.4834621148
  - # 18
    frequency:  112.8802480844

- q-position: [    0.1565657,    0.0000000,    0.0000000 ]
  distance:    0.0560778
  band:
  - # 1
    frequency:    1.5656955414
  - # 2
    frequency:    2.2762423060
  - # 3
    frequency:    3.5962687354
  - # 4
    frequency:    4.1787861417
  - # 5
    frequency:    5.0400790077
  - # 6
    frequency:    5.1924913492
  - # 7
    frequency:    6.8518862963
  - # 8
    frequency:    7.5676429798
  - # 9
    frequency:    7.8025262332
  - # 10
    frequency:    8.1671378253
  - # 11
    frequency:   10.4852591311
  - # 12
    frequency:   12.4463685905
  - # 13
    frequency:   13.7796606119
  - # 14
    frequency:   16.1437987743
  - # 15
    frequency:   17.1844847873
  - # 16
    frequency:   18.1148758215
  - # 17
    frequency:   18.4912512463
  - # 18
    frequency:  112.8694093999

- q-position: [    0.1616162,    0.0000000,    0.0000000 ]
  distance:    0.0578867
  band:
  - # 1
    frequency:    1.6406787625
  - # 2
    frequency:    2.3378274233
  - # 3
    frequency:    3.6882030929
  - # 4
    frequency:    4.2104410681
  - # 5
    frequency:    5.0886757937
  - # 6
    frequency:    5.2056921468
  - # 7
    frequency:    6.8521159931
  - # 8
    frequency:    7.5971315751
  - # 9
    frequency:    7.8071915881
  - # 10
    frequency:    8.1897901186
  - # 11
    frequency:   10.4666597103
  - # 12
    frequency:   12.4173514181
  - # 13
    frequency:   13.7961702606
  - # 14
    frequency:   16.2235049238
  - # 15
    frequency:   17.1716956174
  - # 16
    frequency:   18.1153098999
  - # 17
    frequency:   18.4981630835
  - # 18
    frequency:  112.8586795252

- q-position: [    0.1666667,    0.0000000,    0.0000000 ]
  distance:    0.0596957
  band:
  - # 1
    frequency:    1.7158296005
  - # 2
    frequency:    2.3984121104
  - # 3
    frequency:    3.7773050229
  - # 4
    frequency:    4.2426005211
  - # 5
    frequency:    5.1174369869
  - # 6
    frequency:    5.2405178973
  - # 7
    frequency:    6.8520654207
  - # 8
    frequency:    7.6263654832
  - # 9
    frequency:    7.8114189302
  - # 10
    frequency:    8.2119306403
  - # 11
    frequency:   10.4481400058
  - # 12
    frequency:   12.3886195484
  - # 13
    frequency:   13.8127685398
  - # 14
    frequency:   16.3025157284
  - # 15
    frequency:   17.1590014827
  - # 16
    frequency:   18.1163197536
  - # 17
    frequency:   18.5041515566
  - # 18
    frequency:  112.8480903440

- q-position: [    0.1717172,    0.0000000,    0.0000000 ]
  distance:    0.0615047
  band:
  - # 1
    frequency:    1.7910556141
  - # 2
    frequency:    2.4579781532
  - # 3
    frequency:    3.8634083233
  - # 4
    frequency:    4.2752394586
  - # 5
    frequency:    5.1298916294
  - # 6
    frequency:    5.2934673332
  - # 7
    frequency:    6.8517290362
  - # 8
    frequency:    7.6553376676
  - # 9
    frequency:    7.8151865653
  - # 10
    frequency:    8.2334988132
  - # 11
    frequency:   10.4297289707
  - # 12
    frequency:   12.3601479672
  - # 13
    frequency:   13.8294301536
  - # 14
    frequency:   16.3806796617
  - # 15
    frequency:   17.1464867245
  - # 16
    frequency:   18.1179215007
  - # 17
    frequency:   18.5091772496
  - # 18
    frequency:  112.8376729529

- q-position: [    0.1767677,    0.0000000,    0.0000000 ]
  distance:    0.0633136
  band:
  - # 1
    frequency:    1.8662643592
  - # 2
    frequency:    2.5165077082
  - # 3
    frequency:    3.9463385279
  - # 4
    frequency:    4.3083335120
  - # 5
    frequency:    5.1362842792
  - # 6
    frequency:    5.3543356647
  - # 7
    frequency:    6.8511026631
  - # 8
    frequency:    7.6840419774
  - # 9
    frequency:    7.8184763805
  - # 10
    frequency:    8.2544389415
  - # 11
    frequency:   10.4114534013
  - # 12
    frequency:   12.3319127672
  - # 13
    frequency:   13.8461308456
  - # 14