nqpoint: 300    
npath: 3      
segment_nqpoint:
- 100
- 100
- 100
labels:
- [ 'G', 'M' ]
- [ 'M', 'K' ]
- [ 'K', 'G' ]
reciprocal_lattice:
- [   0.31031577,   0.17916090,   0.00000000 ] # a*
- [   0.00000000,   0.35832179,   0.00000000 ] # b*
- [   0.00000000,   0.00000000,   0.03995052 ] # c*
natom: 7      
lattice:
- [     3.222523914642982,     0.000000000000000,     0.000000000000000 ] # a
- [    -1.611261957321491,     2.790787574384725,     0.000000000000000 ] # b
- [     0.000000000000000,     0.000000000000000,    25.030964846104599 ] # c
points:
- symbol: C # 1
  coordinates: [  0.666666984744047,  0.333332985985145,  0.407008458498687 ]
  mass: 12.010700
- symbol: F # 2
  coordinates: [  0.333332985432215,  0.666666983183674,  0.640445342185816 ]
  mass: 18.998403
- symbol: N # 3
  coordinates: [  0.000000000000000,  0.000000000000000,  0.552371772031336 ]
  mass: 14.006700
- symbol: N # 4
  coordinates: [  0.666666984744047,  0.333332985985145,  0.359554657814184 ]
  mass: 14.006700
- symbol: O # 5
  coordinates: [  0.666666984744047,  0.333332985985145,  0.460362799094778 ]
  mass: 15.999400
- symbol: Ti # 6
  coordinates: [  0.333332985432215,  0.666666983183674,  0.511002683805470 ]
  mass: 47.867000
- symbol: Ti # 7
  coordinates: [  0.666666984744047,  0.333332985985145,  0.592931012823373 ]
  mass: 47.867000

phonon:
- q-position: [    0.0000000,    0.0000000,    0.0000000 ]
  distance:    0.0000000
  band:
  - # 1
    frequency:   -0.0000009090
  - # 2
    frequency:    0.0000005794
  - # 3
    frequency:    0.0000013280
  - # 4
    frequency:    0.0574395260
  - # 5
    frequency:    0.0574395260
  - # 6
    frequency:    5.0989528235
  - # 7
    frequency:    5.0989528235
  - # 8
    frequency:    7.0073565272
  - # 9
    frequency:    7.2033939736
  - # 10
    frequency:    7.2033939736
  - # 11
    frequency:    7.8017680454
  - # 12
    frequency:    7.8017680454
  - # 13
    frequency:   11.0985798773
  - # 14
    frequency:   13.7762001359
  - # 15
    frequency:   14.1867533429
  - # 16
    frequency:   14.1867533429
  - # 17
    frequency:   16.1392243439
  - # 18
    frequency:   17.3174822252
  - # 19
    frequency:   17.3174822252
  - # 20
    frequency:   31.9574300350
  - # 21
    frequency:   67.7895386987

- q-position: [    0.0050505,    0.0000000,    0.0000000 ]
  distance:    0.0018097
  band:
  - # 1
    frequency:   -0.0345647247
  - # 2
    frequency:    0.0657592258
  - # 3
    frequency:    0.0962832005
  - # 4
    frequency:    0.1051930493
  - # 5
    frequency:    0.1526784716
  - # 6
    frequency:    5.0990219541
  - # 7
    frequency:    5.0996891296
  - # 8
    frequency:    7.0064773834
  - # 9
    frequency:    7.2032082358
  - # 10
    frequency:    7.2046220644
  - # 11
    frequency:    7.8017193979
  - # 12
    frequency:    7.8027573418
  - # 13
    frequency:   11.0980500240
  - # 14
    frequency:   13.7746907198
  - # 15
    frequency:   14.1867829698
  - # 16
    frequency:   14.1870665939
  - # 17
    frequency:   16.1388983065
  - # 18
    frequency:   17.3169221761
  - # 19
    frequency:   17.3174454649
  - # 20
    frequency:   31.9568801884
  - # 21
    frequency:   67.7892988883

- q-position: [    0.0101010,    0.0000000,    0.0000000 ]
  distance:    0.0036194
  band:
  - # 1
    frequency:    0.0225567632
  - # 2
    frequency:    0.1026465132
  - # 3
    frequency:    0.1841232770
  - # 4
    frequency:    0.1901430329
  - # 5
    frequency:    0.2934041348
  - # 6
    frequency:    5.0992299760
  - # 7
    frequency:    5.1018929061
  - # 8
    frequency:    7.0039000842
  - # 9
    frequency:    7.2026532890
  - # 10
    frequency:    7.2082476655
  - # 11
    frequency:    7.8015712307
  - # 12
    frequency:    7.8057187244
  - # 13
    frequency:   11.0964615140
  - # 14
    frequency:   13.7701707670
  - # 15
    frequency:   14.1868718750
  - # 16
    frequency:   14.1880015117
  - # 17
    frequency:   16.1379207298
  - # 18
    frequency:   17.3152462119
  - # 19
    frequency:   17.3173356005
  - # 20
    frequency:   31.9552326681
  - # 21
    frequency:   67.7885801052

- q-position: [    0.0151515,    0.0000000,    0.0000000 ]
  distance:    0.0054291
  band:
  - # 1
    frequency:    0.0639257282
  - # 2
    frequency:    0.1429998450
  - # 3
    frequency:    0.2743164899
  - # 4
    frequency:    0.2776649806
  - # 5
    frequency:    0.4365553747
  - # 6
    frequency:    5.0995787798
  - # 7
    frequency:    5.1055488047
  - # 8
    frequency:    6.9997883019
  - # 9
    frequency:    7.2017358689
  - # 10
    frequency:    7.2141113420
  - # 11
    frequency:    7.8013169285
  - # 12
    frequency:    7.8106328454
  - # 13
    frequency:   11.0938174908
  - # 14
    frequency:   13.7626645702
  - # 15
    frequency:   14.1870201318
  - # 16
    frequency:   14.1895441839
  - # 17
    frequency:   16.1362932230
  - # 18
    frequency:   17.3124668378
  - # 19
    frequency:   17.3171538748
  - # 20
    frequency:   31.9524935200
  - # 21
    frequency:   67.7873842907

- q-position: [    0.0202020,    0.0000000,    0.0000000 ]
  distance:    0.0072388
  band:
  - # 1
    frequency:    0.0972101079
  - # 2
    frequency:    0.1851077779
  - # 3
    frequency:    0.3645507160
  - # 4
    frequency:    0.3662849310
  - # 5
    frequency:    0.5798456536
  - # 6
    frequency:    5.1000715170
  - # 7
    frequency:    5.1106314985
  - # 8
    frequency:    6.9943689623
  - # 9
    frequency:    7.2004669915
  - # 10
    frequency:    7.2219927639
  - # 11
    frequency:    7.8009456552
  - # 12
    frequency:    7.8174680167
  - # 13
    frequency:   11.0901231748
  - # 14
    frequency:   13.7522107879
  - # 15
    frequency:   14.1872278623
  - # 16
    frequency:   14.1916732526
  - # 17
    frequency:   16.1340184772
  - # 18
    frequency:   17.3086047500
  - # 19
    frequency:   17.3169023380
  - # 20
    frequency:   31.9486727811
  - # 21
    frequency:   67.7857146690

- q-position: [    0.0252525,    0.0000000,    0.0000000 ]
  distance:    0.0090485
  band:
  - # 1
    frequency:    0.1294494714
  - # 2
    frequency:    0.2280017015
  - # 3
    frequency:    0.4544722665
  - # 4
    frequency:    0.4553357373
  - # 5
    frequency:    0.7227211404
  - # 6
    frequency:    5.1007126005
  - # 7
    frequency:    5.1171060524
  - # 8
    frequency:    6.9878887927
  - # 9
    frequency:    7.1988616479
  - # 10
    frequency:    7.2316535181
  - # 11
    frequency:    7.8004426305
  - # 12
    frequency:    7.8261809859
  - # 13
    frequency:   11.0853858356
  - # 14
    frequency:   13.7388601563
  - # 15
    frequency:   14.1874952372
  - # 16
    frequency:   14.1943622007
  - # 17
    frequency:   16.1311002799
  - # 18
    frequency:   17.3036886180
  - # 19
    frequency:   17.3165838166
  - # 20
    frequency:   31.9437844198
  - # 21
    frequency:   67.7835757319

- q-position: [    0.0303030,    0.0000000,    0.0000000 ]
  distance:    0.0108582
  band:
  - # 1
    frequency:    0.1620508568
  - # 2
    frequency:    0.2712725986
  - # 3
    frequency:    0.5439049778
  - # 4
    frequency:    0.5445179265
  - # 5
    frequency:    0.8648945002
  - # 6
    frequency:    5.1015077021
  - # 7
    frequency:    5.1249284253
  - # 8
    frequency:    6.9805827102
  - # 9
    frequency:    7.1969383962
  - # 10
    frequency:    7.2428679309
  - # 11
    frequency:    7.7997894984
  - # 12
    frequency:    7.8367179161
  - # 13
    frequency:   11.0796147524
  - # 14
    frequency:   13.7226730237
  - # 15
    frequency:   14.1878224752
  - # 16
    frequency:   14.1975818131
  - # 17
    frequency:   16.1275435383
  - # 18
    frequency:   17.2977547802
  - # 19
    frequency:   17.3162018695
  - # 20
    frequency:   31.9378462531
  - # 21
    frequency:   67.7809732155

- q-position: [    0.0353535,    0.0000000,    0.0000000 ]
  distance:    0.0126679
  band:
  - # 1
    frequency:    0.1956360174
  - # 2
    frequency:    0.3147205418
  - # 3
    frequency:    0.6327158405
  - # 4
    frequency:    0.6336711582
  - # 5
    frequency:    1.0061552901
  - # 6
    frequency:    5.1024637471
  - # 7
    frequency:    5.1340460860
  - # 8
    frequency:    6.9726576697
  - # 9
    frequency:    7.1947188682
  - # 10
    frequency:    7.2554383691
  - # 11
    frequency:    7.7989647726
  - # 12
    frequency:    7.8490154790
  - # 13
    frequency:   11.0728211644
  - # 14
    frequency:   13.7037171236
  - # 15
    frequency:   14.1882098427
  - # 16
    frequency:   14.2013023939
  - # 17
    frequency:   16.1233543115
  - # 18
    frequency:   17.2908468567
  - # 19
    frequency:   17.3157607332
  - # 20
    frequency:   31.9308798419
  - # 21
    frequency:   67.7779140721

- q-position: [    0.0404040,    0.0000000,    0.0000000 ]
  distance:    0.0144776
  band:
  - # 1
    frequency:    0.2305654046
  - # 2
    frequency:    0.3582336295
  - # 3
    frequency:    0.7207881681
  - # 4
    frequency:    0.7226945194
  - # 5
    frequency:    1.1463246592
  - # 6
    frequency:    5.1035889020
  - # 7
    frequency:    5.1443987247
  - # 8
    frequency:    6.9642883125
  - # 9
    frequency:    7.1922272100
  - # 10
    frequency:    7.2691987654
  - # 11
    frequency:    7.7979443415
  - # 12
    frequency:    7.8630019738
  - # 13
    frequency:   11.0650182103
  - # 14
    frequency:   13.6820658525
  - # 15
    frequency:   14.1886576527
  - # 16
    frequency:   14.2054954715
  - # 17
    frequency:   16.1185398561
  - # 18
    frequency:   17.2830152797
  - # 19
    frequency:   17.3152652554
  - # 20
    frequency:   31.9229103642
  - # 21
    frequency:   67.7744064355

- q-position: [    0.0454545,    0.0000000,    0.0000000 ]
  distance:    0.0162874
  band:
  - # 1
    frequency:    0.2670755281
  - # 2
    frequency:    0.4017416599
  - # 3
    frequency:    0.8080138035
  - # 4
    frequency:    0.8115156137
  - # 5
    frequency:    1.2852409444
  - # 6
    frequency:    5.1048925530
  - # 7
    frequency:    5.1559190391
  - # 8
    frequency:    6.9556191801
  - # 9
    frequency:    7.1894894790
  - # 10
    frequency:    7.2840116793
  - # 11
    frequency:    7.7967020135
  - # 12
    frequency:    7.8785983954
  - # 13
    frequency:   11.0562208566
  - # 14
    frequency:   13.6577971412
  - # 15
    frequency:   14.1891662639
  - # 16
    frequency:   14.2101348979
  - # 17
    frequency:   16.1131086852
  - # 18
    frequency:   17.2743167457
  - # 19
    frequency:   17.3147208183
  - # 20
    frequency:   31.9139664669
  - # 21
    frequency:   67.7704595809

- q-position: [    0.0505051,    0.0000000,    0.0000000 ]
  distance:    0.0180971
  band:
  - # 1
    frequency:    0.3053291973
  - # 2
    frequency:    0.4451961674
  - # 3
    frequency:    0.8942904203
  - # 4
    frequency:    0.9000771287
  - # 5
    frequency:    1.4227543434
  - # 6
    frequency:    5.1063852732
  - # 7
    frequency:    5.1685335735
  - # 8
    frequency:    6.9467695486
  - # 9
    frequency:    7.1865330161
  - # 10
    frequency:    7.2997628959
  - # 11
    frequency:    7.7952100847
  - # 12
    frequency:    7.8957193897
  - # 13
    frequency:   11.0464458172
  - # 14
    frequency:   13.6309928756
  - # 15
    frequency:   14.1897360788
  - # 16
    frequency:   14.2151973869
  - # 17
    frequency:   16.1070706432
  - # 18
    frequency:   17.2648135934
  - # 19
    frequency:   17.3141332528
  - # 20
    frequency:   31.9040800995
  - # 21
    frequency:   67.7660838791

- q-position: [    0.0555556,    0.0000000,    0.0000000 ]
  distance:    0.0199068
  band:
  - # 1
    frequency:    0.3454384525
  - # 2
    frequency:    0.4885609307
  - # 3
    frequency:    0.9795205582
  - # 4
    frequency:    0.9883304209
  - # 5
    frequency:    1.5587248260
  - # 6
    frequency:    5.1080787736
  - # 7
    frequency:    5.1821635906
  - # 8
    frequency:    6.9378386669
  - # 9
    frequency:    7.1833858141
  - # 10
    frequency:    7.3163558147
  - # 11
    frequency:    7.7934399119
  - # 12
    frequency:    7.9142740607
  - # 13
    frequency:   11.0357114618
  - # 14
    frequency:   13.6017387403
  - # 15
    frequency:   14.1903675424
  - # 16
    frequency:   14.2206626087
  - # 17
    frequency:   16.1004369976
  - # 18
    frequency:   17.2545731124
  - # 19
    frequency:   17.3135087433
  - # 20
    frequency:   31.8932863276
  - # 21
    frequency:   67.7612907464

- q-position: [    0.0606061,    0.0000000,    0.0000000 ]
  distance:    0.0217165
  band:
  - # 1
    frequency:    0.3874771286
  - # 2
    frequency:    0.5318070875
  - # 3
    frequency:    1.0636113525
  - # 4
    frequency:    1.0762322096
  - # 5
    frequency:    1.6930213558
  - # 6
    frequency:    5.1099858355
  - # 7
    frequency:    5.1967259555
  - # 8
    frequency:    6.9289104198
  - # 9
    frequency:    7.1800758993
  - # 10
    frequency:    7.3337066190
  - # 11
    frequency:    7.7913624774
  - # 12
    frequency:    7.9341666109
  - # 13
    frequency:   11.0240377158
  - # 14
    frequency:   13.5701243437
  - # 15
    frequency:   14.1910611388
  - # 16
    frequency:   14.2265129858
  - # 17
    frequency:   16.0932205471
  - # 18
    frequency:   17.2436667906
  - # 19
    frequency:   17.3128537249
  - # 20
    frequency:   31.8816231312
  - # 21
    frequency:   67.7560925886

- q-position: [    0.0656566,    0.0000000,    0.0000000 ]
  distance:    0.0235262
  band:
  - # 1
    frequency:    0.4314888790
  - # 2
    frequency:    0.5749104552
  - # 3
    frequency:    1.1464745785
  - # 4
    frequency:    1.1637427670
  - # 5
    frequency:    1.8255216818
  - # 6
    frequency:    5.1121202213
  - # 7
    frequency:    5.2121340165
  - # 8
    frequency:    6.9200571202
  - # 9
    frequency:    7.1766307408
  - # 10
    frequency:    7.3517405167
  - # 11
    frequency:    7.7889489319
  - # 12
    frequency:    7.9552968215
  - # 13
    frequency:   11.0114459508
  - # 14
    frequency:   13.5362434861
  - # 15
    frequency:   14.1918173887
  - # 16
    frequency:   14.2327333179
  - # 17
    frequency:   16.0854357458
  - # 18
    frequency:   17.2321695067
  - # 19
    frequency:   17.3121747747
  - # 20
    frequency:   31.8691311860
  - # 21
    frequency:   67.7505027419

- q-position: [    0.0707071,    0.0000000,    0.0000000 ]
  distance:    0.0253359
  band:
  - # 1
    frequency:    0.4774929349
  - # 2
    frequency:    0.6178499819
  - # 3
    frequency:    1.2280268517
  - # 4
    frequency:    1.2508248760
  - # 5
    frequency:    1.9561123821
  - # 6
    frequency:    5.1144965604
  - # 7
    frequency:    5.2282984671
  - # 8
    frequency:    6.9113424480
  - # 9
    frequency:    7.1730766997
  - # 10
    frequency:    7.3703890087
  - # 11
    frequency:    7.7861711085
  - # 12
    frequency:    7.9775603893
  - # 13
    frequency:   10.9979588674
  - # 14
    frequency:   13.5001944705
  - # 15
    frequency:   14.1926368454
  - # 16
    frequency:   14.2393103402
  - # 17
    frequency:   16.0770988389
  - # 18
    frequency:   17.2201586794
  - # 19
    frequency:   17.3114784966
  - # 20
    frequency:   31.8558536319
  - # 21
    frequency:   67.7445354093

- q-position: [    0.0757576,    0.0000000,    0.0000000 ]
  distance:    0.0271456
  band:
  - # 1
    frequency:    0.5254885694
  - # 2
    frequency:    0.6606068112
  - # 3
    frequency:    1.3081899144
  - # 4
    frequency:    1.3374432067
  - # 5
    frequency:    2.0846890068
  - # 6
    frequency:    5.1171302069
  - # 7
    frequency:    5.2451281793
  - # 8
    frequency:    6.9028236631
  - # 9
    frequency:    7.1694385278
  - # 10
    frequency:    7.3895880253
  - # 11
    frequency:    7.7830019989
  - # 12
    frequency:    8.0008491522
  - # 13
    frequency:   10.9836003687
  - # 14
    frequency:   13.4620803818
  - # 15
    frequency:   14.1935200896
  - # 16
    frequency:   14.2462322811
  - # 17
    frequency:   16.0682280077
  - # 18
    frequency:   17.2077133841
  - # 19
    frequency:   17.3107714026
  - # 20
    frequency:   31.8418358288
  - # 21
    frequency:   67.7382055936

- q-position: [    0.0808081,    0.0000000,    0.0000000 ]
  distance:    0.0289553
  band:
  - # 1
    frequency:    0.5754587187
  - # 2
    frequency:    0.7031636979
  - # 3
    frequency:    1.3868909714
  - # 4
    frequency:    1.4235639306
  - # 5
    frequency:    2.2111562428
  - # 6
    frequency:    5.1200370688
  - # 7
    frequency:    5.2625309995
  - # 8
    frequency:    6.8945532421
  - # 9
    frequency:    7.1657389214
  - # 10
    frequency:    7.4092767385
  - # 11
    frequency:    7.7794161897
  - # 12
    frequency:    8.0250512373
  - # 13
    frequency:   10.9683954285
  - # 14
    frequency:   13.4220092918
  - # 15
    frequency:   14.1944677247
  - # 16
    frequency:   14.2534884619
  - # 17
    frequency:   16.0588435168
  - # 18
    frequency:   17.1949134504
  - # 19
    frequency:   17.3100597908
  - # 20
    frequency:   31.8271251024
  - # 21
    frequency:   67.7315290275

- q-position: [    0.0858586,    0.0000000,    0.0000000 ]
  distance:    0.0307650
  band:
  - # 1
    frequency:    0.6273729887
  - # 2
    frequency:    0.7455046306
  - # 3
    frequency:    1.4640630572
  - # 4
    frequency:    1.5091544759
  - # 5
    frequency:    2.3354280567
  - # 6
    frequency:    5.1232334057
  - # 7
    frequency:    5.2804145043
  - # 8
    frequency:    6.8865800702
  - # 9
    frequency:    7.1619981341
  - # 10
    frequency:    7.4293968777
  - # 11
    frequency:    7.7753902552
  - # 12
    frequency:    8.0500511703
  - # 13
    frequency:   10.9523699514
  - # 14
    frequency:   13.3800943670
  - # 15
    frequency:   14.1954803694
  - # 16
    frequency:   14.2610689574
  - # 17
    frequency:   16.0489678563
  - # 18
    frequency:   17.1818385543
  - # 19
    frequency:   17.3093496218
  - # 20
    frequency:   31.8117704813
  - # 21
    frequency:   67.7245221014

- q-position: [    0.0909091,    0.0000000,    0.0000000 ]
  distance:    0.0325747
  band:
  - # 1
    frequency:    0.6811901794
  - # 2
    frequency:    0.7876145826
  - # 3
    frequency:    1.5396454223
  - # 4
    frequency:    1.5941833677
  - # 5
    frequency:    2.4574277904
  - # 6
    frequency:    5.1267355957
  - # 7
    frequency:    5.2986867135
  - # 8
    frequency:    6.8789502918
  - # 9
    frequency:    7.1582336520
  - # 10
    frequency:    7.4498924000
  - # 11
    frequency:    7.7709031075
  - # 12
    frequency:    8.0757299815
  - # 13
    frequency:   10.9355506281
  - # 14
    frequency:   13.3364538724
  - # 15
    frequency:   14.1965586511
  - # 16
    frequency:   14.2689643246
  - # 17
    frequency:   16.0386258701
  - # 18
    frequency:   17.1685673229
  - # 19
    frequency:   17.3086463947
  - # 20
    frequency:   31.7958224280
  - # 21
    frequency:   67.7172017887

- q-position: [    0.0959596,    0.0000000,    0.0000000 ]
  distance:    0.0343844
  band:
  - # 1
    frequency:    0.7368604097
  - # 2
    frequency:    0.8294793429
  - # 3
    frequency:    1.6135839325
  - # 4
    frequency:    1.6786201238
  - # 5
    frequency:    2.5770881933
  - # 6
    frequency:    5.1305598721
  - # 7
    frequency:    5.3172567625
  - # 8
    frequency:    6.8717079009
  - # 9
    frequency:    7.1544599298
  - # 10
    frequency:    7.4707094000
  - # 11
    frequency:    7.7659363028
  - # 12
    frequency:    8.1019653411
  - # 13
    frequency:   10.9179647861
  - # 14
    frequency:   13.2912110705
  - # 15
    frequency:   14.1977031967
  - # 16
    frequency:   14.2771653949
  - # 17
    frequency:   16.0278448622
  - # 18
    frequency:   17.1551764659
  - # 19
    frequency:   17.3079550241
  - # 20
    frequency:   31.7793325643
  - # 21
    frequency:   67.7095855702

- q-position: [    0.1010101,    0.0000000,    0.0000000 ]
  distance:    0.0361941
  band:
  - # 1
    frequency:    0.7943269074
  - # 2
    frequency:    0.8710854002
  - # 3
    frequency:    1.6858314730
  - # 4
    frequency:    1.7624351843
  - # 5
    frequency:    2.6943513803
  - # 6
    frequency:    5.1347220324
  - # 7
    frequency:    5.3360355377
  - # 8
    frequency:    6.8648951282
  - # 9
    frequency:    7.1506881871
  - # 10
    frequency:    7.4917961643
  - # 11
    frequency:    7.7604743073
  - # 12
    frequency:    8.1286317491
  - # 13
    frequency:   10.8996402364
  - # 14
    frequency:   13.2444940226
  - # 15
    frequency:   14.1989146235
  - # 16
    frequency:   14.2856631231
  - # 17
    frequency:   16.0166546690
  - # 18
    frequency:   17.1417399521
  - # 19
    frequency:   17.3072797197
  - # 20
    frequency:   31.7623533953
  - # 21
    frequency:   67.7016913569

- q-position: [    0.1060606,    0.0000000,    0.0000000 ]
  distance:    0.0380038
  band:
  - # 1
    frequency:    0.8535275112
  - # 2
    frequency:    0.9124198611
  - # 3
    frequency:    1.7563483536
  - # 4
    frequency:    1.8455998639
  - # 5
    frequency:    2.8091687111
  - # 6
    frequency:    5.1392371214
  - # 7
    frequency:    5.3549362800
  - # 8
    frequency:    6.8585526671
  - # 9
    frequency:    7.1469262638
  - # 10
    frequency:    7.5131033055
  - # 11
    frequency:    7.7545047236
  - # 12
    frequency:    8.1556008028
  - # 13
    frequency:   10.8806051179
  - # 14
    frequency:   13.1964352980
  - # 15
    frequency:   14.2001935285
  - # 16
    frequency:   14.2944484843
  - # 17
    frequency:   16.0050876901
  - # 18
    frequency:   17.1283282467
  - # 19
    frequency:   17.3066238696
  - # 20
    frequency:   31.7449380317
  - # 21
    frequency:   67.6935374128

- q-position: [    0.1111111,    0.0000000,    0.0000000 ]
  distance:    0.0398135
  band:
  - # 1
    frequency:    0.9143959277
  - # 2
    frequency:    0.9534703919
  - # 3
    frequency:    1.8251027062
  - # 4
    frequency:    1.9280863192
  - # 5
    frequency:    2.9215005861
  - # 6
    frequency:    5.1441190954
  - # 7
    frequency:    5.3738751627
  - # 8
    frequency:    6.8527197691
  - # 9
    frequency:    7.1431785296
  - # 10
    frequency:    7.5345839213
  - # 11
    frequency:    7.7480184793
  - # 12
    frequency:    8.1827415530
  - # 13
    frequency:   10.8608877412
  - # 14
    frequency:   13.1471716014
  - # 15
    frequency:   14.2015404769
  - # 16
    frequency:   14.3035124095
  - # 17
    frequency:   15.9931788671
  - # 18
    frequency:   17.1150076249
  - # 19
    frequency:   17.3059899282
  - # 20
    frequency:   31.7271399136
  - # 21
    frequency:   67.6851422771

- q-position: [    0.1161616,    0.0000000,    0.0000000 ]
  distance:    0.0416232
  band:
  - # 1
    frequency:    0.9768627782
  - # 2
    frequency:    0.9942251758
  - # 3
    frequency:    1.8920708708
  - # 4
    frequency:    2.0098675270
  - # 5
    frequency:    3.0313161587
  - # 6
    frequency:    5.1493804718
  - # 7
    frequency:    5.3927718509
  - # 8
    frequency:    6.8474342306
  - # 9
    frequency:    7.1394458453
  - # 10
    frequency:    7.5561937447
  - # 11
    frequency:    7.7410099813
  - # 12
    frequency:    8.2099209605
  - # 13
    frequency:   10.8405164328
  - # 14
    frequency:   13.0968433230
  - # 15
    frequency:   14.2029559891
  - # 16
    frequency:   14.3128457496
  - # 17
    frequency:   15.9809656052
  - # 18
    frequency:   17.1018395749
  - # 19
    frequency:   17.3053793113
  - # 20
    frequency:   31.7090125378
  - # 21
    frequency:   67.6765246873

- q-position: [    0.1212121,    0.0000000,    0.0000000 ]
  distance:    0.0434329
  band:
  - # 1
    frequency:    1.0346728814
  - # 2
    frequency:    1.0408564674
  - # 3
    frequency:    1.9572377597
  - # 4
    frequency:    2.0909172684
  - # 5
    frequency:    3.1385929638
  - # 6
    frequency:    5.1550319727
  - # 7
    frequency:    5.4115500473
  - # 8
    frequency:    6.8427322897
  - # 9
    frequency:    7.1357255724
  - # 10
    frequency:    7.5778912595
  - # 11
    frequency:    7.7334772369
  - # 12
    frequency:    8.2370044535
  - # 13
    frequency:   10.8195193820
  - # 14
    frequency:   13.0455940194
  - # 15
    frequency:   14.2044405279
  - # 16
    frequency:   14.3224392619
  - # 17
    frequency:   15.9684876305
  - # 18
    frequency:   17.0888803008
  - # 19
    frequency:   17.3047922985
  - # 20
    frequency:   31.6906091892
  - # 21
    frequency:   67.6677035029

- q-position: [    0.1262626,    0.0000000,    0.0000000 ]
  distance:    0.0452427
  band:
  - # 1
    frequency:    1.0748026387
  - # 2
    frequency:    1.1063038998
  - # 3
    frequency:    2.0205971925
  - # 4
    frequency:    2.1712101182
  - # 5
    frequency:    3.2433164661
  - # 6
    frequency:    5.1610821701
  - # 7
    frequency:    5.4301380320
  - # 8
    frequency:    6.8386484454
  - # 9
    frequency:    7.1320116254
  - # 10
    frequency:    7.5996377646
  - # 11
    frequency:    7.7254219423
  - # 12
    frequency:    8.2638565855
  - # 13
    frequency:   10.7979244920
  - # 14
    frequency:   12.9935698303
  - # 15
    frequency:   14.2059944836
  - # 16
    frequency:   14.3322836117
  - # 17
    frequency:   15.9557867831
  - # 18
    frequency:   17.0761803344
  - # 19
    frequency:   17.3042279443
  - # 20
    frequency:   31.6719826797
  - # 21
    frequency:   67.6586976308

- q-position: [    0.1313131,    0.0000000,    0.0000000 ]
  distance:    0.0470524
  band:
  - # 1
    frequency:    1.1146040195
  - # 2
    frequency:    1.1731310685
  - # 3
    frequency:    2.0821521918
  - # 4
    frequency:    2.2507214378
  - # 5
    frequency:    3.3454795311
  - # 6
    frequency:    5.1675371431
  - # 7
    frequency:    5.4484691987
  - # 8
    frequency:    6.8352152143
  - # 9
    frequency:    7.1282945637
  - # 10
    frequency:    7.6213973785
  - # 11
    frequency:    7.7168495421
  - # 12
    frequency:    8.2903417873
  - # 13
    frequency:   10.7757592390
  - # 14
    frequency:   12.9409188344
  - # 15
    frequency:   14.2076181591
  - # 16
    frequency:   14.3423693835
  - # 17
    frequency:   15.9429067446
  - # 18
    frequency:   17.0637842577
  - # 19
    frequency:   17.3036839995
  - # 20
    frequency:   31.6531850954
  - # 21
    frequency:   67.6495259520

- q-position: [    0.1363636,    0.0000000,    0.0000000 ]
  distance:    0.0488621
  band:
  - # 1
    frequency:    1.1540670217
  - # 2
    frequency:    1.2412635364
  - # 3
    frequency:    2.1419152303
  - # 4
    frequency:    2.3294273699
  - # 5
    frequency:    3.4450818226
  - # 6
    frequency:    5.1744001570
  - # 7
    frequency:    5.4664825891
  - # 8
    frequency:    6.8324628370
  - # 9
    frequency:    7.1245617201
  - # 10
    frequency:    7.6431369799
  - # 11
    frequency:    7.7077692576
  - # 12
    frequency:    8.3163252069
  - # 13
    frequency:   10.7530505393
  - # 14
    frequency:   12.8877903498
  - # 15
    frequency:   14.2093117541
  - # 16
    frequency:   14.3526870977
  - # 17
    frequency:   15.9298927053
  - # 18
    frequency:   17.0517305389
  - # 19
    frequency:   17.3031568438
  - # 20
    frequency:   31.6342675530
  - # 21
    frequency:   67.6402072507

- q-position: [    0.1414141,    0.0000000,    0.0000000 ]
  distance:    0.0506718
  band:
  - # 1
    frequency:    1.1931820560
  - # 2
    frequency:    1.3106268280
  - # 3
    frequency:    2.1999084178
  - # 4
    frequency:    2.4073048360
  - # 5
    frequency:    3.5421291338
  - # 6
    frequency:    5.1816713742
  - # 7
    frequency:    5.4841234282
  - # 8
    frequency:    6.8304189471
  - # 9
    frequency:    7.1207973610
  - # 10
    frequency:    7.6648260822
  - # 11
    frequency:    7.6981940860
  - # 12
    frequency:    8.3416736244
  - # 13
    frequency:   10.7298246304
  - # 14
    frequency:   12.8343341813
  - # 15
    frequency:   14.2110753494
  - # 16
    frequency:   14.3632272295
  - # 17
    frequency:   15.9167909774
  - # 18
    frequency:   17.0400514784
  - # 19
    frequency:   17.3026414307
  - # 20
    frequency:   31.6152799689
  - # 21
    frequency:   67.6307601463

- q-position: [    0.1464646,    0.0000000,    0.0000000 ]
  distance:    0.0524815
  band:
  - # 1
    frequency:    1.2319399334
  - # 2
    frequency:    1.3811467464
  - # 3
    frequency:    2.2561636173
  - # 4
    frequency:    2.4843315339
  - # 5
    frequency:    3.6366326552
  - # 6
    frequency:    5.1893476072
  - # 7
    frequency:    5.5013436542
  - # 8
    frequency:    6.8291082197
  - # 9
    frequency:    7.1169828761
  - # 10
    frequency:    7.6864366458
  - # 11
    frequency:    7.6881407689
  - # 12
    frequency:    8.3662564332
  - # 13
    frequency:   10.7061069663
  - # 14
    frequency:   12.7806998179
  - # 15
    frequency:   14.2129088899
  - # 16
    frequency:   14.3739802271
  - # 17
    frequency:   15.9036485633
  - # 18
    frequency:   17.0287732563
  - # 19
    frequency:   17.3021312450
  - # 20
    frequency:   31.5962708406
  - # 21
    frequency:   67.6212030277

- q-position: [    0.1515152,    0.0000000,    0.0000000 ]
  distance:    0.0542912
  band:
  - # 1
    frequency:    1.2703318536
  - # 2
    frequency:    1.4527496285
  - # 3
    frequency:    2.3107224799
  - # 4
    frequency:    2.5604859375
  - # 5
    frequency:    3.7286081881
  - # 6
    frequency:    5.1974221243
  - # 7
    frequency:    5.5181024425
  - # 8
    frequency:    6.8285520138
  - # 9
    frequency:    7.1130969964
  - # 10
    frequency:    7.6776297286
  - # 11
    frequency:    7.7079428286
  - # 12
    frequency:    8.3899466727
  - # 13
    frequency:   10.6819221317
  - # 14
    frequency:   12.7270355850
  - # 15
    frequency:   14.2148121682
  - # 16
    frequency:   14.3849365263
  - # 17
    frequency:   15.8905126912
  - # 18
    frequency:   17.0179160758
  - # 19
    frequency:   17.3016182750
  - # 20
    frequency:   31.5772870420
  - # 21
    frequency:   67.6115539912