nqpoint: 300    
npath: 3      
segment_nqpoint:
- 100
- 100
- 100
labels:
- [ 'G', 'M' ]
- [ 'M', 'K' ]
- [ 'K', 'G' ]
reciprocal_lattice:
- [   0.30389132,   0.17545173,   0.00000000 ] # a*
- [   0.00000000,   0.35090347,   0.00000000 ] # b*
- [   0.00000000,   0.00000000,   0.03975281 ] # c*
natom: 7      
lattice:
- [     3.290650110173602,     0.000000000000000,     0.000000000000000 ] # a
- [    -1.645325055086801,     2.849786590352047,     0.000000000000000 ] # b
- [     0.000000000000000,     0.000000000000000,    25.155456011924944 ] # c
points:
- symbol: C # 1
  coordinates: [  0.333332985432215,  0.666666983183674,  0.594362310105292 ]
  mass: 12.010700
- symbol: N # 2
  coordinates: [  0.000000000000000,  0.000000000000000,  0.449179759035147 ]
  mass: 14.006700
- symbol: N # 3
  coordinates: [  0.333332985432215,  0.666666983183674,  0.544920991727355 ]
  mass: 14.006700
- symbol: O # 4
  coordinates: [  0.333332985432215,  0.666666983183674,  0.642224732649110 ]
  mass: 15.999400
- symbol: O # 5
  coordinates: [  0.666666984744047,  0.333332985985145,  0.357775267350890 ]
  mass: 15.999400
- symbol: Sc # 6
  coordinates: [  0.333332985432215,  0.666666983183674,  0.385577541917738 ]
  mass: 44.955912
- symbol: Sc # 7
  coordinates: [  0.666666984744047,  0.333332985985145,  0.489747101385830 ]
  mass: 44.955912

phonon:
- q-position: [    0.0000000,    0.0000000,    0.0000000 ]
  distance:    0.0000000
  band:
  - # 1
    frequency:   -1.1246386109
  - # 2
    frequency:   -1.1246386109
  - # 3
    frequency:   -0.0000055074
  - # 4
    frequency:   -0.0000016560
  - # 5
    frequency:    0.0000060719
  - # 6
    frequency:    3.4694162376
  - # 7
    frequency:    3.4694162377
  - # 8
    frequency:    5.9122824891
  - # 9
    frequency:    6.4961511939
  - # 10
    frequency:    6.4961511939
  - # 11
    frequency:   10.4991275554
  - # 12
    frequency:   11.9555638649
  - # 13
    frequency:   11.9555638649
  - # 14
    frequency:   14.2902448711
  - # 15
    frequency:   14.2902448711
  - # 16
    frequency:   15.0713457806
  - # 17
    frequency:   17.7315929615
  - # 18
    frequency:   17.7315929615
  - # 19
    frequency:   18.0821572566
  - # 20
    frequency:   39.2508693205
  - # 21
    frequency:   69.8805937679

- q-position: [    0.0050505,    0.0000000,    0.0000000 ]
  distance:    0.0017722
  band:
  - # 1
    frequency:   -1.1238649571
  - # 2
    frequency:   -1.1216842312
  - # 3
    frequency:   -0.0223462432
  - # 4
    frequency:    0.0709284846
  - # 5
    frequency:    0.1335431453
  - # 6
    frequency:    3.4706700042
  - # 7
    frequency:    3.4732948712
  - # 8
    frequency:    5.9109464895
  - # 9
    frequency:    6.4964336578
  - # 10
    frequency:    6.5003368968
  - # 11
    frequency:   10.4982085751
  - # 12
    frequency:   11.9559898010
  - # 13
    frequency:   11.9638202227
  - # 14
    frequency:   14.2883917544
  - # 15
    frequency:   14.2901944196
  - # 16
    frequency:   15.0721033767
  - # 17
    frequency:   17.7313260464
  - # 18
    frequency:   17.7316551396
  - # 19
    frequency:   18.0825426244
  - # 20
    frequency:   39.2507900504
  - # 21
    frequency:   69.8790598114

- q-position: [    0.0101010,    0.0000000,    0.0000000 ]
  distance:    0.0035445
  band:
  - # 1
    frequency:   -1.1215529228
  - # 2
    frequency:   -1.1129274751
  - # 3
    frequency:   -0.0425287989
  - # 4
    frequency:    0.1419996328
  - # 5
    frequency:    0.2675268074
  - # 6
    frequency:    3.4744240145
  - # 7
    frequency:    3.4848752149
  - # 8
    frequency:    5.9070551749
  - # 9
    frequency:    6.4972795352
  - # 10
    frequency:    6.5127216805
  - # 11
    frequency:   10.4954592359
  - # 12
    frequency:   11.9572626092
  - # 13
    frequency:   11.9884801709
  - # 14
    frequency:   14.2828983381
  - # 15
    frequency:   14.2900421260
  - # 16
    frequency:   15.0743425503
  - # 17
    frequency:   17.7305370088
  - # 18
    frequency:   17.7318414728
  - # 19
    frequency:   18.0836998885
  - # 20
    frequency:   39.2505524816
  - # 21
    frequency:   69.8744623955

- q-position: [    0.0151515,    0.0000000,    0.0000000 ]
  distance:    0.0053167
  band:
  - # 1
    frequency:   -1.1177287471
  - # 2
    frequency:   -1.0986602803
  - # 3
    frequency:   -0.0608567494
  - # 4
    frequency:    0.2133503407
  - # 5
    frequency:    0.4027076320
  - # 6
    frequency:    3.4806565553
  - # 7
    frequency:    3.5039941277
  - # 8
    frequency:    5.9009256787
  - # 9
    frequency:    6.4986842988
  - # 10
    frequency:    6.5328251408
  - # 11
    frequency:   10.4909011405
  - # 12
    frequency:   11.9593673561
  - # 13
    frequency:   12.0292137359
  - # 14
    frequency:   14.2739627096
  - # 15
    frequency:   14.2897851780
  - # 16
    frequency:   15.0779658474
  - # 17
    frequency:   17.7292612570
  - # 18
    frequency:   17.7321513595
  - # 19
    frequency:   18.0856323462
  - # 20
    frequency:   39.2501573374
  - # 21
    frequency:   69.8668148586

- q-position: [    0.0202020,    0.0000000,    0.0000000 ]
  distance:    0.0070890
  band:
  - # 1
    frequency:   -1.1124343721
  - # 2
    frequency:   -1.0792859566
  - # 3
    frequency:   -0.0759050965
  - # 4
    frequency:    0.2851062669
  - # 5
    frequency:    0.5393902963
  - # 6
    frequency:    3.4893319495
  - # 7
    frequency:    3.5303909898
  - # 8
    frequency:    5.8929951028
  - # 9
    frequency:    6.5006404534
  - # 10
    frequency:    6.5599498178
  - # 11
    frequency:   10.4845667102
  - # 12
    frequency:   11.9622793732
  - # 13
    frequency:   12.0854613796
  - # 14
    frequency:   14.2619174307
  - # 15
    frequency:   14.2894189076
  - # 16
    frequency:   15.0828213243
  - # 17
    frequency:   17.7275587252
  - # 18
    frequency:   17.7325838022
  - # 19
    frequency:   18.0883449098
  - # 20
    frequency:   39.2496058198
  - # 21
    frequency:   69.8561393567

- q-position: [    0.0252525,    0.0000000,    0.0000000 ]
  distance:    0.0088612
  band:
  - # 1
    frequency:   -1.1057248302
  - # 2
    frequency:   -1.0552196278
  - # 3
    frequency:   -0.0860676985
  - # 4
    frequency:    0.3573769626
  - # 5
    frequency:    0.6776857150
  - # 6
    frequency:    3.5004012986
  - # 7
    frequency:    3.5637230321
  - # 8
    frequency:    5.8837314469
  - # 9
    frequency:    6.5031376109
  - # 10
    frequency:    6.5932865481
  - # 11
    frequency:   10.4764950721
  - # 12
    frequency:   11.9659645843
  - # 13
    frequency:   12.1564164552
  - # 14
    frequency:   14.2472380911
  - # 15
    frequency:   14.2889368194
  - # 16
    frequency:   15.0887157453
  - # 17
    frequency:   17.7255151660
  - # 18
    frequency:   17.7331374146
  - # 19
    frequency:   18.0918433389
  - # 20
    frequency:   39.2488996036
  - # 21
    frequency:   69.8424667528

- q-position: [    0.0303030,    0.0000000,    0.0000000 ]
  distance:    0.0106334
  band:
  - # 1
    frequency:   -1.0976647627
  - # 2
    frequency:   -1.0267932527
  - # 3
    frequency:   -0.0890346893
  - # 4
    frequency:    0.4302519083
  - # 5
    frequency:    0.8175101677
  - # 6
    frequency:    3.5138034785
  - # 7
    frequency:    3.6035839745
  - # 8
    frequency:    5.8735669295
  - # 9
    frequency:    6.5061625927
  - # 10
    frequency:    6.6320014415
  - # 11
    frequency:   10.4667281630
  - # 12
    frequency:   11.9703799545
  - # 13
    frequency:   12.2409942731
  - # 14
    frequency:   14.2305646973
  - # 15
    frequency:   14.2883306308
  - # 16
    frequency:   15.0954290236
  - # 17
    frequency:   17.7232438086
  - # 18
    frequency:   17.7338104327
  - # 19
    frequency:   18.0961333539
  - # 20
    frequency:   39.2480408286
  - # 21
    frequency:   69.8258364625

- q-position: [    0.0353535,    0.0000000,    0.0000000 ]
  distance:    0.0124057
  band:
  - # 1
    frequency:   -1.0883242974
  - # 2
    frequency:   -0.9941903487
  - # 3
    frequency:   -0.0804984460
  - # 4
    frequency:    0.5037977299
  - # 5
    frequency:    0.9586388446
  - # 6
    frequency:    3.5294663442
  - # 7
    frequency:    3.6495238730
  - # 8
    frequency:    5.8628635031
  - # 9
    frequency:    6.5096995580
  - # 10
    frequency:    6.6752926634
  - # 11
    frequency:   10.4553078435
  - # 12
    frequency:   11.9754740542
  - # 13
    frequency:   12.3377808296
  - # 14
    frequency:   14.2127449216
  - # 15
    frequency:   14.2875903241
  - # 16
    frequency:   15.1027276506
  - # 17
    frequency:   17.7208872764
  - # 18
    frequency:   17.7346007275
  - # 19
    frequency:   18.1012197745
  - # 20
    frequency:   39.2470320899
  - # 21
    frequency:   69.8062962568

- q-position: [    0.0404040,    0.0000000,    0.0000000 ]
  distance:    0.0141779
  band:
  - # 1
    frequency:   -1.0777746046
  - # 2
    frequency:   -0.9574184580
  - # 3
    frequency:   -0.0459603426
  - # 4
    frequency:    0.5780567821
  - # 5
    frequency:    1.1007719392
  - # 6
    frequency:    3.5473080997
  - # 7
    frequency:    3.7010682567
  - # 8
    frequency:    5.8519047249
  - # 9
    frequency:    6.5137301562
  - # 10
    frequency:    6.7224208379
  - # 11
    frequency:   10.4422742885
  - # 12
    frequency:   11.9811877275
  - # 13
    frequency:   12.4449506966
  - # 14
    frequency:   14.1949113455
  - # 15
    frequency:   14.2867042118
  - # 16
    frequency:   15.1103757007
  - # 17
    frequency:   17.7186196806
  - # 18
    frequency:   17.7355058213
  - # 19
    frequency:   18.1071058162
  - # 20
    frequency:   39.2458764254
  - # 21
    frequency:   69.7839020246

- q-position: [    0.0454545,    0.0000000,    0.0000000 ]
  distance:    0.0159502
  band:
  - # 1
    frequency:   -1.0660835181
  - # 2
    frequency:   -0.9163095034
  - # 3
    frequency:    0.0789621576
  - # 4
    frequency:    0.6530471564
  - # 5
    frequency:    1.2435896637
  - # 6
    frequency:    3.5672387798
  - # 7
    frequency:    3.7577350792
  - # 8
    frequency:    5.8409032309
  - # 9
    frequency:    6.5182336988
  - # 10
    frequency:    6.7727220658
  - # 11
    frequency:   10.4276655076
  - # 12
    frequency:   11.9874548535
  - # 13
    frequency:   12.5601389225
  - # 14
    frequency:   14.1786087292
  - # 15
    frequency:   14.2856590139
  - # 16
    frequency:   15.1181429217
  - # 17
    frequency:   17.7166488421
  - # 18
    frequency:   17.7365229066
  - # 19
    frequency:   18.1137926511
  - # 20
    frequency:   39.2445773020
  - # 21
    frequency:   69.7587174952

- q-position: [    0.0505051,    0.0000000,    0.0000000 ]
  distance:    0.0177224
  band:
  - # 1
    frequency:   -1.0533116009
  - # 2
    frequency:   -0.8705294512
  - # 3
    frequency:    0.1404431302
  - # 4
    frequency:    0.7287640044
  - # 5
    frequency:    1.3867866228
  - # 6
    frequency:    3.5891617955
  - # 7
    frequency:    3.8190485668
  - # 8
    frequency:    5.8300147604
  - # 9
    frequency:    6.5231873509
  - # 10
    frequency:    6.8256113042
  - # 11
    frequency:   10.4115176461
  - # 12
    frequency:   11.9942031882
  - # 13
    frequency:   12.6802491945
  - # 14
    frequency:   14.1659891112
  - # 15
    frequency:   14.2844399487
  - # 16
    frequency:   15.1258101383
  - # 17
    frequency:   17.7152186340
  - # 18
    frequency:   17.7376488669
  - # 19
    frequency:   18.1212793114
  - # 20
    frequency:   39.2431385994
  - # 21
    frequency:   69.7308139227

- q-position: [    0.0555556,    0.0000000,    0.0000000 ]
  distance:    0.0194946
  band:
  - # 1
    frequency:   -1.0395089681
  - # 2
    frequency:   -0.8195783739
  - # 3
    frequency:    0.1990565386
  - # 4
    frequency:    0.8051819161
  - # 5
    frequency:    1.5300871694
  - # 6
    frequency:    3.6129754943
  - # 7
    frequency:    3.8845495866
  - # 8
    frequency:    5.8193531799
  - # 9
    frequency:    6.5285663361
  - # 10
    frequency:    6.8805809044
  - # 11
    frequency:   10.3938657017
  - # 12
    frequency:   12.0013552725
  - # 13
    frequency:   12.8011929121
  - # 14
    frequency:   14.1600794149
  - # 15
    frequency:   14.2830308382
  - # 16
    frequency:   15.1331726242
  - # 17
    frequency:   17.7146114613
  - # 18
    frequency:   17.7388803004
  - # 19
    frequency:   18.1295629866
  - # 20
    frequency:   39.2415645921
  - # 21
    frequency:   69.7002697354

- q-position: [    0.0606061,    0.0000000,    0.0000000 ]
  distance:    0.0212669
  band:
  - # 1
    frequency:   -1.0247130389
  - # 2
    frequency:   -0.7627612873
  - # 3
    frequency:    0.2594457257
  - # 4
    frequency:    0.8822579909
  - # 5
    frequency:    1.6732481125
  - # 6
    frequency:    3.6385746949
  - # 7
    frequency:    3.9538025966
  - # 8
    frequency:    5.8090038614
  - # 9
    frequency:    6.5343441549
  - # 10
    frequency:    6.9371967423
  - # 11
    frequency:   10.3747443768
  - # 12
    frequency:   12.0088293940
  - # 13
    frequency:   12.9176185255
  - # 14
    frequency:   14.1650609981
  - # 15
    frequency:   14.2814142258
  - # 16
    frequency:   15.1400423080
  - # 17
    frequency:   17.7151508983
  - # 18
    frequency:   17.7402135457
  - # 19
    frequency:   18.1386397596
  - # 20
    frequency:   39.2398599296
  - # 21
    frequency:   69.6671701508

- q-position: [    0.0656566,    0.0000000,    0.0000000 ]
  distance:    0.0230391
  band:
  - # 1
    frequency:   -1.0089472384
  - # 2
    frequency:   -0.6990968493
  - # 3
    frequency:    0.3229193380
  - # 4
    frequency:    0.9599352086
  - # 5
    frequency:    1.8160549924
  - # 6
    frequency:    3.6658521588
  - # 7
    frequency:    4.0263995295
  - # 8
    frequency:    5.7990345751
  - # 9
    frequency:    6.5404928104
  - # 10
    frequency:    6.9950930315
  - # 11
    frequency:   10.3541888917
  - # 12
    frequency:   12.0165405852
  - # 13
    frequency:   13.0228751380
  - # 14
    frequency:   14.1863155525
  - # 15
    frequency:   14.2795715099
  - # 16
    frequency:   15.1462498186
  - # 17
    frequency:   17.7172044570
  - # 18
    frequency:   17.7416447093
  - # 19
    frequency:   18.1485058390
  - # 20
    frequency:   39.2380296148
  - # 21
    frequency:   69.6316067608

- q-position: [    0.0707071,    0.0000000,    0.0000000 ]
  distance:    0.0248114
  band:
  - # 1
    frequency:   -0.9922205237
  - # 2
    frequency:   -0.6270835344
  - # 3
    frequency:    0.3899677419
  - # 4
    frequency:    1.0381457533
  - # 5
    frequency:    1.9583160955
  - # 6
    frequency:    3.6946999707
  - # 7
    frequency:    4.1019611043
  - # 8
    frequency:    5.7895039719
  - # 9
    frequency:    6.5469830423
  - # 10
    frequency:    7.0539663287
  - # 11
    frequency:   10.3322356760
  - # 12
    frequency:   12.0244016470
  - # 13
    frequency:   13.1097417293
  - # 14
    frequency:   14.2297040339
  - # 15
    frequency:   14.2774830903
  - # 16
    frequency:   15.1516476690
  - # 17
    frequency:   17.7211863454
  - # 18
    frequency:   17.7431696948
  - # 19
    frequency:   18.1591593930
  - # 20
    frequency:   39.2360789812
  - # 21
    frequency:   69.5936770870

- q-position: [    0.0757576,    0.0000000,    0.0000000 ]
  distance:    0.0265836
  band:
  - # 1
    frequency:   -0.9745275120
  - # 2
    frequency:   -0.5440964517
  - # 3
    frequency:    0.4606761454
  - # 4
    frequency:    1.1168140314
  - # 5
    frequency:    2.0998563961
  - # 6
    frequency:    3.7250108065
  - # 7
    frequency:    4.1801360852
  - # 8
    frequency:    5.7804681210
  - # 9
    frequency:    6.5537845633
  - # 10
    frequency:    7.1135690423
  - # 11
    frequency:   10.3089229150
  - # 12
    frequency:   12.0323241820
  - # 13
    frequency:   13.1723527704
  - # 14
    frequency:   14.2751285295
  - # 15
    frequency:   14.2996451263
  - # 16
    frequency:   15.1561167625
  - # 17
    frequency:   17.7275598563
  - # 18
    frequency:   17.7447842338
  - # 19
    frequency:   18.1706031748
  - # 20
    frequency:   39.2340136684
  - # 21
    frequency:   69.5534841122

- q-position: [    0.0808081,    0.0000000,    0.0000000 ]
  distance:    0.0283558
  band:
  - # 1
    frequency:   -0.9558489439
  - # 2
    frequency:   -0.4446500098
  - # 3
    frequency:    0.5347731736
  - # 4
    frequency:    1.1958592377
  - # 5
    frequency:    2.2405122924
  - # 6
    frequency:    3.7566790737
  - # 7
    frequency:    4.2605989431
  - # 8
    frequency:    5.7719856807
  - # 9
    frequency:    6.5608662979
  - # 10
    frequency:    7.1737027219
  - # 11
    frequency:   10.2842909607
  - # 12
    frequency:   12.0402196241
  - # 13
    frequency:   13.2084709826
  - # 14
    frequency:   14.2724867268
  - # 15
    frequency:   14.3968374320
  - # 16
    frequency:   15.1595810559
  - # 17
    frequency:   17.7368386383
  - # 18
    frequency:   17.7464839175
  - # 19
    frequency:   18.1828482801
  - # 20
    frequency:   39.2318395960
  - # 21
    frequency:   69.5111357880

- q-position: [    0.0858586,    0.0000000,    0.0000000 ]
  distance:    0.0301281
  band:
  - # 1
    frequency:   -0.9361522174
  - # 2
    frequency:   -0.3135969274
  - # 3
    frequency:    0.6116215900
  - # 4
    frequency:    1.2751974196
  - # 5
    frequency:    2.3801273154
  - # 6
    frequency:    3.7896019172
  - # 7
    frequency:    4.3430462537
  - # 8
    frequency:    5.7641222841
  - # 9
    frequency:    6.5681966209
  - # 10
    frequency:    7.2342113901
  - # 11
    frequency:   10.2583826352
  - # 12
    frequency:   12.0480002541
  - # 13
    frequency:   13.2200226449
  - # 14
    frequency:   14.2695361052
  - # 15
    frequency:   14.5176969241
  - # 16
    frequency:   15.1620437591
  - # 17
    frequency:   17.7482642297
  - # 18
    frequency:   17.7495854540
  - # 19
    frequency:   18.1959196326
  - # 20
    frequency:   39.2295629368
  - # 21
    frequency:   69.4667445241

- q-position: [    0.0909091,    0.0000000,    0.0000000 ]
  distance:    0.0319003
  band:
  - # 1
    frequency:   -0.9153917536
  - # 2
    frequency:    0.0514583929
  - # 3
    frequency:    0.6902921268
  - # 4
    frequency:    1.3547430641
  - # 5
    frequency:    2.5185486921
  - # 6
    frequency:    3.8236800846
  - # 7
    frequency:    4.4271920065
  - # 8
    frequency:    5.7569547064
  - # 9
    frequency:    6.5757435937
  - # 10
    frequency:    7.2949751507
  - # 11
    frequency:   10.2312434545
  - # 12
    frequency:   12.0555801880
  - # 13
    frequency:   13.2113911649
  - # 14
    frequency:   14.2662548107
  - # 15
    frequency:   14.6559695625
  - # 16
    frequency:   15.1636905549
  - # 17
    frequency:   17.7501205796
  - # 18
    frequency:   17.7664059838
  - # 19
    frequency:   18.2098642336
  - # 20
    frequency:   39.2271900891
  - # 21
    frequency:   69.4204266610

- q-position: [    0.0959596,    0.0000000,    0.0000000 ]
  distance:    0.0336726
  band:
  - # 1
    frequency:   -0.8935089926
  - # 2
    frequency:    0.3263070992
  - # 3
    frequency:    0.7697537278
  - # 4
    frequency:    1.4344102766
  - # 5
    frequency:    2.6556245593
  - # 6
    frequency:    3.8588186550
  - # 7
    frequency:    4.5127618080
  - # 8
    frequency:    5.7505753958
  - # 9
    frequency:    6.5834751977
  - # 10
    frequency:    7.3559042559
  - # 11
    frequency:   10.2029218023
  - # 12
    frequency:   12.0628763300
  - # 13
    frequency:   13.1873120160
  - # 14
    frequency:   14.2626209206
  - # 15
    frequency:   14.8044779194
  - # 16
    frequency:   15.1652600004
  - # 17
    frequency:   17.7520483360
  - # 18
    frequency:   17.7879335890
  - # 19
    frequency:   18.2247640021
  - # 20
    frequency:   39.2247276472
  - # 21
    frequency:   69.3723019297

- q-position: [    0.1010101,    0.0000000,    0.0000000 ]
  distance:    0.0354448
  band:
  - # 1
    frequency:   -0.8704318417
  - # 2
    frequency:    0.4634004561
  - # 3
    frequency:    0.8490892343
  - # 4
    frequency:    1.5141136354
  - # 5
    frequency:    2.7912016251
  - # 6
    frequency:    3.8949276318
  - # 7
    frequency:    4.5994857169
  - # 8
    frequency:    5.7450980389
  - # 9
    frequency:    6.5913595635
  - # 10
    frequency:    7.4169337498
  - # 11
    frequency:   10.1734690783
  - # 12
    frequency:   12.0698092803
  - # 13
    frequency:   13.1517592216
  - # 14
    frequency:   14.2586126617
  - # 15
    frequency:   14.9543216508
  - # 16
    frequency:   15.1699744100
  - # 17
    frequency:   17.7540428601
  - # 18
    frequency:   17.8147984363
  - # 19
    frequency:   18.2407564824
  - # 20
    frequency:   39.2221823722
  - # 21
    frequency:   69.3224929031

- q-position: [    0.1060606,    0.0000000,    0.0000000 ]
  distance:    0.0372170
  band:
  - # 1
    frequency:   -0.8460733961
  - # 2
    frequency:    0.5736715120
  - # 3
    frequency:    0.9276234822
  - # 4
    frequency:    1.5937688063
  - # 5
    frequency:    2.9251231073
  - # 6
    frequency:    3.9319224080
  - # 7
    frequency:    4.6870891288
  - # 8
    frequency:    5.7406650362
  - # 9
    frequency:    6.5993651946
  - # 10
    frequency:    7.4780187441
  - # 11
    frequency:   10.1429398444
  - # 12
    frequency:   12.0763041909
  - # 13
    frequency:   13.1077306389
  - # 14
    frequency:   14.2542086340
  - # 15
    frequency:   15.0791688065
  - # 16
    frequency:   15.1994914204
  - # 17
    frequency:   17.7560995386
  - # 18
    frequency:   17.8475706360
  - # 19
    frequency:   18.2580694133
  - # 20
    frequency:   39.2195611620
  - # 21
    frequency:   69.2711244405

- q-position: [    0.1111111,    0.0000000,    0.0000000 ]
  distance:    0.0389893
  band:
  - # 1
    frequency:   -0.8203297240
  - # 2
    frequency:    0.6716041168
  - # 3
    frequency:    1.0049379008
  - # 4
    frequency:    1.6732929894
  - # 5
    frequency:    3.0572268107
  - # 6
    frequency:    3.9697241093
  - # 7
    frequency:    4.7752806410
  - # 8
    frequency:    5.7374581572
  - # 9
    frequency:    6.6074611855
  - # 10
    frequency:    7.5391303222
  - # 11
    frequency:   10.1113919862
  - # 12
    frequency:   12.0822915637
  - # 13
    frequency:   13.0574101102
  - # 14
    frequency:   14.2493880390
  - # 15
    frequency:   15.1193457509
  - # 16
    frequency:   15.3096953534
  - # 17
    frequency:   17.7582138160
  - # 18
    frequency:   17.8866615526
  - # 19
    frequency:   18.2770802081
  - # 20
    frequency:   39.2168710204
  - # 21
    frequency:   69.2183231301

- q-position: [    0.1161616,    0.0000000,    0.0000000 ]
  distance:    0.0407615
  band:
  - # 1
    frequency:   -0.7930764189
  - # 2
    frequency:    0.7627859944
  - # 3
    frequency:    1.0808186335
  - # 4
    frequency:    1.7526052567
  - # 5
    frequency:    3.1873432316
  - # 6
    frequency:    4.0082598225
  - # 7
    frequency:    4.8637350798
  - # 8
    frequency:    5.7357143334
  - # 9
    frequency:    6.6156174331
  - # 10
    frequency:    7.6002520250
  - # 11
    frequency:   10.0788869117
  - # 12
    frequency:   12.0877079845
  - # 13
    frequency:   13.0023938516
  - # 14
    frequency:   14.2441309102
  - # 15
    frequency:   15.1206722834
  - # 16
    frequency:   15.4516982703
  - # 17
    frequency:   17.7603812253
  - # 18
    frequency:   17.9321597369
  - # 19
    frequency:   18.2984202416
  - # 20
    frequency:   39.2141190267
  - # 21
    frequency:   69.1642167326

- q-position: [    0.1212121,    0.0000000,    0.0000000 ]
  distance:    0.0425338
  band:
  - # 1
    frequency:   -0.7641634734
  - # 2
    frequency:    0.8499709041
  - # 3
    frequency:    1.1551901088
  - # 4
    frequency:    1.8316268212
  - # 5
    frequency:    3.3152936001
  - # 6
    frequency:    4.0474627180
  - # 7
    frequency:    4.9520686725
  - # 8
    frequency:    5.7357497082
  - # 9
    frequency:    6.6238048417
  - # 10
    frequency:    7.6613768391
  - # 11
    frequency:   10.0454898055
  - # 12
    frequency:   12.0924967911
  - # 13
    frequency:   12.9438767858
  - # 14
    frequency:   14.2384183413
  - # 15
    frequency:   15.1137801770
  - # 16
    frequency:   15.5924167792
  - # 17
    frequency:   17.7625974182
  - # 18
    frequency:   17.9835698667
  - # 19
    frequency:   18.3231557840
  - # 20
    frequency:   39.2113123047
  - # 21
    frequency:   69.1089336294

- q-position: [    0.1262626,    0.0000000,    0.0000000 ]
  distance:    0.0443060
  band:
  - # 1
    frequency:   -0.7334077544
  - # 2
    frequency:    0.9346784328
  - # 3
    frequency:    1.2280603121
  - # 4
    frequency:    1.9102812689
  - # 5
    frequency:    3.4408877820
  - # 6
    frequency:    4.0872720723
  - # 7
    frequency:    5.0398015027
  - # 8
    frequency:    5.7379968764
  - # 9
    frequency:    6.6319955200
  - # 10
    frequency:    7.7225045836
  - # 11
    frequency:   10.0112699632
  - # 12
    frequency:   12.0966086704
  - # 13
    frequency:   12.8827846501
  - # 14
    frequency:   14.2322327123
  - # 15
    frequency:   15.1031867360
  - # 16
    frequency:   15.7254600092
  - # 17
    frequency:   17.7648581920
  - # 18
    frequency:   18.0394323894
  - # 19
    frequency:   18.3530752499
  - # 20
    frequency:   39.2084579923
  - # 21
    frequency:   69.0526022778

- q-position: [    0.1313131,    0.0000000,    0.0000000 ]
  distance:    0.0460782
  band:
  - # 1
    frequency:   -0.7005818846
  - # 2
    frequency:    1.0177986857
  - # 3
    frequency:    1.2994835325
  - # 4
    frequency:    1.9884947714
  - # 5
    frequency:    3.5639219800
  - # 6
    frequency:    4.1276331979
  - # 7
    frequency:    5.1262999940
  - # 8
    frequency:    5.7430626240
  - # 9
    frequency:    6.6401629711
  - # 10
    frequency:    7.7836395797
  - # 11
    frequency:    9.9763012345
  - # 12
    frequency:   12.1000021841
  - # 13
    frequency:   12.8198627176
  - # 14
    frequency:   14.2255579071
  - # 15
    frequency:   15.0899486455
  - # 16
    frequency:   15.8484765827
  - # 17
    frequency:   17.7671595162
  - # 18
    frequency:   18.0969112815
  - # 19
    frequency:   18.3910115962
  - # 20
    frequency:   39.2055632113
  - # 21
    frequency:   68.9953506786

- q-position: [    0.1363636,    0.0000000,    0.0000000 ]
  distance:    0.0478505
  band:
  - # 1
    frequency:   -0.6653974623
  - # 2
    frequency:    1.0998682832
  - # 3
    frequency:    1.3695377784
  - # 4
    frequency:    2.0661962912
  - # 5
    frequency:    3.6841761952
  - # 6
    frequency:    4.1684972876
  - # 7
    frequency:    5.2106908852
  - # 8
    frequency:    5.7518147313
  - # 9
    frequency:    6.6482822730
  - # 10
    frequency:    7.8447884728
  - # 11
    frequency:    9.9406626147
  - # 12
    frequency:   12.1026442199
  - # 13
    frequency:   12.7557343518
  - # 14
    frequency:   14.2183795230
  - # 15
    frequency:   15.0744452421
  - # 16
    frequency:   15.9603757943
  - # 17
    frequency:   17.7694975552
  - # 18
    frequency:   18.1518328040
  - # 19
    frequency:   18.4407396021
  - # 20
    frequency:   39.2026350372
  - # 21
    frequency:   68.9373058566

- q-position: [    0.1414141,    0.0000000,    0.0000000 ]
  distance:    0.0496227
  band:
  - # 1
    frequency:   -0.6274788847
  - # 2
    frequency:    1.1812112313
  - # 3
    frequency:    1.4383124535
  - # 4
    frequency:    2.1433177885
  - # 5
    frequency:    3.8014114513
  - # 6
    frequency:    4.2098211780
  - # 7
    frequency:    5.2917456774
  - # 8
    frequency:    5.7654988524
  - # 9
    frequency:    6.6563302508
  - # 10
    frequency:    7.9059580665
  - # 11
    frequency:    9.9044390377
  - # 12
    frequency:   12.1045103673
  - # 13
    frequency:   12.6909395858
  - # 14
    frequency:   14.2106850670
  - # 15
    frequency:   15.0568644646
  - # 16
    frequency:   16.0608186469
  - # 17
    frequency:   17.7718686899
  - # 18
    frequency:   18.2000647098
  - # 19
    frequency:   18.5055796211
  - # 20
    frequency:   39.1996804704
  - # 21
    frequency:   68.8785933597

- q-position: [    0.1464646,    0.0000000,    0.0000000 ]
  distance:    0.0513950
  band:
  - # 1
    frequency:   -0.5863206124
  - # 2
    frequency:    1.2620159014
  - # 3
    frequency:    1.5059027493
  - # 4
    frequency:    2.2197944304
  - # 5
    frequency:    3.9153668588
  - # 6
    frequency:    4.2515670391
  - # 7
    frequency:    5.3677751023
  - # 8
    frequency:    5.7858458377
  - # 9
    frequency:    6.6642856386
  - # 10
    frequency:    7.9671530121
  - # 11
    frequency:    9.8677224436
  - # 12
    frequency:   12.1055852183
  - # 13
    frequency:   12.6259606493
  - # 14
    frequency:   14.2024641385
  - # 15
    frequency:   15.0373299054
  - # 16
    frequency:   16.1500241524
  - # 17
    frequency:   17.7742695347
  - # 18
    frequency:   18.2397619011
  - # 19
    frequency:   18.5861911738
  - # 20
    frequency:   39.1967064078
  - # 21
    frequency:   68.8193367766

- q-position: [    0.1515152,    0.0000000,    0.0000000 ]
  distance:    0.0531672
  band:
  - # 1
    frequency:   -0.5412131007
  - # 2
    frequency:    1.3423785829
  - # 3
    frequency:    1.5724084954
  - # 4
    frequency:    2.2955648059
  - # 5
    frequency:    4.0257567237
  - # 6
    frequency:    4.2937019952
  - # 7
    frequency:    5.4366900963
  - # 8
    frequency:    5.8150128090
  - # 9
    frequency:    6.6721292307
  - # 10
    frequency:    8.0283731745
  - # 11
    frequency:    9.8306132275
  - # 12
    frequency:   12.1058625899
  - # 13
    frequency:   12.5612389430
  - # 14
    frequency:   14.1937085949
  - # 15
    frequency:   15.0159429881
  - # 16
    frequency:   16.2286203802
  - # 17
    frequency:   17.7766969539
  - # 18
    frequency:   18.2718058351
  - # 19
    frequency:   18.6802211775
  - # 20
    frequency:   39.1937196153
  - # 21
    frequency:   68.7596572790