nqpoint: 300    
npath: 3      
segment_nqpoint:
- 100
- 100
- 100
labels:
- [ 'G', 'M' ]
- [ 'M', 'K' ]
- [ 'K', 'G' ]
reciprocal_lattice:
- [   0.29430800,   0.16991880,   0.00000000 ] # a*
- [   0.00000000,   0.33983760,   0.00000000 ] # b*
- [   0.00000000,   0.00000000,   0.03890726 ] # c*
natom: 7      
lattice:
- [     3.397800961913495,     0.000000000000000,     0.000000000000000 ] # a
- [    -1.698900480956747,     2.942581950008888,     0.000000000000000 ] # b
- [     0.000000000000000,     0.000000000000000,    25.702141356220576 ] # c
points:
- symbol: C # 1
  coordinates: [  0.000000000000000,  0.000000000000000,  0.441652942770702 ]
  mass: 12.010700
- symbol: C # 2
  coordinates: [  0.333332985432215,  0.666666983183674,  0.589316214133681 ]
  mass: 12.010700
- symbol: F # 3
  coordinates: [  0.666666984744047,  0.333332985985145,  0.350165376311020 ]
  mass: 18.998403
- symbol: N # 4
  coordinates: [  0.333332985432215,  0.666666983183674,  0.540831532350614 ]
  mass: 14.006700
- symbol: S # 5
  coordinates: [  0.333332985432215,  0.666666983183674,  0.649834623688980 ]
  mass: 32.065000
- symbol: Sc # 6
  coordinates: [  0.333332985432215,  0.666666983183674,  0.392981620056465 ]
  mass: 44.955912
- symbol: Sc # 7
  coordinates: [  0.666666984744047,  0.333332985985145,  0.490086692281352 ]
  mass: 44.955912

phonon:
- q-position: [    0.0000000,    0.0000000,    0.0000000 ]
  distance:    0.0000000
  band:
  - # 1
    frequency:   -0.0000236474
  - # 2
    frequency:   -0.0000005031
  - # 3
    frequency:    0.0000168200
  - # 4
    frequency:    0.6385022745
  - # 5
    frequency:    0.6385022748
  - # 6
    frequency:    4.7028476769
  - # 7
    frequency:    4.7028476770
  - # 8
    frequency:    5.4931304815
  - # 9
    frequency:    6.3167469229
  - # 10
    frequency:    6.3167469229
  - # 11
    frequency:    6.5249965285
  - # 12
    frequency:    6.5249965286
  - # 13
    frequency:    9.6082843801
  - # 14
    frequency:   12.0031509991
  - # 15
    frequency:   12.0031509992
  - # 16
    frequency:   12.5147777832
  - # 17
    frequency:   14.4289160090
  - # 18
    frequency:   14.4289160091
  - # 19
    frequency:   18.8159305685
  - # 20
    frequency:   27.4166403615
  - # 21
    frequency:   59.7290024205

- q-position: [    0.0050505,    0.0000000,    0.0000000 ]
  distance:    0.0017164
  band:
  - # 1
    frequency:    0.0027567298
  - # 2
    frequency:    0.0757025316
  - # 3
    frequency:    0.1310384342
  - # 4
    frequency:    0.6406111275
  - # 5
    frequency:    0.6463691309
  - # 6
    frequency:    4.7028360647
  - # 7
    frequency:    4.7036578003
  - # 8
    frequency:    5.4931154534
  - # 9
    frequency:    6.3162771705
  - # 10
    frequency:    6.3209501131
  - # 11
    frequency:    6.5252004054
  - # 12
    frequency:    6.5253588488
  - # 13
    frequency:    9.6079388230
  - # 14
    frequency:   12.0028670374
  - # 15
    frequency:   12.0067190768
  - # 16
    frequency:   12.5149664074
  - # 17
    frequency:   14.4290052525
  - # 18
    frequency:   14.4292876122
  - # 19
    frequency:   18.8147067642
  - # 20
    frequency:   27.4165486030
  - # 21
    frequency:   59.7276376611

- q-position: [    0.0101010,    0.0000000,    0.0000000 ]
  distance:    0.0034327
  band:
  - # 1
    frequency:    0.0108282468
  - # 2
    frequency:    0.1508948990
  - # 3
    frequency:    0.2606548872
  - # 4
    frequency:    0.6470062648
  - # 5
    frequency:    0.6699041359
  - # 6
    frequency:    4.7028019895
  - # 7
    frequency:    4.7060749015
  - # 8
    frequency:    5.4930831028
  - # 9
    frequency:    6.3148760759
  - # 10
    frequency:    6.3334156639
  - # 11
    frequency:    6.5258047311
  - # 12
    frequency:    6.5264960018
  - # 13
    frequency:    9.6069034079
  - # 14
    frequency:   12.0020160118
  - # 15
    frequency:   12.0172791148
  - # 16
    frequency:   12.5156794984
  - # 17
    frequency:   14.4292728815
  - # 18
    frequency:   14.4304019244
  - # 19
    frequency:   18.8110376599
  - # 20
    frequency:   27.4162734228
  - # 21
    frequency:   59.7235459576

- q-position: [    0.0151515,    0.0000000,    0.0000000 ]
  distance:    0.0051491
  band:
  - # 1
    frequency:    0.0237122794
  - # 2
    frequency:    0.2249914583
  - # 3
    frequency:    0.3869033977
  - # 4
    frequency:    0.6579105815
  - # 5
    frequency:    0.7092228376
  - # 6
    frequency:    4.7027477334
  - # 7
    frequency:    4.7100594213
  - # 8
    frequency:    5.4930706129
  - # 9
    frequency:    6.3125674034
  - # 10
    frequency:    6.3536868855
  - # 11
    frequency:    6.5267883111
  - # 12
    frequency:    6.5285880183
  - # 13
    frequency:    9.6051819003
  - # 14
    frequency:   12.0006005006
  - # 15
    frequency:   12.0343686015
  - # 16
    frequency:   12.5173875982
  - # 17
    frequency:   14.4297185924
  - # 18
    frequency:   14.4322574626
  - # 19
    frequency:   18.8049301807
  - # 20
    frequency:   27.4158151066
  - # 21
    frequency:   59.7167350281

- q-position: [    0.0202020,    0.0000000,    0.0000000 ]
  distance:    0.0068654
  band:
  - # 1
    frequency:    0.0408052796
  - # 2
    frequency:    0.2972463271
  - # 3
    frequency:    0.5067062547
  - # 4
    frequency:    0.6737514301
  - # 5
    frequency:    0.7653852635
  - # 6
    frequency:    4.7026770927
  - # 7
    frequency:    4.7155462160
  - # 8
    frequency:    5.4931369379
  - # 9
    frequency:    6.3093885023
  - # 10
    frequency:    6.3808887824
  - # 11
    frequency:    6.5281180634
  - # 12
    frequency:    6.5320642507
  - # 13
    frequency:    9.6027805662
  - # 14
    frequency:   11.9986247935
  - # 15
    frequency:   12.0571139146
  - # 16
    frequency:   12.5209742921
  - # 17
    frequency:   14.4303418786
  - # 18
    frequency:   14.4348517878
  - # 19
    frequency:   18.7963958651
  - # 20
    frequency:   27.4151741300
  - # 21
    frequency:   59.7072177125

- q-position: [    0.0252525,    0.0000000,    0.0000000 ]
  distance:    0.0085818
  band:
  - # 1
    frequency:    0.0615717437
  - # 2
    frequency:    0.3666637190
  - # 3
    frequency:    0.6158381697
  - # 4
    frequency:    0.6952310935
  - # 5
    frequency:    0.8406496371
  - # 6
    frequency:    4.7025953663
  - # 7
    frequency:    4.7224456301
  - # 8
    frequency:    5.4933593729
  - # 9
    frequency:    6.3053874123
  - # 10
    frequency:    6.4134012457
  - # 11
    frequency:    6.5297518913
  - # 12
    frequency:    6.5379514048
  - # 13
    frequency:    9.5997081599
  - # 14
    frequency:   11.9960948819
  - # 15
    frequency:   12.0840735642
  - # 16
    frequency:   12.5278880055
  - # 17
    frequency:   14.4311420299
  - # 18
    frequency:   14.4381815539
  - # 19
    frequency:   18.7854508612
  - # 20
    frequency:   27.4143511581
  - # 21
    frequency:   59.6950119386

- q-position: [    0.0303030,    0.0000000,    0.0000000 ]
  distance:    0.0102981
  band:
  - # 1
    frequency:    0.0856159234
  - # 2
    frequency:    0.4319537557
  - # 3
    frequency:    0.7115673608
  - # 4
    frequency:    0.7233614123
  - # 5
    frequency:    0.9359934027
  - # 6
    frequency:    4.7025093397
  - # 7
    frequency:    4.7306448201
  - # 8
    frequency:    5.4938303509
  - # 9
    frequency:    6.3006196147
  - # 10
    frequency:    6.4479280725
  - # 11
    frequency:    6.5316419010
  - # 12
    frequency:    6.5488309782
  - # 13
    frequency:    9.5959759106
  - # 14
    frequency:   11.9930184438
  - # 15
    frequency:   12.1130525792
  - # 16
    frequency:   12.5403210162
  - # 17
    frequency:   14.4321181321
  - # 18
    frequency:   14.4422425807
  - # 19
    frequency:   18.7721159222
  - # 20
    frequency:   27.4133470444
  - # 21
    frequency:   59.6801406731

- q-position: [    0.0353535,    0.0000000,    0.0000000 ]
  distance:    0.0120145
  band:
  - # 1
    frequency:    0.1126768433
  - # 2
    frequency:    0.4916769436
  - # 3
    frequency:    0.7593154651
  - # 4
    frequency:    0.7961634674
  - # 5
    frequency:    1.0476669561
  - # 6
    frequency:    4.7024272642
  - # 7
    frequency:    4.7400092359
  - # 8
    frequency:    5.4946551037
  - # 9
    frequency:    6.2951449097
  - # 10
    frequency:    6.4780531440
  - # 11
    frequency:    6.5337374870
  - # 12
    frequency:    6.5703126356
  - # 13
    frequency:    9.5915975116
  - # 14
    frequency:   11.9894048244
  - # 15
    frequency:   12.1410375628
  - # 16
    frequency:   12.5612665085
  - # 17
    frequency:   14.4332690656
  - # 18
    frequency:   14.4470299527
  - # 19
    frequency:   18.7564164030
  - # 20
    frequency:   27.4121628301
  - # 21
    frequency:   59.6626318603

- q-position: [    0.0404040,    0.0000000,    0.0000000 ]
  distance:    0.0137308
  band:
  - # 1
    frequency:    0.1425912552
  - # 2
    frequency:    0.5447439872
  - # 3
    frequency:    0.8039270225
  - # 4
    frequency:    0.8745908214
  - # 5
    frequency:    1.1694951804
  - # 6
    frequency:    4.7023588300
  - # 7
    frequency:    4.7503842201
  - # 8
    frequency:    5.4959503282
  - # 9
    frequency:    6.2890247551
  - # 10
    frequency:    6.4977336104
  - # 11
    frequency:    6.5359879480
  - # 12
    frequency:    6.6075718044
  - # 13
    frequency:    9.5865891155
  - # 14
    frequency:   11.9852650108
  - # 15
    frequency:   12.1645658056
  - # 16
    frequency:   12.5941407258
  - # 17
    frequency:   14.4345935047
  - # 18
    frequency:   14.4525381530
  - # 19
    frequency:   18.7383822598
  - # 20
    frequency:   27.4107997423
  - # 21
    frequency:   59.6425183465

- q-position: [    0.0454545,    0.0000000,    0.0000000 ]
  distance:    0.0154472
  band:
  - # 1
    frequency:    0.1752545325
  - # 2
    frequency:    0.5910757642
  - # 3
    frequency:    0.8570312728
  - # 4
    frequency:    0.9505350120
  - # 5
    frequency:    1.2968153024
  - # 6
    frequency:    4.7023151343
  - # 7
    frequency:    4.7615967686
  - # 8
    frequency:    5.4978435908
  - # 9
    frequency:    6.2823202255
  - # 10
    frequency:    6.5088426138
  - # 11
    frequency:    6.5383444784
  - # 12
    frequency:    6.6578374042
  - # 13
    frequency:    9.5809693395
  - # 14
    frequency:   11.9806116014
  - # 15
    frequency:   12.1807111866
  - # 16
    frequency:   12.6417880214
  - # 17
    frequency:   14.4360899166
  - # 18
    frequency:   14.4587612416
  - # 19
    frequency:   18.7180480550
  - # 20
    frequency:   27.4092591932
  - # 21
    frequency:   59.6198377921

- q-position: [    0.0505051,    0.0000000,    0.0000000 ]
  distance:    0.0171635
  band:
  - # 1
    frequency:    0.2105911018
  - # 2
    frequency:    0.6317352799
  - # 3
    frequency:    0.9173339905
  - # 4
    frequency:    1.0258517206
  - # 5
    frequency:    1.4269847207
  - # 6
    frequency:    4.7023086430
  - # 7
    frequency:    4.7734575745
  - # 8
    frequency:    5.5004729903
  - # 9
    frequency:    6.2750906062
  - # 10
    frequency:    6.5157999985
  - # 11
    frequency:    6.5407615191
  - # 12
    frequency:    6.7157899518
  - # 13
    frequency:    9.5747592831
  - # 14
    frequency:   11.9754587693
  - # 15
    frequency:   12.1881073395
  - # 16
    frequency:   12.7054489075
  - # 17
    frequency:   14.4377565600
  - # 18
    frequency:   14.4656930990
  - # 19
    frequency:   18.6954529709
  - # 20
    frequency:   27.4075427782
  - # 21
    frequency:   59.5946325703

- q-position: [    0.0555556,    0.0000000,    0.0000000 ]
  distance:    0.0188799
  band:
  - # 1
    frequency:    0.2485356295
  - # 2
    frequency:    0.6683269644
  - # 3
    frequency:    0.9830132288
  - # 4
    frequency:    1.1013271823
  - # 5
    frequency:    1.5585800407
  - # 6
    frequency:    4.7023531459
  - # 7
    frequency:    4.7857635510
  - # 8
    frequency:    5.5039865453
  - # 9
    frequency:    6.2673925440
  - # 10
    frequency:    6.5209297881
  - # 11
    frequency:    6.5431975498
  - # 12
    frequency:    6.7782301554
  - # 13
    frequency:    9.5679825614
  - # 14
    frequency:   11.9698222182
  - # 15
    frequency:   12.1870459311
  - # 16
    frequency:   12.7846538367
  - # 17
    frequency:   14.4395914842
  - # 18
    frequency:   14.4733277678
  - # 19
    frequency:   18.6706408364
  - # 20
    frequency:   27.4056522745
  - # 21
    frequency:   59.5669496534

- q-position: [    0.0606061,    0.0000000,    0.0000000 ]
  distance:    0.0205962
  band:
  - # 1
    frequency:    0.2890225179
  - # 2
    frequency:    0.7023320476
  - # 3
    frequency:    1.0523845569
  - # 4
    frequency:    1.1772429099
  - # 5
    frequency:    1.6907983180
  - # 6
    frequency:    4.7024637053
  - # 7
    frequency:    4.7983010696
  - # 8
    frequency:    5.5085408300
  - # 9
    frequency:    6.2592796341
  - # 10
    frequency:    6.5252007853
  - # 11
    frequency:    6.5456154419
  - # 12
    frequency:    6.8433607337
  - # 13
    frequency:    9.5606653559
  - # 14
    frequency:   11.9637191315
  - # 15
    frequency:   12.1787172320
  - # 16
    frequency:   12.8779760510
  - # 17
    frequency:   14.4415925287
  - # 18
    frequency:   14.4816599467
  - # 19
    frequency:   18.6436601719
  - # 20
    frequency:   27.4035896392
  - # 21
    frequency:   59.5368404875

- q-position: [    0.0656566,    0.0000000,    0.0000000 ]
  distance:    0.0223126
  band:
  - # 1
    frequency:    0.3319808514
  - # 2
    frequency:    0.7348381148
  - # 3
    frequency:    1.1241716785
  - # 4
    frequency:    1.2536557938
  - # 5
    frequency:    1.8231497993
  - # 6
    frequency:    4.7026565973
  - # 7
    frequency:    4.8108501465
  - # 8
    frequency:    5.5142984855
  - # 9
    frequency:    6.2508023212
  - # 10
    frequency:    6.5290330005
  - # 11
    frequency:    6.5479824973
  - # 12
    frequency:    6.9099980890
  - # 13
    frequency:    9.5528364848
  - # 14
    frequency:   11.9571681133
  - # 15
    frequency:   12.1644521255
  - # 16
    frequency:   12.9837847263
  - # 17
    frequency:   14.4437573221
  - # 18
    frequency:   14.4906857364
  - # 19
    frequency:   18.6145642607
  - # 20
    frequency:   27.4013570078
  - # 21
    frequency:   59.5043608546

- q-position: [    0.0707071,    0.0000000,    0.0000000 ]
  distance:    0.0240289
  band:
  - # 1
    frequency:    0.3773325699
  - # 2
    frequency:    0.7665578832
  - # 3
    frequency:    1.1974874338
  - # 4
    frequency:    1.3305259876
  - # 5
    frequency:    1.9553089128
  - # 6
    frequency:    4.7029492453
  - # 7
    frequency:    4.8231897494
  - # 8
    frequency:    5.5214243827
  - # 9
    frequency:    6.2420080060
  - # 10
    frequency:    6.5326210727
  - # 11
    frequency:    6.5502702822
  - # 12
    frequency:    6.9772622852
  - # 13
    frequency:    9.5445274933
  - # 14
    frequency:   11.9501891209
  - # 15
    frequency:   12.1453698152
  - # 16
    frequency:   13.1005942930
  - # 17
    frequency:   14.4460832818
  - # 18
    frequency:   14.5004038136
  - # 19
    frequency:   18.5834112548
  - # 20
    frequency:   27.3989566921
  - # 21
    frequency:   59.4695707241

- q-position: [    0.0757576,    0.0000000,    0.0000000 ]
  distance:    0.0257453
  band:
  - # 1
    frequency:    0.4249923912
  - # 2
    frequency:    0.7979325891
  - # 3
    frequency:    1.2717298794
  - # 4
    frequency:    1.4077748722
  - # 5
    frequency:    2.0870400657
  - # 6
    frequency:    4.7033601464
  - # 7
    frequency:    4.8351042559
  - # 8
    frequency:    5.5300804005
  - # 9
    frequency:    6.2329412729
  - # 10
    frequency:    6.5360580351
  - # 11
    frequency:    6.5524543403
  - # 12
    frequency:    7.0444618965
  - # 13
    frequency:    9.5357727658
  - # 14
    frequency:   11.9428033886
  - # 15
    frequency:   12.1223154747
  - # 16
    frequency:   13.2271254785
  - # 17
    frequency:   14.4485676147
  - # 18
    frequency:   14.5108173724
  - # 19
    frequency:   18.5502643287
  - # 20
    frequency:   27.3963911792
  - # 21
    frequency:   59.4325340931

- q-position: [    0.0808081,    0.0000000,    0.0000000 ]
  distance:    0.0274616
  band:
  - # 1
    frequency:    0.4748685843
  - # 2
    frequency:    0.8292261975
  - # 3
    frequency:    1.3464873302
  - # 4
    frequency:    1.4853114295
  - # 5
    frequency:    2.2181588243
  - # 6
    frequency:    4.7039087897
  - # 7
    frequency:    4.8463908816
  - # 8
    frequency:    5.5404190277
  - # 9
    frequency:    6.2236441798
  - # 10
    frequency:    6.5393867387
  - # 11
    frequency:    6.5545138475
  - # 12
    frequency:    7.1110466281
  - # 13
    frequency:    9.5266096622
  - # 14
    frequency:   11.9350333428
  - # 15
    frequency:   12.0959060411
  - # 16
    frequency:   13.3622591115
  - # 17
    frequency:   14.4512073170
  - # 18
    frequency:   14.5219375088
  - # 19
    frequency:   18.5151918964
  - # 20
    frequency:   27.3936631290
  - # 21
    frequency:   59.3933188168

- q-position: [    0.0858586,    0.0000000,    0.0000000 ]
  distance:    0.0291780
  band:
  - # 1
    frequency:    0.5268640818
  - # 2
    frequency:    0.8605913150
  - # 3
    frequency:    1.4214715711
  - # 4
    frequency:    1.5630441116
  - # 5
    frequency:    2.3485104803
  - # 6
    frequency:    4.7046155666
  - # 7
    frequency:    4.8568676359
  - # 8
    frequency:    5.5525762653
  - # 9
    frequency:    6.2141565656
  - # 10
    frequency:    6.5426233910
  - # 11
    frequency:    6.5564312503
  - # 12
    frequency:    7.1765837150
  - # 13
    frequency:    9.5170786780
  - # 14
    frequency:   11.9269025069
  - # 15
    frequency:   12.0665928664
  - # 16
    frequency:   13.5049722473
  - # 17
    frequency:   14.4539991756
  - # 18
    frequency:   14.5337895046
  - # 19
    frequency:   18.4782679142
  - # 20
    frequency:   27.3907753729
  - # 21
    frequency:   59.3519964284

- q-position: [    0.0909091,    0.0000000,    0.0000000 ]
  distance:    0.0308943
  band:
  - # 1
    frequency:    0.5808776531
  - # 2
    frequency:    0.8921114006
  - # 3
    frequency:    1.4964747122
  - # 4
    frequency:    1.6408859209
  - # 5
    frequency:    2.4779575623
  - # 6
    frequency:    4.7055016738
  - # 7
    frequency:    4.8663811182
  - # 8
    frequency:    5.5666645627
  - # 9
    frequency:    6.2045163541
  - # 10
    frequency:    6.5457693699
  - # 11
    frequency:    6.5581919129
  - # 12
    frequency:    7.2407425931
  - # 13
    frequency:    9.5072236328
  - # 14
    frequency:   11.9184353978
  - # 15
    frequency:   12.0347131942
  - # 16
    frequency:   13.6542808204
  - # 17
    frequency:   14.4569397695
  - # 18
    frequency:   14.5464254050
  - # 19
    frequency:   18.4395722983
  - # 20
    frequency:   27.3877309124
  - # 21
    frequency:   59.3086419505

- q-position: [    0.0959596,    0.0000000,    0.0000000 ]
  distance:    0.0326107
  band:
  - # 1
    frequency:    0.6368050011
  - # 2
    frequency:    0.9238270367
  - # 3
    frequency:    1.5713419803
  - # 4
    frequency:    1.7187562824
  - # 5
    frequency:    2.6063721460
  - # 6
    frequency:    4.7065890082
  - # 7
    frequency:    4.8748133211
  - # 8
    frequency:    5.5827666643
  - # 9
    frequency:    6.1947598345
  - # 10
    frequency:    6.5488176990
  - # 11
    frequency:    6.5597837891
  - # 12
    frequency:    7.3032822131
  - # 13
    frequency:    9.4970918888
  - # 14
    frequency:   11.9096574121
  - # 15
    frequency:   12.0005269308
  - # 16
    frequency:   13.8091830269
  - # 17
    frequency:   14.4600254724
  - # 18
    frequency:   14.5599516772
  - # 19
    frequency:   18.3991914958
  - # 20
    frequency:   27.3845329171
  - # 21
    frequency:   59.2633336973

- q-position: [    0.1010101,    0.0000000,    0.0000000 ]
  distance:    0.0343270
  band:
  - # 1
    frequency:    0.6945397214
  - # 2
    frequency:    0.9557522083
  - # 3
    frequency:    1.6459545349
  - # 4
    frequency:    1.7965814121
  - # 5
    frequency:    2.7336308230
  - # 6
    frequency:    4.7079000549
  - # 7
    frequency:    4.8820866459
  - # 8
    frequency:    5.6009312111
  - # 9
    frequency:    6.1849219151
  - # 10
    frequency:    6.5517569307
  - # 11
    frequency:    6.5611971271
  - # 12
    frequency:    7.3640390447
  - # 13
    frequency:    9.4867346033
  - # 14
    frequency:   11.9005947043
  - # 15
    frequency:   11.9642416545
  - # 16
    frequency:   13.9685738483
  - # 17
    frequency:   14.4632524550
  - # 18
    frequency:   14.5745980071
  - # 19
    frequency:   18.3572192650
  - # 20
    frequency:   27.3811847232
  - # 21
    frequency:   59.2161530690

- q-position: [    0.1060606,    0.0000000,    0.0000000 ]
  distance:    0.0360434
  band:
  - # 1
    frequency:    0.7539741041
  - # 2
    frequency:    0.9878844466
  - # 3
    frequency:    1.7202184758
  - # 4
    frequency:    1.8742940081
  - # 5
    frequency:    2.8596111485
  - # 6
    frequency:    4.7094577685
  - # 7
    frequency:    4.8881665897
  - # 8
    frequency:    5.6211707006
  - # 9
    frequency:    6.1750363431
  - # 10
    frequency:    6.5545737097
  - # 11
    frequency:    6.5624242087
  - # 12
    frequency:    7.4229152460
  - # 13
    frequency:    9.4762070197
  - # 14
    frequency:   11.8912740557
  - # 15
    frequency:   11.9260293948
  - # 16
    frequency:   14.1310340399
  - # 17
    frequency:   14.4666166890
  - # 18
    frequency:   14.5909197897
  - # 19
    frequency:   18.3137577399
  - # 20
    frequency:   27.3776898320
  - # 21
    frequency:   59.1671843390

- q-position: [    0.1111111,    0.0000000,    0.0000000 ]
  distance:    0.0377597
  band:
  - # 1
    frequency:    0.8149997827
  - # 2
    frequency:    1.0202112034
  - # 3
    frequency:    1.7940576897
  - # 4
    frequency:    1.9518326688
  - # 5
    frequency:    2.9841888702
  - # 6
    frequency:    4.7112854484
  - # 7
    frequency:    4.8930619845
  - # 8
    frequency:    5.6434619993
  - # 9
    frequency:    6.1651358931
  - # 10
    frequency:    6.5572546500
  - # 11
    frequency:    6.5634591243
  - # 12
    frequency:    7.4798670305
  - # 13
    frequency:    9.4655688006
  - # 14
    frequency:   11.8817227356
  - # 15
    frequency:   11.8860379113
  - # 16
    frequency:   14.2940673430
  - # 17
    frequency:   14.4701139512
  - # 18
    frequency:   14.6105572629
  - # 19
    frequency:   18.2689188857
  - # 20
    frequency:   27.3740519083
  - # 21
    frequency:   59.1165144339

- q-position: [    0.1161616,    0.0000000,    0.0000000 ]
  distance:    0.0394761
  band:
  - # 1
    frequency:    0.8775082402
  - # 2
    frequency:    1.0527138893
  - # 3
    frequency:    1.8674091081
  - # 4
    frequency:    2.0291412329
  - # 5
    frequency:    3.1072354734
  - # 6
    frequency:    4.7134066082
  - # 7
    frequency:    4.8968231487
  - # 8
    frequency:    5.6677491495
  - # 9
    frequency:    6.1552525233
  - # 10
    frequency:    6.5597878606
  - # 11
    frequency:    6.5642975795
  - # 12
    frequency:    7.5348934393
  - # 13
    frequency:    9.4548844086
  - # 14
    frequency:   11.8443983505
  - # 15
    frequency:   11.8719683559
  - # 16
    frequency:   14.4501043079
  - # 17
    frequency:   14.4737398283
  - # 18
    frequency:   14.6402305134
  - # 19
    frequency:   18.2228264991
  - # 20
    frequency:   27.3702747786
  - # 21
    frequency:   59.0642327077

- q-position: [    0.1212121,    0.0000000,    0.0000000 ]
  distance:    0.0411924
  band:
  - # 1
    frequency:    0.9413911912
  - # 2
    frequency:    1.0853704467
  - # 3
    frequency:    1.9402195061
  - # 4
    frequency:    2.1061681350
  - # 5
    frequency:    3.2286156710
  - # 6
    frequency:    4.7158448412
  - # 7
    frequency:    4.8995387281
  - # 8
    frequency:    5.6939478443
  - # 9
    frequency:    6.1454175022
  - # 10
    frequency:    6.5621643132
  - # 11
    frequency:    6.5649367334
  - # 12
    frequency:    7.5880257423
  - # 13
    frequency:    9.4442235372
  - # 14
    frequency:   11.8012305113
  - # 15
    frequency:   11.8620387191
  - # 16
    frequency:   14.4774897233
  - # 17
    frequency:   14.5660968633
  - # 18
    frequency:   14.7121445100
  - # 19
    frequency:   18.1756189723
  - # 20
    frequency:   27.3663624291
  - # 21
    frequency:   59.0104307104

- q-position: [    0.1262626,    0.0000000,    0.0000000 ]
  distance:    0.0429088
  band:
  - # 1
    frequency:    1.0065408555
  - # 2
    frequency:    1.1181569920
  - # 3
    frequency:    2.0124433048
  - # 4
    frequency:    2.1828658146
  - # 5
    frequency:    3.3481844764
  - # 6
    frequency:    4.7186236824
  - # 7
    frequency:    4.9013322618
  - # 8
    frequency:    5.7219507476
  - # 9
    frequency:    6.1356615079
  - # 10
    frequency:    6.5643791718
  - # 11
    frequency:    6.5653750620
  - # 12
    frequency:    7.6393176423
  - # 13
    frequency:    9.4336615951
  - # 14
    frequency:   11.7566465220
  - # 15
    frequency:   11.8519616620
  - # 16
    frequency:   14.4813588612
  - # 17
    frequency:   14.6147948883
  - # 18
    frequency:   14.8527116311
  - # 19
    frequency:   18.1274531502
  - # 20
    frequency:   27.3623190039
  - # 21
    frequency:   58.9552019521

- q-position: [    0.1313131,    0.0000000,    0.0000000 ]
  distance:    0.0446251
  band:
  - # 1
    frequency:    1.0728501410
  - # 2
    frequency:    1.1510488609
  - # 3
    frequency:    2.0840410388
  - # 4
    frequency:    2.2591901935
  - # 5
    frequency:    3.4657834216
  - # 6
    frequency:    4.7217664673
  - # 7
    frequency:    4.9023596234
  - # 8
    frequency:    5.7516328410
  - # 9
    frequency:    6.1260147004
  - # 10
    frequency:    6.5656122444
  - # 11
    frequency:    6.5664331718
  - # 12
    frequency:    7.6888363884
  - # 13
    frequency:    9.4232802408
  - # 14
    frequency:   11.7107534501
  - # 15
    frequency:   11.8417648964
  - # 16
    frequency:   14.4853422967
  - # 17
    frequency:   14.6403239510
  - # 18
    frequency:   15.0169714508
  - # 19
    frequency:   18.0785097643
  - # 20
    frequency:   27.3581488026
  - # 21
    frequency:   58.8986416632

- q-position: [    0.1363636,    0.0000000,    0.0000000 ]
  distance:    0.0463415
  band:
  - # 1
    frequency:    1.1402127487
  - # 2
    frequency:    1.1840212659
  - # 3
    frequency:    2.1549782720
  - # 4
    frequency:    2.3351002221
  - # 5
    frequency:    3.5812353201
  - # 6
    frequency:    4.7252961903
  - # 7
    frequency:    4.9028085227
  - # 8
    frequency:    5.7828561178
  - # 9
    frequency:    6.1165067708
  - # 10
    frequency:    6.5656490697
  - # 11
    frequency:    6.5683341243
  - # 12
    frequency:    7.7366548406
  - # 13
    frequency:    9.4131679625
  - # 14
    frequency:   11.6636551877
  - # 15
    frequency:   11.8314758478
  - # 16
    frequency:   14.4894349220
  - # 17
    frequency:   14.6607075710
  - # 18
    frequency:   15.1860633574
  - # 19
    frequency:   18.0290011832
  - # 20
    frequency:   27.3538562781
  - # 21
    frequency:   58.8408465507

- q-position: [    0.1414141,    0.0000000,    0.0000000 ]
  distance:    0.0480578
  band:
  - # 1
    frequency:    1.2085232143
  - # 2
    frequency:    1.2170497019
  - # 3
    frequency:    2.2252248213
  - # 4
    frequency:    2.4105574893
  - # 5
    frequency:    3.6943366799
  - # 6
    frequency:    4.7292353627
  - # 7
    frequency:    4.9029013394
  - # 8
    frequency:    5.8154731582
  - # 9
    frequency:    6.1071669671
  - # 10
    frequency:    6.5654873575
  - # 11
    frequency:    6.5700986240
  - # 12
    frequency:    7.7828444789
  - # 13
    frequency:    9.4034206864
  - # 14
    frequency:   11.6154538426
  - # 15
    frequency:   11.8211214945
  - # 16
    frequency:   14.4936314756
  - # 17
    frequency:   14.6795702489
  - # 18
    frequency:   15.3555144604
  - # 19
    frequency:   17.9791826174
  - # 20
    frequency:   27.3494460332
  - # 21
    frequency:   58.7819145529

- q-position: [    0.1464646,    0.0000000,    0.0000000 ]
  distance:    0.0497742
  band:
  - # 1
    frequency:    1.2501101862
  - # 2
    frequency:    1.2776768940
  - # 3
    frequency:    2.2947541931
  - # 4
    frequency:    2.4855258894
  - # 5
    frequency:    3.8048463776
  - # 6
    frequency:    4.7336058714
  - # 7
    frequency:    4.9029028388
  - # 8
    frequency:    5.8493293126
  - # 9
    frequency:    6.0980240991
  - # 10
    frequency:    6.5651298928
  - # 11
    frequency:    6.5717540540
  - # 12
    frequency:    7.8274693262
  - # 13
    frequency:    9.3941423868
  - # 14
    frequency:   11.5662507915
  - # 15
    frequency:   11.8107282087
  - # 16
    frequency:   14.4979265512
  - # 17
    frequency:   14.6979335476
  - # 18
    frequency:   15.5234286726
  - # 19
    frequency:   17.9293685470
  - # 20
    frequency:   27.3449228176
  - # 21
    frequency:   58.7219445910

- q-position: [    0.1515152,    0.0000000,    0.0000000 ]
  distance:    0.0514905
  band:
  - # 1
    frequency:    1.2831793909
  - # 2
    frequency:    1.3475699060
  - # 3
    frequency:    2.3635431699
  - # 4
    frequency:    2.5599713385
  - # 5
    frequency:    3.9124684117
  - # 6
    frequency:    4.7384288404
  - # 7
    frequency:    4.9031349507
  - # 8
    frequency:    5.8842633666
  - # 9
    frequency:    6.0891065221
  - # 10
    frequency:    6.5645803693
  - # 11
    frequency:    6.5733410091
  - # 12
    frequency:    7.8705807420
  - # 13
    frequency:    9.3854456513
  - # 14
    frequency:   11.5161475039
  - # 15
    frequency:   11.8003216020
  - # 16
    frequency:   14.5023146080
  - # 17
    frequency:   14.7161721724
  - # 18
    frequency:   15.6885072514
  - # 19
    frequency:   17.8799571561
  - # 20
    frequency:   27.3402915242
  - # 21
    frequency:   58.6610363214