nqpoint: 300    
npath: 3      
segment_nqpoint:
- 100
- 100
- 100
labels:
- [ 'G', 'M' ]
- [ 'M', 'K' ]
- [ 'K', 'G' ]
reciprocal_lattice:
- [   0.29216946,   0.16868412,   0.00000000 ] # a*
- [   0.00000000,   0.33736824,   0.00000000 ] # b*
- [   0.00000000,   0.00000000,   0.03857519 ] # c*
natom: 6      
lattice:
- [     3.422671182805347,     0.000000000000000,     0.000000000000000 ] # a
- [    -1.711335591402674,     2.964120193105009,     0.000000000000000 ] # b
- [     0.000000000000000,     0.000000000000000,    25.923400981594863 ] # c
points:
- symbol: Br # 1
  coordinates: [  0.666666984744047,  0.333332985985144,  0.347176668925109 ]
  mass: 79.904000
- symbol: C # 2
  coordinates: [  0.000000000000000,  0.000000000000000,  0.470169460088649 ]
  mass: 12.010700
- symbol: O # 3
  coordinates: [  0.333332985432215,  0.666666983183674,  0.652823331074891 ]
  mass: 15.999400
- symbol: P # 4
  coordinates: [  0.333332985432215,  0.666666983183674,  0.595184663085663 ]
  mass: 30.973762
- symbol: Zr # 5
  coordinates: [  0.333332985432215,  0.666666983183674,  0.423180615526285 ]
  mass: 91.224000
- symbol: Zr # 6
  coordinates: [  0.666666984744047,  0.333332985985144,  0.518854764221446 ]
  mass: 91.224000

phonon:
- q-position: [    0.0000000,    0.0000000,    0.0000000 ]
  distance:    0.0000000
  band:
  - # 1
    frequency:   -4.9907659199
  - # 2
    frequency:   -4.9907659199
  - # 3
    frequency:   -0.0000004482
  - # 4
    frequency:   -0.0000002243
  - # 5
    frequency:    0.0000002581
  - # 6
    frequency:    2.9548168078
  - # 7
    frequency:    2.9548168078
  - # 8
    frequency:    4.2790982442
  - # 9
    frequency:    4.2790982442
  - # 10
    frequency:    4.3949906891
  - # 11
    frequency:    5.1077050898
  - # 12
    frequency:    5.1077050898
  - # 13
    frequency:    7.0766939811
  - # 14
    frequency:    9.0501392558
  - # 15
    frequency:   14.9581664009
  - # 16
    frequency:   16.3994996111
  - # 17
    frequency:   16.3994996111
  - # 18
    frequency:   34.0757907587

- q-position: [    0.0050505,    0.0000000,    0.0000000 ]
  distance:    0.0017039
  band:
  - # 1
    frequency:   -4.9894211082
  - # 2
    frequency:   -4.9886783247
  - # 3
    frequency:   -0.1043725558
  - # 4
    frequency:    0.0654786850
  - # 5
    frequency:    0.1326830942
  - # 6
    frequency:    2.9550839643
  - # 7
    frequency:    2.9562084483
  - # 8
    frequency:    4.2725084231
  - # 9
    frequency:    4.2791638264
  - # 10
    frequency:    4.4009801520
  - # 11
    frequency:    5.1075923456
  - # 12
    frequency:    5.1077472982
  - # 13
    frequency:    7.0763401758
  - # 14
    frequency:    9.0490724948
  - # 15
    frequency:   14.9579933846
  - # 16
    frequency:   16.3994236447
  - # 17
    frequency:   16.3994671551
  - # 18
    frequency:   34.0755498958

- q-position: [    0.0101010,    0.0000000,    0.0000000 ]
  distance:    0.0034078
  band:
  - # 1
    frequency:   -4.9853906829
  - # 2
    frequency:   -4.9824290907
  - # 3
    frequency:   -0.1324424321
  - # 4
    frequency:    0.1308756525
  - # 5
    frequency:    0.2107851093
  - # 6
    frequency:    2.9558851023
  - # 7
    frequency:    2.9603723622
  - # 8
    frequency:    4.2556596653
  - # 9
    frequency:    4.2793604431
  - # 10
    frequency:    4.4160247045
  - # 11
    frequency:    5.1072674852
  - # 12
    frequency:    5.1078751417
  - # 13
    frequency:    7.0752807425
  - # 14
    frequency:    9.0458761373
  - # 15
    frequency:   14.9574723498
  - # 16
    frequency:   16.3991937703
  - # 17
    frequency:   16.3993678125
  - # 18
    frequency:   34.0748278558

- q-position: [    0.0151515,    0.0000000,    0.0000000 ]
  distance:    0.0051116
  band:
  - # 1
    frequency:   -4.9786866797
  - # 2
    frequency:   -4.9720589659
  - # 3
    frequency:   -0.1474169434
  - # 4
    frequency:    0.1961096469
  - # 5
    frequency:    0.2870529107
  - # 6
    frequency:    2.9572192055
  - # 7
    frequency:    2.9672758903
  - # 8
    frequency:    4.2330462170
  - # 9
    frequency:    4.2796876986
  - # 10
    frequency:    4.4356208819
  - # 11
    frequency:    5.1067704430
  - # 12
    frequency:    5.1080922630
  - # 13
    frequency:    7.0735216271
  - # 14
    frequency:    9.0405619266
  - # 15
    frequency:   14.9565974185
  - # 16
    frequency:   16.3988040962
  - # 17
    frequency:   16.3991956407
  - # 18
    frequency:   34.0736262826

- q-position: [    0.0202020,    0.0000000,    0.0000000 ]
  distance:    0.0068155
  band:
  - # 1
    frequency:   -4.9693291816
  - # 2
    frequency:   -4.9576361717
  - # 3
    frequency:   -0.1563427059
  - # 4
    frequency:    0.2611003367
  - # 5
    frequency:    0.3642904874
  - # 6
    frequency:    2.9590845102
  - # 7
    frequency:    2.9768657790
  - # 8
    frequency:    4.2073014062
  - # 9
    frequency:    4.2801449112
  - # 10
    frequency:    4.4571205871
  - # 11
    frequency:    5.1061671511
  - # 12
    frequency:    5.1084046903
  - # 13
    frequency:    7.0710727346
  - # 14
    frequency:    9.0331493244
  - # 15
    frequency:   14.9553590592
  - # 16
    frequency:   16.3982449117
  - # 17
    frequency:   16.3989406751
  - # 18
    frequency:   34.0719479081

- q-position: [    0.0252525,    0.0000000,    0.0000000 ]
  distance:    0.0085194
  band:
  - # 1
    frequency:   -4.9573463520
  - # 2
    frequency:   -4.9392568559
  - # 3
    frequency:   -0.1613846679
  - # 4
    frequency:    0.3257687753
  - # 5
    frequency:    0.4427468101
  - # 6
    frequency:    2.9614784029
  - # 7
    frequency:    2.9890698442
  - # 8
    frequency:    4.1796699798
  - # 9
    frequency:    4.2807310804
  - # 10
    frequency:    4.4792597011
  - # 11
    frequency:    5.1055485437
  - # 12
    frequency:    5.1088207734
  - # 13
    frequency:    7.0679479191
  - # 14
    frequency:    9.0236653474
  - # 15
    frequency:   14.9537444721
  - # 16
    frequency:   16.3975028490
  - # 17
    frequency:   16.3985888454
  - # 18
    frequency:   34.0697965395

- q-position: [    0.0303030,    0.0000000,    0.0000000 ]
  distance:    0.0102233
  band:
  - # 1
    frequency:   -4.9427744796
  - # 2
    frequency:   -4.9170457031
  - # 3
    frequency:   -0.1628974759
  - # 4
    frequency:    0.3900378607
  - # 5
    frequency:    0.5222296873
  - # 6
    frequency:    2.9643972847
  - # 7
    frequency:    3.0037991023
  - # 8
    frequency:    4.1507608026
  - # 9
    frequency:    4.2814448439
  - # 10
    frequency:    4.5014068303
  - # 11
    frequency:    5.1050290405
  - # 12
    frequency:    5.1093510936
  - # 13
    frequency:    7.0641649700
  - # 14
    frequency:    9.0121443418
  - # 15
    frequency:   14.9517381090
  - # 16
    frequency:   16.3965611048
  - # 17
    frequency:   16.3981218722
  - # 18
    frequency:   34.0671770430

- q-position: [    0.0353535,    0.0000000,    0.0000000 ]
  distance:    0.0119272
  band:
  - # 1
    frequency:   -4.9256580322
  - # 2
    frequency:   -4.8911566780
  - # 3
    frequency:   -0.1602992817
  - # 4
    frequency:    0.4538327919
  - # 5
    frequency:    0.6025194699
  - # 6
    frequency:    2.9678364073
  - # 7
    frequency:    3.0209501981
  - # 8
    frequency:    4.1209054598
  - # 9
    frequency:    4.2822844254
  - # 10
    frequency:    4.5232067735
  - # 11
    frequency:    5.1047443801
  - # 12
    frequency:    5.1100083476
  - # 13
    frequency:    7.0597455894
  - # 14
    frequency:    8.9986277014
  - # 15
    frequency:   14.9493223059
  - # 16
    frequency:   16.3953997200
  - # 17
    frequency:   16.3975171552
  - # 18
    frequency:   34.0640953218

- q-position: [    0.0404040,    0.0000000,    0.0000000 ]
  distance:    0.0136310
  band:
  - # 1
    frequency:   -4.9060497168
  - # 2
    frequency:   -4.8617738640
  - # 3
    frequency:   -0.1522446981
  - # 4
    frequency:    0.5170815214
  - # 5
    frequency:    0.6834473476
  - # 6
    frequency:    2.9717896888
  - # 7
    frequency:    3.0404079437
  - # 8
    frequency:    4.0903104503
  - # 9
    frequency:    4.2832475768
  - # 10
    frequency:    4.5444311944
  - # 11
    frequency:    5.1048486324
  - # 12
    frequency:    5.1108072053
  - # 13
    frequency:    7.0547153608
  - # 14
    frequency:    8.9831635313
  - # 15
    frequency:   14.9464780052
  - # 16
    frequency:   16.3939959099
  - # 17
    frequency:   16.3967476705
  - # 18
    frequency:   34.0605582905

- q-position: [    0.0454545,    0.0000000,    0.0000000 ]
  distance:    0.0153349
  band:
  - # 1
    frequency:   -4.8840105430
  - # 2
    frequency:   -4.8291123422
  - # 3
    frequency:   -0.1362271026
  - # 4
    frequency:    0.5797152001
  - # 5
    frequency:    0.7648983691
  - # 6
    frequency:    2.9762495193
  - # 7
    frequency:    3.0620477768
  - # 8
    frequency:    4.0591251304
  - # 9
    frequency:    4.2843315166
  - # 10
    frequency:    4.5649145426
  - # 11
    frequency:    5.1055101892
  - # 12
    frequency:    5.1117641406
  - # 13
    frequency:    7.0491037044
  - # 14
    frequency:    8.9658062656
  - # 15
    frequency:   14.9431855397
  - # 16
    frequency:   16.3923244412
  - # 17
    frequency:   16.3957818912
  - # 18
    frequency:   34.0565738443

- q-position: [    0.0505051,    0.0000000,    0.0000000 ]
  distance:    0.0170388
  band:
  - # 1
    frequency:   -4.8596098846
  - # 2
    frequency:   -4.7934190377
  - # 3
    frequency:   -0.1065892004
  - # 4
    frequency:    0.6416686121
  - # 5
    frequency:    0.8468003391
  - # 6
    frequency:    2.9812065655
  - # 7
    frequency:    3.0857379516
  - # 8
    frequency:    4.0274748662
  - # 9
    frequency:    4.2855328703
  - # 10
    frequency:    4.5845259777
  - # 11
    frequency:    5.1069065381
  - # 12
    frequency:    5.1128972358
  - # 13
    frequency:    7.0429438190
  - # 14
    frequency:    8.9466162431
  - # 15
    frequency:   14.9394254494
  - # 16
    frequency:   16.3903580496
  - # 17
    frequency:   16.3945837504
  - # 18
    frequency:   34.0521508246

- q-position: [    0.0555556,    0.0000000,    0.0000000 ]
  distance:    0.0187427
  band:
  - # 1
    frequency:   -4.8329255359
  - # 2
    frequency:   -4.7549734351
  - # 3
    frequency:   -0.0330146423
  - # 4
    frequency:    0.7028805958
  - # 5
    frequency:    0.9291126332
  - # 6
    frequency:    2.9866495850
  - # 7
    frequency:    3.1113412802
  - # 8
    frequency:    3.9954788935
  - # 9
    frequency:    4.2868476149
  - # 10
    frequency:    4.6031579625
  - # 11
    frequency:    5.1092176928
  - # 12
    frequency:    5.1142259579
  - # 13
    frequency:    7.0362726054
  - # 14
    frequency:    8.9256592487
  - # 15
    frequency:   14.9351793008
  - # 16
    frequency:   16.3880678892
  - # 17
    frequency:   16.3931126638
  - # 18
    frequency:   34.0472989806

- q-position: [    0.0606061,    0.0000000,    0.0000000 ]
  distance:    0.0204466
  band:
  - # 1
    frequency:   -4.8040437576
  - # 2
    frequency:   -4.7140880363
  - # 3
    frequency:    0.1129821081
  - # 4
    frequency:    0.7632944451
  - # 5
    frequency:    1.0118172983
  - # 6
    frequency:    2.9925652620
  - # 7
    frequency:    3.1387162275
  - # 8
    frequency:    3.9632610162
  - # 9
    frequency:    4.2882710332
  - # 10
    frequency:    4.6207234329
  - # 11
    frequency:    5.1126183187
  - # 12
    frequency:    5.1157709072
  - # 13
    frequency:    7.0291305693
  - # 14
    frequency:    8.9030060272
  - # 15
    frequency:   14.9304304802
  - # 16
    frequency:   16.3854240088
  - # 17
    frequency:   16.3913236277
  - # 18
    frequency:   34.0420289276

- q-position: [    0.0656566,    0.0000000,    0.0000000 ]
  distance:    0.0221504
  band:
  - # 1
    frequency:   -4.7730593051
  - # 2
    frequency:   -4.6711084019
  - # 3
    frequency:    0.1752415201
  - # 4
    frequency:    0.8228582872
  - # 5
    frequency:    1.0949121127
  - # 6
    frequency:    2.9989380734
  - # 7
    frequency:    3.1677171189
  - # 8
    frequency:    3.9309568440
  - # 9
    frequency:    4.2897976826
  - # 10
    frequency:    4.6371576801
  - # 11
    frequency:    5.1172688748
  - # 12
    frequency:    5.1175535385
  - # 13
    frequency:    7.0215617013
  - # 14
    frequency:    8.8787317767
  - # 15
    frequency:   14.9251649327
  - # 16
    frequency:   16.3823958457
  - # 17
    frequency:   16.3891674068
  - # 18
    frequency:   34.0363521009

- q-position: [    0.0707071,    0.0000000,    0.0000000 ]
  distance:    0.0238543
  band:
  - # 1
    frequency:   -4.7400754341
  - # 2
    frequency:   -4.6264125880
  - # 3
    frequency:    0.2307294480
  - # 4
    frequency:    0.8815254293
  - # 5
    frequency:    1.1784048642
  - # 6
    frequency:    3.0057501972
  - # 7
    frequency:    3.1981931123
  - # 8
    frequency:    3.8987195146
  - # 9
    frequency:    4.2914213828
  - # 10
    frequency:    4.6524226057
  - # 11
    frequency:    5.1195958534
  - # 12
    frequency:    5.1233064590
  - # 13
    frequency:    7.0136133309
  - # 14
    frequency:    8.8529156280
  - # 15
    frequency:   14.9193718237
  - # 16
    frequency:   16.3789527307
  - # 17
    frequency:   16.3865908229
  - # 18
    frequency:   34.0302807076

- q-position: [    0.0757576,    0.0000000,    0.0000000 ]
  distance:    0.0255582
  band:
  - # 1
    frequency:   -4.7052038762
  - # 2
    frequency:   -4.5804097605
  - # 3
    frequency:    0.2842758596
  - # 4
    frequency:    0.9392546684
  - # 5
    frequency:    1.2623082042
  - # 6
    frequency:    3.0129814690
  - # 7
    frequency:    3.2299853440
  - # 8
    frequency:    3.8667252752
  - # 9
    frequency:    4.2931352282
  - # 10
    frequency:    4.6665114952
  - # 11
    frequency:    5.1219200661
  - # 12
    frequency:    5.1308364018
  - # 13
    frequency:    7.0053359518
  - # 14
    frequency:    8.8256401186
  - # 15
    frequency:   14.9130441018
  - # 16
    frequency:   16.3750643959
  - # 17
    frequency:   16.3835371517
  - # 18
    frequency:   34.0238276753

- q-position: [    0.0808081,    0.0000000,    0.0000000 ]
  distance:    0.0272621
  band:
  - # 1
    frequency:   -4.6685647759
  - # 2
    frequency:   -4.5335377529
  - # 3
    frequency:    0.3374540514
  - # 4
    frequency:    0.9960105576
  - # 5
    frequency:    1.3466346258
  - # 6
    frequency:    3.0206093961
  - # 7
    frequency:    3.2629211712
  - # 8
    frequency:    3.8351804194
  - # 9
    frequency:    4.2949316284
  - # 10
    frequency:    4.6794526578
  - # 11
    frequency:    5.1245482427
  - # 12
    frequency:    5.1399258434
  - # 13
    frequency:    6.9967830157
  - # 14
    frequency:    8.7969906664
  - # 15
    frequency:   14.9061789472
  - # 16
    frequency:   16.3707014789
  - # 17
    frequency:   16.3799466314
  - # 18
    frequency:   34.0170065985

- q-position: [    0.0858586,    0.0000000,    0.0000000 ]
  distance:    0.0289660
  band:
  - # 1
    frequency:   -4.6302865809
  - # 2
    frequency:   -4.4862593407
  - # 3
    frequency:    0.3909196016
  - # 4
    frequency:    1.0517636213
  - # 5
    frequency:    1.4313912913
  - # 6
    frequency:    3.0286092304
  - # 7
    frequency:    3.2968034045
  - # 8
    frequency:    3.8043319461
  - # 9
    frequency:    4.2968023822
  - # 10
    frequency:    4.6913106002
  - # 11
    frequency:    5.1275019171
  - # 12
    frequency:    5.1506004021
  - # 13
    frequency:    6.9880106922
  - # 14
    frequency:    8.7670550512
  - # 15
    frequency:   14.8987780964
  - # 16
    frequency:   16.3658360152
  - # 17
    frequency:   16.3757570822
  - # 18
    frequency:   34.0098316822

- q-position: [    0.0909091,    0.0000000,    0.0000000 ]
  distance:    0.0306698
  band:
  - # 1
    frequency:   -4.5905058777
  - # 2
    frequency:   -4.4390570327
  - # 3
    frequency:    0.4449581187
  - # 4
    frequency:    1.1064905125
  - # 5
    frequency:    1.5165745963
  - # 6
    frequency:    3.0369541040
  - # 7
    frequency:    3.3313901968
  - # 8
    frequency:    3.7744864711
  - # 9
    frequency:    4.2987387880
  - # 10
    frequency:    4.7021839888
  - # 11
    frequency:    5.1308016862
  - # 12
    frequency:    5.1628445468
  - # 13
    frequency:    6.9790775929
  - # 14
    frequency:    8.7359229081
  - # 15
    frequency:   14.8908480359
  - # 16
    frequency:   16.3604419138
  - # 17
    frequency:   16.3709046315
  - # 18
    frequency:   34.0023176849

- q-position: [    0.0959596,    0.0000000,    0.0000000 ]
  distance:    0.0323737
  band:
  - # 1
    frequency:   -4.5493671606
  - # 2
    frequency:   -4.3924262568
  - # 3
    frequency:    0.4996752965
  - # 4
    frequency:    1.1601741068
  - # 5
    frequency:    1.6021645049
  - # 6
    frequency:    3.0456152243
  - # 7
    frequency:    3.3663562307
  - # 8
    frequency:    3.7460469376
  - # 9
    frequency:    4.3007317928
  - # 10
    frequency:    4.7122004344
  - # 11
    frequency:    5.1344667905
  - # 12
    frequency:    5.1766055564
  - # 13
    frequency:    6.9700444549
  - # 14
    frequency:    8.7036852413
  - # 15
    frequency:   14.8824000651
  - # 16
    frequency:   16.3544954083
  - # 17
    frequency:   16.3653245353
  - # 18
    frequency:   33.9944798591

- q-position: [    0.1010101,    0.0000000,    0.0000000 ]
  distance:    0.0340776
  band:
  - # 1
    frequency:   -4.5070225245
  - # 2
    frequency:   -4.3468669322
  - # 3
    frequency:    0.5550786674
  - # 4
    frequency:    1.2128035255
  - # 5
    frequency:    1.6881188274
  - # 6
    frequency:    3.0545621262
  - # 7
    frequency:    3.4012141190
  - # 8
    frequency:    3.7195884173
  - # 9
    frequency:    4.3027721811
  - # 10
    frequency:    4.7215088720
  - # 11
    frequency:    5.1385146844
  - # 12
    frequency:    5.1918002286
  - # 13
    frequency:    6.9609737852
  - # 14
    frequency:    8.6704339605
  - # 15
    frequency:   14.8734502328
  - # 16
    frequency:   16.3479754795
  - # 17
    frequency:   16.3589520850
  - # 18
    frequency:   33.9863338917

- q-position: [    0.1060606,    0.0000000,    0.0000000 ]
  distance:    0.0357815
  band:
  - # 1
    frequency:   -4.4636312720
  - # 2
    frequency:   -4.3028735818
  - # 3
    frequency:    0.6111183397
  - # 4
    frequency:    1.2643740843
  - # 5
    frequency:    1.7743677290
  - # 6
    frequency:    3.0637629713
  - # 7
    frequency:    3.4351479811
  - # 8
    frequency:    3.6960212804
  - # 9
    frequency:    4.3048508030
  - # 10
    frequency:    4.7302707580
  - # 11
    frequency:    5.1429606070
  - # 12
    frequency:    5.2083230670
  - # 13
    frequency:    6.9519294600
  - # 14
    frequency:    8.6362614465
  - # 15
    frequency:   14.8640191534
  - # 16
    frequency:   16.3408642438
  - # 17
    frequency:   16.3517235830
  - # 18
    frequency:   33.9778958432

- q-position: [    0.1111111,    0.0000000,    0.0000000 ]
  distance:    0.0374854
  band:
  - # 1
    frequency:   -4.4193594199
  - # 2
    frequency:   -4.2609243316
  - # 3
    frequency:    0.6677098308
  - # 4
    frequency:    1.3148871622
  - # 5
    frequency:    1.8608088339
  - # 6
    frequency:    3.0731848864
  - # 7
    frequency:    3.4666619311
  - # 8
    frequency:    3.6769392744
  - # 9
    frequency:    4.3069588387
  - # 10
    frequency:    4.7386513607
  - # 11
    frequency:    5.1478171602
  - # 12
    frequency:    5.2260546260
  - # 13
    frequency:    6.9429762795
  - # 14
    frequency:    8.6012601492
  - # 15
    frequency:   14.8541317143
  - # 16
    frequency:   16.3331473039
  - # 17
    frequency:   16.3435773706
  - # 18
    frequency:   33.9691820865

- q-position: [    0.1161616,    0.0000000,    0.0000000 ]
  distance:    0.0391892
  band:
  - # 1
    frequency:   -4.3743790971
  - # 2
    frequency:   -4.2214693476
  - # 3
    frequency:    0.7247482627
  - # 4
    frequency:    1.3643499886
  - # 5
    frequency:    1.9473033101
  - # 6
    frequency:    3.0827943278
  - # 7
    frequency:    3.4929751034
  - # 8
    frequency:    3.6652212052
  - # 9
    frequency:    4.3090880959
  - # 10
    frequency:    4.7468121463
  - # 11
    frequency:    5.1530939073
  - # 12
    frequency:    5.2448689726
  - # 13
    frequency:    6.9341794774
  - # 14
    frequency:    8.5655222218
  - # 15
    frequency:   14.8438166875
  - # 16
    frequency:   16.3248140580
  - # 17
    frequency:   16.3344548906
  - # 18
    frequency:   33.9602092464

- q-position: [    0.1212121,    0.0000000,    0.0000000 ]
  distance:    0.0408931
  band:
  - # 1
    frequency:   -4.3288678193
  - # 2
    frequency:   -4.1849194312
  - # 3
    frequency:    0.7821180261
  - # 4
    frequency:    1.4127753470
  - # 5
    frequency:    2.0336732631
  - # 6
    frequency:    3.0925574584
  - # 7
    frequency:    3.5099238646
  - # 8
    frequency:    3.6651259198
  - # 9
    frequency:    4.3112313325
  - # 10
    frequency:    4.7549048332
  - # 11
    frequency:    5.1587970028
  - # 12
    frequency:    5.2646396596
  - # 13
    frequency:    6.9256041840
  - # 14
    frequency:    8.5291391923
  - # 15
    frequency:   14.8331062591
  - # 16
    frequency:   16.3158579657
  - # 17
    frequency:   16.3243017656
  - # 18
    frequency:   33.9509941389

- q-position: [    0.1262626,    0.0000000,    0.0000000 ]
  distance:    0.0425970
  band:
  - # 1
    frequency:   -4.2830076326
  - # 2
    frequency:   -4.1516356065
  - # 3
    frequency:    0.8396998288
  - # 4
    frequency:    1.4601811944
  - # 5
    frequency:    2.1197006189
  - # 6
    frequency:    3.1024405227
  - # 7
    frequency:    3.5149462965
  - # 8
    frequency:    3.6793058777
  - # 9
    frequency:    4.3133825965
  - # 10
    frequency:    4.7630672743
  - # 11
    frequency:    5.1649288668
  - # 12
    frequency:    5.2852440232
  - # 13
    frequency:    6.9173148443
  - # 14
    frequency:    8.4922016770
  - # 15
    frequency:   14.8220354916
  - # 16
    frequency:   16.3062767666
  - # 17
    frequency:   16.3130688733
  - # 18
    frequency:   33.9415537119

- q-position: [    0.1313131,    0.0000000,    0.0000000 ]
  distance:    0.0443009
  band:
  - # 1
    frequency:   -4.2369841139
  - # 2
    frequency:   -4.1219205365
  - # 3
    frequency:    0.8973760307
  - # 4
    frequency:    1.5065901996
  - # 5
    frequency:    2.2051274662
  - # 6
    frequency:    3.1124102070
  - # 7
    frequency:    3.5106509443
  - # 8
    frequency:    3.7052376958
  - # 9
    frequency:    4.3155375741
  - # 10
    frequency:    4.7714210312
  - # 11
    frequency:    5.1714879155
  - # 12
    frequency:    5.3065659204
  - # 13
    frequency:    6.9093745956
  - # 14
    frequency:    8.4547991346
  - # 15
    frequency:   14.8106417339
  - # 16
    frequency:   16.2960726538
  - # 17
    frequency:   16.3007134026
  - # 18
    frequency:   33.9319049863

- q-position: [    0.1363636,    0.0000000,    0.0000000 ]
  distance:    0.0460048
  band:
  - # 1
    frequency:   -4.1909852224
  - # 2
    frequency:   -4.0960124965
  - # 3
    frequency:    0.9550346726
  - # 4
    frequency:    1.5520292033
  - # 5
    frequency:    2.2896575616
  - # 6
    frequency:    3.1224339710
  - # 7
    frequency:    3.5017610151
  - # 8
    frequency:    3.7382788525
  - # 9
    frequency:    4.3176939328
  - # 10
    frequency:    4.7800703477
  - # 11
    frequency:    5.1784683605
  - # 12
    frequency:    5.3284971838
  - # 13
    frequency:    6.9018446085
  - # 14
    frequency:    8.4170196621
  - # 15
    frequency:   14.7989639931
  - # 16
    frequency:   16.2852523978
  - # 17
    frequency:   16.2871998725
  - # 18
    frequency:   33.9220649987

- q-position: [    0.1414141,    0.0000000,    0.0000000 ]
  distance:    0.0477086
  band:
  - # 1
    frequency:   -4.1451999976
  - # 2
    frequency:   -4.0740824082
  - # 3
    frequency:    1.0125723875
  - # 4
    frequency:    1.5965286069
  - # 5
    frequency:    2.3729584516
  - # 6
    frequency:    3.1324803423
  - # 7
    frequency:    3.4915781481
  - # 8
    frequency:    3.7752067691
  - # 9
    frequency:    4.3198516496
  - # 10
    frequency:    4.7891021864
  - # 11
    frequency:    5.1858600861
  - # 12
    frequency:    5.3509381188
  - # 13
    frequency:    6.8947833996
  - # 14
    frequency:    8.3789498321
  - # 15
    frequency:   14.7870422816
  - # 16
    frequency:   16.2725011001
  - # 17
    frequency:   16.2738274240
  - # 18
    frequency:   33.9120507469

- q-position: [    0.1464646,    0.0000000,    0.0000000 ]
  distance:    0.0494125
  band:
  - # 1
    frequency:   -4.0998171040
  - # 2
    frequency:   -4.0562341408
  - # 3
    frequency:    1.0698962922
  - # 4
    frequency:    1.6401216971
  - # 5
    frequency:    2.4546634776
  - # 6
    frequency:    3.1425191643
  - # 7
    frequency:    3.4819068343
  - # 8
    frequency:    3.8142994645
  - # 9
    frequency:    4.3220133096
  - # 10
    frequency:    4.7985870191
  - # 11
    frequency:    5.1936486129
  - # 12
    frequency:    5.3737973481
  - # 13
    frequency:    6.8882461262
  - # 14
    frequency:    8.3406745706
  - # 15
    frequency:   14.7749169522
  - # 16
    frequency:   16.2565991050
  - # 17
    frequency:   16.2618138428
  - # 18
    frequency:   33.9018791356

- q-position: [    0.1515152,    0.0000000,    0.0000000 ]
  distance:    0.0511164
  band:
  - # 1
    frequency:   -4.0550232272
  - # 2
    frequency:   -4.0425079563
  - # 3
    frequency:    1.1269249603
  - # 4
    frequency:    1.6828439206
  - # 5
    frequency:    2.5343728897
  - # 6
    frequency:    3.1525217963
  - # 7
    frequency:    3.4737531385
  - # 8
    frequency:    3.8546442659
  - # 9
    frequency:    4.3241843655
  - # 10
    frequency:    4.8085801162
  - # 11
    frequency:    5.2018151515
  - # 12
    frequency:    5.3969912521
  - # 13
    frequency:    6.8822838773
  - # 14
    frequency:    8.3022770711
  - # 15
    frequency:   14.7626280300
  - # 16
    frequency:   16.2394859366
  - # 17
    frequency:   16.2492324332
  - # 18
    frequency:   33.8915669255

- q-position: [    0.1565657,    0.0000000,    0.0000000 ]
  distance:    0.0528203
  band:
  - # 1
    frequency:   -4.0328866818
  - # 2
    frequency:   -4.0110013352
  - # 3
    frequency:    1.1835886008
  - # 4
    frequency:    1.7247321203
  - # 5
    frequency:    2.6116535015
  - # 6
    frequency:    3.1624612640
  - # 7
    frequency:    3.4677533053
  - # 8
    frequency:    3.8957188432
  - # 9
    frequency:    4.3263733452
  - # 10
    frequency:    4.8191231450
  - # 11
    frequency:    5.2103367481
  - # 12
    frequency:    5.4204431909
  - # 13
    frequency:    6.8769429758
  - # 14
    frequency:    8.2638387429
  - # 15
    frequency:   14.7502145533
  - # 16
    frequency:   16.2211644161
  - # 17
    frequency:   16.2361085825
  - # 18
    frequency:   33.8811306851

- q-position: [    0.1616162,    0.0000000,    0.0000000 ]
  distance:    0.0545242
  band:
  - # 1
    frequency:   -4.0273039692
  - # 2
    frequency:   -3.9679288235
  - # 3
    frequency:    1.2398286070
  - # 4
    frequency:    1.7658237526
  - # 5
    frequency:    2.6860369388
  - # 6
    frequency:    3.1723123647
  - # 7
    frequency:    3.4643818165
  - # 8
    frequency:    3.9371942417
  - # 9
    frequency:    4.3285919997
  - # 10
    frequency:    4.8302459361
  - # 11
    frequency:    5.2191865199
  - # 12
    frequency:    5.4440826402
  - # 13
    frequency:    6.8722643126
  - # 14
    frequency:    8.2254391895
  - # 15
    frequency:   14.7377139299
  - # 16
    frequency:   16.2016487834
  - # 17
    frequency:   16.2224721829
  - # 18
    frequency:   33.8705867442

- q-position: [    0.1666667,    0.0000000,    0.0000000 ]
  distance:    0.0562280
  band:
  - # 1
    frequency:   -4.0256538809
  - # 2
    frequency:   -3.9259755736
  - # 3
    frequency:    1.2955966635
  - # 4
    frequency:    1.8061561041
  - # 5
    frequency:    2.7570178352
  - # 6
    frequency:    3.1820517353
  - # 7
    frequency:    3.4640532013
  - # 8
    frequency:    3.9788436494
  - # 9
    frequency:    4.3308553827
  - # 10
    frequency:    4.8419683207
  - # 11
    frequency:    5.2283339734
  - # 12
    frequency:    5.4678443250
  - # 13
    frequency:    6.8682827316
  - # 14
    frequency:    8.1871562097
  - # 15
    frequency:   14.7251613158
  - # 16
    frequency:   16.1809652426
  - # 17
    frequency:   16.2083574882
  - # 18
    frequency:   33.8599511513

- q-position: [    0.1717172,    0.0000000,    0.0000000 ]
  distance:    0.0579319
  band:
  - # 1
    frequency:   -4.0278010274
  - # 2
    frequency:   -3.8853019615
  - # 3
    frequency:    1.3508536012
  - # 4
    frequency:    1.8457655315
  - # 5
    frequency:    2.8240556489
  - # 6
    frequency:    3.1916578905
  - # 7
    frequency:    3.4671719794
  - # 8
    frequency:    4.0204983785
  - # 9
    frequency:    4.3331818573
  - # 10
    frequency:    4.8543019655
  - # 11
    frequency:    5.2377453967
  - # 12
    frequency:    5.4916674064
  - # 13
    frequency:    6.8650264879
  - # 14
    frequency:    8.1490658172
  - # 15
    frequency:   14.7125890234
  - # 16
    frequency:   16.1591523973
  - # 17
    frequency:   16.1938029323
  - # 18
    frequency:   33.8492396331

- q-position: [    0.1767677,    0.0000000,    0.0000000 ]
  distance:    0.0596358
  band:
  - # 1
    frequency:   -4.0335905452
  - # 2
    frequency:   -3.8460568639
  - # 3
    frequency:    1.4055681744
  - # 4
    frequency:    1.8846867469
  - # 5
    frequency:    2.8865872358
  - # 6
    frequency:    3.2011112452
  - # 7
    frequency:    3.4741488102
  - # 8
    frequency:    4.0620255449
  - # 9
    frequency:    4.3355930276
  - # 10
    frequency:    4.8672521469
  - # 11
    frequency:    5.2473843134
  - # 12
    frequency:    5.5154947518
  - # 13
    frequency:    6.8625168007
  - # 14