nqpoint: 300    
npath: 3      
segment_nqpoint:
- 100
- 100
- 100
labels:
- [ 'G', 'M' ]
- [ 'M', 'K' ]
- [ 'K', 'G' ]
reciprocal_lattice:
- [   0.27562713,   0.15913340,   0.00000000 ] # a*
- [   0.00000000,   0.31826680,   0.00000000 ] # b*
- [   0.00000000,   0.00000000,   0.03893168 ] # c*
natom: 7      
lattice:
- [     3.628089852158865,     0.000000000000000,     0.000000000000000 ] # a
- [    -1.814044926079433,     3.142017979180936,     0.000000000000000 ] # b
- [     0.000000000000000,     0.000000000000000,    25.686023804740081 ] # c
points:
- symbol: C # 1
  coordinates: [  0.000000000000000,  0.000000000000000,  0.551541127986312 ]
  mass: 12.010700
- symbol: C # 2
  coordinates: [  0.666666984744047,  0.333332985985145,  0.396680797143341 ]
  mass: 12.010700
- symbol: F # 3
  coordinates: [  0.333332985432215,  0.666666983183674,  0.649614900756296 ]
  mass: 18.998403
- symbol: N # 4
  coordinates: [  0.666666984744047,  0.333332985985145,  0.350385099243704 ]
  mass: 14.006700
- symbol: O # 5
  coordinates: [  0.666666984744047,  0.333332985985145,  0.448574310050465 ]
  mass: 15.999400
- symbol: Y # 6
  coordinates: [  0.333332985432215,  0.666666983183674,  0.498664562131864 ]
  mass: 88.905850
- symbol: Y # 7
  coordinates: [  0.666666984744047,  0.333332985985145,  0.605246867893292 ]
  mass: 88.905850

phonon:
- q-position: [    0.0000000,    0.0000000,    0.0000000 ]
  distance:    0.0000000
  band:
  - # 1
    frequency:   -1.2685302101
  - # 2
    frequency:   -1.2685302101
  - # 3
    frequency:   -0.0000058877
  - # 4
    frequency:   -0.0000003114
  - # 5
    frequency:    0.0000040008
  - # 6
    frequency:    3.4705161751
  - # 7
    frequency:    3.4705161751
  - # 8
    frequency:    5.1733760894
  - # 9
    frequency:    5.4610897670
  - # 10
    frequency:    5.4610897670
  - # 11
    frequency:    6.1861243960
  - # 12
    frequency:    6.1861243960
  - # 13
    frequency:    7.7724153662
  - # 14
    frequency:    9.9574390141
  - # 15
    frequency:   10.2840628828
  - # 16
    frequency:   10.2840628829
  - # 17
    frequency:   13.9148155607
  - # 18
    frequency:   13.9148155607
  - # 19
    frequency:   17.0106189414
  - # 20
    frequency:   32.2734611389
  - # 21
    frequency:   67.8808448354

- q-position: [    0.0050505,    0.0000000,    0.0000000 ]
  distance:    0.0016074
  band:
  - # 1
    frequency:   -1.2683206131
  - # 2
    frequency:   -1.2671944490
  - # 3
    frequency:    0.0013970636
  - # 4
    frequency:    0.0591241106
  - # 5
    frequency:    0.1007901845
  - # 6
    frequency:    3.4705114179
  - # 7
    frequency:    3.4712007815
  - # 8
    frequency:    5.1732808862
  - # 9
    frequency:    5.4609682616
  - # 10
    frequency:    5.4643586725
  - # 11
    frequency:    6.1860802625
  - # 12
    frequency:    6.1877117765
  - # 13
    frequency:    7.7720455332
  - # 14
    frequency:    9.9545402069
  - # 15
    frequency:   10.2838065769
  - # 16
    frequency:   10.2907152286
  - # 17
    frequency:   13.9148410619
  - # 18
    frequency:   13.9149224922
  - # 19
    frequency:   17.0095181642
  - # 20
    frequency:   32.2730495449
  - # 21
    frequency:   67.8805941534

- q-position: [    0.0101010,    0.0000000,    0.0000000 ]
  distance:    0.0032148
  band:
  - # 1
    frequency:   -1.2676941726
  - # 2
    frequency:   -1.2632073208
  - # 3
    frequency:    0.0054602518
  - # 4
    frequency:    0.1182410570
  - # 5
    frequency:    0.2016991370
  - # 6
    frequency:    3.4704975503
  - # 7
    frequency:    3.4732521884
  - # 8
    frequency:    5.1730060028
  - # 9
    frequency:    5.4606047481
  - # 10
    frequency:    5.4739973639
  - # 11
    frequency:    6.1859478702
  - # 12
    frequency:    6.1925072133
  - # 13
    frequency:    7.7709366136
  - # 14
    frequency:    9.9463626650
  - # 15
    frequency:   10.2830384441
  - # 16
    frequency:   10.3101744966
  - # 17
    frequency:   13.9149175443
  - # 18
    frequency:   13.9152433381
  - # 19
    frequency:   17.0062175537
  - # 20
    frequency:   32.2718157340
  - # 21
    frequency:   67.8798426529

- q-position: [    0.0151515,    0.0000000,    0.0000000 ]
  distance:    0.0048222
  band:
  - # 1
    frequency:   -1.2666577836
  - # 2
    frequency:   -1.2566264482
  - # 3
    frequency:    0.0122197399
  - # 4
    frequency:    0.1773425872
  - # 5
    frequency:    0.3028320580
  - # 6
    frequency:    3.4704757813
  - # 7
    frequency:    3.4766632034
  - # 8
    frequency:    5.1725795196
  - # 9
    frequency:    5.4600022226
  - # 10
    frequency:    5.4895151032
  - # 11
    frequency:    6.1857272483
  - # 12
    frequency:    6.2006072226
  - # 13
    frequency:    7.7690903406
  - # 14
    frequency:    9.9341211793
  - # 15
    frequency:   10.2817608386
  - # 16
    frequency:   10.3412874406
  - # 17
    frequency:   13.9150449438
  - # 18
    frequency:   13.9157782576
  - # 19
    frequency:   17.0007222724
  - # 20
    frequency:   32.2697626159
  - # 21
    frequency:   67.8785919686

- q-position: [    0.0202020,    0.0000000,    0.0000000 ]
  distance:    0.0064296
  band:
  - # 1
    frequency:   -1.2652224344
  - # 2
    frequency:   -1.2475388947
  - # 3
    frequency:    0.0216593289
  - # 4
    frequency:    0.2364183669
  - # 5
    frequency:    0.4042690297
  - # 6
    frequency:    3.4704481181
  - # 7
    frequency:    3.4814219903
  - # 8
    frequency:    5.1720373967
  - # 9
    frequency:    5.4591656381
  - # 10
    frequency:    5.5101360638
  - # 11
    frequency:    6.1854184607
  - # 12
    frequency:    6.2121605832
  - # 13
    frequency:    7.7665095873
  - # 14
    frequency:    9.9191026607
  - # 15
    frequency:   10.2799776793
  - # 16
    frequency:   10.3828638086
  - # 17
    frequency:   13.9152231541
  - # 18
    frequency:   13.9165275340
  - # 19
    frequency:   16.9930409195
  - # 20
    frequency:   32.2668950288
  - # 21
    frequency:   67.8768448189

- q-position: [    0.0252525,    0.0000000,    0.0000000 ]
  distance:    0.0080370
  band:
  - # 1
    frequency:   -1.2634025044
  - # 2
    frequency:   -1.2360493421
  - # 3
    frequency:    0.0337555900
  - # 4
    frequency:    0.2954551607
  - # 5
    frequency:    0.5060572564
  - # 6
    frequency:    3.4704173540
  - # 7
    frequency:    3.4875122928
  - # 8
    frequency:    5.1714142574
  - # 9
    frequency:    5.4581018436
  - # 10
    frequency:    5.5348566572
  - # 11
    frequency:    6.1850216289
  - # 12
    frequency:    6.2273475433
  - # 13
    frequency:    7.7631983428
  - # 14
    frequency:    9.9022979496
  - # 15
    frequency:   10.2776944425
  - # 16
    frequency:   10.4340357876
  - # 17
    frequency:   13.9154520265
  - # 18
    frequency:   13.9174916036
  - # 19
    frequency:   16.9831855243
  - # 20
    frequency:   32.2632197234
  - # 21
    frequency:   67.8746049972

- q-position: [    0.0303030,    0.0000000,    0.0000000 ]
  distance:    0.0096444
  band:
  - # 1
    frequency:   -1.2612148801
  - # 2
    frequency:   -1.2222664630
  - # 3
    frequency:    0.0484783860
  - # 4
    frequency:    0.3544362487
  - # 5
    frequency:    0.6082079163
  - # 6
    frequency:    3.4703870514
  - # 7
    frequency:    3.4949137439
  - # 8
    frequency:    5.1707381211
  - # 9
    frequency:    5.4568195015
  - # 10
    frequency:    5.5625195937
  - # 11
    frequency:    6.1845369620
  - # 12
    frequency:    6.2463466196
  - # 13
    frequency:    7.7591616808
  - # 14
    frequency:    9.8843432297
  - # 15
    frequency:   10.2749181515
  - # 16
    frequency:   10.4943046631
  - # 17
    frequency:   13.9157313700
  - # 18
    frequency:   13.9186710974
  - # 19
    frequency:   16.9711715376
  - # 20
    frequency:   32.2587453390
  - # 21
    frequency:   67.8718773584

- q-position: [    0.0353535,    0.0000000,    0.0000000 ]
  distance:    0.0112519
  band:
  - # 1
    frequency:   -1.2586779705
  - # 2
    frequency:   -1.2062896153
  - # 3
    frequency:    0.0657910305
  - # 4
    frequency:    0.4133411134
  - # 5
    frequency:    0.7106975833
  - # 6
    frequency:    3.4703615218
  - # 7
    frequency:    3.5036022531
  - # 8
    frequency:    5.1700292962
  - # 9
    frequency:    5.4553289827
  - # 10
    frequency:    5.5919029608
  - # 11
    frequency:    6.1839647957
  - # 12
    frequency:    6.2692881840
  - # 13
    frequency:    7.7544057214
  - # 14
    frequency:    9.8655976782
  - # 15
    frequency:   10.2716573629
  - # 16
    frequency:   10.5634484756
  - # 17
    frequency:   13.9160609522
  - # 18
    frequency:   13.9200669011
  - # 19
    frequency:   16.9570178217
  - # 20
    frequency:   32.2534823745
  - # 21
    frequency:   67.8686678037

- q-position: [    0.0404040,    0.0000000,    0.0000000 ]
  distance:    0.0128593
  band:
  - # 1
    frequency:   -1.2558107072
  - # 2
    frequency:   -1.1881976119
  - # 3
    frequency:    0.0856504765
  - # 4
    frequency:    0.4721454009
  - # 5
    frequency:    0.8134732753
  - # 6
    frequency:    3.4703458007
  - # 7
    frequency:    3.5135504601
  - # 8
    frequency:    5.1693017596
  - # 9
    frequency:    5.4536422418
  - # 10
    frequency:    5.6218195887
  - # 11
    frequency:    6.1833056357
  - # 12
    frequency:    6.2961986617
  - # 13
    frequency:    7.7489375872
  - # 14
    frequency:    9.8462384117
  - # 15
    frequency:   10.2679221487
  - # 16
    frequency:   10.6414102720
  - # 17
    frequency:   13.9164404994
  - # 18
    frequency:   13.9216802361
  - # 19
    frequency:   16.9407466404
  - # 20
    frequency:   32.2474431524
  - # 21
    frequency:   67.8649832602

- q-position: [    0.0454545,    0.0000000,    0.0000000 ]
  distance:    0.0144667
  band:
  - # 1
    frequency:   -1.2526316043
  - # 2
    frequency:   -1.1680405586
  - # 3
    frequency:    0.1080075655
  - # 4
    frequency:    0.5308211334
  - # 5
    frequency:    0.9164596373
  - # 6
    frequency:    3.4703456198
  - # 7
    frequency:    3.5247282421
  - # 8
    frequency:    5.1685653277
  - # 9
    frequency:    5.4517726750
  - # 10
    frequency:    5.6512152060
  - # 11
    frequency:    6.1825602082
  - # 12
    frequency:    6.3269458755
  - # 13
    frequency:    7.7427653577
  - # 14
    frequency:    9.8263338581
  - # 15
    frequency:   10.2637240740
  - # 16
    frequency:   10.7282067436
  - # 17
    frequency:   13.9168696966
  - # 18
    frequency:   13.9235127681
  - # 19
    frequency:   16.9223836503
  - # 20
    frequency:   32.2406417772
  - # 21
    frequency:   67.8608316587

- q-position: [    0.0505051,    0.0000000,    0.0000000 ]
  distance:    0.0160741
  band:
  - # 1
    frequency:   -1.2491579401
  - # 2
    frequency:   -1.1458348620
  - # 3
    frequency:    0.1328073217
  - # 4
    frequency:    0.5893371315
  - # 5
    frequency:    1.0195666642
  - # 6
    frequency:    3.4703673764
  - # 7
    frequency:    3.5371032559
  - # 8
    frequency:    5.1678276455
  - # 9
    frequency:    5.4497349618
  - # 10
    frequency:    5.6792479105
  - # 11
    frequency:    6.1817295131
  - # 12
    frequency:    6.3612014155
  - # 13
    frequency:    7.7358980242
  - # 14
    frequency:    9.8058925247
  - # 15
    frequency:   10.2590761705
  - # 16
    frequency:   10.8238614527
  - # 17
    frequency:   13.9173481888
  - # 18
    frequency:   13.9255667529
  - # 19
    frequency:   16.9019578953
  - # 20
    frequency:   32.2330940877
  - # 21
    frequency:   67.8562219067

- q-position: [    0.0555556,    0.0000000,    0.0000000 ]
  distance:    0.0176815
  band:
  - # 1
    frequency:   -1.2454051000
  - # 2
    frequency:   -1.1215607584
  - # 3
    frequency:    0.1599892645
  - # 4
    frequency:    0.6476595890
  - # 5
    frequency:    1.1226966766
  - # 6
    frequency:    3.4704181000
  - # 7
    frequency:    3.5506414993
  - # 8
    frequency:    5.1670956588
  - # 9
    frequency:    5.4475448927
  - # 10
    frequency:    5.7053320229
  - # 11
    frequency:    6.1808148804
  - # 12
    frequency:    6.3984349647
  - # 13
    frequency:    7.7283454501
  - # 14
    frequency:    9.7848932895
  - # 15
    frequency:   10.2539929043
  - # 16
    frequency:   10.9283578647
  - # 17
    frequency:   13.9178755810
  - # 18
    frequency:   13.9278452324
  - # 19
    frequency:   16.8795018067
  - # 20
    frequency:   32.2248176041
  - # 21
    frequency:   67.8511638597

- q-position: [    0.0606061,    0.0000000,    0.0000000 ]
  distance:    0.0192889
  band:
  - # 1
    frequency:   -1.2413860997
  - # 2
    frequency:   -1.0951612640
  - # 3
    frequency:    0.1894876984
  - # 4
    frequency:    0.7057527425
  - # 5
    frequency:    1.2257497792
  - # 6
    frequency:    3.4705054174
  - # 7
    frequency:    3.5653078741
  - # 8
    frequency:    5.1663765749
  - # 9
    frequency:    5.4452191862
  - # 10
    frequency:    5.7291387124
  - # 11
    frequency:    6.1798180282
  - # 12
    frequency:    6.4379462344
  - # 13
    frequency:    7.7201183419
  - # 14
    frequency:    9.7633034806
  - # 15
    frequency:   10.2484901377
  - # 16
    frequency:   11.0416072811
  - # 17
    frequency:   13.9184514388
  - # 18
    frequency:   13.9303522985
  - # 19
    frequency:   16.8550512121
  - # 20
    frequency:   32.2158314693
  - # 21
    frequency:   67.8456682885

- q-position: [    0.0656566,    0.0000000,    0.0000000 ]
  distance:    0.0208963
  band:
  - # 1
    frequency:   -1.2371112878
  - # 2
    frequency:   -1.0665412811
  - # 3
    frequency:    0.2212319340
  - # 4
    frequency:    0.7635795766
  - # 5
    frequency:    1.3286275468
  - # 6
    frequency:    3.4706375166
  - # 7
    frequency:    3.5810667371
  - # 8
    frequency:    5.1656784381
  - # 9
    frequency:    5.4427752977
  - # 10
    frequency:    5.7505595338
  - # 11
    frequency:    6.1787411204
  - # 12
    frequency:    6.4789268088
  - # 13
    frequency:    7.7112282364
  - # 14
    frequency:    9.7410892988
  - # 15
    frequency:   10.2425850852
  - # 16
    frequency:   11.1634283138
  - # 17
    frequency:   13.9190752890
  - # 18
    frequency:   13.9330934554
  - # 19
    frequency:   16.8286453577
  - # 20
    frequency:   32.2061563861
  - # 21
    frequency:   67.8397468443

- q-position: [    0.0707071,    0.0000000,    0.0000000 ]
  distance:    0.0225037
  band:
  - # 1
    frequency:   -1.2325882109
  - # 2
    frequency:   -1.0355656058
  - # 3
    frequency:    0.2551463937
  - # 4
    frequency:    0.8211025184
  - # 5
    frequency:    1.4312350695
  - # 6
    frequency:    3.4708231095
  - # 7
    frequency:    3.5978824268
  - # 8
    frequency:    5.1650104506
  - # 9
    frequency:    5.4402312208
  - # 10
    frequency:    5.7696491093
  - # 11
    frequency:    6.1775868242
  - # 12
    frequency:    6.5205347338
  - # 13
    frequency:    7.7016875132
  - # 14
    frequency:    9.7182215533
  - # 15
    frequency:   10.2362962624
  - # 16
    frequency:   11.2935357533
  - # 17
    frequency:   13.9197466205
  - # 18
    frequency:   13.9360761183
  - # 19
    frequency:   16.8003269482
  - # 20
    frequency:   32.1958145485
  - # 21
    frequency:   67.8334120204

- q-position: [    0.0757576,    0.0000000,    0.0000000 ]
  distance:    0.0241111
  band:
  - # 1
    frequency:   -1.2278216166
  - # 2
    frequency:   -1.0020545893
  - # 3
    frequency:    0.2911505555
  - # 4
    frequency:    0.8782840859
  - # 5
    frequency:    1.5334816851
  - # 6
    frequency:    3.4710713959
  - # 7
    frequency:    3.6157197586
  - # 8
    frequency:    5.1643831420
  - # 9
    frequency:    5.4376052872
  - # 10
    frequency:    5.7865647339
  - # 11
    frequency:    6.1763583639
  - # 12
    frequency:    6.5619638602
  - # 13
    frequency:    7.6915094384
  - # 14
    frequency:    9.6946785772
  - # 15
    frequency:   10.2296434269
  - # 16
    frequency:   11.4315372644
  - # 17
    frequency:   13.9204648842
  - # 18
    frequency:   13.9393103161
  - # 19
    frequency:   16.7701422137
  - # 20
    frequency:   32.1848295701
  - # 21
    frequency:   67.8266771124

- q-position: [    0.0808081,    0.0000000,    0.0000000 ]
  distance:    0.0257185
  band:
  - # 1
    frequency:   -1.2228135620
  - # 2
    frequency:   -0.9657760530
  - # 3
    frequency:    0.3291586969
  - # 4
    frequency:    0.9350874636
  - # 5
    frequency:    1.6352807887
  - # 6
    frequency:    3.4713920259
  - # 7
    frequency:    3.6345444843
  - # 8
    frequency:    5.1638084562
  - # 9
    frequency:    5.4349159640
  - # 10
    frequency:    5.8015152746
  - # 11
    frequency:    6.1750595730
  - # 12
    frequency:    6.6024960664
  - # 13
    frequency:    7.6807082512
  - # 14
    frequency:    9.6704474724
  - # 15
    frequency:   10.2226475130
  - # 16
    frequency:   11.5769364626
  - # 17
    frequency:   13.9212294942
  - # 18
    frequency:   13.9428096942
  - # 19
    frequency:   16.7381410103
  - # 20
    frequency:   32.1732264074
  - # 21
    frequency:   67.8195561749

- q-position: [    0.0858586,    0.0000000,    0.0000000 ]
  distance:    0.0273259
  band:
  - # 1
    frequency:   -1.2175635976
  - # 2
    frequency:   -0.9264315647
  - # 3
    frequency:    0.3690794195
  - # 4
    frequency:    0.9914769962
  - # 5
    frequency:    1.7365490644
  - # 6
    frequency:    3.4717950651
  - # 7
    frequency:    3.6543237129
  - # 8
    frequency:    5.1632997999
  - # 9
    frequency:    5.4321816535
  - # 10
    frequency:    5.8147243795
  - # 11
    frequency:    6.1736949406
  - # 12
    frequency:    6.6415324325
  - # 13
    frequency:    7.6692993016
  - # 14
    frequency:    9.6455243870
  - # 15
    frequency:   10.2153305564
  - # 16
    frequency:   11.7291407921
  - # 17
    frequency:   13.9220398280
  - # 18
    frequency:   13.9465929794
  - # 19
    frequency:   16.7043769701
  - # 20
    frequency:   32.1610312804
  - # 21
    frequency:   67.8120639766

- q-position: [    0.0909091,    0.0000000,    0.0000000 ]
  distance:    0.0289333
  band:
  - # 1
    frequency:   -1.2120689974
  - # 2
    frequency:   -0.8836340767
  - # 3
    frequency:    0.4108149558
  - # 4
    frequency:    1.0474185944
  - # 5
    frequency:    1.8372054113
  - # 6
    frequency:    3.4722909596
  - # 7
    frequency:    3.6750262965
  - # 8
    frequency:    5.1628720765
  - # 9
    frequency:    5.4294204980
  - # 10
    frequency:    5.8264075221
  - # 11
    frequency:    6.1722696532
  - # 12
    frequency:    6.6786053225
  - # 13
    frequency:    7.6572992517
  - # 14
    frequency:    9.6199142524
  - # 15
    frequency:   10.2077156123
  - # 16
    frequency:   11.8874724167
  - # 17
    frequency:   13.9228952272
  - # 18
    frequency:   13.9506861681
  - # 19
    frequency:   16.6689077165
  - # 20
    frequency:   32.1482715890
  - # 21
    frequency:   67.8042159536

- q-position: [    0.0959596,    0.0000000,    0.0000000 ]
  distance:    0.0305408
  band:
  - # 1
    frequency:   -1.2063250117
  - # 2
    frequency:   -0.8368716714
  - # 3
    frequency:    0.4542603010
  - # 4
    frequency:    1.1028800579
  - # 5
    frequency:    1.9371697470
  - # 6
    frequency:    3.4728905031
  - # 7
    frequency:    3.6966231827
  - # 8
    frequency:    5.1625417207
  - # 9
    frequency:    5.4266501900
  - # 10
    frequency:    5.8367598164
  - # 11
    frequency:    6.1707896298
  - # 12
    frequency:    6.7133760955
  - # 13
    frequency:    7.6447263509
  - # 14
    frequency:    9.5936302356
  - # 15
    frequency:   10.1998266637
  - # 16
    frequency:   12.0511801239
  - # 17
    frequency:   13.9237949977
  - # 18
    frequency:   13.9551258863
  - # 19
    frequency:   16.6317951676
  - # 20
    frequency:   32.1349758277
  - # 21
    frequency:   67.7960281608

- q-position: [    0.1010101,    0.0000000,    0.0000000 ]
  distance:    0.0321482
  band:
  - # 1
    frequency:   -1.2003251235
  - # 2
    frequency:   -0.7854474649
  - # 3
    frequency:    0.4993022664
  - # 4
    frequency:    1.1578313232
  - # 5
    frequency:    2.0363618072
  - # 6
    frequency:    3.4736048055
  - # 7
    frequency:    3.7190877410
  - # 8
    frequency:    5.1623267410
  - # 9
    frequency:    5.4238877929
  - # 10
    frequency:    5.8459510975
  - # 11
    frequency:    6.1692615502
  - # 12
    frequency:    6.7456235600
  - # 13
    frequency:    7.6316007999
  - # 14
    frequency:    9.5666930594
  - # 15
    frequency:   10.1916885218
  - # 16
    frequency:   12.2194499994
  - # 17
    frequency:   13.9247384105
  - # 18
    frequency:   13.9599647120
  - # 19
    frequency:   16.5931059642
  - # 20
    frequency:   32.1211734969
  - # 21
    frequency:   67.7875172210

- q-position: [    0.1060606,    0.0000000,    0.0000000 ]
  distance:    0.0337556
  band:
  - # 1
    frequency:   -1.1940612958
  - # 2
    frequency:   -0.7283752813
  - # 3
    frequency:    0.5458186118
  - # 4
    frequency:    1.2122446446
  - # 5
    frequency:    2.1347000004
  - # 6
    frequency:    3.4744452631
  - # 7
    frequency:    3.7423960680
  - # 8
    frequency:    5.1622467723
  - # 9
    frequency:    5.4211495728
  - # 10
    frequency:    5.8541253628
  - # 11
    frequency:    6.1676928750
  - # 12
    frequency:    6.7752274767
  - # 13
    frequency:    7.6179452152
  - # 14
    frequency:    9.5391302756
  - # 15
    frequency:   10.1833267184
  - # 16
    frequency:   12.3914121739
  - # 17
    frequency:   13.9257247018
  - # 18
    frequency:   13.9652799177
  - # 19
    frequency:   16.5529120659
  - # 20
    frequency:   32.1068950122
  - # 21
    frequency:   67.7787002738

- q-position: [    0.1111111,    0.0000000,    0.0000000 ]
  distance:    0.0353630
  band:
  - # 1
    frequency:   -1.1875241996
  - # 2
    frequency:   -0.6641850485
  - # 3
    frequency:    0.5936774843
  - # 4
    frequency:    1.2660947210
  - # 5
    frequency:    2.2321003472
  - # 6
    frequency:    3.4754235300
  - # 7
    frequency:    3.7665272774
  - # 8
    frequency:    5.1623231418
  - # 9
    frequency:    5.4184508447
  - # 10
    frequency:    5.8614025311
  - # 11
    frequency:    6.1660918577
  - # 12
    frequency:    6.8021502395
  - # 13
    frequency:    7.6037852123
  - # 14
    frequency:    9.5109755411
  - # 15
    frequency:   10.1747673890
  - # 16
    frequency:   12.5661398600
  - # 17
    frequency:   13.9267530738
  - # 18
    frequency:   13.9711884482
  - # 19
    frequency:   16.5112915841
  - # 20
    frequency:   32.0921716126
  - # 21
    frequency:   67.7695949226

- q-position: [    0.1161616,    0.0000000,    0.0000000 ]
  distance:    0.0369704
  band:
  - # 1
    frequency:   -1.1807034192
  - # 2
    frequency:   -0.5905193967
  - # 3
    frequency:    0.6427374352
  - # 4
    frequency:    1.3193587755
  - # 5
    frequency:    2.3284755100
  - # 6
    frequency:    3.4765514911
  - # 7
    frequency:    3.7914637823
  - # 8
    frequency:    5.1625789475
  - # 9
    frequency:    5.4158058349
  - # 10
    frequency:    5.8678812345
  - # 11
    frequency:    6.1644675467
  - # 12
    frequency:    6.8264187647
  - # 13
    frequency:    7.5891501231
  - # 14
    frequency:    9.4822679200
  - # 15
    frequency:   10.1660371500
  - # 16
    frequency:   12.7426342522
  - # 17
    frequency:   13.9278226941
  - # 18
    frequency:   13.9778738798
  - # 19
    frequency:   16.4683299492
  - # 20
    frequency:   32.0770352666
  - # 21
    frequency:   67.7602191806

- q-position: [    0.1212121,    0.0000000,    0.0000000 ]
  distance:    0.0385778
  band:
  - # 1
    frequency:   -1.1735876308
  - # 2
    frequency:   -0.5031541199
  - # 3
    frequency:    0.6928482916
  - # 4
    frequency:    1.3720166000
  - # 5
    frequency:    2.4237339100
  - # 6
    frequency:    3.4778412352
  - # 7
    frequency:    3.8171915696
  - # 8
    frequency:    5.1630391493
  - # 9
    frequency:    5.4132275612
  - # 10
    frequency:    5.8736419032
  - # 11
    frequency:    6.1628297772
  - # 12
    frequency:    6.8481077499
  - # 13
    frequency:    7.5740738695
  - # 14
    frequency:    9.4530512223
  - # 15
    frequency:   10.1571629675
  - # 16
    frequency:   12.9197823601
  - # 17
    frequency:   13.9289326970
  - # 18
    frequency:   13.9856378542
  - # 19
    frequency:   16.4241215577
  - # 20
    frequency:   32.0615185771
  - # 21
    frequency:   67.7505914165

- q-position: [    0.1262626,    0.0000000,    0.0000000 ]
  distance:    0.0401852
  band:
  - # 1
    frequency:   -1.1661647558
  - # 2
    frequency:   -0.3929099460
  - # 3
    frequency:    0.7438530895
  - # 4
    frequency:    1.4240505678
  - # 5
    frequency:    2.5177789254
  - # 6
    frequency:    3.4793050291
  - # 7
    frequency:    3.8437004692
  - # 8
    frequency:    5.1637306734
  - # 9
    frequency:    5.4107277337
  - # 10
    frequency:    5.8787497606
  - # 11
    frequency:    6.1611891532
  - # 12
    frequency:    6.8673248429
  - # 13
    frequency:    7.5585960131
  - # 14
    frequency:    9.4233733819
  - # 15
    frequency:   10.1481720208
  - # 16
    frequency:   13.0962583666
  - # 17
    frequency:   13.9300821829
  - # 18
    frequency:   13.9950051123
  - # 19
    frequency:   16.3787721163
  - # 20
    frequency:   32.0456546863
  - # 21
    frequency:   67.7407302992

- q-position: [    0.1313131,    0.0000000,    0.0000000 ]
  distance:    0.0417926
  band:
  - # 1
    frequency:   -1.1584220888
  - # 2
    frequency:   -0.2284802153
  - # 3
    frequency:    0.7955911301
  - # 4
    frequency:    1.4754456238
  - # 5
    frequency:    2.6105081707
  - # 6
    frequency:    3.4809552900
  - # 7
    frequency:    3.8709844075
  - # 8
    frequency:    5.1646825294
  - # 9
    frequency:    5.4083166778
  - # 10
    frequency:    5.8832575556
  - # 11
    frequency:    6.1595570170
  - # 12
    frequency:    6.8841978520
  - # 13
    frequency:    7.5427630061
  - # 14
    frequency:    9.3932858731
  - # 15
    frequency:   10.1390915606
  - # 16
    frequency:   13.2702951164
  - # 17
    frequency:   13.9312702189
  - # 18
    frequency:   14.0069552976
  - # 19
    frequency:   16.3324020249
  - # 20
    frequency:   32.0294771796
  - # 21
    frequency:   67.7306547425

- q-position: [    0.1363636,    0.0000000,    0.0000000 ]
  distance:    0.0434000
  band:
  - # 1
    frequency:   -1.1503464022
  - # 2
    frequency:    0.2314009590
  - # 3
    frequency:    0.8479020157
  - # 4
    frequency:    1.5261892541
  - # 5
    frequency:    2.7018128620
  - # 6
    frequency:    3.4828045573
  - # 7
    frequency:    3.8990416319
  - # 8
    frequency:    5.1659259404
  - # 9
    frequency:    5.4060032797
  - # 10
    frequency:    5.8872079768
  - # 11
    frequency:    6.1579454074
  - # 12
    frequency:    6.8988638823
  - # 13
    frequency:    7.5266296654
  - # 14
    frequency:    9.3628431610
  - # 15
    frequency:   10.1299487628
  - # 16
    frequency:   13.4391303354
  - # 17
    frequency:   13.9324958384
  - # 18
    frequency:   14.0234766045
  - # 19
    frequency:   16.2851513296
  - # 20
    frequency:   32.0130199890
  - # 21
    frequency:   67.7203838496

- q-position: [    0.1414141,    0.0000000,    0.0000000 ]
  distance:    0.0450074
  band:
  - # 1
    frequency:   -1.1419240304
  - # 2
    frequency:    0.4038341476
  - # 3
    frequency:    0.9006303162
  - # 4
    frequency:    1.5762714394
  - # 5
    frequency:    2.7915772918
  - # 6
    frequency:    3.4848654614
  - # 7
    frequency:    3.9278748748
  - # 8
    frequency:    5.1674944876
  - # 9
    frequency:    5.4037949570
  - # 10
    frequency:    5.8906357550
  - # 11
    frequency:    6.1563670054
  - # 12
    frequency:    6.9114601568
  - # 13
    frequency:    7.5102608861
  - # 14
    frequency:    9.3321021820
  - # 15
    frequency:   10.1207705805
  - # 16
    frequency:   13.5976244045
  - # 17
    frequency:   13.9337580416
  - # 18
    frequency:   14.0489438533
  - # 19
    frequency:   16.2371871159
  - # 20
    frequency:   31.9963172976
  - # 21
    frequency:   67.7099368574

- q-position: [    0.1464646,    0.0000000,    0.0000000 ]
  distance:    0.0466148
  band:
  - # 1
    frequency:   -1.1331409345
  - # 2
    frequency:    0.5259567181
  - # 3
    frequency:    0.9536303815
  - # 4
    frequency:    1.6256845937
  - # 5
    frequency:    2.8796784528
  - # 6
    frequency:    3.4871506891
  - # 7
    frequency:    3.9574914110
  - # 8
    frequency:    5.1694242675
  - # 9
    frequency:    5.4016976544
  - # 10
    frequency:    5.8935694863
  - # 11
    frequency:    6.1548350667
  - # 12
    frequency:    6.9221162374
  - # 13
    frequency:    7.4937335991
  - # 14
    frequency:    9.3011218516
  - # 15
    frequency:   10.1115835942
  - # 16
    frequency:   13.7353831394
  - # 17
    frequency:   13.9350557953
  - # 18
    frequency:   14.0929863817
  - # 19
    frequency:   16.1887147780
  - # 20
    frequency:   31.9794034433
  - # 21
    frequency:   67.6993330817

- q-position: [    0.1515152,    0.0000000,    0.0000000 ]
  distance:    0.0482222
  band:
  - # 1
    frequency:   -1.1239827510
  - # 2
    frequency:    0.6280292723
  - # 3
    frequency:    1.0067707980
  - # 4
    frequency:    1.6744234907
  - # 5
    frequency:    2.9659858772
  - # 6
    frequency:    3.4896729443
  - # 7
    frequency:    3.9879029353
  - # 8
    frequency:    5.1717540647
  - # 9
    frequency:    5.3997158645
  - # 10
    frequency:    5.8960332159
  - # 11
    frequency:    6.1533633412
  - # 12
    frequency:    6.9309473854
  - # 13
    frequency:    7.4771389446
  - # 14
    frequency:    9.2699625959
  - # 15
    frequency:   10.1024138624
  - # 16
    frequency:   13.8366214264
  - # 17
    frequency:   13.9363880326
  - # 18
    frequency:   14.1706077103
  - # 19
    frequency:   16.1399956275
  - # 20
    frequency:   31.9623128239
  - # 21
    frequency:   67.6885918621
