nqpoint: 300    
npath: 3      
segment_nqpoint:
- 100
- 100
- 100
labels:
- [ 'G', 'M' ]
- [ 'M', 'K' ]
- [ 'K', 'G' ]
reciprocal_lattice:
- [   0.32398406,   0.18705228,   0.00000000 ] # a*
- [   0.00000000,   0.37410456,   0.00000000 ] # b*
- [   0.00000000,   0.00000000,   0.04179866 ] # c*
natom: 6      
lattice:
- [     3.086571640228440,     0.000000000000000,     0.000000000000000 ] # a
- [    -1.543285820114220,     2.673049451063401,     0.000000000000000 ] # b
- [     0.000000000000000,     0.000000000000000,    23.924210572166150 ] # c
points:
- symbol: C # 1
  coordinates: [  0.333332985432215,  0.666666983183674,  0.573418987391222 ]
  mass: 12.010700
- symbol: N # 2
  coordinates: [  0.000000000000000,  0.000000000000000,  0.466262226262312 ]
  mass: 14.006700
- symbol: N # 3
  coordinates: [  0.333332985432215,  0.666666983183674,  0.623812038735742 ]
  mass: 14.006700
- symbol: O # 4
  coordinates: [  0.666666984744047,  0.333332985985145,  0.376187961264258 ]
  mass: 15.999400
- symbol: Ti # 5
  coordinates: [  0.333332985432215,  0.666666983183674,  0.414127064118816 ]
  mass: 47.867000
- symbol: Ti # 6
  coordinates: [  0.666666984744047,  0.333332985985145,  0.514869401179614 ]
  mass: 47.867000

phonon:
- q-position: [    0.0000000,    0.0000000,    0.0000000 ]
  distance:    0.0000000
  band:
  - # 1
    frequency:   -0.0000042388
  - # 2
    frequency:   -0.0000012489
  - # 3
    frequency:    0.0000042119
  - # 4
    frequency:    2.0626561125
  - # 5
    frequency:    2.0626561125
  - # 6
    frequency:    2.6425424305
  - # 7
    frequency:    2.6425424305
  - # 8
    frequency:    7.4221158599
  - # 9
    frequency:    8.3392723072
  - # 10
    frequency:    8.3392723072
  - # 11
    frequency:    9.1997934549
  - # 12
    frequency:    9.1997934549
  - # 13
    frequency:   11.0749307544
  - # 14
    frequency:   14.2572334888
  - # 15
    frequency:   14.2572334888
  - # 16
    frequency:   16.3965515812
  - # 17
    frequency:   17.8969187274
  - # 18
    frequency:   59.9180006410

- q-position: [    0.0050505,    0.0000000,    0.0000000 ]
  distance:    0.0018894
  band:
  - # 1
    frequency:   -0.2074021378
  - # 2
    frequency:    0.0745862940
  - # 3
    frequency:    0.2486139957
  - # 4
    frequency:    2.0651809067
  - # 5
    frequency:    2.0656458424
  - # 6
    frequency:    2.6458684330
  - # 7
    frequency:    2.6480206668
  - # 8
    frequency:    7.4219301960
  - # 9
    frequency:    8.3406609251
  - # 10
    frequency:    8.3415986807
  - # 11
    frequency:    9.2002549308
  - # 12
    frequency:    9.2008081743
  - # 13
    frequency:   11.0751310200
  - # 14
    frequency:   14.2572240516
  - # 15
    frequency:   14.2574288802
  - # 16
    frequency:   16.3959863025
  - # 17
    frequency:   17.8964630634
  - # 18
    frequency:   59.9179483826

- q-position: [    0.0101010,    0.0000000,    0.0000000 ]
  distance:    0.0037788
  band:
  - # 1
    frequency:   -0.2683312570
  - # 2
    frequency:    0.1495370776
  - # 3
    frequency:    0.3836840402
  - # 4
    frequency:    2.0725896017
  - # 5
    frequency:    2.0745125686
  - # 6
    frequency:    2.6558791783
  - # 7
    frequency:    2.6644034490
  - # 8
    frequency:    7.4213814039
  - # 9
    frequency:    8.3448201970
  - # 10
    frequency:    8.3485462274
  - # 11
    frequency:    9.2016384083
  - # 12
    frequency:    9.2038515737
  - # 13
    frequency:   11.0757338817
  - # 14
    frequency:   14.2571967567
  - # 15
    frequency:   14.2580134678
  - # 16
    frequency:   16.3942917352
  - # 17
    frequency:   17.8950985688
  - # 18
    frequency:   59.9177917664

- q-position: [    0.0151515,    0.0000000,    0.0000000 ]
  distance:    0.0056683
  band:
  - # 1
    frequency:   -0.3014650903
  - # 2
    frequency:    0.2251763007
  - # 3
    frequency:    0.5101375310
  - # 4
    frequency:    2.0844104914
  - # 5
    frequency:    2.0889697573
  - # 6
    frequency:    2.6726600926
  - # 7
    frequency:    2.6915280119
  - # 8
    frequency:    7.4204934131
  - # 9
    frequency:    8.3517303399
  - # 10
    frequency:    8.3600210249
  - # 11
    frequency:    9.2039410744
  - # 12
    frequency:    9.2089215195
  - # 13
    frequency:   11.0767455139
  - # 14
    frequency:   14.2571546510
  - # 15
    frequency:   14.2589825045
  - # 16
    frequency:   16.3914717024
  - # 17
    frequency:   17.8928327044
  - # 18
    frequency:   59.9175312691

- q-position: [    0.0202020,    0.0000000,    0.0000000 ]
  distance:    0.0075577
  band:
  - # 1
    frequency:   -0.3199105012
  - # 2
    frequency:    0.3017546308
  - # 3
    frequency:    0.6353818393
  - # 4
    frequency:    2.0999373734
  - # 5
    frequency:    2.1086029688
  - # 6
    frequency:    2.6963127297
  - # 7
    frequency:    2.7291037708
  - # 8
    frequency:    7.4193039831
  - # 9
    frequency:    8.3613582560
  - # 10
    frequency:    8.3758691021
  - # 11
    frequency:    9.2071583643
  - # 12
    frequency:    9.2160149127
  - # 13
    frequency:   11.0781761389
  - # 14
    frequency:   14.2571027995
  - # 15
    frequency:   14.2603281227
  - # 16
    frequency:   16.3875326269
  - # 17
    frequency:   17.8896778011
  - # 18
    frequency:   59.9171676825

- q-position: [    0.0252525,    0.0000000,    0.0000000 ]
  distance:    0.0094471
  band:
  - # 1
    frequency:   -0.3284570326
  - # 2
    frequency:    0.3794296612
  - # 3
    frequency:    0.7610675240
  - # 4
    frequency:    2.1183338146
  - # 5
    frequency:    2.1329449363
  - # 6
    frequency:    2.7269006716
  - # 7
    frequency:    2.7766953048
  - # 8
    frequency:    7.4178618726
  - # 9
    frequency:    8.3736573491
  - # 10
    frequency:    8.3958799745
  - # 11
    frequency:    9.2112841485
  - # 12
    frequency:    9.2251283118
  - # 13
    frequency:   11.0800399205
  - # 14
    frequency:   14.2570482669
  - # 15
    frequency:   14.2620394000
  - # 16
    frequency:   16.3824836058
  - # 17
    frequency:   17.8856509063
  - # 18
    frequency:   59.9167021100

- q-position: [    0.0303030,    0.0000000,    0.0000000 ]
  distance:    0.0113365
  band:
  - # 1
    frequency:   -0.3287465913
  - # 2
    frequency:    0.4582602898
  - # 3
    frequency:    0.8873269966
  - # 4
    frequency:    2.1387492229
  - # 5
    frequency:    2.1615502634
  - # 6
    frequency:    2.7643897523
  - # 7
    frequency:    2.8337163012
  - # 8
    frequency:    7.4162234818
  - # 9
    frequency:    8.3885672751
  - # 10
    frequency:    8.4197910762
  - # 11
    frequency:    9.2163109995
  - # 12
    frequency:    9.2362586739
  - # 13
    frequency:   11.0823548091
  - # 14
    frequency:   14.2570000899
  - # 15
    frequency:   14.2641024499
  - # 16
    frequency:   16.3763365110
  - # 17
    frequency:   17.8807735716
  - # 18
    frequency:   59.9161359618

- q-position: [    0.0353535,    0.0000000,    0.0000000 ]
  distance:    0.0132259
  band:
  - # 1
    frequency:   -0.3206848170
  - # 2
    frequency:    0.5382130076
  - # 3
    frequency:    1.0138109030
  - # 4
    frequency:    2.1604223815
  - # 5
    frequency:    2.1940553053
  - # 6
    frequency:    2.8085987123
  - # 7
    frequency:    2.8994411130
  - # 8
    frequency:    7.4144493745
  - # 9
    frequency:    8.4060136366
  - # 10
    frequency:    8.4472927785
  - # 11
    frequency:    9.2222305401
  - # 12
    frequency:    9.2494040808
  - # 13
    frequency:   11.0851423305
  - # 14
    frequency:   14.2569692423
  - # 15
    frequency:   14.2665005372
  - # 16
    frequency:   16.3691061096
  - # 17
    frequency:   17.8750715846
  - # 18
    frequency:   59.9154709480

- q-position: [    0.0404040,    0.0000000,    0.0000000 ]
  distance:    0.0151153
  band:
  - # 1
    frequency:   -0.3027928598
  - # 2
    frequency:    0.6191759225
  - # 3
    frequency:    1.1400053107
  - # 4
    frequency:    2.1827519609
  - # 5
    frequency:    2.2302180386
  - # 6
    frequency:    2.8591751295
  - # 7
    frequency:    2.9730334880
  - # 8
    frequency:    7.4126010169
  - # 9
    frequency:    8.4259076312
  - # 10
    frequency:    8.4780338033
  - # 11
    frequency:    9.2290338800
  - # 12
    frequency:    9.2645642656
  - # 13
    frequency:   11.0884273104
  - # 14
    frequency:   14.2569685900
  - # 15
    frequency:   14.2692142159
  - # 16
    frequency:   16.3608102003
  - # 17
    frequency:   17.8685746496
  - # 18
    frequency:   59.9147090713

- q-position: [    0.0454545,    0.0000000,    0.0000000 ]
  distance:    0.0170048
  band:
  - # 1
    frequency:   -0.2717597124
  - # 2
    frequency:    0.7009761306
  - # 3
    frequency:    1.2653227280
  - # 4
    frequency:    2.2053248245
  - # 5
    frequency:    2.2699412402
  - # 6
    frequency:    2.9156032099
  - # 7
    frequency:    3.0535861579
  - # 8
    frequency:    7.4107379488
  - # 9
    frequency:    8.4481456657
  - # 10
    frequency:    8.5116270037
  - # 11
    frequency:    9.2367121437
  - # 12
    frequency:    9.2817407107
  - # 13
    frequency:   11.0922375241
  - # 14
    frequency:   14.2570128378
  - # 15
    frequency:   14.2722214888
  - # 16
    frequency:   16.3514697576
  - # 17
    frequency:   17.8613160211
  - # 18
    frequency:   59.9138526174

- q-position: [    0.0505051,    0.0000000,    0.0000000 ]
  distance:    0.0188942
  band:
  - # 1
    frequency:   -0.2200836638
  - # 2
    frequency:    0.7833969396
  - # 3
    frequency:    1.3891127221
  - # 4
    frequency:    2.2279067899
  - # 5
    frequency:    2.3132863980
  - # 6
    frequency:    2.9772386517
  - # 7
    frequency:    3.1401628588
  - # 8
    frequency:    7.4089154959
  - # 9
    frequency:    8.4726089500
  - # 10
    frequency:    8.5476556489
  - # 11
    frequency:    9.2452570962
  - # 12
    frequency:    9.3009360417
  - # 13
    frequency:   11.0966032588
  - # 14
    frequency:   14.2571184642
  - # 15
    frequency:   14.2754979867
  - # 16
    frequency:   16.3411090757
  - # 17
    frequency:   17.8533320966
  - # 18
    frequency:   59.9129041454

- q-position: [    0.0555556,    0.0000000,    0.0000000 ]
  distance:    0.0207836
  band:
  - # 1
    frequency:   -0.1201530757
  - # 2
    frequency:    0.8661927493
  - # 3
    frequency:    1.5106434308
  - # 4
    frequency:    2.2504099572
  - # 5
    frequency:    2.3604846611
  - # 6
    frequency:    3.0433578826
  - # 7
    frequency:    3.2318358025
  - # 8
    frequency:    7.4071830374
  - # 9
    frequency:    8.4991630878
  - # 10
    frequency:    8.5856804732
  - # 11
    frequency:    9.2546618682
  - # 12
    frequency:    9.3221524122
  - # 13
    frequency:   11.1015567753
  - # 14
    frequency:   14.2573036459
  - # 15
    frequency:   14.2790171654
  - # 16
    frequency:   16.3297559038
  - # 17
    frequency:   17.8446619744
  - # 18
    frequency:   59.9118664757

- q-position: [    0.0606061,    0.0000000,    0.0000000 ]
  distance:    0.0226730
  band:
  - # 1
    frequency:    0.1708266295
  - # 2
    frequency:    0.9491005745
  - # 3
    frequency:    1.6290764591
  - # 4
    frequency:    2.2728523197
  - # 5
    frequency:    2.4119456483
  - # 6
    frequency:    3.1132079988
  - # 7
    frequency:    3.3277147358
  - # 8
    frequency:    7.4055827930
  - # 9
    frequency:    8.5276576808
  - # 10
    frequency:    8.6252478066
  - # 11
    frequency:    9.2649217833
  - # 12
    frequency:    9.3453885867
  - # 13
    frequency:   11.1071316547
  - # 14
    frequency:   14.2575881691
  - # 15
    frequency:   14.2827505189
  - # 16
    frequency:   16.3174415618
  - # 17
    frequency:   17.8353469848
  - # 18
    frequency:   59.9107426778

- q-position: [    0.0656566,    0.0000000,    0.0000000 ]
  distance:    0.0245624
  band:
  - # 1
    frequency:    0.2888897441
  - # 2
    frequency:    1.0318480371
  - # 3
    frequency:    1.7434525463
  - # 4
    frequency:    2.2953210461
  - # 5
    frequency:    2.4682558324
  - # 6
    frequency:    3.1860480882
  - # 7
    frequency:    3.4269666770
  - # 8
    frequency:    7.4041490720
  - # 9
    frequency:    8.5579259699
  - # 10
    frequency:    8.6658990557
  - # 11
    frequency:    9.2760352801
  - # 12
    frequency:    9.3706354996
  - # 13
    frequency:   11.1133620150
  - # 14
    frequency:   14.2579933253
  - # 15
    frequency:   14.2866678061
  - # 16
    frequency:   16.3042010253
  - # 17
    frequency:   17.8254302017
  - # 18
    frequency:   59.9095360570

- q-position: [    0.0707071,    0.0000000,    0.0000000 ]
  distance:    0.0264518
  band:
  - # 1
    frequency:    0.3865321390
  - # 2
    frequency:    1.1141581472
  - # 3
    frequency:    1.8527107472
  - # 4
    frequency:    2.3179448242
  - # 5
    frequency:    2.5301466552
  - # 6
    frequency:    3.2611783034
  - # 7
    frequency:    3.5288273057
  - # 8
    frequency:    7.4029079273
  - # 9
    frequency:    8.5897845438
  - # 10
    frequency:    8.7071816415
  - # 11
    frequency:    9.2880049166
  - # 12
    frequency:    9.3978702449
  - # 13
    frequency:   11.1202815855
  - # 14
    frequency:   14.2585417923
  - # 15
    frequency:   14.2907372892
  - # 16
    frequency:   16.2900729699
  - # 17
    frequency:   17.8149559440
  - # 18
    frequency:   59.9082501394

- q-position: [    0.0757576,    0.0000000,    0.0000000 ]
  distance:    0.0283413
  band:
  - # 1
    frequency:    0.4775015238
  - # 2
    frequency:    1.1957514155
  - # 3
    frequency:    1.9557695763
  - # 4
    frequency:    2.3408760414
  - # 5
    frequency:    2.5984042118
  - # 6
    frequency:    3.3379572455
  - # 7
    frequency:    3.6326057979
  - # 8
    frequency:    7.4018771713
  - # 9
    frequency:    8.6230331557
  - # 10
    frequency:    8.7486612008
  - # 11
    frequency:    9.3008384248
  - # 12
    frequency:    9.4270487398
  - # 13
    frequency:   11.1279226292
  - # 14
    frequency:   14.2592574955
  - # 15
    frequency:   14.2949259818
  - # 16
    frequency:   16.2750997625
  - # 17
    frequency:   17.8039692746
  - # 18
    frequency:   59.9068886574

- q-position: [    0.0808081,    0.0000000,    0.0000000 ]
  distance:    0.0302307
  band:
  - # 1
    frequency:    0.5658441281
  - # 2
    frequency:    1.2763459120
  - # 3
    frequency:    2.0516871369
  - # 4
    frequency:    2.3642811691
  - # 5
    frequency:    2.6737028550
  - # 6
    frequency:    3.4158101872
  - # 7
    frequency:    3.7376849653
  - # 8
    frequency:    7.4010667266
  - # 9
    frequency:    8.6574547086
  - # 10
    frequency:    8.7899344515
  - # 11
    frequency:    9.3145497639
  - # 12
    frequency:    9.4580976966
  - # 13
    frequency:   11.1363147087
  - # 14
    frequency:   14.2601654487
  - # 15
    frequency:   14.2991999041
  - # 16
    frequency:   16.2593273898
  - # 17
    frequency:   17.7925155078
  - # 18
    frequency:   59.9054555330

- q-position: [    0.0858586,    0.0000000,    0.0000000 ]
  distance:    0.0321201
  band:
  - # 1
    frequency:    0.6532797171
  - # 2
    frequency:    1.3556558956
  - # 3
    frequency:    2.1398705557
  - # 4
    frequency:    2.3883369859
  - # 5
    frequency:    2.7563915933
  - # 6
    frequency:    3.4942310150
  - # 7
    frequency:    3.8435182856
  - # 8
    frequency:    7.4004792996
  - # 9
    frequency:    8.6928155002
  - # 10
    frequency:    8.8306416925
  - # 11
    frequency:    9.3291600831
  - # 12
    frequency:    9.4909069507
  - # 13
    frequency:   11.1454833022
  - # 14
    frequency:   14.2612915719
  - # 15
    frequency:   14.3035243439
  - # 16
    frequency:   16.2428053127
  - # 17
    frequency:   17.7806397312
  - # 18
    frequency:   59.9039548621

- q-position: [    0.0909091,    0.0000000,    0.0000000 ]
  distance:    0.0340095
  band:
  - # 1
    frequency:    0.7406512294
  - # 2
    frequency:    1.4333896575
  - # 3
    frequency:    2.2202405776
  - # 4
    frequency:    2.4132303785
  - # 5
    frequency:    2.8463267312
  - # 6
    frequency:    3.5727803065
  - # 7
    frequency:    3.9496250146
  - # 8
    frequency:    7.4001113757
  - # 9
    frequency:    8.7288658544
  - # 10
    frequency:    8.8704775841
  - # 11
    frequency:    9.3446984599
  - # 12
    frequency:    9.5253234903
  - # 13
    frequency:   11.1554482873
  - # 14
    frequency:   14.2626624834
  - # 15
    frequency:   14.3078641201
  - # 16
    frequency:   16.2255862406
  - # 17
    frequency:   17.7683863530
  - # 18
    frequency:   59.9023908965

- q-position: [    0.0959596,    0.0000000,    0.0000000 ]
  distance:    0.0358989
  band:
  - # 1
    frequency:    0.8283913739
  - # 2
    frequency:    1.5092472945
  - # 3
    frequency:    2.2932478777
  - # 4
    frequency:    2.4391598014
  - # 5
    frequency:    2.9428536741
  - # 6
    frequency:    3.6510812874
  - # 7
    frequency:    4.0555842200
  - # 8
    frequency:    7.3999545405
  - # 9
    frequency:    8.7653413263
  - # 10
    frequency:    8.9091988103
  - # 11
    frequency:    9.3612022223
  - # 12
    frequency:    9.5611485609
  - # 13
    frequency:   11.1662223281
  - # 14
    frequency:   14.2643052637
  - # 15
    frequency:   14.3121838487
  - # 16
    frequency:   16.2077258165
  - # 17
    frequency:   17.7557986806
  - # 18
    frequency:   59.9007680271

- q-position: [    0.1010101,    0.0000000,    0.0000000 ]
  distance:    0.0377883
  band:
  - # 1
    frequency:    0.9167138104
  - # 2
    frequency:    1.5829192759
  - # 3
    frequency:    2.3597267338
  - # 4
    frequency:    2.4663367430
  - # 5
    frequency:    3.0449519014
  - # 6
    frequency:    3.7288148023
  - # 7
    frequency:    4.1610282840
  - # 8
    frequency:    7.3999971323
  - # 9
    frequency:    8.8019647193
  - # 10
    frequency:    8.9466275451
  - # 11
    frequency:    9.3787165931
  - # 12
    frequency:    9.5981388677
  - # 13
    frequency:   11.1778092229
  - # 14
    frequency:   14.2662471906
  - # 15
    frequency:   14.3164482077
  - # 16
    frequency:   16.1892822125
  - # 17
    frequency:   17.7429185380
  - # 18
    frequency:   59.8990907656

- q-position: [    0.1060606,    0.0000000,    0.0000000 ]
  distance:    0.0396778
  band:
  - # 1
    frequency:    1.0057040988
  - # 2
    frequency:    1.6540868806
  - # 3
    frequency:    2.4206772043
  - # 4
    frequency:    2.4949856531
  - # 5
    frequency:    3.1514517349
  - # 6
    frequency:    3.8057139832
  - # 7
    frequency:    4.2656362198
  - # 8
    frequency:    7.4002262284
  - # 9
    frequency:    8.8384492129
  - # 10
    frequency:    8.9826503102
  - # 11
    frequency:    9.3972933422
  - # 12
    frequency:    9.6360122088
  - # 13
    frequency:   11.1902022919
  - # 14
    frequency:   14.2685154427
  - # 15
    frequency:   14.3206222002
  - # 16
    frequency:   16.1703156317
  - # 17
    frequency:   17.7297859269
  - # 18
    frequency:   59.8973637267

- q-position: [    0.1111111,    0.0000000,    0.0000000 ]
  distance:    0.0415672
  band:
  - # 1
    frequency:    1.0953675912
  - # 2
    frequency:    1.7224257771
  - # 3
    frequency:    2.4770822928
  - # 4
    frequency:    2.5253407989
  - # 5
    frequency:    3.2612162850
  - # 6
    frequency:    3.8815589961
  - # 7
    frequency:    4.3691270065
  - # 8
    frequency:    7.4006299620
  - # 9
    frequency:    8.8745029149
  - # 10
    frequency:    9.0172126175
  - # 11
    frequency:    9.4169881036
  - # 12
    frequency:    9.6744570407
  - # 13
    frequency:   11.2033829084
  - # 14
    frequency:   14.2711367736
  - # 15
    frequency:   14.3246714146
  - # 16
    frequency:   16.1508877222
  - # 17
    frequency:   17.7164387357
  - # 18
    frequency:   59.8955916098

- q-position: [    0.1161616,    0.0000000,    0.0000000 ]
  distance:    0.0434566
  band:
  - # 1
    frequency:    1.1856565239
  - # 2
    frequency:    1.7876140597
  - # 3
    frequency:    2.5298059849
  - # 4
    frequency:    2.5576386132
  - # 5
    frequency:    3.3732426170
  - # 6
    frequency:    3.9561720589
  - # 7
    frequency:    4.4712530554
  - # 8
    frequency:    7.4012001588
  - # 9
    frequency:    8.9098350928
  - # 10
    frequency:    9.0503104849
  - # 11
    frequency:    9.4378560715
  - # 12
    frequency:    9.7131447585
  - # 13
    frequency:   11.2173192993
  - # 14
    frequency:   14.2741371564
  - # 15
    frequency:   14.3285622792
  - # 16
    frequency:   16.1310609090
  - # 17
    frequency:   17.7029125002
  - # 18
    frequency:   59.8937791805

- q-position: [    0.1212121,    0.0000000,    0.0000000 ]
  distance:    0.0453460
  band:
  - # 1
    frequency:    1.2764861233
  - # 2
    frequency:    1.8493456681
  - # 3
    frequency:    2.5795613064
  - # 4
    frequency:    2.5921045538
  - # 5
    frequency:    3.4866929549
  - # 6
    frequency:    4.0294128157
  - # 7
    frequency:    4.5717938723
  - # 8
    frequency:    7.4019352717
  - # 9
    frequency:    8.9441641584
  - # 10
    frequency:    9.0819802792
  - # 11
    frequency:    9.4599459716
  - # 12
    frequency:    9.7517430920
  - # 13
    frequency:   11.2319657517
  - # 14
    frequency:   14.2775414033
  - # 15
    frequency:   14.3322623116
  - # 16
    frequency:   16.1108976545
  - # 17
    frequency:   17.6892402149
  - # 18
    frequency:   59.8919312529

- q-position: [    0.1262626,    0.0000000,    0.0000000 ]
  distance:    0.0472354
  band:
  - # 1
    frequency:    1.3677444732
  - # 2
    frequency:    1.9073490587
  - # 3
    frequency:    2.6269187379
  - # 4
    frequency:    2.6289345940
  - # 5
    frequency:    3.6008855826
  - # 6
    frequency:    4.1011740910
  - # 7
    frequency:    4.6705499521
  - # 8
    frequency:    7.4028435813
  - # 9
    frequency:    8.9772271347
  - # 10
    frequency:    9.1122883213
  - # 11
    frequency:    9.4832925420
  - # 12
    frequency:    9.7899290340
  - # 13
    frequency:   11.2472623652
  - # 14
    frequency:   14.2813727663
  - # 15
    frequency:   14.3357403610
  - # 16
    frequency:   16.0904596624
  - # 17
    frequency:   17.6754521974
  - # 18
    frequency:   59.8900526709

- q-position: [    0.1313131,    0.0000000,    0.0000000 ]
  distance:    0.0491248
  band:
  - # 1
    frequency:    1.4592986093
  - # 2
    frequency:    1.9614092085
  - # 3
    frequency:    2.6682732696
  - # 4
    frequency:    2.6723307606
  - # 5
    frequency:    3.7152696808
  - # 6
    frequency:    4.1713780198
  - # 7
    frequency:    4.7673369348
  - # 8
    frequency:    7.4039466132
  - # 9
    frequency:    9.0087898579
  - # 10
    frequency:    9.1413213725
  - # 11
    frequency:    9.5079082393
  - # 12
    frequency:    9.8274000446
  - # 13
    frequency:   11.2631354714
  - # 14
    frequency:   14.2856525269
  - # 15
    frequency:   14.3389668417
  - # 16
    frequency:   16.0698070442
  - # 17
    frequency:   17.6615760028
  - # 18
    frequency:   59.8881482906

- q-position: [    0.1363636,    0.0000000,    0.0000000 ]
  distance:    0.0510143
  band:
  - # 1
    frequency:    1.5509981992
  - # 2
    frequency:    2.0113889592
  - # 3
    frequency:    2.7101922911
  - # 4
    frequency:    2.7161590077
  - # 5
    frequency:    3.8293976467
  - # 6
    frequency:    4.2399725318
  - # 7
    frequency:    4.8619800633
  - # 8
    frequency:    7.4052827064
  - # 9
    frequency:    9.0386566754
  - # 10
    frequency:    9.1691786760
  - # 11
    frequency:    9.5337753740
  - # 12
    frequency:    9.8638827498
  - # 13
    frequency:   11.2794988106
  - # 14
    frequency:   14.2903995868
  - # 15
    frequency:   14.3419139584
  - # 16
    frequency:   16.0489974693
  - # 17
    frequency:   17.6476363862
  - # 18
    frequency:   59.8862229627

- q-position: [    0.1414141,    0.0000000,    0.0000000 ]
  distance:    0.0529037
  band:
  - # 1
    frequency:    1.6426775809
  - # 2
    frequency:    2.0572443995
  - # 3
    frequency:    2.7546750399
  - # 4
    frequency:    2.7586983416
  - # 5
    frequency:    3.9429006024
  - # 6
    frequency:    4.3069281677
  - # 7
    frequency:    4.9543090063
  - # 8
    frequency:    7.4069106398
  - # 9
    frequency:    9.0666781041
  - # 10
    frequency:    9.1959657996
  - # 11
    frequency:    9.5608401850
  - # 12
    frequency:    9.8991388297
  - # 13
    frequency:   11.2962554982
  - # 14
    frequency:   14.2956300738
  - # 15
    frequency:   14.3445559216
  - # 16
    frequency:   16.0280853239
  - # 17
    frequency:   17.6336553093
  - # 18
    frequency:   59.8842815150

- q-position: [    0.1464646,    0.0000000,    0.0000000 ]
  distance:    0.0547931
  band:
  - # 1
    frequency:    1.7341566232
  - # 2
    frequency:    2.0990295699
  - # 3
    frequency:    2.8001963467
  - # 4
    frequency:    2.8016116823
  - # 5
    frequency:    4.0554686249
  - # 6
    frequency:    4.3722351992
  - # 7
    frequency:    5.0441531525
  - # 8
    frequency:    7.4089131892
  - # 9
    frequency:    9.0927550148
  - # 10
    frequency:    9.2217902106
  - # 11
    frequency:    9.5890102553
  - # 12
    frequency:    9.9329681665
  - # 13
    frequency:   11.3133007504
  - # 14
    frequency:   14.3013569804
  - # 15
    frequency:   14.3468691514
  - # 16
    frequency:   16.0071209038
  - # 17
    frequency:   17.6196519879
  - # 18
    frequency:   59.8823287356

- q-position: [    0.1515152,    0.0000000,    0.0000000 ]
  distance:    0.0566825
  band:
  - # 1
    frequency:    1.8252406885
  - # 2
    frequency:    2.1368885515
  - # 3
    frequency:    2.8408685017
  - # 4
    frequency:    2.8508068546
  - # 5
    frequency:    4.1668354425
  - # 6
    frequency:    4.4359010300
  - # 7
    frequency:    5.1313375390
  - # 8
    frequency:    7.4114004416
  - # 9
    frequency:    9.1168385027
  - # 10
    frequency:    9.2467583274
  - # 11
    frequency:    9.6181560918
  - # 12
    frequency:    9.9652095800
  - # 13
    frequency:   11.3305252643
  - # 14
    frequency:   14.3075898517
  - # 15
    frequency:   14.3488324703
  - # 16
    frequency:   15.9861496681
  - # 17
    frequency:   17.6056429747
  - # 18
    frequency:   59.8803693565

- q-position: [    0.1565657,    0.0000000,    0.0000000 ]
  distance:    0.0585719
  band:
  - # 1
    frequency:    1.9157198866
  - # 2
    frequency:    2.1710368197
  - # 3
    frequency:    2.8809098509
  - # 4
    frequency:    2.9019980555
  - # 5
    frequency:    4.2767667625
  - # 6
    frequency:    4.4979478522
  - # 7
    frequency:    5.2156796657
  - # 8
    frequency:    7.4145126263
  - # 9
    frequency:    9.1389255148
  - # 10
    frequency:    9.2709737168
  - # 11
    frequency:    9.6481167743
  - # 12
    frequency:    9.9957396161
  - # 13
    frequency:   11.3478190787
  - # 14
    frequency:   14.3143345451
  - # 15
    frequency:   14.3504272826
  - # 16
    frequency:   15.9652115805
  - # 17
    frequency:   17.5916422726
  - # 18
    frequency:   59.8784080373

- q-position: [    0.1616162,    0.0000000,    0.0000000 ]
  distance:    0.0604613
  band:
  - # 1
    frequency:    2.0053677663
  - # 2
    frequency:    2.2017366713
  - # 3
    frequency:    2.9205040183
  - # 4
    frequency:    2.9548799476
  - # 5
    frequency:    4.3850513205
  - # 6
    frequency:    4.5584105373
  - # 7
    frequency:    5.2969875473
  - # 8
    frequency:    7.4184221456
  - # 9
    frequency:    9.1590512051
  - # 10
    frequency:    9.2945361050
  - # 11
    frequency:    9.6787086928
  - # 12
    frequency:   10.0244699119
  - # 13
    frequency:   11.3650756899
  - # 14
    frequency:   14.3215930783
  - # 15
    frequency:   14.3516377405
  - # 16
    frequency:   15.9443405602
  - # 17
    frequency:   17.5776614742
  - # 18
    frequency:   59.8764493506

- q-position: [    0.1666667,    0.0000000,    0.0000000 ]
  distance:    0.0623508
  band:
  - # 1
    frequency:    2.0939396003
  - # 2
    frequency:    2.2292722745
  - # 3
    frequency:    2.9598302331
  - # 4
    frequency:    3.0091290331
  - # 5
    frequency:    4.4914938337
  - # 6
    frequency:    4.6173347377
  - # 7
    frequency:    5.3750594910
  - # 8
    frequency:    7.4233343921
  - # 9
    frequency:    9.1772795342
  - # 10
    frequency:    9.3175409079
  - # 11
    frequency:    9.7097358434
  - # 12
    frequency:   10.0513436517
  - # 13
    frequency:   11.3821961635
  - # 14
    frequency:   14.3293635854
  - # 15
    frequency:   14.3524508942
  - # 16
    frequency:   15.9235640649
  - # 17
    frequency:   17.5637099219
  - # 18
    frequency:   59.8744977663

- q-position: [    0.1717172,    0.0000000,    0.0000000 ]
  distance:    0.0642402
  band:
  - # 1
    frequency:    2.1811704860
  - # 2
    frequency:    2.2539285814
  - # 3
    frequency:    2.9990687832
  - # 4
    frequency:    3.0644244732
  - # 5
    frequency:    4.5959091586
  - # 6
    frequency:    4.6747751796
  - # 7
    frequency:    5.4496862274
  - # 8
    frequency:    7.4294868401
  - # 9
    frequency:    9.1936936792
  - # 10
    frequency:    9.3400790359
  - # 11
    frequency:    9.7410001130
  - # 12
    frequency:   10.0763315923
  - # 13
    frequency:   11.3990929795
  - # 14
    frequency:   14.3376403929
  - # 15
    frequency:   14.3528568258
  - # 16
    frequency:   15.9029028214
  - # 17
    frequency:   17.5497948837
  - # 18
    frequency:   59.8725576381

- q-position: [    0.1767677,    0.0000000,    0.0000000 ]
  distance:    0.0661296
  band:
  - # 1
    frequency:    2.2667736185
  - # 2
    frequency:    2.2759761503
  - # 3
    frequency:    3.0384050174
  - # 4
    frequency:    3.1204630153
  - # 5
    frequency:    4.6981170392
  - # 6
    frequency:    4.7307941245
  - # 7
    frequency:    5.5206561621
  - # 8
    frequency:    7.4371458269
  - # 9
    frequency:    9.2083874667
  - # 10
    frequency:    9.3622367815
  - # 11
    frequency:    9.7723103362
  - # 12
    frequency:   10.0994280668
  - # 13
    frequency:   11.4156933690
  - # 14