nqpoint: 300    
npath: 3      
segment_nqpoint:
- 100
- 100
- 100
labels:
- [ 'G', 'M' ]
- [ 'M', 'K' ]
- [ 'K', 'G' ]
reciprocal_lattice:
- [   0.31778272,   0.18347194,   0.00000000 ] # a*
- [   0.00000000,   0.36694387,   0.00000000 ] # b*
- [   0.00000000,   0.00000000,   0.04001903 ] # c*
natom: 7      
lattice:
- [     3.146804249488106,     0.000000000000000,     0.000000000000000 ] # a
- [    -1.573402124744053,     2.725212420789992,     0.000000000000000 ] # b
- [     0.000000000000000,     0.000000000000000,    24.988113350200532 ] # c
points:
- symbol: C # 1
  coordinates: [  0.333332985432215,  0.666666983183674,  0.591711018296198 ]
  mass: 12.010700
- symbol: H # 2
  coordinates: [  0.666666984744047,  0.333332985985145,  0.360171249180274 ]
  mass: 1.007940
- symbol: N # 3
  coordinates: [  0.000000000000000,  0.000000000000000,  0.491462115305842 ]
  mass: 14.006700
- symbol: N # 4
  coordinates: [  0.333332985432215,  0.666666983183674,  0.639828750819726 ]
  mass: 14.006700
- symbol: O # 5
  coordinates: [  0.666666984744047,  0.333332985985145,  0.399648793275273 ]
  mass: 15.999400
- symbol: Ti # 6
  coordinates: [  0.333332985432215,  0.666666983183674,  0.449329327019537 ]
  mass: 47.867000
- symbol: Ti # 7
  coordinates: [  0.666666984744047,  0.333332985985145,  0.534527194344793 ]
  mass: 47.867000

phonon:
- q-position: [    0.0000000,    0.0000000,    0.0000000 ]
  distance:    0.0000000
  band:
  - # 1
    frequency:   -0.0000024421
  - # 2
    frequency:    0.0000004663
  - # 3
    frequency:    0.0000019526
  - # 4
    frequency:    1.5692051215
  - # 5
    frequency:    1.5692051215
  - # 6
    frequency:    5.5015820873
  - # 7
    frequency:    5.5015820873
  - # 8
    frequency:    7.5186041930
  - # 9
    frequency:    8.4038098719
  - # 10
    frequency:    8.4038098719
  - # 11
    frequency:    8.8681697244
  - # 12
    frequency:    8.8681697244
  - # 13
    frequency:   10.8087777700
  - # 14
    frequency:   13.9293998874
  - # 15
    frequency:   13.9293998874
  - # 16
    frequency:   14.0524231246
  - # 17
    frequency:   16.4058608258
  - # 18
    frequency:   17.8277909681
  - # 19
    frequency:   17.8277909681
  - # 20
    frequency:   61.2794271056
  - # 21
    frequency:  111.6863004344

- q-position: [    0.0050505,    0.0000000,    0.0000000 ]
  distance:    0.0018533
  band:
  - # 1
    frequency:   -0.2263524499
  - # 2
    frequency:    0.0861610025
  - # 3
    frequency:    0.2643274544
  - # 4
    frequency:    1.5692048244
  - # 5
    frequency:    1.5711618890
  - # 6
    frequency:    5.5011882599
  - # 7
    frequency:    5.5017524005
  - # 8
    frequency:    7.5182215646
  - # 9
    frequency:    8.4033352840
  - # 10
    frequency:    8.4046366855
  - # 11
    frequency:    8.8683077410
  - # 12
    frequency:    8.8691639614
  - # 13
    frequency:   10.8082812232
  - # 14
    frequency:   13.9248717836
  - # 15
    frequency:   13.9292773912
  - # 16
    frequency:   14.0553127362
  - # 17
    frequency:   16.4056720218
  - # 18
    frequency:   17.8275032924
  - # 19
    frequency:   17.8278965337
  - # 20
    frequency:   61.2793223947
  - # 21
    frequency:  111.6854847148

- q-position: [    0.0101010,    0.0000000,    0.0000000 ]
  distance:    0.0037065
  band:
  - # 1
    frequency:   -0.2955875565
  - # 2
    frequency:    0.1722425196
  - # 3
    frequency:    0.4022967064
  - # 4
    frequency:    1.5692099743
  - # 5
    frequency:    1.5770288548
  - # 6
    frequency:    5.5000087881
  - # 7
    frequency:    5.5022696734
  - # 8
    frequency:    7.5170810791
  - # 9
    frequency:    8.4019152762
  - # 10
    frequency:    8.4071050910
  - # 11
    frequency:    8.8687195797
  - # 12
    frequency:    8.8721437222
  - # 13
    frequency:   10.8067936230
  - # 14
    frequency:   13.9123468707
  - # 15
    frequency:   13.9289133714
  - # 16
    frequency:   14.0629378438
  - # 17
    frequency:   16.4051037115
  - # 18
    frequency:   17.8266438173
  - # 19
    frequency:   17.8282122698
  - # 20
    frequency:   61.2790085098
  - # 21
    frequency:  111.6830448601

- q-position: [    0.0151515,    0.0000000,    0.0000000 ]
  distance:    0.0055598
  band:
  - # 1
    frequency:   -0.3340467485
  - # 2
    frequency:    0.2581614536
  - # 3
    frequency:    0.5281008022
  - # 4
    frequency:    1.5692392688
  - # 5
    frequency:    1.5868016216
  - # 6
    frequency:    5.4980497041
  - # 7
    frequency:    5.5031527574
  - # 8
    frequency:    7.5152045284
  - # 9
    frequency:    8.3995610077
  - # 10
    frequency:    8.4111796649
  - # 11
    frequency:    8.8693987021
  - # 12
    frequency:    8.8770999652
  - # 13
    frequency:   10.8043210896
  - # 14
    frequency:   13.8938778524
  - # 15
    frequency:   13.9283181962
  - # 16
    frequency:   14.0732926499
  - # 17
    frequency:   16.4041502610
  - # 18
    frequency:   17.8252231370
  - # 19
    frequency:   17.8287352989
  - # 20
    frequency:   61.2784861933
  - # 21
    frequency:  111.6790027229

- q-position: [    0.0202020,    0.0000000,    0.0000000 ]
  distance:    0.0074130
  band:
  - # 1
    frequency:   -0.3555736834
  - # 2
    frequency:    0.3438270506
  - # 3
    frequency:    0.6505052382
  - # 4
    frequency:    1.5693258719
  - # 5
    frequency:    1.6004922973
  - # 6
    frequency:    5.4953210639
  - # 7
    frequency:    5.5044325811
  - # 8
    frequency:    7.5126269249
  - # 9
    frequency:    8.3962907240
  - # 10
    frequency:    8.4168035752
  - # 11
    frequency:    8.8703345156
  - # 12
    frequency:    8.8840170034
  - # 13
    frequency:   10.8008738199
  - # 14
    frequency:   13.8711194227
  - # 15
    frequency:   13.9275090199
  - # 16
    frequency:   14.0848002795
  - # 17
    frequency:   16.4028024852
  - # 18
    frequency:   17.8232587038
  - # 19
    frequency:   17.8294608394
  - # 20
    frequency:   61.2777566779
  - # 21
    frequency:  111.6733945222

- q-position: [    0.0252525,    0.0000000,    0.0000000 ]
  distance:    0.0092663
  band:
  - # 1
    frequency:   -0.3657304519
  - # 2
    frequency:    0.4291359077
  - # 3
    frequency:    0.7718695014
  - # 4
    frequency:    1.5695207426
  - # 5
    frequency:    1.6181616123
  - # 6
    frequency:    5.4918369506
  - # 7
    frequency:    5.5061514305
  - # 8
    frequency:    7.5093947058
  - # 9
    frequency:    8.3921292595
  - # 10
    frequency:    8.4239016570
  - # 11
    frequency:    8.8715128008
  - # 12
    frequency:    8.8928716364
  - # 13
    frequency:   10.7964660813
  - # 14
    frequency:   13.8450880183
  - # 15
    frequency:   13.9265095957
  - # 16
    frequency:   14.0965524913
  - # 17
    frequency:   16.4010479481
  - # 18
    frequency:   17.8207745246
  - # 19
    frequency:   17.8303822273
  - # 20
    frequency:   61.2768216803
  - # 21
    frequency:  111.6662705441

- q-position: [    0.0303030,    0.0000000,    0.0000000 ]
  distance:    0.0111195
  band:
  - # 1
    frequency:   -0.3671273976
  - # 2
    frequency:    0.5139653360
  - # 3
    frequency:    0.8926304659
  - # 4
    frequency:    1.5698980232
  - # 5
    frequency:    1.6399712869
  - # 6
    frequency:    5.4876154774
  - # 7
    frequency:    5.5083619709
  - # 8
    frequency:    7.5055635183
  - # 9
    frequency:    8.3871073985
  - # 10
    frequency:    8.4323842878
  - # 11
    frequency:    8.8729162523
  - # 12
    frequency:    8.9036320540
  - # 13
    frequency:   10.7911162033
  - # 14
    frequency:   13.8163795600
  - # 15
    frequency:   13.9253500158
  - # 16
    frequency:   14.1080911885
  - # 17
    frequency:   16.3988713721
  - # 18
    frequency:   17.8178007415
  - # 19
    frequency:   17.8314909454
  - # 20
    frequency:   61.2756833922
  - # 21
    frequency:  111.6576947237

- q-position: [    0.0353535,    0.0000000,    0.0000000 ]
  distance:    0.0129728
  band:
  - # 1
    frequency:   -0.3608573130
  - # 2
    frequency:    0.5981640441
  - # 3
    frequency:    1.0123765692
  - # 4
    frequency:    1.5705634088
  - # 5
    frequency:    1.6662674177
  - # 6
    frequency:    5.4826787883
  - # 7
    frequency:    5.5111260395
  - # 8
    frequency:    7.5011958139
  - # 9
    frequency:    8.3812611409
  - # 10
    frequency:    8.4421517084
  - # 11
    frequency:    8.8745250888
  - # 12
    frequency:    8.9162566174
  - # 13
    frequency:   10.7848465645
  - # 14
    frequency:   13.7853651099
  - # 15
    frequency:   13.9240663820
  - # 16
    frequency:   14.1192118047
  - # 17
    frequency:   16.3962551446
  - # 18
    frequency:   17.8143731050
  - # 19
    frequency:   17.8327766603
  - # 20
    frequency:   61.2743444689
  - # 21
    frequency:  111.6477441152

- q-position: [    0.0404040,    0.0000000,    0.0000000 ]
  distance:    0.0148260
  band:
  - # 1
    frequency:   -0.3470051175
  - # 2
    frequency:    0.6815385543
  - # 3
    frequency:    1.1301297715
  - # 4
    frequency:    1.5716670126
  - # 5
    frequency:    1.6977119109
  - # 6
    frequency:    5.4770530557
  - # 7
    frequency:    5.5145132443
  - # 8
    frequency:    7.4963584699
  - # 9
    frequency:    8.3746309221
  - # 10
    frequency:    8.4530984289
  - # 11
    frequency:    8.8763176843
  - # 12
    frequency:    8.9306926472
  - # 13
    frequency:   10.7776835746
  - # 14
    frequency:   13.7523032224
  - # 15
    frequency:   13.9227004098
  - # 16
    frequency:   14.1298497889
  - # 17
    frequency:   16.3931799071
  - # 18
    frequency:   17.8105323470
  - # 19
    frequency:   17.8342272662
  - # 20
    frequency:   61.2728080154
  - # 21
    frequency:  111.6365082516

- q-position: [    0.0454545,    0.0000000,    0.0000000 ]
  distance:    0.0166793
  band:
  - # 1
    frequency:   -0.3247485957
  - # 2
    frequency:    0.7638328596
  - # 3
    frequency:    1.2443199265
  - # 4
    frequency:    1.5734231628
  - # 5
    frequency:    1.7354775177
  - # 6
    frequency:    5.4707684713
  - # 7
    frequency:    5.5185994067
  - # 8
    frequency:    7.4911206185
  - # 9
    frequency:    8.3672608284
  - # 10
    frequency:    8.4651173884
  - # 11
    frequency:    8.8782711815
  - # 12
    frequency:    8.9468753482
  - # 13
    frequency:   10.7696576491
  - # 14
    frequency:   13.7173986964
  - # 15
    frequency:   13.9212989706
  - # 16
    frequency:   14.1400204859
  - # 17
    frequency:   16.3896252133
  - # 18
    frequency:   17.8063234654
  - # 19
    frequency:   17.8358289343
  - # 20
    frequency:   61.2710775702
  - # 21
    frequency:  111.6240884006

- q-position: [    0.0505051,    0.0000000,    0.0000000 ]
  distance:    0.0185325
  band:
  - # 1
    frequency:   -0.2920550577
  - # 2
    frequency:    0.8446974681
  - # 3
    frequency:    1.3526322832
  - # 4
    frequency:    1.5761409481
  - # 5
    frequency:    1.7814733320
  - # 6
    frequency:    5.4638592287
  - # 7
    frequency:    5.5234648922
  - # 8
    frequency:    7.4855518061
  - # 9
    frequency:    8.3591978446
  - # 10
    frequency:    8.4781036014
  - # 11
    frequency:    8.8803620518
  - # 12
    frequency:    8.9647269956
  - # 13
    frequency:   10.7608031763
  - # 14
    frequency:   13.6808329560
  - # 15
    frequency:   13.9199135755
  - # 16
    frequency:   14.1497871887
  - # 17
    frequency:   16.3855702350
  - # 18
    frequency:   17.8017949327
  - # 19
    frequency:   17.8375661686
  - # 20
    frequency:   61.2691570874
  - # 21
    frequency:  111.6105967220

- q-position: [    0.0555556,    0.0000000,    0.0000000 ]
  distance:    0.0203858
  band:
  - # 1
    frequency:   -0.2444281482
  - # 2
    frequency:    0.9236422225
  - # 3
    frequency:    1.4520127033
  - # 4
    frequency:    1.5802710947
  - # 5
    frequency:    1.8383709243
  - # 6
    frequency:    5.4563634931
  - # 7
    frequency:    5.5291928736
  - # 8
    frequency:    7.4797205539
  - # 9
    frequency:    8.3504911567
  - # 10
    frequency:    8.4919571056
  - # 11
    frequency:    8.8825665813
  - # 12
    frequency:    8.9841564814
  - # 13
    frequency:   10.7511584710
  - # 14
    frequency:   13.6427797539
  - # 15
    frequency:   13.9185998071
  - # 16
    frequency:   14.1592436704
  - # 17
    frequency:   16.3809944996
  - # 18
    frequency:   17.7969978451
  - # 19
    frequency:   17.8394218651
  - # 20
    frequency:   61.2670509167
  - # 21
    frequency:  111.5961553338

- q-position: [    0.0606061,    0.0000000,    0.0000000 ]
  distance:    0.0222390
  band:
  - # 1
    frequency:   -0.1690550620
  - # 2
    frequency:    0.9999661421
  - # 3
    frequency:    1.5394196204
  - # 4
    frequency:    1.5864759098
  - # 5
    frequency:    1.9088649338
  - # 6
    frequency:    5.4483233563
  - # 7
    frequency:    5.5358675699
  - # 8
    frequency:    7.4736933337
  - # 9
    frequency:    8.3411915262
  - # 10
    frequency:    8.5065851122
  - # 11
    frequency:    8.8848612695
  - # 12
    frequency:    9.0050592827
  - # 13
    frequency:   10.7407657152
  - # 14
    frequency:   13.6034130656
  - # 15
    frequency:   13.9174167045
  - # 16
    frequency:   14.1685043358
  - # 17
    frequency:   16.3758786371
  - # 18
    frequency:   17.7919850280
  - # 19
    frequency:   17.8413773757
  - # 20
    frequency:   61.2647637814
  - # 21
    frequency:  111.5808952943

- q-position: [    0.0656566,    0.0000000,    0.0000000 ]
  distance:    0.0240923
  band:
  - # 1
    frequency:    0.0919630010
  - # 2
    frequency:    1.0726612890
  - # 3
    frequency:    1.5957252764
  - # 4
    frequency:    1.6135303138
  - # 5
    frequency:    1.9939706558
  - # 6
    frequency:    5.4397847711
  - # 7
    frequency:    5.5435725053
  - # 8
    frequency:    7.4675339410
  - # 9
    frequency:    8.3313507404
  - # 10
    frequency:    8.5219033456
  - # 11
    frequency:    8.8872231377
  - # 12
    frequency:    9.0273178732
  - # 13
    frequency:   10.7296708794
  - # 14
    frequency:   13.5629106313
  - # 15
    frequency:   13.9164261070
  - # 16
    frequency:   14.1776985368
  - # 17
    frequency:   16.3702051172
  - # 18
    frequency:   17.7868101191
  - # 19
    frequency:   17.8434125751
  - # 20
    frequency:   61.2623007547
  - # 21
    frequency:  111.5649555079

- q-position: [    0.0707071,    0.0000000,    0.0000000 ]
  distance:    0.0259455
  band:
  - # 1
    frequency:    0.2272216317
  - # 2
    frequency:    1.1403093526
  - # 3
    frequency:    1.6093999938
  - # 4
    frequency:    1.6757904294
  - # 5
    frequency:    2.0919743185
  - # 6
    frequency:    5.4307974633
  - # 7
    frequency:    5.5523888284
  - # 8
    frequency:    7.4613032166
  - # 9
    frequency:    8.3210211390
  - # 10
    frequency:    8.5378366272
  - # 11
    frequency:    8.8896299519
  - # 12
    frequency:    9.0508025541
  - # 13
    frequency:   10.7179236205
  - # 14
    frequency:   13.5214549563
  - # 15
    frequency:   13.9156919646
  - # 16
    frequency:   14.1869672530
  - # 17
    frequency:   16.3639589544
  - # 18
    frequency:   17.7815266475
  - # 19
    frequency:   17.8455059299
  - # 20
    frequency:   61.2596672353
  - # 21
    frequency:  111.5484815651

- q-position: [    0.0757576,    0.0000000,    0.0000000 ]
  distance:    0.0277988
  band:
  - # 1
    frequency:    0.3181132863
  - # 2
    frequency:    1.2010547423
  - # 3
    frequency:    1.6293186716
  - # 4
    frequency:    1.7293017818
  - # 5
    frequency:    2.1995431791
  - # 6
    frequency:    5.4214148146
  - # 7
    frequency:    5.5623937282
  - # 8
    frequency:    7.4550590587
  - # 9
    frequency:    8.3102552091
  - # 10
    frequency:    8.5543188109
  - # 11
    frequency:    8.8920603670
  - # 12
    frequency:    9.0753726476
  - # 13
    frequency:   10.7055771523
  - # 14
    frequency:   13.4792327584
  - # 15
    frequency:   13.9152796207
  - # 16
    frequency:   14.1964611552
  - # 17
    frequency:   16.3571283631
  - # 18
    frequency:   17.7761871319
  - # 19
    frequency:   17.8476345701
  - # 20
    frequency:   61.2568689211
  - # 21
    frequency:  111.5316245240

- q-position: [    0.0808081,    0.0000000,    0.0000000 ]
  distance:    0.0296520
  band:
  - # 1
    frequency:    0.3967360335
  - # 2
    frequency:    1.2528460844
  - # 3
    frequency:    1.6574962727
  - # 4
    frequency:    1.7770819547
  - # 5
    frequency:    2.3134629478
  - # 6
    frequency:    5.4116937150
  - # 7
    frequency:    5.5736589777
  - # 8
    frequency:    7.4488566624
  - # 9
    frequency:    8.2991052421
  - # 10
    frequency:    8.5712922058
  - # 11
    frequency:    8.8944940064
  - # 12
    frequency:    9.1008779705
  - # 13
    frequency:   10.6926880812
  - # 14
    frequency:   13.4364334426
  - # 15
    frequency:   13.9152550746
  - # 16
    frequency:   14.2063394857
  - # 17
    frequency:   16.3497053417
  - # 18
    frequency:   17.7708422181
  - # 19
    frequency:   17.8497743618
  - # 20
    frequency:   61.2539117818
  - # 21
    frequency:  111.5145396458

- q-position: [    0.0858586,    0.0000000,    0.0000000 ]
  distance:    0.0315053
  band:
  - # 1
    frequency:    0.4695338670
  - # 2
    frequency:    1.2941145020
  - # 3
    frequency:    1.6954659284
  - # 4
    frequency:    1.8213307992
  - # 5
    frequency:    2.4313679355
  - # 6
    frequency:    5.4016943774
  - # 7
    frequency:    5.5862496325
  - # 8
    frequency:    7.4427489257
  - # 9
    frequency:    8.2876230418
  - # 10
    frequency:    8.5887066320
  - # 11
    frequency:    8.8969114873
  - # 12
    frequency:    9.1271605005
  - # 13
    frequency:   10.6793162005
  - # 14
    frequency:   13.3932469632
  - # 15
    frequency:   13.9156842320
  - # 16
    frequency:   14.2167694108
  - # 17
    frequency:   16.3416861702
  - # 18
    frequency:   17.7655398769
  - # 19
    frequency:   17.8518999823
  - # 20
    frequency:   61.2508020313
  - # 21
    frequency:  111.4973850927

- q-position: [    0.0909091,    0.0000000,    0.0000000 ]
  distance:    0.0333585
  band:
  - # 1
    frequency:    0.5390559136
  - # 2
    frequency:    1.3245852099
  - # 3
    frequency:    1.7434674891
  - # 4
    frequency:    1.8634815652
  - # 5
    frequency:    2.5516864266
  - # 6
    frequency:    5.3914801140
  - # 7
    frequency:    5.6002229015
  - # 8
    frequency:    7.4367869698
  - # 9
    frequency:    8.2758596730
  - # 10
    frequency:    8.6065182437
  - # 11
    frequency:    8.8992944063
  - # 12
    frequency:    9.1540561502
  - # 13
    frequency:   10.6655242368
  - # 14
    frequency:   13.3498613189
  - # 15
    frequency:   13.9166321498
  - # 16
    frequency:   14.2279256197
  - # 17
    frequency:   16.3330718069
  - # 18
    frequency:   17.7603246805
  - # 19
    frequency:   17.8539849950
  - # 20
    frequency:   61.2475460991
  - # 21
    frequency:  111.4803206009

- q-position: [    0.0959596,    0.0000000,    0.0000000 ]
  distance:    0.0352118
  band:
  - # 1
    frequency:    0.6065705760
  - # 2
    frequency:    1.3454338570
  - # 3
    frequency:    1.8002913784
  - # 4
    frequency:    1.9044446005
  - # 5
    frequency:    2.6733934582
  - # 6
    frequency:    5.3811170682
  - # 7
    frequency:    5.6156272032
  - # 8
    frequency:    7.4310207303
  - # 9
    frequency:    8.2638652443
  - # 10
    frequency:    8.6246882372
  - # 11
    frequency:    8.9016252954
  - # 12
    frequency:    9.1813965778
  - # 13
    frequency:   10.6513775393
  - # 14
    frequency:   13.3064598626
  - # 15
    frequency:   13.9181622833
  - # 16
    frequency:   14.2399900117
  - # 17
    frequency:   16.3238681729
  - # 18
    frequency:   17.7552371744
  - # 19
    frequency:   17.8560019271
  - # 20
    frequency:   61.2441506010
  - # 21
    frequency:  111.4635061382

- q-position: [    0.1010101,    0.0000000,    0.0000000 ]
  distance:    0.0370650
  band:
  - # 1
    frequency:    0.6727886475
  - # 2
    frequency:    1.3586054104
  - # 3
    frequency:    1.8639599565
  - # 4
    frequency:    1.9448086799
  - # 5
    frequency:    2.7958059978
  - # 6
    frequency:    5.3706739016
  - # 7
    frequency:    5.6325014136
  - # 8
    frequency:    7.4254995817
  - # 9
    frequency:    8.2516887153
  - # 10
    frequency:    8.6431815307
  - # 11
    frequency:    8.9038875595
  - # 12
    frequency:    9.2090109879
  - # 13
    frequency:   10.6369437031
  - # 14
    frequency:   13.2632185690
  - # 15
    frequency:   13.9203357436
  - # 16
    frequency:   14.2531513560
  - # 17
    frequency:   16.3140863184
  - # 18
    frequency:   17.7503133556
  - # 19
    frequency:   17.8579223473
  - # 20
    frequency:   61.2406223100
  - # 21
    frequency:  111.4471005592

- q-position: [    0.1060606,    0.0000000,    0.0000000 ]
  distance:    0.0389183
  band:
  - # 1
    frequency:    0.7381366253
  - # 2
    frequency:    1.3660254797
  - # 3
    frequency:    1.9325164920
  - # 4
    frequency:    1.9849704150
  - # 5
    frequency:    2.9184501006
  - # 6
    frequency:    5.3602214337
  - # 7
    frequency:    5.6508743040
  - # 8
    frequency:    7.4202729717
  - # 9
    frequency:    8.2393777238
  - # 10
    frequency:    8.6619654787
  - # 11
    frequency:    8.9060654034
  - # 12
    frequency:    9.2367278935
  - # 13
    frequency:   10.6222921175
  - # 14
    frequency:   13.2203033855
  - # 15
    frequency:   13.9232105719
  - # 16
    frequency:   14.2676048295
  - # 17
    frequency:   16.3037424675
  - # 18
    frequency:   17.7455842677
  - # 19
    frequency:   17.8597169468
  - # 20
    frequency:   61.2369681275
  - # 21
    frequency:  111.4312602693

- q-position: [    0.1111111,    0.0000000,    0.0000000 ]
  distance:    0.0407715
  band:
  - # 1
    frequency:    0.8028803925
  - # 2
    frequency:    1.3692236304
  - # 3
    frequency:    2.0044021907
  - # 4
    frequency:    2.0252114530
  - # 5
    frequency:    3.0409803568
  - # 6
    frequency:    5.3498322340
  - # 7
    frequency:    5.6707641623
  - # 8
    frequency:    7.4153910427
  - # 9
    frequency:    8.2269784278
  - # 10
    frequency:    8.6810086549
  - # 11
    frequency:    8.9081437549
  - # 12
    frequency:    9.2643768356
  - # 13
    frequency:   10.6074934282
  - # 14
    frequency:   13.1778677737
  - # 15
    frequency:   13.9268410393
  - # 16
    frequency:   14.2835513617
  - # 17
    frequency:   16.2928579451
  - # 18
    frequency:   17.7410757153
  - # 19
    frequency:   17.8613556205
  - # 20
    frequency:   61.2331950534
  - # 21
    frequency:  111.4161379079

- q-position: [    0.1161616,    0.0000000,    0.0000000 ]
  distance:    0.0426248
  band:
  - # 1
    frequency:    0.8671882722
  - # 2
    frequency:    1.3692984958
  - # 3
    frequency:    2.0657436907
  - # 4
    frequency:    2.0784914710
  - # 5
    frequency:    3.1631314248
  - # 6
    frequency:    5.3395801675
  - # 7
    frequency:    5.6921785859
  - # 8
    frequency:    7.4109052302
  - # 9
    frequency:    8.2145353599
  - # 10
    frequency:    8.7002797183
  - # 11
    frequency:    8.9101081904
  - # 12
    frequency:    9.2917900714
  - # 13
    frequency:   10.5926189041
  - # 14
    frequency:   13.1360505396
  - # 15
    frequency:   13.9312769775
  - # 16
    frequency:   14.3011967220
  - # 17
    frequency:   16.2814589908
  - # 18
    frequency:   17.7368080982
  - # 19
    frequency:   17.8628075524
  - # 20
    frequency:   61.2293101581
  - # 21
    frequency:  111.4018810640

- q-position: [    0.1212121,    0.0000000,    0.0000000 ]
  distance:    0.0444780
  band:
  - # 1
    frequency:    0.9311659950
  - # 2
    frequency:    1.3670099565
  - # 3
    frequency:    2.1067357744
  - # 4
    frequency:    2.1540002111
  - # 5
    frequency:    3.2846884034
  - # 6
    frequency:    5.3295398963
  - # 7
    frequency:    5.7151144304
  - # 8
    frequency:    7.4068688259
  - # 9
    frequency:    8.2020912909
  - # 10
    frequency:    8.7197463628
  - # 11
    frequency:    8.9119448655
  - # 12
    frequency:    9.3188042552
  - # 13
    frequency:   10.5777396983
  - # 14
    frequency:   13.0949740393
  - # 15
    frequency:   13.9365631484
  - # 16
    frequency:   14.3207503036
  - # 17
    frequency:   16.2695764729
  - # 18
    frequency:   17.7327963613
  - # 19
    frequency:   17.8640413028
  - # 20
    frequency:   61.2253205539
  - # 21
    frequency:  111.3886310343

- q-position: [    0.1262626,    0.0000000,    0.0000000 ]
  distance:    0.0463313
  band:
  - # 1
    frequency:    0.9948773015
  - # 2
    frequency:    1.3628814333
  - # 3
    frequency:    2.1483286973
  - # 4
    frequency:    2.2303839150
  - # 5
    frequency:    3.4054682594
  - # 6
    frequency:    5.3197863429
  - # 7
    frequency:    5.7395578950
  - # 8
    frequency:    7.4033375019
  - # 9
    frequency:    8.1896871026
  - # 10
    frequency:    8.7393743375
  - # 11
    frequency:    8.9136404536
  - # 12
    frequency:    9.3452621454
  - # 13
    frequency:   10.5629259960
  - # 14
    frequency:   13.0547428317
  - # 15
    frequency:   13.9427386591
  - # 16
    frequency:   14.3424235696
  - # 17
    frequency:   16.2572455148
  - # 18
    frequency:   17.7290500507
  - # 19
    frequency:   17.8650248996
  - # 20
    frequency:   61.2212333678
  - # 21
    frequency:  111.3765216353

- q-position: [    0.1313131,    0.0000000,    0.0000000 ]
  distance:    0.0481845
  band:
  - # 1
    frequency:    1.0583566112
  - # 2
    frequency:    1.3572785713
  - # 3
    frequency:    2.1906449859
  - # 4
    frequency:    2.3072595131
  - # 5
    frequency:    3.5253078548
  - # 6
    frequency:    5.3103941195
  - # 7
    frequency:    5.7654847245
  - # 8
    frequency:    7.4003697892
  - # 9
    frequency:    8.1773616690
  - # 10
    frequency:    8.7591265235
  - # 11
    frequency:    8.9151820955
  - # 12
    frequency:    9.3710143690
  - # 13
    frequency:   10.5482460438
  - # 14
    frequency:   13.0154428343
  - # 15
    frequency:   13.9498364264
  - # 16
    frequency:   14.3664281413
  - # 17
    frequency:   16.2445050523
  - # 18
    frequency:   17.7255734675
  - # 19
    frequency:   17.8657259336
  - # 20
    frequency:   61.2170557145
  - # 21
    frequency:  111.3656780798

- q-position: [    0.1363636,    0.0000000,    0.0000000 ]
  distance:    0.0500378
  band:
  - # 1
    frequency:    1.1216170284
  - # 2
    frequency:    1.3504631791
  - # 3
    frequency:    2.2337940652
  - # 4
    frequency:    2.3843519216
  - # 5
    frequency:    3.6440560183
  - # 6
    frequency:    5.3014369335
  - # 7
    frequency:    5.7928605078
  - # 8
    frequency:    7.3980275077
  - # 9
    frequency:    8.1651517453
  - # 10
    frequency:    8.7789620487
  - # 11
    frequency:    8.9165573588
  - # 12
    frequency:    9.3959212739
  - # 13
    frequency:   10.5337650635
  - # 14
    frequency:   12.9771410171
  - # 15
    frequency:   13.9578826994
  - # 16
    frequency:   14.3929735292
  - # 17
    frequency:   16.2313973388
  - # 18
    frequency:   17.7223659048
  - # 19
    frequency:   17.8661116585
  - # 20
    frequency:   61.2127946711
  - # 21
    frequency:  111.3562159278

- q-position: [    0.1414141,    0.0000000,    0.0000000 ]
  distance:    0.0518911
  band:
  - # 1
    frequency:    1.1846554679
  - # 2
    frequency:    1.3426288126
  - # 3
    frequency:    2.2778753301
  - # 4
    frequency:    2.4614589587
  - # 5
    frequency:    3.7615681693
  - # 6
    frequency:    5.2929869794
  - # 7
    frequency:    5.8216410516
  - # 8
    frequency:    7.3963761398
  - # 9
    frequency:    8.1530918652
  - # 10
    frequency:    8.7988354273
  - # 11
    frequency:    8.9177542092
  - # 12
    frequency:    9.4198548848
  - # 13
    frequency:   10.5195440607
  - # 14
    frequency:   12.9398856454
  - # 15
    frequency:   13.9668966414
  - # 16
    frequency:   14.4222645252
  - # 17
    frequency:   16.2179674198
  - # 18
    frequency:   17.7194219553
  - # 19
    frequency:   17.8661490957
  - # 20
    frequency:   61.2084572523
  - # 21
    frequency:  111.3482401217

- q-position: [    0.1464646,    0.0000000,    0.0000000 ]
  distance:    0.0537443
  band:
  - # 1
    frequency:    1.2474559316
  - # 2
    frequency:    1.3339241029
  - # 3
    frequency:    2.3229798372
  - # 4
    frequency:    2.5384285031
  - # 5
    frequency:    3.8777026129
  - # 6
    frequency:    5.2851143273
  - # 7
    frequency:    5.8517728125
  - # 8
    frequency:    7.3954851407
  - # 9
    frequency:    8.1412142480
  - # 10
    frequency:    8.8186957133
  - # 11
    frequency:    8.9187609929
  - # 12
    frequency:    9.4427009631
  - # 13
    frequency:   10.5056385539
  - # 14
    frequency:   12.9037070577
  - # 15
    frequency:   13.9768899785
  - # 16
    frequency:   14.4544982962
  - # 17
    frequency:   16.2042625931
  - # 18
    frequency:   17.7167318768
  - # 19
    frequency:   17.8658051451
  - # 20
    frequency:   61.2040503874
  - # 21
    frequency:  111.3418441138

- q-position: [    0.1515152,    0.0000000,    0.0000000 ]
  distance:    0.0555976
  band:
  - # 1
    frequency:    1.3099915746
  - # 2
    frequency:    1.3244681811
  - # 3
    frequency:    2.3691911746
  - # 4
    frequency:    2.6151435256
  - # 5
    frequency:    3.9923179732
  - # 6
    frequency:    5.2778863248
  - # 7
    frequency:    5.8831933718
  - # 8
    frequency:    7.3954281720
  - # 9
    frequency:    8.1295487144
  - # 10
    frequency:    8.8384856681
  - # 11
    frequency:    8.9195664294
  - # 12
    frequency:    9.4643611424
  - # 13
    frequency:   10.4920972692
  - # 14
    frequency:   12.8686189345
  - # 15
    frequency:   13.9878667162
  - # 16
    frequency:   14.4898612409
  - # 17
    frequency:   16.1903318741
  - # 18
    frequency:   17.7142820025
  - # 19
    frequency:   17.8650467025
  - # 20
    frequency:   61.1995808982
  - # 21
    frequency:  111.3371090941
