nqpoint: 300    
npath: 3      
segment_nqpoint:
- 100
- 100
- 100
labels:
- [ 'G', 'M' ]
- [ 'M', 'K' ]
- [ 'K', 'G' ]
reciprocal_lattice:
- [   0.29946861,   0.17289828,   0.00000000 ] # a*
- [   0.00000000,   0.34579657,   0.00000000 ] # b*
- [   0.00000000,   0.00000000,   0.03636565 ] # c*
natom: 7      
lattice:
- [     3.339248128163208,     0.000000000000000,     0.000000000000000 ] # a
- [    -1.669624064081604,     2.891873708523059,     0.000000000000000 ] # b
- [     0.000000000000000,     0.000000000000000,    27.498475266714319 ] # c
points:
- symbol: C # 1
  coordinates: [  0.000000000000000,  0.000000000000000,  0.500000030466138 ]
  mass: 12.010700
- symbol: O # 2
  coordinates: [  0.333332985432215,  0.666666983183674,  0.672709126134928 ]
  mass: 15.999400
- symbol: O # 3
  coordinates: [  0.666666984744047,  0.333332985985145,  0.327290873865072 ]
  mass: 15.999400
- symbol: P # 4
  coordinates: [  0.333332985432215,  0.666666983183674,  0.618390441875860 ]
  mass: 30.973762
- symbol: P # 5
  coordinates: [  0.666666984744047,  0.333332985985145,  0.381609558124140 ]
  mass: 30.973762
- symbol: Sc # 6
  coordinates: [  0.333332985432215,  0.666666983183674,  0.456076527804465 ]
  mass: 44.955912
- symbol: Sc # 7
  coordinates: [  0.666666984744047,  0.333332985985145,  0.543923471740808 ]
  mass: 44.955912

phonon:
- q-position: [    0.0000000,    0.0000000,    0.0000000 ]
  distance:    0.0000000
  band:
  - # 1
    frequency:   -1.9323128282
  - # 2
    frequency:   -1.9323128282
  - # 3
    frequency:   -0.0000138234
  - # 4
    frequency:   -0.0000005417
  - # 5
    frequency:    0.0000087351
  - # 6
    frequency:    2.9167574919
  - # 7
    frequency:    2.9167574919
  - # 8
    frequency:    4.1410538408
  - # 9
    frequency:    5.1293666645
  - # 10
    frequency:    5.1293666645
  - # 11
    frequency:    5.3993117229
  - # 12
    frequency:    5.3993117229
  - # 13
    frequency:    6.2476497303
  - # 14
    frequency:    6.5397333800
  - # 15
    frequency:    6.5397333801
  - # 16
    frequency:    9.5476077551
  - # 17
    frequency:   14.0624872260
  - # 18
    frequency:   14.0624872260
  - # 19
    frequency:   16.0298790286
  - # 20
    frequency:   34.1663611408
  - # 21
    frequency:   34.1891838611

- q-position: [    0.0050505,    0.0000000,    0.0000000 ]
  distance:    0.0017464
  band:
  - # 1
    frequency:   -1.9349049299
  - # 2
    frequency:   -1.9320615171
  - # 3
    frequency:    0.0020770502
  - # 4
    frequency:    0.0858509254
  - # 5
    frequency:    0.1073600444
  - # 6
    frequency:    2.9156512852
  - # 7
    frequency:    2.9158956062
  - # 8
    frequency:    4.1418118522
  - # 9
    frequency:    5.1270404050
  - # 10
    frequency:    5.1287843926
  - # 11
    frequency:    5.3979680314
  - # 12
    frequency:    5.3987693081
  - # 13
    frequency:    6.2430641126
  - # 14
    frequency:    6.5401617129
  - # 15
    frequency:    6.5462735995
  - # 16
    frequency:    9.5478237432
  - # 17
    frequency:   14.0621486216
  - # 18
    frequency:   14.0631896348
  - # 19
    frequency:   16.0286511836
  - # 20
    frequency:   34.1661602217
  - # 21
    frequency:   34.1889753620

- q-position: [    0.0101010,    0.0000000,    0.0000000 ]
  distance:    0.0034929
  band:
  - # 1
    frequency:   -1.9426619466
  - # 2
    frequency:   -1.9313035601
  - # 3
    frequency:    0.0082746268
  - # 4
    frequency:    0.1715550402
  - # 5
    frequency:    0.2142563721
  - # 6
    frequency:    2.9123533038
  - # 7
    frequency:    2.9133133922
  - # 8
    frequency:    4.1440608864
  - # 9
    frequency:    5.1201233316
  - # 10
    frequency:    5.1270398750
  - # 11
    frequency:    5.3939543107
  - # 12
    frequency:    5.3971443447
  - # 13
    frequency:    6.2304677334
  - # 14
    frequency:    6.5414448894
  - # 15
    frequency:    6.5646862207
  - # 16
    frequency:    9.5484696014
  - # 17
    frequency:   14.0611322050
  - # 18
    frequency:   14.0652955868
  - # 19
    frequency:   16.0249699731
  - # 20
    frequency:   34.1655576811
  - # 21
    frequency:   34.1883500916

- q-position: [    0.0151515,    0.0000000,    0.0000000 ]
  distance:    0.0052393
  band:
  - # 1
    frequency:   -1.9555287473
  - # 2
    frequency:   -1.9300273806
  - # 3
    frequency:    0.0185237123
  - # 4
    frequency:    0.2569685799
  - # 5
    frequency:    0.3202353449
  - # 6
    frequency:    2.9069256143
  - # 7
    frequency:    2.9090211857
  - # 8
    frequency:    4.1477265026
  - # 9
    frequency:    5.1087980906
  - # 10
    frequency:    5.1241399771
  - # 11
    frequency:    5.3873225469
  - # 12
    frequency:    5.3944436528
  - # 13
    frequency:    6.2124036375
  - # 14
    frequency:    6.5435774776
  - # 15
    frequency:    6.5922879600
  - # 16
    frequency:    9.5495390345
  - # 17
    frequency:   14.0594361878
  - # 18
    frequency:   14.0688012487
  - # 19
    frequency:   16.0188423847
  - # 20
    frequency:   34.1645541697
  - # 21
    frequency:   34.1873087298

- q-position: [    0.0202020,    0.0000000,    0.0000000 ]
  distance:    0.0069858
  band:
  - # 1
    frequency:   -1.9734213511
  - # 2
    frequency:   -1.9282152794
  - # 3
    frequency:    0.0327023074
  - # 4
    frequency:    0.3419535704
  - # 5
    frequency:    0.4248585901
  - # 6
    frequency:    2.8994723705
  - # 7
    frequency:    2.9030362383
  - # 8
    frequency:    4.1526863838
  - # 9
    frequency:    5.0933609096
  - # 10
    frequency:    5.1200960428
  - # 11
    frequency:    5.3781591621
  - # 12
    frequency:    5.3906785244
  - # 13
    frequency:    6.1913172231
  - # 14
    frequency:    6.5465505329
  - # 15
    frequency:    6.6264077715
  - # 16
    frequency:    9.5510216306
  - # 17
    frequency:   14.0570576627
  - # 18
    frequency:   14.0737001958
  - # 19
    frequency:   16.0102801125
  - # 20
    frequency:   34.1631507710
  - # 21
    frequency:   34.1858524093

- q-position: [    0.0252525,    0.0000000,    0.0000000 ]
  distance:    0.0087322
  band:
  - # 1
    frequency:   -1.9962352108
  - # 2
    frequency:   -1.9258456451
  - # 3
    frequency:    0.0506366634
  - # 4
    frequency:    0.4263800115
  - # 5
    frequency:    0.5276999922
  - # 6
    frequency:    2.8901415846
  - # 7
    frequency:    2.8953827620
  - # 8
    frequency:    4.1587725900
  - # 9
    frequency:    5.0742095873
  - # 10
    frequency:    5.1149237512
  - # 11
    frequency:    5.3665847929
  - # 12
    frequency:    5.3858646176
  - # 13
    frequency:    6.1689372867
  - # 14
    frequency:    6.5503517554
  - # 15
    frequency:    6.6650175568
  - # 16
    frequency:    9.5529029772
  - # 17
    frequency:   14.0539927118
  - # 18
    frequency:   14.0799833556
  - # 19
    frequency:   15.9992996305
  - # 20
    frequency:   34.1613490012
  - # 21
    frequency:   34.1839827142

- q-position: [    0.0303030,    0.0000000,    0.0000000 ]
  distance:    0.0104787
  band:
  - # 1
    frequency:   -2.0238515661
  - # 2
    frequency:   -1.9228957228
  - # 3
    frequency:    0.0720992091
  - # 4
    frequency:    0.5101273172
  - # 5
    frequency:    0.6283334905
  - # 6
    frequency:    2.8791289292
  - # 7
    frequency:    2.8860920089
  - # 8
    frequency:    4.1657740605
  - # 9
    frequency:    5.0518274342
  - # 10
    frequency:    5.1086429209
  - # 11
    frequency:    5.3527542082
  - # 12
    frequency:    5.3800218183
  - # 13
    frequency:    6.1463171545
  - # 14
    frequency:    6.5549656958
  - # 15
    frequency:    6.7067065007
  - # 16
    frequency:    9.5551648190
  - # 17
    frequency:   14.0502365548
  - # 18
    frequency:   14.0876389237
  - # 19
    frequency:   15.9859223015
  - # 20
    frequency:   34.1591508077
  - # 21
    frequency:   34.1817016788

- q-position: [    0.0353535,    0.0000000,    0.0000000 ]
  distance:    0.0122251
  band:
  - # 1
    frequency:   -2.0561397836
  - # 2
    frequency:   -1.9193446892
  - # 3
    frequency:    0.0968067872
  - # 4
    frequency:    0.5930849204
  - # 5
    frequency:    0.7263125094
  - # 6
    frequency:    2.8666847067
  - # 7
    frequency:    2.8752024043
  - # 8
    frequency:    4.1734389090
  - # 9
    frequency:    5.0267642214
  - # 10
    frequency:    5.1012772694
  - # 11
    frequency:    5.3368565871
  - # 12
    frequency:    5.3731740820
  - # 13
    frequency:    6.1240382312
  - # 14
    frequency:    6.5603739989
  - # 15
    frequency:    6.7504954100
  - # 16
    frequency:    9.5577852514
  - # 17
    frequency:   14.0457837336
  - # 18
    frequency:   14.0966522439
  - # 19
    frequency:   15.9701745245
  - # 20
    frequency:   34.1565585683
  - # 21
    frequency:   34.1790117856

- q-position: [    0.0404040,    0.0000000,    0.0000000 ]
  distance:    0.0139716
  band:
  - # 1
    frequency:   -2.0929553276
  - # 2
    frequency:   -1.9151767956
  - # 3
    frequency:    0.1244193234
  - # 4
    frequency:    0.6751520271
  - # 5
    frequency:    0.8211426704
  - # 6
    frequency:    2.8531251818
  - # 7
    frequency:    2.8627597597
  - # 8
    frequency:    4.1814761588
  - # 9
    frequency:    4.9996155344
  - # 10
    frequency:    5.0928541333
  - # 11
    frequency:    5.3191163785
  - # 12
    frequency:    5.3653492622
  - # 13
    frequency:    6.1023828038
  - # 14
    frequency:    6.5665556720
  - # 15
    frequency:    6.7956825353
  - # 16
    frequency:    9.5607389437
  - # 17
    frequency:   14.0406283299
  - # 18
    frequency:   14.1070056463
  - # 19
    frequency:   15.9520879293
  - # 20
    frequency:   34.1535750886
  - # 21
    frequency:   34.1759159627

- q-position: [    0.0454545,    0.0000000,    0.0000000 ]
  distance:    0.0157180
  band:
  - # 1
    frequency:   -2.1341344811
  - # 2
    frequency:   -1.9103843779
  - # 3
    frequency:    0.1545385627
  - # 4
    frequency:    0.7562365660
  - # 5
    frequency:    0.9122494153
  - # 6
    frequency:    2.8388493222
  - # 7
    frequency:    2.8488176064
  - # 8
    frequency:    4.1895568015
  - # 9
    frequency:    4.9710019461
  - # 10
    frequency:    5.0834041583
  - # 11
    frequency:    5.2997949013
  - # 12
    frequency:    5.3565789394
  - # 13
    frequency:    6.0814509613
  - # 14
    frequency:    6.5734873654
  - # 15
    frequency:    6.8417442924
  - # 16
    frequency:    9.5639973855
  - # 17
    frequency:   14.0347642098
  - # 18
    frequency:   14.1186782303
  - # 19
    frequency:   15.9316996280
  - # 20
    frequency:   34.1502036011
  - # 21
    frequency:   34.1724175812

- q-position: [    0.0505051,    0.0000000,    0.0000000 ]
  distance:    0.0174645
  band:
  - # 1
    frequency:   -2.1794877070
  - # 2
    frequency:   -1.9049705905
  - # 3
    frequency:    0.1867058133
  - # 4
    frequency:    0.8362534025
  - # 5
    frequency:    0.9989419731
  - # 6
    frequency:    2.8243614598
  - # 7
    frequency:    2.8334377057
  - # 8
    frequency:    4.1973144194
  - # 9
    frequency:    4.9415490636
  - # 10
    frequency:    5.0729609670
  - # 11
    frequency:    5.2791927072
  - # 12
    frequency:    5.3468982565
  - # 13
    frequency:    6.0612357480
  - # 14
    frequency:    6.5811436519
  - # 15
    frequency:    6.8882753560
  - # 16
    frequency:    9.5675291498
  - # 17
    frequency:   14.0281852915
  - # 18
    frequency:   14.1316455768
  - # 19
    frequency:   15.9090525368
  - # 20
    frequency:   34.1464477616
  - # 21
    frequency:   34.1685204518

- q-position: [    0.0555556,    0.0000000,    0.0000000 ]
  distance:    0.0192109
  band:
  - # 1
    frequency:   -2.2287935918
  - # 2
    frequency:   -1.8989517764
  - # 3
    frequency:    0.2203967351
  - # 4
    frequency:    0.9151218769
  - # 5
    frequency:    1.0803755805
  - # 6
    frequency:    2.8102991503
  - # 7
    frequency:    2.8166908148
  - # 8
    frequency:    4.2043461140
  - # 9
    frequency:    4.9118688433
  - # 10
    frequency:    5.0615608130
  - # 11
    frequency:    5.2576525276
  - # 12
    frequency:    5.3363457686
  - # 13
    frequency:    6.0416713053
  - # 14
    frequency:    6.5894972978
  - # 15
    frequency:    6.9349525217
  - # 16
    frequency:    9.5713001649
  - # 17
    frequency:   14.0208858291
  - # 18
    frequency:   14.1458793706
  - # 19
    frequency:   15.8841957880
  - # 20
    frequency:   34.1423116470
  - # 21
    frequency:   34.1642288207

- q-position: [    0.0606061,    0.0000000,    0.0000000 ]
  distance:    0.0209574
  band:
  - # 1
    frequency:   -2.2817948648
  - # 2
    frequency:   -1.8923594349
  - # 3
    frequency:    0.2550100003
  - # 4
    frequency:    0.9927626880
  - # 5
    frequency:    1.1555158927
  - # 6
    frequency:    2.7974630477
  - # 7
    frequency:    2.7986578232
  - # 8
    frequency:    4.2102150993
  - # 9
    frequency:    4.8825417896
  - # 10
    frequency:    5.0492422311
  - # 11
    frequency:    5.2355623547
  - # 12
    frequency:    5.3249633124
  - # 13
    frequency:    6.0226637895
  - # 14
    frequency:    6.5985195146
  - # 15
    frequency:    6.9815122999
  - # 16
    frequency:    9.5752739905
  - # 17
    frequency:   14.0128607061
  - # 18
    frequency:   14.1613469030
  - # 19
    frequency:   15.8571852563
  - # 20
    frequency:   34.1377997517
  - # 21
    frequency:   34.1595473660

- q-position: [    0.0656566,    0.0000000,    0.0000000 ]
  distance:    0.0227038
  band:
  - # 1
    frequency:   -2.3381973247
  - # 2
    frequency:   -1.8852417862
  - # 3
    frequency:    0.2898448450
  - # 4
    frequency:    1.0690940734
  - # 5
    frequency:    1.2231139845
  - # 6
    frequency:    2.7794314198
  - # 7
    frequency:    2.7868412730
  - # 8
    frequency:    4.2144569708
  - # 9
    frequency:    4.8540989963
  - # 10
    frequency:    5.0360456911
  - # 11
    frequency:    5.2133578611
  - # 12
    frequency:    5.3127958962
  - # 13
    frequency:    6.0041110858
  - # 14
    frequency:    6.6081801894
  - # 15
    frequency:    7.0277364583
  - # 16
    frequency:    9.5794120914
  - # 17
    frequency:   14.0041057340
  - # 18
    frequency:   14.1780104206
  - # 19
    frequency:   15.8280842346
  - # 20
    frequency:   34.1329169837
  - # 21
    frequency:   34.1544811919

- q-position: [    0.0707071,    0.0000000,    0.0000000 ]
  distance:    0.0244503
  band:
  - # 1
    frequency:   -2.3976718493
  - # 2
    frequency:   -1.8776649479
  - # 3
    frequency:    0.3240594433
  - # 4
    frequency:    1.1440271434
  - # 5
    frequency:    1.2817076376
  - # 6
    frequency:    2.7591185221
  - # 7
    frequency:    2.7796143613
  - # 8
    frequency:    4.2165920939
  - # 9
    frequency:    4.8270027671
  - # 10
    frequency:    5.0220132641
  - # 11
    frequency:    5.1915229242
  - # 12
    frequency:    5.2998916096
  - # 13
    frequency:    5.9859150927
  - # 14
    frequency:    6.6184480902
  - # 15
    frequency:    7.0734422768
  - # 16
    frequency:    9.5836741054
  - # 17
    frequency:   13.9946179469
  - # 18
    frequency:   14.1958262688
  - # 19
    frequency:   15.7969643078
  - # 20
    frequency:   34.1276686605
  - # 21
    frequency:   34.1490358241

- q-position: [    0.0757576,    0.0000000,    0.0000000 ]
  distance:    0.0261967
  band:
  - # 1
    frequency:   -2.4598591657
  - # 2
    frequency:   -1.8697137531
  - # 3
    frequency:    0.3565961948
  - # 4
    frequency:    1.2174600982
  - # 5
    frequency:    1.3296734381
  - # 6
    frequency:    2.7378437973
  - # 7
    frequency:    2.7771201593
  - # 8
    frequency:    4.2161462844
  - # 9
    frequency:    4.8016252080
  - # 10
    frequency:    5.0071883079
  - # 11
    frequency:    5.1705865226
  - # 12
    frequency:    5.2863015515
  - # 13
    frequency:    5.9679890505
  - # 14
    frequency:    6.6292910460
  - # 15
    frequency:    7.1184756938
  - # 16
    frequency:    9.5880181007
  - # 17
    frequency:   13.9843958886
  - # 18
    frequency:   14.2147437617
  - # 19
    frequency:   15.7639064894
  - # 20
    frequency:   34.1220605035
  - # 21
    frequency:   34.1432172036

- q-position: [    0.0808081,    0.0000000,    0.0000000 ]
  distance:    0.0279432
  band:
  - # 1
    frequency:   -2.5243767499
  - # 2
    frequency:   -1.8614922328
  - # 3
    frequency:    0.3860482396
  - # 4
    frequency:    1.2892708918
  - # 5
    frequency:    1.3653595786
  - # 6
    frequency:    2.7157547469
  - # 7
    frequency:    2.7807568130
  - # 8
    frequency:    4.2126803783
  - # 9
    frequency:    4.7782261391
  - # 10
    frequency:    4.9916151791
  - # 11
    frequency:    5.1511138456
  - # 12
    frequency:    5.2720797707
  - # 13
    frequency:    5.9502615941
  - # 14
    frequency:    6.6406761051
  - # 15
    frequency:    7.1627063006
  - # 16
    frequency:    9.5924008226
  - # 17
    frequency:   13.9734398827
  - # 18
    frequency:   14.2347036876
  - # 19
    frequency:   15.7290027129
  - # 20
    frequency:   34.1160986334
  - # 21
    frequency:   34.1370316800

- q-position: [    0.0858586,    0.0000000,    0.0000000 ]
  distance:    0.0296896
  band:
  - # 1
    frequency:   -2.5908271134
  - # 2
    frequency:   -1.8531237812
  - # 3
    frequency:    0.4104164520
  - # 4
    frequency:    1.3593076882
  - # 5
    frequency:    1.3873228720
  - # 6
    frequency:    2.6930290277
  - # 7
    frequency:    2.7918160200
  - # 8
    frequency:    4.2058261532
  - # 9
    frequency:    4.7569348377
  - # 10
    frequency:    4.9753389773
  - # 11
    frequency:    5.1336893994
  - # 12
    frequency:    5.2572832132
  - # 13
    frequency:    5.9326786861
  - # 14
    frequency:    6.6525696740
  - # 15
    frequency:    7.2060235700
  - # 16
    frequency:    9.5967779277
  - # 17
    frequency:   13.9617522834
  - # 18
    frequency:   14.2556363164
  - # 19
    frequency:   15.6923578059
  - # 20
    frequency:   34.1097895632
  - # 21
    frequency:   34.1304860046

- q-position: [    0.0909091,    0.0000000,    0.0000000 ]
  distance:    0.0314361
  band:
  - # 1
    frequency:   -2.6588067539
  - # 2
    frequency:   -1.8447510101
  - # 3
    frequency:    0.4266489436
  - # 4
    frequency:    1.3946717361
  - # 5
    frequency:    1.4273761658
  - # 6
    frequency:    2.6698849520
  - # 7
    frequency:    2.8112735936
  - # 8
    frequency:    4.1953222096
  - # 9
    frequency:    4.7377431147
  - # 10
    frequency:    4.9584053270
  - # 11
    frequency:    5.1188907084
  - # 12
    frequency:    5.2419716693
  - # 13
    frequency:    5.9152042262
  - # 14
    frequency:    6.6649376419
  - # 15
    frequency:    7.2483339442
  - # 16
    frequency:    9.6011042056
  - # 17
    frequency:   13.9493376989
  - # 18
    frequency:   14.2774587290
  - # 19
    frequency:   15.6540921292
  - # 20
    frequency:   34.1031401918
  - # 21
    frequency:   34.1235873232

- q-position: [    0.0959596,    0.0000000,    0.0000000 ]
  distance:    0.0331825
  band:
  - # 1
    frequency:   -2.7279151605
  - # 2
    frequency:   -1.8365352857
  - # 3
    frequency:    0.4297082564
  - # 4
    frequency:    1.3874944152
  - # 5
    frequency:    1.4932223793
  - # 6
    frequency:    2.6465964517
  - # 7
    frequency:    2.8396053100
  - # 8
    frequency:    4.1810410782
  - # 9
    frequency:    4.7205173277
  - # 10
    frequency:    4.9408602016
  - # 11
    frequency:    5.1072534034
  - # 12
    frequency:    5.2262077129
  - # 13
    frequency:    5.8978198738
  - # 14
    frequency:    6.6777454960
  - # 15
    frequency:    7.2895585443
  - # 16
    frequency:    9.6053337906
  - # 17
    frequency:   13.9362031832
  - # 18
    frequency:   14.3000712088
  - # 19
    frequency:   15.6143451365
  - # 20
    frequency:   34.0961577963
  - # 21
    frequency:   34.1163431669

- q-position: [    0.1010101,    0.0000000,    0.0000000 ]
  distance:    0.0349289
  band:
  - # 1
    frequency:   -2.7977634070
  - # 2
    frequency:   -1.8286559319
  - # 3
    frequency:    0.4104408026
  - # 4
    frequency:    1.3673504344
  - # 5
    frequency:    1.5565095278
  - # 6
    frequency:    2.6235141378
  - # 7
    frequency:    2.8767059447
  - # 8
    frequency:    4.1630002979
  - # 9
    frequency:    4.7050318352
  - # 10
    frequency:    4.9227497943
  - # 11
    frequency:    5.0992320511
  - # 12
    frequency:    5.2100566258
  - # 13
    frequency:    5.8805244339
  - # 14
    frequency:    6.6909584325
  - # 15
    frequency:    7.3296313452
  - # 16
    frequency:    9.6094203655
  - # 17
    frequency:   13.9223583928
  - # 18
    frequency:   14.3233523292
  - # 19
    frequency:   15.5732802211
  - # 20
    frequency:   34.0888500241
  - # 21
    frequency:   34.1087614443

- q-position: [    0.1060606,    0.0000000,    0.0000000 ]
  distance:    0.0366754
  band:
  - # 1
    frequency:   -2.8679820191
  - # 2
    frequency:   -1.8213090755
  - # 3
    frequency:    0.3492182999
  - # 4
    frequency:    1.3377774390
  - # 5
    frequency:    1.6167868467
  - # 6
    frequency:    2.6010942184
  - # 7
    frequency:    2.9219451278
  - # 8
    frequency:    4.1413555521
  - # 9
    frequency:    4.6910173109
  - # 10
    frequency:    4.9041204374
  - # 11
    frequency:    5.0951648104
  - # 12
    frequency:    5.1935862998
  - # 13
    frequency:    5.8633330321
  - # 14
    frequency:    6.7045414679
  - # 15
    frequency:    7.3684977079
  - # 16
    frequency:    9.6133173596
  - # 17
    frequency:   13.9078157037
  - # 18
    frequency:   14.3471522129
  - # 19
    frequency:   15.5310913718
  - # 20
    frequency:   34.0812248836
  - # 21
    frequency:   34.1008504317

- q-position: [    0.1111111,    0.0000000,    0.0000000 ]
  distance:    0.0384218
  band:
  - # 1
    frequency:   -2.9382279336
  - # 2
    frequency:   -1.8147061016
  - # 3
    frequency:    0.1727001570
  - # 4
    frequency:    1.3045234489
  - # 5
    frequency:    1.6734495424
  - # 6
    frequency:    2.5799363252
  - # 7
    frequency:    2.9743244454
  - # 8
    frequency:    4.1163801235
  - # 9
    frequency:    4.6782097079
  - # 10
    frequency:    4.8850185737
  - # 11
    frequency:    5.0952515051
  - # 12
    frequency:    5.1768671099
  - # 13
    frequency:    5.8462762079
  - # 14
    frequency:    6.7184595554
  - # 15
    frequency:    7.4061131895
  - # 16
    frequency:    9.6169781460
  - # 17
    frequency:   13.8925902870
  - # 18
    frequency:   14.3712832278
  - # 19
    frequency:   15.4880123742
  - # 20
    frequency:   34.0732907348
  - # 21
    frequency:   34.0926187629

- q-position: [    0.1161616,    0.0000000,    0.0000000 ]
  distance:    0.0401683
  band:
  - # 1
    frequency:   -3.0081904838
  - # 2
    frequency:   -1.8090716917
  - # 3
    frequency:   -0.3526914770
  - # 4
    frequency:    1.2747118179
  - # 5
    frequency:    1.7256917153
  - # 6
    frequency:    2.5608282739
  - # 7
    frequency:    3.0326620603
  - # 8
    frequency:    4.0884382896
  - # 9
    frequency:    4.6663852403
  - # 10
    frequency:    4.8654907800
  - # 11
    frequency:    5.0995519272
  - # 12
    frequency:    5.1599717553
  - # 13
    frequency:    5.8293990014
  - # 14
    frequency:    6.7326777090
  - # 15
    frequency:    7.4424425744
  - # 16
    frequency:    9.6203562407
  - # 17
    frequency:   13.8767001396
  - # 18
    frequency:   14.3955070959
  - # 19
    frequency:   15.4443295796
  - # 20
    frequency:   34.0650562788
  - # 21
    frequency:   34.0840754192

- q-position: [    0.1212121,    0.0000000,    0.0000000 ]
  distance:    0.0419147
  band:
  - # 1
    frequency:   -3.0775964335
  - # 2
    frequency:   -1.8046414191
  - # 3
    frequency:   -0.5937857394
  - # 4
    frequency:    1.2544309638
  - # 5
    frequency:    1.7724623264
  - # 6
    frequency:    2.5447876562
  - # 7
    frequency:    3.0957435818
  - # 8
    frequency:    4.0579597990
  - # 9
    frequency:    4.6553740585
  - # 10
    frequency:    4.8455838423
  - # 11
    frequency:    5.1080046817
  - # 12
    frequency:    5.1429750645
  - # 13
    frequency:    5.8127600695
  - # 14
    frequency:    6.7471611380
  - # 15
    frequency:    7.4774590802
  - # 16
    frequency:    9.6234055084
  - # 17
    frequency:   13.8601660709
  - # 18
    frequency:   14.4195170626
  - # 19
    frequency:   15.4003995936
  - # 20
    frequency:   34.0565305467
  - # 21
    frequency:   34.0752297182

- q-position: [    0.1262626,    0.0000000,    0.0000000 ]
  distance:    0.0436612
  band:
  - # 1
    frequency:   -3.1462141486
  - # 2
    frequency:   -1.8016588908
  - # 3
    frequency:   -0.8109261388
  - # 4
    frequency:    1.2463640424
  - # 5
    frequency:    1.8124508052
  - # 6
    frequency:    2.5330736196
  - # 7
    frequency:    3.1624140845
  - # 8
    frequency:    4.0254201866
  - # 9
    frequency:    4.6450550613
  - # 10
    frequency:    4.8253448796
  - # 11
    frequency:    5.1204601434
  - # 12
    frequency:    5.1259537646
  - # 13
    frequency:    5.7964308516
  - # 14
    frequency:    6.7618753936
  - # 15
    frequency:    7.5111437025
  - # 16
    frequency:    9.6260803776
  - # 17
    frequency:   13.8430116443
  - # 18
    frequency:   14.4429135090
  - # 19
    frequency:   15.3566735040
  - # 20
    frequency:   34.0477228876
  - # 21
    frequency:   34.0660913018

- q-position: [    0.1313131,    0.0000000,    0.0000000 ]
  distance:    0.0454076
  band:
  - # 1
    frequency:   -3.2138570503
  - # 2
    frequency:   -1.8003724449
  - # 3
    frequency:   -1.0171815489
  - # 4
    frequency:    1.2497886701
  - # 5
    frequency:    1.8441516967
  - # 6
    frequency:    2.5271193646
  - # 7
    frequency:    3.2316141113
  - # 8
    frequency:    3.9913301337
  - # 9
    frequency:    4.6353404015
  - # 10
    frequency:    4.8048215117
  - # 11
    frequency:    5.1089862173
  - # 12
    frequency:    5.1367178195
  - # 13
    frequency:    5.7804948071
  - # 14
    frequency:    6.7767865264
  - # 15
    frequency:    7.5434846681
  - # 16
    frequency:    9.6283360690
  - # 17
    frequency:   13.8252630739
  - # 18
    frequency:   14.4651715402
  - # 19
    frequency:   15.3137291144
  - # 20
    frequency:   34.0386429564
  - # 21
    frequency:   34.0566701249

- q-position: [    0.1363636,    0.0000000,    0.0000000 ]
  distance:    0.0471541
  band:
  - # 1
    frequency:   -3.2803865227
  - # 2
    frequency:   -1.8010314368
  - # 3
    frequency:   -1.2148800590
  - # 4
    frequency:    1.2623448341
  - # 5
    frequency:    1.8660641843
  - # 6
    frequency:    2.5283294338
  - # 7
    frequency:    3.3023711962
  - # 8
    frequency:    3.9562384824
  - # 9
    frequency:    4.6261586315
  - # 10
    frequency:    4.7840620625
  - # 11
    frequency:    5.0921521271
  - # 12
    frequency:    5.1565595540
  - # 13
    frequency:    5.7650467740
  - # 14
    frequency:    6.7918612561
  - # 15
    frequency:    7.5744769743
  - # 16
    frequency:    9.6301288399
  - # 17
    frequency:   13.8069490804
  - # 18
    frequency:   14.4856005648
  - # 19
    frequency:   15.2723111692
  - # 20
    frequency:   34.0293006999
  - # 21
    frequency:   34.0469764423

- q-position: [    0.1414141,    0.0000000,    0.0000000 ]
  distance:    0.0489005
  band:
  - # 1
    frequency:   -3.3457144786
  - # 2
    frequency:   -1.8038821795
  - # 3
    frequency:   -1.4049385140
  - # 4
    frequency:    1.2815339958
  - # 5
    frequency:    1.8770235002
  - # 6
    frequency:    2.5377446562
  - # 7
    frequency:    3.3737503933
  - # 8
    frequency:    3.9207607298
  - # 9
    frequency:    4.6174421538
  - # 10
    frequency:    4.7631157877
  - # 11
    frequency:    5.0755322304
  - # 12
    frequency:    5.1797736526
  - # 13
    frequency:    5.7501925530
  - # 14
    frequency:    6.8070671497
  - # 15
    frequency:    7.6041219919
  - # 16
    frequency:    9.6314162449
  - # 17
    frequency:   13.7881007059
  - # 18
    frequency:   14.5033006401
  - # 19
    frequency:   15.2333747977
  - # 20
    frequency:   34.0197063431
  - # 21
    frequency:   34.0370207958

- q-position: [    0.1464646,    0.0000000,    0.0000000 ]
  distance:    0.0506470
  band:
  - # 1
    frequency:   -3.4098057957
  - # 2
    frequency:   -1.8091636397
  - # 3
    frequency:   -1.5881246542
  - # 4
    frequency:    1.3053217469
  - # 5
    frequency:    1.8765258810
  - # 6
    frequency:    2.5557129141
  - # 7
    frequency:    3.4447399832
  - # 8
    frequency:    3.8856675180
  - # 9
    frequency:    4.6091208154
  - # 10
    frequency:    4.7420331148
  - # 11
    frequency:    5.0592079767
  - # 12
    frequency:    5.2061686013
  - # 13
    frequency:    5.7360489447
  - # 14
    frequency:    6.8223728054
  - # 15
    frequency:    7.6324271169
  - # 16
    frequency:    9.6321574160
  - # 17
    frequency:   13.7687510947
  - # 18
    frequency:   14.5171315909
  - # 19
    frequency:   15.1981161711
  - # 20
    frequency:   34.0098703744
  - # 21
    frequency:   34.0268140013

- q-position: [    0.1515152,    0.0000000,    0.0000000 ]
  distance:    0.0523934
  band:
  - # 1
    frequency:   -3.4726808523
  - # 2
    frequency:   -1.8171030197
  - # 3
    frequency:   -1.7651460653
  - # 4
    frequency:    1.3322092378
  - # 5
    frequency:    1.8648301834
  - # 6
    frequency:    2.5817823730
  - # 7
    frequency:    3.5139668260
  - # 8
    frequency:    3.8521448456
  - # 9
    frequency:    4.6011209513
  - # 10
    frequency:    4.7208658765
  - # 11
    frequency:    5.0432612154
  - # 12
    frequency:    5.2355771558
  - # 13
    frequency:    5.7227446886
  - # 14
    frequency:    6.8377480394
  - # 15
    frequency:    7.6594054563
  - # 16
    frequency:    9.6323133601
  - # 17
    frequency:   13.7489352424
  - # 18
    frequency:   14.5257306522
  - # 19
    frequency:   15.1679546219
  - # 20
    frequency:   33.9998035306
  - # 21
    frequency:   34.0163671345