nqpoint: 300    
npath: 3      
segment_nqpoint:
- 100
- 100
- 100
labels:
- [ 'G', 'M' ]
- [ 'M', 'K' ]
- [ 'K', 'G' ]
reciprocal_lattice:
- [   0.29368596,   0.16955967,   0.00000000 ] # a*
- [   0.00000000,   0.33911933,   0.00000000 ] # b*
- [   0.00000000,   0.00000000,   0.03501818 ] # c*
natom: 9      
lattice:
- [     3.404997674372256,     0.000000000000000,     0.000000000000000 ] # a
- [    -1.702498837186127,     2.948814485829175,     0.000000000000000 ] # b
- [     0.000000000000000,     0.000000000000000,    28.556598243389757 ] # c
points:
- symbol: C # 1
  coordinates: [  0.000000000000000,  0.000000000000000,  0.505792276475636 ]
  mass: 12.010700
- symbol: C # 2
  coordinates: [  0.333332985432215,  0.666666983183674,  0.642619139218701 ]
  mass: 12.010700
- symbol: C # 3
  coordinates: [  0.666666984744048,  0.333332985985145,  0.369576205244798 ]
  mass: 12.010700
- symbol: N # 4
  coordinates: [  0.333332985432215,  0.666666983183674,  0.598962365822586 ]
  mass: 14.006700
- symbol: N # 5
  coordinates: [  0.666666984744048,  0.333332985985145,  0.413443503215413 ]
  mass: 14.006700
- symbol: O # 6
  coordinates: [  0.333332985432215,  0.666666983183674,  0.684836410720478 ]
  mass: 15.999400
- symbol: S # 7
  coordinates: [  0.666666984744048,  0.333332985985145,  0.315163589279522 ]
  mass: 32.065000
- symbol: Zr # 8
  coordinates: [  0.333332985432215,  0.666666983183674,  0.462210047318778 ]
  mass: 91.224000
- symbol: Zr # 9
  coordinates: [  0.666666984744048,  0.333332985985145,  0.548311485598395 ]
  mass: 91.224000

phonon:
- q-position: [    0.0000000,    0.0000000,    0.0000000 ]
  distance:    0.0000000
  band:
  - # 1
    frequency:   -0.9671843930
  - # 2
    frequency:   -0.9671843930
  - # 3
    frequency:   -0.0000016456
  - # 4
    frequency:   -0.0000006214
  - # 5
    frequency:    0.0000016467
  - # 6
    frequency:    0.6176849751
  - # 7
    frequency:    0.6176849751
  - # 8
    frequency:    4.5441058027
  - # 9
    frequency:    4.5441058027
  - # 10
    frequency:    5.1130540500
  - # 11
    frequency:    5.7339073362
  - # 12
    frequency:    5.7339073362
  - # 13
    frequency:    6.6135725744
  - # 14
    frequency:    6.6135725744
  - # 15
    frequency:    7.4196012339
  - # 16
    frequency:    9.3213084346
  - # 17
    frequency:   13.9947076089
  - # 18
    frequency:   13.9947076089
  - # 19
    frequency:   15.5604484808
  - # 20
    frequency:   16.5449130853
  - # 21
    frequency:   16.5449130853
  - # 22
    frequency:   17.2855870163
  - # 23
    frequency:   17.2855870163
  - # 24
    frequency:   27.1462107270
  - # 25
    frequency:   38.3597260541
  - # 26
    frequency:   57.8508418936
  - # 27
    frequency:   69.0045886111

- q-position: [    0.0050505,    0.0000000,    0.0000000 ]
  distance:    0.0017127
  band:
  - # 1
    frequency:   -0.9665888677
  - # 2
    frequency:   -0.9653148346
  - # 3
    frequency:   -0.0979163269
  - # 4
    frequency:    0.0665839699
  - # 5
    frequency:    0.1367952015
  - # 6
    frequency:    0.6196345050
  - # 7
    frequency:    0.6247286880
  - # 8
    frequency:    4.5445312779
  - # 9
    frequency:    4.5448560935
  - # 10
    frequency:    5.1129168533
  - # 11
    frequency:    5.7345631414
  - # 12
    frequency:    5.7349359990
  - # 13
    frequency:    6.6137312894
  - # 14
    frequency:    6.6145073271
  - # 15
    frequency:    7.4193742402
  - # 16
    frequency:    9.3206160899
  - # 17
    frequency:   13.9948913509
  - # 18
    frequency:   13.9950970931
  - # 19
    frequency:   15.5605122923
  - # 20
    frequency:   16.5461674743
  - # 21
    frequency:   16.5463137820
  - # 22
    frequency:   17.2856453490
  - # 23
    frequency:   17.2858689506
  - # 24
    frequency:   27.1461064924
  - # 25
    frequency:   38.3597190903
  - # 26
    frequency:   57.8497357007
  - # 27
    frequency:   69.0030959368

- q-position: [    0.0101010,    0.0000000,    0.0000000 ]
  distance:    0.0034254
  band:
  - # 1
    frequency:   -0.9648125394
  - # 2
    frequency:   -0.9597274254
  - # 3
    frequency:   -0.1244932352
  - # 4
    frequency:    0.1331163753
  - # 5
    frequency:    0.2286412219
  - # 6
    frequency:    0.6254721676
  - # 7
    frequency:    0.6452723953
  - # 8
    frequency:    4.5458036026
  - # 9
    frequency:    4.5470995306
  - # 10
    frequency:    5.1125074194
  - # 11
    frequency:    5.7365261426
  - # 12
    frequency:    5.7380164514
  - # 13
    frequency:    6.6142071178
  - # 14
    frequency:    6.6173048307
  - # 15
    frequency:    7.4186945979
  - # 16
    frequency:    9.3185399664
  - # 17
    frequency:   13.9954415990
  - # 18
    frequency:   13.9962639796
  - # 19
    frequency:   15.5607028252
  - # 20
    frequency:   16.5499202764
  - # 21
    frequency:   16.5505055487
  - # 22
    frequency:   17.2858201023
  - # 23
    frequency:   17.2867136938
  - # 24
    frequency:   27.1457939856
  - # 25
    frequency:   38.3596982147
  - # 26
    frequency:   57.8464198152
  - # 27
    frequency:   68.9986225379

- q-position: [    0.0151515,    0.0000000,    0.0000000 ]
  distance:    0.0051382
  band:
  - # 1
    frequency:   -0.9618850247
  - # 2
    frequency:   -0.9504791935
  - # 3
    frequency:   -0.1423217776
  - # 4
    frequency:    0.1995230769
  - # 5
    frequency:    0.3223150762
  - # 6
    frequency:    0.6351712077
  - # 7
    frequency:    0.6778336942
  - # 8
    frequency:    4.5479105295
  - # 9
    frequency:    4.5508139669
  - # 10
    frequency:    5.1118322019
  - # 11
    frequency:    5.7397831373
  - # 12
    frequency:    5.7431321536
  - # 13
    frequency:    6.6149991171
  - # 14
    frequency:    6.6219448715
  - # 15
    frequency:    7.4175663527
  - # 16
    frequency:    9.3150827930
  - # 17
    frequency:   13.9963554267
  - # 18
    frequency:   13.9982035880
  - # 19
    frequency:   15.5610173865
  - # 20
    frequency:   16.5561405015
  - # 21
    frequency:   16.5574574993
  - # 22
    frequency:   17.2861105454
  - # 23
    frequency:   17.2881180747
  - # 24
    frequency:   27.1452737973
  - # 25
    frequency:   38.3596634747
  - # 26
    frequency:   57.8409023042
  - # 27
    frequency:   68.9911822616

- q-position: [    0.0202020,    0.0000000,    0.0000000 ]
  distance:    0.0068509
  band:
  - # 1
    frequency:   -0.9578521166
  - # 2
    frequency:   -0.9376444397
  - # 3
    frequency:   -0.1558571082
  - # 4
    frequency:    0.2656823456
  - # 5
    frequency:    0.4179732612
  - # 6
    frequency:    0.6487073817
  - # 7
    frequency:    0.7206232910
  - # 8
    frequency:    4.5508318330
  - # 9
    frequency:    4.5559630123
  - # 10
    frequency:    5.1109019102
  - # 11
    frequency:    5.7443122594
  - # 12
    frequency:    5.7502557657
  - # 13
    frequency:    6.6161057433
  - # 14
    frequency:    6.6283939264
  - # 15
    frequency:    7.4159963459
  - # 16
    frequency:    9.3102491086
  - # 17
    frequency:   13.9976279837
  - # 18
    frequency:   14.0009081775
  - # 19
    frequency:   15.5614515251
  - # 20
    frequency:   16.5647768483
  - # 21
    frequency:   16.5671184380
  - # 22
    frequency:   17.2865154706
  - # 23
    frequency:   17.2900768347
  - # 24
    frequency:   27.1445469112
  - # 25
    frequency:   38.3596149503
  - # 26
    frequency:   57.8331965718
  - # 27
    frequency:   68.9807981059

- q-position: [    0.0252525,    0.0000000,    0.0000000 ]
  distance:    0.0085636
  band:
  - # 1
    frequency:   -0.9527710474
  - # 2
    frequency:   -0.9212892746
  - # 3
    frequency:   -0.1652077634
  - # 4
    frequency:    0.3313942564
  - # 5
    frequency:    0.5146463682
  - # 6
    frequency:    0.6660905735
  - # 7
    frequency:    0.7720347967
  - # 8
    frequency:    4.5545395846
  - # 9
    frequency:    4.5624967855
  - # 10
    frequency:    5.1097314532
  - # 11
    frequency:    5.7500831836
  - # 12
    frequency:    5.7593494733
  - # 13
    frequency:    6.6175248884
  - # 14
    frequency:    6.6366054005
  - # 15
    frequency:    7.4139943652
  - # 16
    frequency:    9.3040452492
  - # 17
    frequency:   13.9992525350
  - # 18
    frequency:   14.0043670354
  - # 19
    frequency:   15.5619990858
  - # 20
    frequency:   16.5757582217
  - # 21
    frequency:   16.5794172798
  - # 22
    frequency:   17.2870332098
  - # 23
    frequency:   17.2925826671
  - # 24
    frequency:   27.1436147022
  - # 25
    frequency:   38.3595527540
  - # 26
    frequency:   57.8233212977
  - # 27
    frequency:   68.9675020995

- q-position: [    0.0303030,    0.0000000,    0.0000000 ]
  distance:    0.0102763
  band:
  - # 1
    frequency:   -0.9467049539
  - # 2
    frequency:   -0.9014449274
  - # 3
    frequency:   -0.1696279097
  - # 4
    frequency:    0.3963405443
  - # 5
    frequency:    0.6113995127
  - # 6
    frequency:    0.6874113288
  - # 7
    frequency:    0.8308940215
  - # 8
    frequency:    4.5589985310
  - # 9
    frequency:    4.5703529085
  - # 10
    frequency:    5.1083398866
  - # 11
    frequency:    5.7570574088
  - # 12
    frequency:    5.7703654177
  - # 13
    frequency:    6.6192539302
  - # 14
    frequency:    6.6465199410
  - # 15
    frequency:    7.4115733630
  - # 16
    frequency:    9.2964793303
  - # 17
    frequency:   14.0012205164
  - # 18
    frequency:   14.0085665958
  - # 19
    frequency:   15.5626522790
  - # 20
    frequency:   16.5889944462
  - # 21
    frequency:   16.5942636395
  - # 22
    frequency:   17.2876616567
  - # 23
    frequency:   17.2956262714
  - # 24
    frequency:   27.1424789350
  - # 25
    frequency:   38.3594770327
  - # 26
    frequency:   57.8113003520
  - # 27
    frequency:   68.9513351343

- q-position: [    0.0353535,    0.0000000,    0.0000000 ]
  distance:    0.0119891
  band:
  - # 1
    frequency:   -0.9397173579
  - # 2
    frequency:   -0.8780842424
  - # 3
    frequency:   -0.1679844425
  - # 4
    frequency:    0.4600326837
  - # 5
    frequency:    0.7072740824
  - # 6
    frequency:    0.7129022929
  - # 7
    frequency:    0.8965331913
  - # 8
    frequency:    4.5641665686
  - # 9
    frequency:    4.5794576901
  - # 10
    frequency:    5.1067503826
  - # 11
    frequency:    5.7651886172
  - # 12
    frequency:    5.7832462113
  - # 13
    frequency:    6.6212897906
  - # 14
    frequency:    6.6580658052
  - # 15
    frequency:    7.4087497486
  - # 16
    frequency:    9.2875612265
  - # 17
    frequency:   14.0035216033
  - # 18
    frequency:   14.0134905875
  - # 19
    frequency:   15.5634017634
  - # 20
    frequency:   16.6043771654
  - # 21
    frequency:   16.6115485841
  - # 22
    frequency:   17.2883982964
  - # 23
    frequency:   17.2991964213
  - # 24
    frequency:   27.1411417607
  - # 25
    frequency:   38.3593879684
  - # 26
    frequency:   57.7971626860
  - # 27
    frequency:   68.9323467520

- q-position: [    0.0404040,    0.0000000,    0.0000000 ]
  distance:    0.0137018
  band:
  - # 1
    frequency:   -0.9318673707
  - # 2
    frequency:   -0.8511027531
  - # 3
    frequency:   -0.1584600514
  - # 4
    frequency:    0.5217584342
  - # 5
    frequency:    0.7430023377
  - # 6
    frequency:    0.8012207220
  - # 7
    frequency:    0.9687437187
  - # 8
    frequency:    4.5699953038
  - # 9
    frequency:    4.5897274376
  - # 10
    frequency:    5.1049902448
  - # 11
    frequency:    5.7744231041
  - # 12
    frequency:    5.7979255159
  - # 13
    frequency:    6.6236289981
  - # 14
    frequency:    6.6711592590
  - # 15
    frequency:    7.4055437644
  - # 16
    frequency:    9.2773025484
  - # 17
    frequency:   14.0061437950
  - # 18
    frequency:   14.0191202050
  - # 19
    frequency:   15.5642367372
  - # 20
    frequency:   16.6217809143
  - # 21
    frequency:   16.6311455473
  - # 22
    frequency:   17.2892402421
  - # 23
    frequency:   17.3032800460
  - # 24
    frequency:   27.1396057145
  - # 25
    frequency:   38.3592857800
  - # 26
    frequency:   57.7809422004
  - # 27
    frequency:   68.9105948857

- q-position: [    0.0454545,    0.0000000,    0.0000000 ]
  distance:    0.0154145
  band:
  - # 1
    frequency:   -0.9232060937
  - # 2
    frequency:   -0.8203022990
  - # 3
    frequency:   -0.1375090152
  - # 4
    frequency:    0.5805774795
  - # 5
    frequency:    0.7783712215
  - # 6
    frequency:    0.8922238757
  - # 7
    frequency:    1.0475541506
  - # 8
    frequency:    4.5764306907
  - # 9
    frequency:    4.6010698321
  - # 10
    frequency:    5.1030909852
  - # 11
    frequency:    5.7847002756
  - # 12
    frequency:    5.8143286661
  - # 13
    frequency:    6.6262677503
  - # 14
    frequency:    6.6857049762
  - # 15
    frequency:    7.4019799586
  - # 16
    frequency:    9.2657166200
  - # 17
    frequency:   14.0090735099
  - # 18
    frequency:   14.0254342992
  - # 19
    frequency:   15.5651450338
  - # 20
    frequency:   16.6410643486
  - # 21
    frequency:   16.6529113986
  - # 22
    frequency:   17.2901842794
  - # 23
    frequency:   17.3078623223
  - # 24
    frequency:   27.1378737107
  - # 25
    frequency:   38.3591707249
  - # 26
    frequency:   57.7626775921
  - # 27
    frequency:   68.8861455591

- q-position: [    0.0505051,    0.0000000,    0.0000000 ]
  distance:    0.0171272
  band:
  - # 1
    frequency:   -0.9137743948
  - # 2
    frequency:   -0.7853721985
  - # 3
    frequency:   -0.0951348716
  - # 4
    frequency:    0.6354842993
  - # 5
    frequency:    0.8197356270
  - # 6
    frequency:    0.9796685551
  - # 7
    frequency:    1.1327934191
  - # 8
    frequency:    4.5834137341
  - # 9
    frequency:    4.6133853012
  - # 10
    frequency:    5.1010884816
  - # 11
    frequency:    5.7959532073
  - # 12
    frequency:    5.8323733198
  - # 13
    frequency:    6.6292019712
  - # 14
    frequency:    6.7015964045
  - # 15
    frequency:    7.3980877704
  - # 16
    frequency:    9.2528184551
  - # 17
    frequency:   14.0122956946
  - # 18
    frequency:   14.0324095826
  - # 19
    frequency:   15.5661132202
  - # 20
    frequency:   16.6620716136
  - # 21
    frequency:   16.6766876577
  - # 22
    frequency:   17.2912269187
  - # 23
    frequency:   17.3129267773
  - # 24
    frequency:   27.1359490392
  - # 25
    frequency:   38.3590431006
  - # 26
    frequency:   57.7424121783
  - # 27
    frequency:   68.8590725439

- q-position: [    0.0555556,    0.0000000,    0.0000000 ]
  distance:    0.0188400
  band:
  - # 1
    frequency:   -0.9036019742
  - # 2
    frequency:   -0.7458602098
  - # 3
    frequency:    0.0711520868
  - # 4
    frequency:    0.6858238624
  - # 5
    frequency:    0.8674804508
  - # 6
    frequency:    1.0636692506
  - # 7
    frequency:    1.2237123953
  - # 8
    frequency:    4.5908812465
  - # 9
    frequency:    4.6265683311
  - # 10
    frequency:    5.0990232232
  - # 11
    frequency:    5.8081092611
  - # 12
    frequency:    5.8519701248
  - # 13
    frequency:    6.6324273575
  - # 14
    frequency:    6.7187160633
  - # 15
    frequency:    7.3939022459
  - # 16
    frequency:    9.2386247367
  - # 17
    frequency:   14.0157939420
  - # 18
    frequency:   14.0400208452
  - # 19
    frequency:   15.5671266962
  - # 20
    frequency:   16.6846338342
  - # 21
    frequency:   16.7023018443
  - # 22
    frequency:   17.2923644573
  - # 23
    frequency:   17.3184553989
  - # 24
    frequency:   27.1338353594
  - # 25
    frequency:   38.3589032473
  - # 26
    frequency:   57.7201937026
  - # 27
    frequency:   68.8294569783

- q-position: [    0.0606061,    0.0000000,    0.0000000 ]
  distance:    0.0205527
  band:
  - # 1
    frequency:   -0.8927074505
  - # 2
    frequency:   -0.7011209997
  - # 3
    frequency:    0.1551144902
  - # 4
    frequency:    0.7317125205
  - # 5
    frequency:    0.9212328332
  - # 6
    frequency:    1.1449403010
  - # 7
    frequency:    1.3190774969
  - # 8
    frequency:    4.5987666474
  - # 9
    frequency:    4.6405086653
  - # 10
    frequency:    5.0969406525
  - # 11
    frequency:    5.8210907521
  - # 12
    frequency:    5.8730233898
  - # 13
    frequency:    6.6359394088
  - # 14
    frequency:    6.7369357304
  - # 15
    frequency:    7.3894649088
  - # 16
    frequency:    9.2231537994
  - # 17
    frequency:   14.0195506206
  - # 18
    frequency:   14.0482411762
  - # 19
    frequency:   15.5681697925
  - # 20
    frequency:   16.7085707045
  - # 21
    frequency:   16.7295689467
  - # 22
    frequency:   17.2935930504
  - # 23
    frequency:   17.3244287539
  - # 24
    frequency:   27.1315366945
  - # 25
    frequency:   38.3587515487
  - # 26
    frequency:   57.6960741202
  - # 27
    frequency:   68.7973869491

- q-position: [    0.0656566,    0.0000000,    0.0000000 ]
  distance:    0.0222654
  band:
  - # 1
    frequency:   -0.8810991236
  - # 2
    frequency:   -0.6502191681
  - # 3
    frequency:    0.2204528658
  - # 4
    frequency:    0.7739850748
  - # 5
    frequency:    0.9799181011
  - # 6
    frequency:    1.2243425901
  - # 7
    frequency:    1.4175969330
  - # 8
    frequency:    4.6070007911
  - # 9
    frequency:    4.6550923512
  - # 10
    frequency:    5.0948916001
  - # 11
    frequency:    5.8348156626
  - # 12
    frequency:    5.8954317540
  - # 13
    frequency:    6.6397334366
  - # 14
    frequency:    6.7561164803
  - # 15
    frequency:    7.3848248098
  - # 16
    frequency:    9.2064256155
  - # 17
    frequency:   14.0235470109
  - # 18
    frequency:   14.0570421885
  - # 19
    frequency:   15.5692258701
  - # 20
    frequency:   16.7336921557
  - # 21
    frequency:   16.7582929963
  - # 22
    frequency:   17.2949087946
  - # 23
    frequency:   17.3308261100
  - # 24
    frequency:   27.1290574245
  - # 25
    frequency:   38.3585884349
  - # 26
    frequency:   57.6701093670
  - # 27
    frequency:   68.7629570398

- q-position: [    0.0707071,    0.0000000,    0.0000000 ]
  distance:    0.0239781
  band:
  - # 1
    frequency:   -0.8687760788
  - # 2
    frequency:   -0.5917354377
  - # 3
    frequency:    0.2817002368
  - # 4
    frequency:    0.8137168027
  - # 5
    frequency:    1.0422391522
  - # 6
    frequency:    1.3025660819
  - # 7
    frequency:    1.5182173523
  - # 8
    frequency:    4.6155128137
  - # 9
    frequency:    4.6702026119
  - # 10
    frequency:    5.0929328038
  - # 11
    frequency:    5.8491983959
  - # 12
    frequency:    5.9190888459
  - # 13
    frequency:    6.6438045459
  - # 14
    frequency:    6.7761085329
  - # 15
    frequency:    7.3800397806
  - # 16
    frequency:    9.1884617872
  - # 17
    frequency:   14.0277634504
  - # 18
    frequency:   14.0663942422
  - # 19
    frequency:   15.5702774195
  - # 20
    frequency:   16.7598000812
  - # 21
    frequency:   16.7882687264
  - # 22
    frequency:   17.2963078232
  - # 23
    frequency:   17.3376255624
  - # 24
    frequency:   27.1264022787
  - # 25
    frequency:   38.3584143836
  - # 26
    frequency:   57.6423591119
  - # 27
    frequency:   68.7262678470

- q-position: [    0.0757576,    0.0000000,    0.0000000 ]
  distance:    0.0256909
  band:
  - # 1
    frequency:   -0.8557293602
  - # 2
    frequency:   -0.5233398841
  - # 3
    frequency:    0.3420648007
  - # 4
    frequency:    0.8518260539
  - # 5
    frequency:    1.1070740477
  - # 6
    frequency:    1.3800621018
  - # 7
    frequency:    1.6201753211
  - # 8
    frequency:    4.6242309855
  - # 9
    frequency:    4.6857205444
  - # 10
    frequency:    5.0911274872
  - # 11
    frequency:    5.8641505652
  - # 12
    frequency:    5.9438839281
  - # 13
    frequency:    6.6481475864
  - # 14
    frequency:    6.7967508805
  - # 15
    frequency:    7.3751779135
  - # 16
    frequency:    9.1692855444
  - # 17
    frequency:   14.0321794833
  - # 18
    frequency:   14.0762666643
  - # 19
    frequency:   15.5713061624
  - # 20
    frequency:   16.7866900942
  - # 21
    frequency:   16.8192832994
  - # 22
    frequency:   17.2977864168
  - # 23
    frequency:   17.3448041608
  - # 24
    frequency:   27.1235763266
  - # 25
    frequency:   38.3582299219
  - # 26
    frequency:   57.6128864947
  - # 27
    frequency:   68.6874254702

- q-position: [    0.0808081,    0.0000000,    0.0000000 ]
  distance:    0.0274036
  band:
  - # 1
    frequency:   -0.8419430218
  - # 2
    frequency:   -0.4406893080
  - # 3
    frequency:    0.4027687016
  - # 4
    frequency:    0.8889556901
  - # 5
    frequency:    1.1735939106
  - # 6
    frequency:    1.4570928574
  - # 7
    frequency:    1.7229350403
  - # 8
    frequency:    4.6330835589
  - # 9
    frequency:    4.7015256710
  - # 10
    frequency:    5.0895459568
  - # 11
    frequency:    5.8795818126
  - # 12
    frequency:    5.9697025185
  - # 13
    frequency:    6.6527570680
  - # 14
    frequency:    6.8178706784
  - # 15
    frequency:    7.3703192733
  - # 16
    frequency:    9.1489217491
  - # 17
    frequency:   14.0367740163
  - # 18
    frequency:   14.0866279628
  - # 19
    frequency:   15.5722931561
  - # 20
    frequency:   16.8141532974
  - # 21
    frequency:   16.8511180801
  - # 22
    frequency:   17.2993411302
  - # 23
    frequency:   17.3523380385
  - # 24
    frequency:   27.1205849690
  - # 25
    frequency:   38.3580356276
  - # 26
    frequency:   57.5817578506
  - # 27
    frequency:   68.6465409748

- q-position: [    0.0858586,    0.0000000,    0.0000000 ]
  distance:    0.0291163
  band:
  - # 1
    frequency:   -0.8273949403
  - # 2
    frequency:   -0.3336349807
  - # 3
    frequency:    0.4643310212
  - # 4
    frequency:    0.9255119508
  - # 5
    frequency:    1.2412228662
  - # 6
    frequency:    1.5337963836
  - # 7
    frequency:    1.8261133312
  - # 8
    frequency:    4.6419996020
  - # 9
    frequency:    4.7174964133
  - # 10
    frequency:    5.0882661431
  - # 11
    frequency:    5.8954006508
  - # 12
    frequency:    5.9964269812
  - # 13
    frequency:    6.6576270397
  - # 14
    frequency:    6.8392824177
  - # 15
    frequency:    7.3655578153
  - # 16
    frequency:    9.1273969071
  - # 17
    frequency:   14.0415254767
  - # 18
    frequency:   14.0974460337
  - # 19
    frequency:   15.5732189025
  - # 20
    frequency:   16.8419780426
  - # 21
    frequency:   16.8835504362
  - # 22
    frequency:   17.3009689376
  - # 23
    frequency:   17.3602025391
  - # 24
    frequency:   27.1174339269
  - # 25
    frequency:   38.3578321305
  - # 26
    frequency:   57.5490424237
  - # 27
    frequency:   68.6037298360

- q-position: [    0.0909091,    0.0000000,    0.0000000 ]
  distance:    0.0308290
  band:
  - # 1
    frequency:   -0.8120573274
  - # 2
    frequency:   -0.1591048764
  - # 3
    frequency:    0.5269130371
  - # 4
    frequency:    0.9617368055
  - # 5
    frequency:    1.3095642165
  - # 6
    frequency:    1.6102352883
  - # 7
    frequency:    1.9294229110
  - # 8
    frequency:    4.6509098081
  - # 9
    frequency:    4.7335106063
  - # 10
    frequency:    5.0873739729
  - # 11
    frequency:    5.9115153230
  - # 12
    frequency:    6.0239370786
  - # 13
    frequency:    6.6627509301
  - # 14
    frequency:    6.8607869655
  - # 15
    frequency:    7.3610034222
  - # 16
    frequency:    9.1047391868
  - # 17
    frequency:   14.0464119736
  - # 18
    frequency:   14.1086883588
  - # 19
    frequency:   15.5740634624
  - # 20
    frequency:   16.8699516588
  - # 21
    frequency:   16.9163555451
  - # 22
    frequency:   17.3026673978
  - # 23
    frequency:   17.3683723440
  - # 24
    frequency:   27.1141292305
  - # 25
    frequency:   38.3576201133
  - # 26
    frequency:   57.5148120708
  - # 27
    frequency:   68.5591113631

- q-position: [    0.0959596,    0.0000000,    0.0000000 ]
  distance:    0.0325418
  band:
  - # 1
    frequency:   -0.7958969152
  - # 2
    frequency:    0.2526309365
  - # 3
    frequency:    0.5904396767
  - # 4
    frequency:    0.9977673101
  - # 5
    frequency:    1.3783395130
  - # 6
    frequency:    1.6864279491
  - # 7
    frequency:    2.0326348415
  - # 8
    frequency:    4.6597472733
  - # 9
    frequency:    4.7494462352
  - # 10
    frequency:    5.0869633991
  - # 11
    frequency:    5.9278346729
  - # 12
    frequency:    6.0521104735
  - # 13
    frequency:    6.6681213503
  - # 14
    frequency:    6.8821706714
  - # 15
    frequency:    7.3567838578
  - # 16
    frequency:    9.0809784454
  - # 17
    frequency:   14.0514114598
  - # 18
    frequency:   14.1203221942
  - # 19
    frequency:   15.5748065754
  - # 20
    frequency:   16.8978621318
  - # 21
    frequency:   16.9493081876
  - # 22
    frequency:   17.3044348406
  - # 23
    frequency:   17.3768215973
  - # 24
    frequency:   27.1106772059
  - # 25
    frequency:   38.3574003115
  - # 26
    frequency:   57.4791409571
  - # 27
    frequency:   68.5128081110

- q-position: [    0.1010101,    0.0000000,    0.0000000 ]
  distance:    0.0342545
  band:
  - # 1
    frequency:   -0.7788748015
  - # 2
    frequency:    0.3954026180
  - # 3
    frequency:    0.6546651739
  - # 4
    frequency:    1.0336756519
  - # 5
    frequency:    1.4473469672
  - # 6
    frequency:    1.7623673593
  - # 7
    frequency:    2.1355545808
  - # 8
    frequency:    4.6684482337
  - # 9
    frequency:    4.7651826505
  - # 10
    frequency:    5.0871358479
  - # 11
    frequency:    5.9442690178
  - # 12
    frequency:    6.0808231727
  - # 13
    frequency:    6.6737298630
  - # 14
    frequency:    6.9032049288
  - # 15
    frequency:    7.3530462502
  - # 16
    frequency:    9.0561462615
  - # 17
    frequency:   14.0565018935
  - # 18
    frequency:   14.1323147490
  - # 19
    frequency:   15.5754277865
  - # 20
    frequency:   16.9254997194
  - # 21
    frequency:   16.9821845069
  - # 22
    frequency:   17.3062705716
  - # 23
    frequency:   17.3855240322
  - # 24
    frequency:   27.1070844620
  - # 25
    frequency:   38.3571735143
  - # 26
    frequency:   57.4421052467
  - # 27
    frequency:   68.4649452813

- q-position: [    0.1060606,    0.0000000,    0.0000000 ]
  distance:    0.0359672
  band:
  - # 1
    frequency:   -0.7609459430
  - # 2
    frequency:    0.5027092371
  - # 3
    frequency:    0.7192402369
  - # 4
    frequency:    1.0694943926
  - # 5
    frequency:    1.5164347642
  - # 6
    frequency:    1.8380322917
  - # 7
    frequency:    2.2380066813
  - # 8
    frequency:    4.6769527572
  - # 9
    frequency:    4.7806025881
  - # 10
    frequency:    5.0879987765
  - # 11
    frequency:    5.9607310140
  - # 12
    frequency:    6.1099499010
  - # 13
    frequency:    6.6795667229
  - # 14
    frequency:    6.9236468578
  - # 15
    frequency:    7.3499574404
  - # 16
    frequency:    9.0302759757
  - # 17
    frequency:   14.0616613983
  - # 18
    frequency:   14.1446333533
  - # 19
    frequency:   15.5759065785
  - # 20
    frequency:   16.9526584949
  - # 21
    frequency:   17.0147637151
  - # 22
    frequency:   17.3081750885
  - # 23
    frequency:   17.3944531004
  - # 24
    frequency:   27.1033578754
  - # 25
    frequency:   38.3569405635
  - # 26
    frequency:   57.4037827881
  - # 27
    frequency:   68.4156501162

- q-position: [    0.1111111,    0.0000000,    0.0000000 ]
  distance:    0.0376799
  band:
  - # 1
    frequency:   -0.7420582645
  - # 2
    frequency:    0.5946258797
  - # 3
    frequency:    0.7837905363
  - # 4
    frequency:    1.1052320507
  - # 5
    frequency:    1.5854841796
  - # 6
    frequency:    1.9133938813
  - # 7
    frequency:    2.3398248040
  - # 8
    frequency:    4.6852053828
  - # 9
    frequency:    4.7955953538
  - # 10
    frequency:    5.0896629992
  - # 11
    frequency:    5.9771365053
  - # 12
    frequency:    6.1393643986
  - # 13
    frequency:    6.6856205972
  - # 14
    frequency:    6.9432421412
  - # 15
    frequency:    7.3477021645
  - # 16
    frequency:    9.0034027363
  - # 17
    frequency:   14.0668684208
  - # 18
    frequency:   14.1572456158
  - # 19
    frequency:   15.5762225102
  - # 20
    frequency:   16.9791378175
  - # 21
    frequency:   17.0468297240
  - # 22
    frequency:   17.3101502967
  - # 23
    frequency:   17.4035821093
  - # 24
    frequency:   27.0995045746
  - # 25
    frequency:   38.3567023528
  - # 26
    frequency:   57.3642527983
  - # 27
    frequency:   68.3650512913

- q-position: [    0.1161616,    0.0000000,    0.0000000 ]
  distance:    0.0393926
  band:
  - # 1
    frequency:   -0.7221513311
  - # 2
    frequency:    0.6779642524
  - # 3
    frequency:    0.8479885152
  - # 4
    frequency:    1.1408827026
  - # 5
    frequency:    1.6543988354
  - # 6
    frequency:    1.9884195042
  - # 7
    frequency:    2.4408450020
  - # 8
    frequency:    4.6931557037
  - # 9
    frequency:    4.8100614766
  - # 10
    frequency:    5.0922384970
  - # 11
    frequency:    5.9934053400
  - # 12
    frequency:    6.1689396351
  - # 13
    frequency:    6.6918782761
  - # 14
    frequency:    6.9617314073
  - # 15
    frequency:    7.3464776776
  - # 16
    frequency:    8.9755635521
  - # 17
    frequency:   14.0721018844
  - # 18
    frequency:   14.1701195700
  - # 19
    frequency:   15.5763553608
  - # 20
    frequency:   17.0047437472
  - # 21
    frequency:   17.0781726815
  - # 22
    frequency:   17.3121996939
  - # 23
    frequency:   17.4128843747
  - # 24
    frequency:   27.0955319224
  - # 25
    frequency:   38.3564598267
  - # 26
    frequency:   57.3235955462
  - # 27
    frequency:   68.3132783091

- q-position: [    0.1212121,    0.0000000,    0.0000000 ]
  distance:    0.0411054
  band:
  - # 1
    frequency:   -0.7011544849
  - # 2
    frequency:    0.7560014260
  - # 3
    frequency:    0.9115982210
  - # 4
    frequency:    1.1764319333
  - # 5
    frequency:    1.7230977667
  - # 6
    frequency:    2.0630750593
  - # 7
    frequency:    2.5409010353
  - # 8
    frequency:    4.7007588893
  - # 9
    frequency:    4.8239189246
  - # 10
    frequency:    5.0958286304