nqpoint: 300    
npath: 3      
segment_nqpoint:
- 100
- 100
- 100
labels:
- [ 'G', 'M' ]
- [ 'M', 'K' ]
- [ 'K', 'G' ]
reciprocal_lattice:
- [   0.29368596,   0.16955967,   0.00000000 ] # a*
- [   0.00000000,   0.33911933,   0.00000000 ] # b*
- [   0.00000000,   0.00000000,   0.03501818 ] # c*
natom: 9      
lattice:
- [     3.404997674372256,     0.000000000000000,     0.000000000000000 ] # a
- [    -1.702498837186127,     2.948814485829175,     0.000000000000000 ] # b
- [     0.000000000000000,     0.000000000000000,    28.556598243389757 ] # c
points:
- symbol: C # 1
  coordinates: [  0.000000000000000,  0.000000000000000,  0.505792276475636 ]
  mass: 12.010700
- symbol: C # 2
  coordinates: [  0.333332985432215,  0.666666983183674,  0.642619139218701 ]
  mass: 12.010700
- symbol: C # 3
  coordinates: [  0.666666984744048,  0.333332985985145,  0.369576205244798 ]
  mass: 12.010700
- symbol: N # 4
  coordinates: [  0.333332985432215,  0.666666983183674,  0.598962365822586 ]
  mass: 14.006700
- symbol: N # 5
  coordinates: [  0.666666984744048,  0.333332985985145,  0.413443503215413 ]
  mass: 14.006700
- symbol: O # 6
  coordinates: [  0.333332985432215,  0.666666983183674,  0.684836410720478 ]
  mass: 15.999400
- symbol: S # 7
  coordinates: [  0.666666984744048,  0.333332985985145,  0.315163589279522 ]
  mass: 32.065000
- symbol: Zr # 8
  coordinates: [  0.333332985432215,  0.666666983183674,  0.462210047318778 ]
  mass: 91.224000
- symbol: Zr # 9
  coordinates: [  0.666666984744048,  0.333332985985145,  0.548311485598395 ]
  mass: 91.224000

phonon:
- q-position: [    0.0000000,    0.0000000,    0.0000000 ]
  distance:    0.0000000
  band:
  - # 1
    frequency:   -0.9376798318
  - # 2
    frequency:   -0.9376798317
  - # 3
    frequency:   -0.0000112887
  - # 4
    frequency:   -0.0000004343
  - # 5
    frequency:    0.0000094295
  - # 6
    frequency:    1.0333100661
  - # 7
    frequency:    1.0333100661
  - # 8
    frequency:    4.5972611667
  - # 9
    frequency:    4.5972611667
  - # 10
    frequency:    5.2237750078
  - # 11
    frequency:    5.7940378999
  - # 12
    frequency:    5.7940378999
  - # 13
    frequency:    6.7211411174
  - # 14
    frequency:    6.7211411174
  - # 15
    frequency:    7.4384394434
  - # 16
    frequency:    9.3015912344
  - # 17
    frequency:   14.0573164820
  - # 18
    frequency:   14.0573164820
  - # 19
    frequency:   15.6473862180
  - # 20
    frequency:   16.8232075680
  - # 21
    frequency:   16.8232075680
  - # 22
    frequency:   17.3080810259
  - # 23
    frequency:   17.3080810260
  - # 24
    frequency:   27.1420460184
  - # 25
    frequency:   38.3592476919
  - # 26
    frequency:   57.7827092432
  - # 27
    frequency:   68.8612482103

- q-position: [    0.0050505,    0.0000000,    0.0000000 ]
  distance:    0.0017127
  band:
  - # 1
    frequency:   -0.9374315611
  - # 2
    frequency:   -0.9358425047
  - # 3
    frequency:    0.0023732049
  - # 4
    frequency:    0.0668478436
  - # 5
    frequency:    0.1158370906
  - # 6
    frequency:    1.0340813360
  - # 7
    frequency:    1.0370794522
  - # 8
    frequency:    4.5972362559
  - # 9
    frequency:    4.5979489473
  - # 10
    frequency:    5.2232921994
  - # 11
    frequency:    5.7943870988
  - # 12
    frequency:    5.7949009522
  - # 13
    frequency:    6.7211541510
  - # 14
    frequency:    6.7216579365
  - # 15
    frequency:    7.4381320003
  - # 16
    frequency:    9.3008799675
  - # 17
    frequency:   14.0573722158
  - # 18
    frequency:   14.0575551996
  - # 19
    frequency:   15.6472723049
  - # 20
    frequency:   16.8229625926
  - # 21
    frequency:   16.8235658126
  - # 22
    frequency:   17.3080982650
  - # 23
    frequency:   17.3083146210
  - # 24
    frequency:   27.1419428894
  - # 25
    frequency:   38.3592375762
  - # 26
    frequency:   57.7817602878
  - # 27
    frequency:   68.8600907502

- q-position: [    0.0101010,    0.0000000,    0.0000000 ]
  distance:    0.0034254
  band:
  - # 1
    frequency:   -0.9366815364
  - # 2
    frequency:   -0.9303769201
  - # 3
    frequency:    0.0094213589
  - # 4
    frequency:    0.1336444549
  - # 5
    frequency:    0.2317026993
  - # 6
    frequency:    1.0363940983
  - # 7
    frequency:    1.0483232074
  - # 8
    frequency:    4.5971617206
  - # 9
    frequency:    4.6000074184
  - # 10
    frequency:    5.2218487991
  - # 11
    frequency:    5.7954332365
  - # 12
    frequency:    5.7974854537
  - # 13
    frequency:    6.7211937214
  - # 14
    frequency:    6.7232054890
  - # 15
    frequency:    7.4372112593
  - # 16
    frequency:    9.2987474399
  - # 17
    frequency:   14.0575393216
  - # 18
    frequency:   14.0582709822
  - # 19
    frequency:   15.6469306670
  - # 20
    frequency:   16.8222287619
  - # 21
    frequency:   16.8246378307
  - # 22
    frequency:   17.3081500207
  - # 23
    frequency:   17.3090146893
  - # 24
    frequency:   27.1416337140
  - # 25
    frequency:   38.3592072783
  - # 26
    frequency:   57.7789150378
  - # 27
    frequency:   68.8566206900

- q-position: [    0.0151515,    0.0000000,    0.0000000 ]
  distance:    0.0051382
  band:
  - # 1
    frequency:   -0.9354147662
  - # 2
    frequency:   -0.9214035784
  - # 3
    frequency:    0.0209774883
  - # 4
    frequency:    0.2003405799
  - # 5
    frequency:    0.3475475716
  - # 6
    frequency:    1.0402454108
  - # 7
    frequency:    1.0668651940
  - # 8
    frequency:    4.5970381574
  - # 9
    frequency:    4.6034220291
  - # 10
    frequency:    5.2194597423
  - # 11
    frequency:    5.7971719450
  - # 12
    frequency:    5.8017775823
  - # 13
    frequency:    6.7212612324
  - # 14
    frequency:    6.7257750722
  - # 15
    frequency:    7.4356820049
  - # 16
    frequency:    9.2951974639
  - # 17
    frequency:   14.0578175140
  - # 18
    frequency:   14.0594627215
  - # 19
    frequency:   15.6463616093
  - # 20
    frequency:   16.8210093598
  - # 21
    frequency:   16.8264154947
  - # 22
    frequency:   17.3082364085
  - # 23
    frequency:   17.3101790853
  - # 24
    frequency:   27.1411191266
  - # 25
    frequency:   38.3591569453
  - # 26
    frequency:   57.7741783383
  - # 27
    frequency:   68.8508449844

- q-position: [    0.0202020,    0.0000000,    0.0000000 ]
  distance:    0.0068509
  band:
  - # 1
    frequency:   -0.9336082596
  - # 2
    frequency:   -0.9090704496
  - # 3
    frequency:    0.0367894915
  - # 4
    frequency:    0.2668902330
  - # 5
    frequency:    0.4631855289
  - # 6
    frequency:    1.0456310545
  - # 7
    frequency:    1.0924656992
  - # 8
    frequency:    4.5968665754
  - # 9
    frequency:    4.6081687260
  - # 10
    frequency:    5.2161494783
  - # 11
    frequency:    5.7995959766
  - # 12
    frequency:    5.8077547647
  - # 13
    frequency:    6.7213590089
  - # 14
    frequency:    6.7293522187
  - # 15
    frequency:    7.4335522785
  - # 16
    frequency:    9.2902363704
  - # 17
    frequency:   14.0582063190
  - # 18
    frequency:   14.0611285772
  - # 19
    frequency:   15.6455656431
  - # 20
    frequency:   16.8193098494
  - # 21
    frequency:   16.8288853216
  - # 22
    frequency:   17.3083576182
  - # 23
    frequency:   17.3118042480
  - # 24
    frequency:   27.1404001823
  - # 25
    frequency:   38.3590868214
  - # 26
    frequency:   57.7675582509
  - # 27
    frequency:   68.8427752031

- q-position: [    0.0252525,    0.0000000,    0.0000000 ]
  distance:    0.0085636
  band:
  - # 1
    frequency:   -0.9312335141
  - # 2
    frequency:   -0.8934998558
  - # 3
    frequency:    0.0565609040
  - # 4
    frequency:    0.3332507825
  - # 5
    frequency:    0.5782567479
  - # 6
    frequency:    1.0525466273
  - # 7
    frequency:    1.1248939037
  - # 8
    frequency:    4.5966484182
  - # 9
    frequency:    4.6142142404
  - # 10
    frequency:    5.2119513797
  - # 11
    frequency:    5.8026952521
  - # 12
    frequency:    5.8153863056
  - # 13
    frequency:    6.7214902739
  - # 14
    frequency:    6.7339167447
  - # 15
    frequency:    7.4308334815
  - # 16
    frequency:    9.2838729745
  - # 17
    frequency:   14.0587050774
  - # 18
    frequency:   14.0632659873
  - # 19
    frequency:   15.6445434887
  - # 20
    frequency:   16.8171378576
  - # 21
    frequency:   16.8320285666
  - # 22
    frequency:   17.3085139106
  - # 23
    frequency:   17.3138852247
  - # 24
    frequency:   27.1394783547
  - # 25
    frequency:   38.3589972471
  - # 26
    frequency:   57.7590660335
  - # 27
    frequency:   68.8324274978

- q-position: [    0.0303030,    0.0000000,    0.0000000 ]
  distance:    0.0102763
  band:
  - # 1
    frequency:   -0.9282591845
  - # 2
    frequency:   -0.8747479462
  - # 3
    frequency:    0.0799864214
  - # 4
    frequency:    0.3993815459
  - # 5
    frequency:    0.6921991740
  - # 6
    frequency:    1.0609892289
  - # 7
    frequency:    1.1640190852
  - # 8
    frequency:    4.5963855924
  - # 9
    frequency:    4.6215164689
  - # 10
    frequency:    5.2069070449
  - # 11
    frequency:    5.8064569277
  - # 12
    frequency:    5.8246341535
  - # 13
    frequency:    6.7216591174
  - # 14
    frequency:    6.7394428072
  - # 15
    frequency:    7.4275405231
  - # 16
    frequency:    9.2761185291
  - # 17
    frequency:   14.0593129489
  - # 18
    frequency:   14.0658716821
  - # 19
    frequency:   15.6432960812
  - # 20
    frequency:   16.8145031544
  - # 21
    frequency:   16.8358213530
  - # 22
    frequency:   17.3087056132
  - # 23
    frequency:   17.3164157022
  - # 24
    frequency:   27.1383555314
  - # 25
    frequency:   38.3588886577
  - # 26
    frequency:   57.7487161125
  - # 27
    frequency:   68.8198225581

- q-position: [    0.0353535,    0.0000000,    0.0000000 ]
  distance:    0.0119891
  band:
  - # 1
    frequency:   -0.9246534705
  - # 2
    frequency:   -0.8527836092
  - # 3
    frequency:    0.1067790836
  - # 4
    frequency:    0.4652407977
  - # 5
    frequency:    0.8042062313
  - # 6
    frequency:    1.0709599325
  - # 7
    frequency:    1.2099180784
  - # 8
    frequency:    4.5960805028
  - # 9
    frequency:    4.6300249278
  - # 10
    frequency:    5.2010655940
  - # 11
    frequency:    5.8108654806
  - # 12
    frequency:    5.8354537193
  - # 13
    frequency:    6.7218704549
  - # 14
    frequency:    6.7458989564
  - # 15
    frequency:    7.4236920175
  - # 16
    frequency:    9.2669866672
  - # 17
    frequency:   14.0600289174
  - # 18
    frequency:   14.0689417014
  - # 19
    frequency:   15.6418245764
  - # 20
    frequency:   16.8114176250
  - # 21
    frequency:   16.8402348363
  - # 22
    frequency:   17.3089331137
  - # 23
    frequency:   17.3193880474
  - # 24
    frequency:   27.1370340093
  - # 25
    frequency:   38.3587615810
  - # 26
    frequency:   57.7365260462
  - # 27
    frequency:   68.8049855527

- q-position: [    0.0404040,    0.0000000,    0.0000000 ]
  distance:    0.0137018
  band:
  - # 1
    frequency:   -0.9203859285
  - # 2
    frequency:   -0.8274819809
  - # 3
    frequency:    0.1366868325
  - # 4
    frequency:    0.5307811248
  - # 5
    frequency:    0.9131635441
  - # 6
    frequency:    1.0824673746
  - # 7
    frequency:    1.2629895075
  - # 8
    frequency:    4.5957360907
  - # 9
    frequency:    4.6396812541
  - # 10
    frequency:    5.1944830515
  - # 11
    frequency:    5.8159028138
  - # 12
    frequency:    5.8477946726
  - # 13
    frequency:    6.7221299772
  - # 14
    frequency:    6.7532481719
  - # 15
    frequency:    7.4193105354
  - # 16
    frequency:    9.2564933339
  - # 17
    frequency:   14.0608517972
  - # 18
    frequency:   14.0724714147
  - # 19
    frequency:   15.6401303577
  - # 20
    frequency:   16.8078952365
  - # 21
    frequency:   16.8452354013
  - # 22
    frequency:   17.3091968538
  - # 23
    frequency:   17.3227933567
  - # 24
    frequency:   27.1355164880
  - # 25
    frequency:   38.3586166349
  - # 26
    frequency:   57.7225164813
  - # 27
    frequency:   68.7879460598

- q-position: [    0.0454545,    0.0000000,    0.0000000 ]
  distance:    0.0154145
  band:
  - # 1
    frequency:   -0.9154286027
  - # 2
    frequency:   -0.7986226285
  - # 3
    frequency:    0.1694995042
  - # 4
    frequency:    0.5959428887
  - # 5
    frequency:    1.0176131765
  - # 6
    frequency:    1.0955330095
  - # 7
    frequency:    1.3240208101
  - # 8
    frequency:    4.5953558757
  - # 9
    frequency:    4.6504197235
  - # 10
    frequency:    5.1872218963
  - # 11
    frequency:    5.8215483775
  - # 12
    frequency:    5.8616016578
  - # 13
    frequency:    6.7224440900
  - # 14
    frequency:    6.7614478662
  - # 15
    frequency:    7.4144229167
  - # 16
    frequency:    9.2446567108
  - # 17
    frequency:   14.0617802410
  - # 18
    frequency:   14.0764555433
  - # 19
    frequency:   15.6382150447
  - # 20
    frequency:   16.8039519978
  - # 21
    frequency:   16.8507848891
  - # 22
    frequency:   17.3094973208
  - # 23
    frequency:   17.3266215122
  - # 24
    frequency:   27.1338060633
  - # 25
    frequency:   38.3584545250
  - # 26
    frequency:   57.7067111015
  - # 27
    frequency:   68.7687379842

- q-position: [    0.0505051,    0.0000000,    0.0000000 ]
  distance:    0.0171272
  band:
  - # 1
    frequency:   -0.9097565221
  - # 2
    frequency:   -0.7658827692
  - # 3
    frequency:    0.2050488161
  - # 4
    frequency:    0.6606451536
  - # 5
    frequency:    1.1101989317
  - # 6
    frequency:    1.1159105984
  - # 7
    frequency:    1.3940453631
  - # 8
    frequency:    4.5949439970
  - # 9
    frequency:    4.6621677459
  - # 10
    frequency:    5.1793508408
  - # 11
    frequency:    5.8277793084
  - # 12
    frequency:    5.8768148993
  - # 13
    frequency:    6.7228198443
  - # 14
    frequency:    6.7704498418
  - # 15
    frequency:    7.4090606527
  - # 16
    frequency:    9.2314971334
  - # 17
    frequency:   14.0628127476
  - # 18
    frequency:   14.0808881846
  - # 19
    frequency:   15.6360805021
  - # 20
    frequency:   16.7996059133
  - # 21
    frequency:   16.8568408519
  - # 22
    frequency:   17.3098350391
  - # 23
    frequency:   17.3308612461
  - # 24
    frequency:   27.1319062180
  - # 25
    frequency:   38.3582760410
  - # 26
    frequency:   57.6891365681
  - # 27
    frequency:   68.7473994624

- q-position: [    0.0555556,    0.0000000,    0.0000000 ]
  distance:    0.0188400
  band:
  - # 1
    frequency:   -0.9033476903
  - # 2
    frequency:   -0.7288171339
  - # 3
    frequency:    0.2432039567
  - # 4
    frequency:    0.7247727753
  - # 5
    frequency:    1.1265397409
  - # 6
    frequency:    1.2067942401
  - # 7
    frequency:    1.4737753326
  - # 8
    frequency:    4.5945052535
  - # 9
    frequency:    4.6748462963
  - # 10
    frequency:    5.1709448855
  - # 11
    frequency:    5.8345705849
  - # 12
    frequency:    5.8933706814
  - # 13
    frequency:    6.7232648563
  - # 14
    frequency:    6.7802001836
  - # 15
    frequency:    7.4032603469
  - # 16
    frequency:    9.2170370040
  - # 17
    frequency:   14.0639476715
  - # 18
    frequency:   14.0857628372
  - # 19
    frequency:   15.6337288497
  - # 20
    frequency:   16.7948769301
  - # 21
    frequency:   16.8633568330
  - # 22
    frequency:   17.3102105615
  - # 23
    frequency:   17.3355002128
  - # 24
    frequency:   27.1298208135
  - # 25
    frequency:   38.3580820533
  - # 26
    frequency:   57.6698224539
  - # 27
    frequency:   68.7239727563

- q-position: [    0.0606061,    0.0000000,    0.0000000 ]
  distance:    0.0205527
  band:
  - # 1
    frequency:   -0.8961827226
  - # 2
    frequency:   -0.6868144482
  - # 3
    frequency:    0.2838646517
  - # 4
    frequency:    0.7881573931
  - # 5
    frequency:    1.1446807876
  - # 6
    frequency:    1.2901723465
  - # 7
    frequency:    1.5628106730
  - # 8
    frequency:    4.5940451407
  - # 9
    frequency:    4.6883702270
  - # 10
    frequency:    5.1620856893
  - # 11
    frequency:    5.8418951967
  - # 12
    frequency:    5.9112017093
  - # 13
    frequency:    6.7237872182
  - # 14
    frequency:    6.7906390747
  - # 15
    frequency:    7.3970642653
  - # 16
    frequency:    9.2013007021
  - # 17
    frequency:   14.0651832329
  - # 18
    frequency:   14.0910724267
  - # 19
    frequency:   15.6311624733
  - # 20
    frequency:   16.7897868792
  - # 21
    frequency:   16.8702826673
  - # 22
    frequency:   17.3106244588
  - # 23
    frequency:   17.3405250666
  - # 24
    frequency:   27.1275540786
  - # 25
    frequency:   38.3578735092
  - # 26
    frequency:   57.6488011694
  - # 27
    frequency:   68.6985041353

- q-position: [    0.0656566,    0.0000000,    0.0000000 ]
  distance:    0.0222654
  band:
  - # 1
    frequency:   -0.8882442699
  - # 2
    frequency:   -0.6390122093
  - # 3
    frequency:    0.3269526202
  - # 4
    frequency:    0.8505489304
  - # 5
    frequency:    1.1648262069
  - # 6
    frequency:    1.3672852198
  - # 7
    frequency:    1.6594697902
  - # 8
    frequency:    4.5935698824
  - # 9
    frequency:    4.7026483955
  - # 10
    frequency:    5.1528622956
  - # 11
    frequency:    5.8497243295
  - # 12
    frequency:    5.9302373647
  - # 13
    frequency:    6.7243953988
  - # 14
    frequency:    6.8017005187
  - # 15
    frequency:    7.3905209858
  - # 16
    frequency:    9.1843144941
  - # 17
    frequency:   14.0665175281
  - # 18
    frequency:   14.0968093311
  - # 19
    frequency:   15.6283840365
  - # 20
    frequency:   16.7843594092
  - # 21
    frequency:   16.8775648008
  - # 22
    frequency:   17.3110773103
  - # 23
    frequency:   17.3459215460
  - # 24
    frequency:   27.1251105987
  - # 25
    frequency:   38.3576514282
  - # 26
    frequency:   57.6261078823
  - # 27
    frequency:   68.6710437469

- q-position: [    0.0707071,    0.0000000,    0.0000000 ]
  distance:    0.0239781
  band:
  - # 1
    frequency:   -0.8795163346
  - # 2
    frequency:   -0.5841279715
  - # 3
    frequency:    0.3724014316
  - # 4
    frequency:    0.9115737630
  - # 5
    frequency:    1.1873005466
  - # 6
    frequency:    1.4399721641
  - # 7
    frequency:    1.7615146686
  - # 8
    frequency:    4.5930864555
  - # 9
    frequency:    4.7175835298
  - # 10
    frequency:    5.1433722698
  - # 11
    frequency:    5.8580275596
  - # 12
    frequency:    5.9504038755
  - # 13
    frequency:    6.7250981341
  - # 14
    frequency:    6.8133119615
  - # 15
    frequency:    7.3836861584
  - # 16
    frequency:    9.1661064433
  - # 17
    frequency:   14.0679485410
  - # 18
    frequency:   14.1029654057
  - # 19
    frequency:   15.6253964943
  - # 20
    frequency:   16.7786199145
  - # 21
    frequency:   16.8851466241
  - # 22
    frequency:   17.3115696933
  - # 23
    frequency:   17.3516745639
  - # 24
    frequency:   27.1224953035
  - # 25
    frequency:   38.3574168978
  - # 26
    frequency:   57.6017804304
  - # 27
    frequency:   68.6416454771

- q-position: [    0.0757576,    0.0000000,    0.0000000 ]
  distance:    0.0256909
  band:
  - # 1
    frequency:   -0.8699835522
  - # 2
    frequency:   -0.5200977877
  - # 3
    frequency:    0.4201441281
  - # 4
    frequency:    0.9706796554
  - # 5
    frequency:    1.2126038417
  - # 6
    frequency:    1.5098843647
  - # 7
    frequency:    1.8669302970
  - # 8
    frequency:    4.5926026075
  - # 9
    frequency:    4.7330717238
  - # 10
    frequency:    5.1337233257
  - # 11
    frequency:    5.8667730610
  - # 12
    frequency:    5.9716244176
  - # 13
    frequency:    6.7259043098
  - # 14
    frequency:    6.8253938069
  - # 15
    frequency:    7.3766233801
  - # 16
    frequency:    9.1467063240
  - # 17
    frequency:   14.0694741546
  - # 18
    frequency:   14.1095320069
  - # 19
    frequency:   15.6222031066
  - # 20
    frequency:   16.7725954563
  - # 21
    frequency:   16.8929688170
  - # 22
    frequency:   17.3121021731
  - # 23
    frequency:   17.3577683022
  - # 24
    frequency:   27.1197134534
  - # 25
    frequency:   38.3571710686
  - # 26
    frequency:   57.5758592279
  - # 27
    frequency:   68.6103667995

- q-position: [    0.0808081,    0.0000000,    0.0000000 ]
  distance:    0.0274036
  band:
  - # 1
    frequency:   -0.8596304750
  - # 2
    frequency:   -0.4431799265
  - # 3
    frequency:    0.4700978521
  - # 4
    frequency:    1.0270866538
  - # 5
    frequency:    1.2414608861
  - # 6
    frequency:    1.5781943349
  - # 7
    frequency:    1.9742081965
  - # 8
    frequency:    4.5921268643
  - # 9
    frequency:    4.7490014340
  - # 10
    frequency:    5.1240355497
  - # 11
    frequency:    5.8759278190
  - # 12
    frequency:    5.9938191641
  - # 13
    frequency:    6.7268228340
  - # 14
    frequency:    6.8378588334
  - # 15
    frequency:    7.3694051821
  - # 16
    frequency:    9.1261455388
  - # 17
    frequency:   14.0710921632
  - # 18
    frequency:   14.1165000146
  - # 19
    frequency:   15.6188074548
  - # 20
    frequency:   16.7663146772
  - # 21
    frequency:   16.9009697011
  - # 22
    frequency:   17.3126752924
  - # 23
    frequency:   17.3641863106
  - # 24
    frequency:   27.1167706256
  - # 25
    frequency:   38.3569151489
  - # 26
    frequency:   57.5483871651
  - # 27
    frequency:   68.5772686160

- q-position: [    0.0858586,    0.0000000,    0.0000000 ]
  distance:    0.0291163
  band:
  - # 1
    frequency:   -0.8484408752
  - # 2
    frequency:   -0.3450837574
  - # 3
    frequency:    0.5221455536
  - # 4
    frequency:    1.0798146299
  - # 5
    frequency:    1.2747939622
  - # 6
    frequency:    1.6456427490
  - # 7
    frequency:    2.0822933455
  - # 8
    frequency:    4.5916685288
  - # 9
    frequency:    4.7652518094
  - # 10
    frequency:    5.1144443760
  - # 11
    frequency:    5.8854578509
  - # 12
    frequency:    6.0169052921
  - # 13
    frequency:    6.7278625032
  - # 14
    frequency:    6.8506115364
  - # 15
    frequency:    7.3621141125
  - # 16
    frequency:    9.1044570429
  - # 17
    frequency:   14.0728002842
  - # 18
    frequency:   14.1238598519
  - # 19
    frequency:   15.6152134587
  - # 20
    frequency:   16.7598077099
  - # 21
    frequency:   16.9090855958
  - # 22
    frequency:   17.3132895614
  - # 23
    frequency:   17.3709116093
  - # 24
    frequency:   27.1136726992
  - # 25
    frequency:   38.3566503994
  - # 26
    frequency:   57.5194095032
  - # 27
    frequency:   68.5424150863

- q-position: [    0.0909091,    0.0000000,    0.0000000 ]
  distance:    0.0308290
  band:
  - # 1
    frequency:   -0.8363970629
  - # 2
    frequency:   -0.1965042070
  - # 3
    frequency:    0.5761170983
  - # 4
    frequency:    1.1279178101
  - # 5
    frequency:    1.3134886479
  - # 6
    frequency:    1.7126692685
  - # 7
    frequency:    2.1904478490
  - # 8
    frequency:    4.5912376691
  - # 9
    frequency:    4.7816901643
  - # 10
    frequency:    5.1051044908
  - # 11
    frequency:    5.8953284309
  - # 12
    frequency:    6.0407969536
  - # 13
    frequency:    6.7290318602
  - # 14
    frequency:    6.8635474489
  - # 15
    frequency:    7.3548438665
  - # 16
    frequency:    9.0816752745
  - # 17
    frequency:   14.0745961709
  - # 18
    frequency:   14.1316015032
  - # 19
    frequency:   15.6114253953
  - # 20
    frequency:   16.7531060786
  - # 21
    frequency:   16.9172511764
  - # 22
    frequency:   17.3139454480
  - # 23
    frequency:   17.3779267930
  - # 24
    frequency:   27.1104258389
  - # 25
    frequency:   38.3563781277
  - # 26
    frequency:   57.4889737624
  - # 27
    frequency:   68.5058734499

- q-position: [    0.0959596,    0.0000000,    0.0000000 ]
  distance:    0.0325418
  band:
  - # 1
    frequency:   -0.8234792059
  - # 2
    frequency:    0.2121957568
  - # 3
    frequency:    0.6317754014
  - # 4
    frequency:    1.1709474788
  - # 5
    frequency:    1.3579314844
  - # 6
    frequency:    1.7795230170
  - # 7
    frequency:    2.2981355953
  - # 8
    frequency:    4.5908450955
  - # 9
    frequency:    4.7981684088
  - # 10
    frequency:    5.0961948441
  - # 11
    frequency:    5.9055043156
  - # 12
    frequency:    6.0654052087
  - # 13
    frequency:    6.7303390478
  - # 14
    frequency:    6.8765525438
  - # 15
    frequency:    7.3477003730
  - # 16
    frequency:    9.0578360950
  - # 17
    frequency:   14.0764774245
  - # 18
    frequency:   14.1397145304
  - # 19
    frequency:   15.6074479194
  - # 20
    frequency:   16.7462425943
  - # 21
    frequency:   16.9253998308
  - # 22
    frequency:   17.3146433679
  - # 23
    frequency:   17.3852141365
  - # 24
    frequency:   27.1070364788
  - # 25
    frequency:   38.3560996824
  - # 26
    frequency:   57.4571296057
  - # 27
    frequency:   68.4677138390

- q-position: [    0.1010101,    0.0000000,    0.0000000 ]
  distance:    0.0342545
  band:
  - # 1
    frequency:   -0.8096646263
  - # 2
    frequency:    0.3633603816
  - # 3
    frequency:    0.6888154417
  - # 4
    frequency:    1.2092807610
  - # 5
    frequency:    1.4076815743
  - # 6
    frequency:    1.8463365960
  - # 7
    frequency:    2.4049438949
  - # 8
    frequency:    4.5905023280
  - # 9
    frequency:    4.8145183830
  - # 10
    frequency:    5.0879248180
  - # 11
    frequency:    5.9159499697
  - # 12
    frequency:    6.0906379208
  - # 13
    frequency:    6.7317916571
  - # 14
    frequency:    6.8895028864
  - # 15
    frequency:    7.3408026763
  - # 16
    frequency:    9.0329767374
  - # 17
    frequency:   14.0784416061
  - # 18
    frequency:   14.1481880850
  - # 19
    frequency:   15.6032860854
  - # 20
    frequency:   16.7392512446
  - # 21
    frequency:   16.9334640133
  - # 22
    frequency:   17.3153836756
  - # 23
    frequency:   17.3927556992
  - # 24
    frequency:   27.1035113049
  - # 25
    frequency:   38.3558164471
  - # 26
    frequency:   57.4239287168
  - # 27
    frequency:   68.4280090834

- q-position: [    0.1060606,    0.0000000,    0.0000000 ]
  distance:    0.0359672
  band:
  - # 1
    frequency:   -0.7949270437
  - # 2
    frequency:    0.4719841175
  - # 3
    frequency:    0.7468817238
  - # 4
    frequency:    1.2439159185
  - # 5
    frequency:    1.4616756634
  - # 6
    frequency:    1.9131720146
  - # 7
    frequency:    2.5105336264
  - # 8
    frequency:    4.5902215522
  - # 9
    frequency:    4.8305464568
  - # 10
    frequency:    5.0805411799
  - # 11
    frequency:    5.9266297883
  - # 12
    frequency:    6.1163996068
  - # 13
    frequency:    6.7333965748
  - # 14
    frequency:    6.9022648124
  - # 15
    frequency:    7.3342833495
  - # 16
    frequency:    9.0071357656
  - # 17
    frequency:   14.0804862484
  - # 18
    frequency:   14.1570109197
  - # 19
    frequency:   15.5989453701
  - # 20
    frequency:   16.7321670763
  - # 21
    frequency:   16.9413755922
  - # 22
    frequency:   17.3161666558
  - # 23
    frequency:   17.4005334285
  - # 24
    frequency:   27.0998572366
  - # 25
    frequency:   38.3555298340
  - # 26
    frequency:   57.3894246745
  - # 27
    frequency:   68.3868345089

- q-position: [    0.1111111,    0.0000000,    0.0000000 ]
  distance:    0.0376799
  band:
  - # 1
    frequency:   -0.7792357257
  - # 2
    frequency:    0.5637159372
  - # 3
    frequency:    0.8056019449
  - # 4
    frequency:    1.2759725106
  - # 5
    frequency:    1.5187283433
  - # 6
    frequency:    1.9800485587
  - # 7
    frequency:    2.6146077889
  - # 8
    frequency:    4.5900155651
  - # 9
    frequency:    4.8460288056
  - # 10
    frequency:    5.0743343913
  - # 11
    frequency:    5.9375083139
  - # 12
    frequency:    6.1425912348
  - # 13
    frequency:    6.7351598290
  - # 14
    frequency:    6.9146960332
  - # 15
    frequency:    7.3282880466
  - # 16
    frequency:    8.9803530449
  - # 17
    frequency:   14.0826088670
  - # 18
    frequency:   14.1661713961
  - # 19
    frequency:   15.5944316962
  - # 20
    frequency:   16.7250260728
  - # 21
    frequency:   16.9490661932
  - # 22
    frequency:   17.3169925148
  - # 23
    frequency:   17.4085292577
  - # 24
    frequency:   27.0960814080
  - # 25
    frequency:   38.3552412782
  - # 26
    frequency:   57.3536728222
  - # 27
    frequency:   68.3442677285

- q-position: [    0.1161616,    0.0000000,    0.0000000 ]
  distance:    0.0393926
  band:
  - # 1
    frequency:   -0.7625544984
  - # 2
    frequency:    0.6462920772
  - # 3
    frequency:    0.8646261238
  - # 4
    frequency:    1.3063661986
  - # 5
    frequency:    1.5778575917
  - # 6
    frequency:    2.0469596939
  - # 7
    frequency:    2.7168913253
  - # 8
    frequency:    4.5898977118
  - # 9
    frequency:    4.8607109463
  - # 10
    frequency:    5.0696406535
  - # 11
    frequency:    5.9485504447
  - # 12
    frequency:    6.1691099654
  - # 13
    frequency:    6.7370864386
  - # 14
    frequency:    6.9266482140
  - # 15
    frequency:    7.3229736553
  - # 16
    frequency:    8.9526697239
  - # 17
    frequency:   14.0848069709
  - # 18
    frequency:   14.1756574911
  - # 19
    frequency:   15.5897514559
  - # 20
    frequency:   16.7178650254
  - # 21
    frequency:   16.9564675348
  - # 22
    frequency:   17.3178613732
  - # 23
    frequency:   17.4167251993
  - # 24
    frequency:   27.0921911486
  - # 25
    frequency:   38.3549522312
  - # 26
    frequency:   57.3167301338
  - # 27
    frequency:   68.3003884276

- q-position: [    0.1212121,    0.0000000,    0.0000000 ]
  distance:    0.0411054
  band:
  - # 1
    frequency:   -0.7448405519
  - # 2
    frequency:    0.7233284725
  - # 3
    frequency:    0.9236583762
  - # 4
    frequency:    1.3357408010
  - # 5
    frequency:    1.6383530394
  - # 6
    frequency:    2.1138833963
  - # 7
    frequency:    2.8171178219
  - # 8
    frequency:    4.5898818118
  - # 9
    frequency:    4.8743186001
  - # 10
    frequency:    5.0668325583