nqpoint: 300    
npath: 3      
segment_nqpoint:
- 100
- 100
- 100
labels:
- [ 'G', 'M' ]
- [ 'M', 'K' ]
- [ 'K', 'G' ]
reciprocal_lattice:
- [   0.30209274,   0.17441333,   0.00000000 ] # a*
- [   0.00000000,   0.34882665,   0.00000000 ] # b*
- [   0.00000000,   0.00000000,   0.04406301 ] # c*
natom: 5      
lattice:
- [     3.310241711576861,     0.000000000000000,     0.000000000000000 ] # a
- [    -1.655120855788430,     2.866753414889001,     0.000000000000000 ] # b
- [     0.000000000000000,     0.000000000000000,    22.694770440967705 ] # c
points:
- symbol: C # 1
  coordinates: [  0.000000000000000,  0.000000000000000,  0.497780155810955 ]
  mass: 12.010700
- symbol: H # 2
  coordinates: [  0.666666984744047,  0.333332985985144,  0.396567130890804 ]
  mass: 1.007940
- symbol: O # 3
  coordinates: [  0.333332985432215,  0.666666983183674,  0.603432869109195 ]
  mass: 15.999400
- symbol: Zr # 4
  coordinates: [  0.333332985432215,  0.666666983183674,  0.442094281587378 ]
  mass: 91.224000
- symbol: Zr # 5
  coordinates: [  0.666666984744047,  0.333332985985144,  0.560759058058845 ]
  mass: 91.224000

phonon:
- q-position: [    0.0000000,    0.0000000,    0.0000000 ]
  distance:    0.0000000
  band:
  - # 1
    frequency:   -0.0000118555
  - # 2
    frequency:   -0.0000002062
  - # 3
    frequency:    0.0000088469
  - # 4
    frequency:    3.3833163507
  - # 5
    frequency:    3.3833163508
  - # 6
    frequency:    6.7641804664
  - # 7
    frequency:   10.0519201564
  - # 8
    frequency:   10.0519201565
  - # 9
    frequency:   13.6230512664
  - # 10
    frequency:   13.6230512664
  - # 11
    frequency:   15.0236900946
  - # 12
    frequency:   18.6440994943
  - # 13
    frequency:   26.3606613412
  - # 14
    frequency:   26.3606613413
  - # 15
    frequency:   27.1233726822

- q-position: [    0.0050505,    0.0000000,    0.0000000 ]
  distance:    0.0017618
  band:
  - # 1
    frequency:    0.0019909048
  - # 2
    frequency:    0.0717149870
  - # 3
    frequency:    0.1192079611
  - # 4
    frequency:    3.3835949940
  - # 5
    frequency:    3.3854793405
  - # 6
    frequency:    6.7635264963
  - # 7
    frequency:   10.0505909853
  - # 8
    frequency:   10.0513549250
  - # 9
    frequency:   13.6205591456
  - # 10
    frequency:   13.6214711316
  - # 11
    frequency:   15.0233091504
  - # 12
    frequency:   18.6424061247
  - # 13
    frequency:   26.3619189502
  - # 14
    frequency:   26.3620979966
  - # 15
    frequency:   27.1242922091

- q-position: [    0.0101010,    0.0000000,    0.0000000 ]
  distance:    0.0035235
  band:
  - # 1
    frequency:    0.0079541358
  - # 2
    frequency:    0.1434332918
  - # 3
    frequency:    0.2384138570
  - # 4
    frequency:    3.3844335908
  - # 5
    frequency:    3.3919507280
  - # 6
    frequency:    6.7615680727
  - # 7
    frequency:   10.0465985348
  - # 8
    frequency:   10.0496628529
  - # 9
    frequency:   13.6131063550
  - # 10
    frequency:   13.6167371759
  - # 11
    frequency:   15.0221534351
  - # 12
    frequency:   18.6373334987
  - # 13
    frequency:   26.3656838216
  - # 14
    frequency:   26.3663699075
  - # 15
    frequency:   27.1270770726

- q-position: [    0.0151515,    0.0000000,    0.0000000 ]
  distance:    0.0052853
  band:
  - # 1
    frequency:    0.0178615410
  - # 2
    frequency:    0.2151578677
  - # 3
    frequency:    0.3576126965
  - # 4
    frequency:    3.3858400670
  - # 5
    frequency:    3.4026782303
  - # 6
    frequency:    6.7583156490
  - # 7
    frequency:   10.0399280371
  - # 8
    frequency:   10.0468547353
  - # 9
    frequency:   13.6007627109
  - # 10
    frequency:   13.6088687071
  - # 11
    frequency:   15.0201851637
  - # 12
    frequency:   18.6289040551
  - # 13
    frequency:   26.3719321816
  - # 14
    frequency:   26.3733629070
  - # 15
    frequency:   27.1318062283

- q-position: [    0.0202020,    0.0000000,    0.0000000 ]
  distance:    0.0070470
  band:
  - # 1
    frequency:    0.0316670676
  - # 2
    frequency:    0.2868909359
  - # 3
    frequency:    0.4767936710
  - # 4
    frequency:    3.3878273818
  - # 5
    frequency:    3.4175762158
  - # 6
    frequency:    6.7537866255
  - # 7
    frequency:   10.0305550251
  - # 8
    frequency:   10.0429483266
  - # 9
    frequency:   13.5836416805
  - # 10
    frequency:   13.5978977803
  - # 11
    frequency:   15.0173441315
  - # 12
    frequency:   18.6171551620
  - # 13
    frequency:   26.3806247112
  - # 14
    frequency:   26.3828868845
  - # 15
    frequency:   27.1386114510

- q-position: [    0.0252525,    0.0000000,    0.0000000 ]
  distance:    0.0088088
  band:
  - # 1
    frequency:    0.0493079906
  - # 2
    frequency:    0.3586336176
  - # 3
    frequency:    0.5959373192
  - # 4
    frequency:    3.3904131593
  - # 5
    frequency:    3.4365278423
  - # 6
    frequency:    6.7480053150
  - # 7
    frequency:   10.0184455553
  - # 8
    frequency:   10.0379679887
  - # 9
    frequency:   13.5618963905
  - # 10
    frequency:   13.5838690169
  - # 11
    frequency:   15.0135515316
  - # 12
    frequency:   18.6021390680
  - # 13
    frequency:   26.3917069931
  - # 14
    frequency:   26.3946766593
  - # 15
    frequency:   27.1476769785

- q-position: [    0.0303030,    0.0000000,    0.0000000 ]
  distance:    0.0105705
  band:
  - # 1
    frequency:    0.0707064794
  - # 2
    frequency:    0.4303855616
  - # 3
    frequency:    0.7150127743
  - # 4
    frequency:    3.3936191855
  - # 5
    frequency:    3.4593878252
  - # 6
    frequency:    6.7410028921
  - # 7
    frequency:   10.0035565299
  - # 8
    frequency:   10.0319442086
  - # 9
    frequency:   13.5357146607
  - # 10
    frequency:   13.5668393636
  - # 11
    frequency:   15.0087146890
  - # 12
    frequency:   18.5839228260
  - # 13
    frequency:   26.4051101216
  - # 14
    frequency:   26.4083944629
  - # 15
    frequency:   27.1592377388

- q-position: [    0.0353535,    0.0000000,    0.0000000 ]
  distance:    0.0123323
  band:
  - # 1
    frequency:    0.0957713799
  - # 2
    frequency:    0.5021445708
  - # 3
    frequency:    0.8339751081
  - # 4
    frequency:    3.3974707852
  - # 5
    frequency:    3.4859856448
  - # 6
    frequency:    6.7328173238
  - # 7
    frequency:    9.9858361273
  - # 8
    frequency:   10.0249129941
  - # 9
    frequency:   13.5053135438
  - # 10
    frequency:   13.5468778027
  - # 11
    frequency:   15.0027322496
  - # 12
    frequency:   18.5625881851
  - # 13
    frequency:   26.4207514585
  - # 14
    frequency:   26.4236352767
  - # 15
    frequency:   27.1735748997

- q-position: [    0.0404040,    0.0000000,    0.0000000 ]
  distance:    0.0140940
  band:
  - # 1
    frequency:    0.1244000841
  - # 2
    frequency:    0.5739062267
  - # 3
    frequency:    0.9527627768
  - # 4
    frequency:    3.4019960945
  - # 5
    frequency:    3.5161289857
  - # 6
    frequency:    6.7234932777
  - # 7
    frequency:    9.9652243558
  - # 8
    frequency:   10.0169151597
  - # 9
    frequency:   13.4709338233
  - # 10
    frequency:   13.5240650271
  - # 11
    frequency:   14.9954993834
  - # 12
    frequency:   18.5382314392
  - # 13
    frequency:   26.4385355154
  - # 14
    frequency:   26.4399364663
  - # 15
    frequency:   27.1910072839

- q-position: [    0.0454545,    0.0000000,    0.0000000 ]
  distance:    0.0158558
  band:
  - # 1
    frequency:    0.1564803672
  - # 2
    frequency:    0.6456635153
  - # 3
    frequency:    1.0712951614
  - # 4
    frequency:    3.4072252485
  - # 5
    frequency:    3.5496072131
  - # 6
    frequency:    6.7130820029
  - # 7
    frequency:    9.9416537475
  - # 8
    frequency:   10.0079955163
  - # 9
    frequency:   13.4328348497
  - # 10
    frequency:   13.4984930938
  - # 11
    frequency:   14.9869126419
  - # 12
    frequency:   18.5109632235
  - # 13
    frequency:   26.4567930045
  - # 14
    frequency:   26.4583549424
  - # 15
    frequency:   27.2118773364

- q-position: [    0.0505051,    0.0000000,    0.0000000 ]
  distance:    0.0176175
  band:
  - # 1
    frequency:    0.1918920933
  - # 2
    frequency:    0.7174064581
  - # 3
    frequency:    1.1894701883
  - # 4
    frequency:    3.4131895054
  - # 5
    frequency:    3.5861947088
  - # 6
    frequency:    6.7016411799
  - # 7
    frequency:    9.9150502185
  - # 8
    frequency:    9.9982019823
  - # 9
    frequency:   13.3912899818
  - # 10
    frequency:   13.4702650713
  - # 11
    frequency:   14.9768742184
  - # 12
    frequency:   18.4809082476
  - # 13
    frequency:   26.4736788460
  - # 14
    frequency:   26.4800915981
  - # 15
    frequency:   27.2365310634

- q-position: [    0.0555556,    0.0000000,    0.0000000 ]
  distance:    0.0193793
  band:
  - # 1
    frequency:    0.2305087147
  - # 2
    frequency:    0.7891217518
  - # 3
    frequency:    1.3071619991
  - # 4
    frequency:    3.4199203316
  - # 5
    frequency:    3.6256539275
  - # 6
    frequency:    6.6892347315
  - # 7
    frequency:    9.8853341247
  - # 8
    frequency:    9.9875846322
  - # 9
    frequency:   13.3465827880
  - # 10
    frequency:   13.4394946941
  - # 11
    frequency:   14.9652954706
  - # 12
    frequency:   18.4482049523
  - # 13
    frequency:   26.4900736066
  - # 14
    frequency:   26.5036176782
  - # 15
    frequency:   27.2652927646

- q-position: [    0.0606061,    0.0000000,    0.0000000 ]
  distance:    0.0211410
  band:
  - # 1
    frequency:    0.2721985174
  - # 2
    frequency:    0.8607924228
  - # 3
    frequency:    1.4242186298
  - # 4
    frequency:    3.4274484707
  - # 5
    frequency:    3.6677380707
  - # 6
    frequency:    6.6759325876
  - # 7
    frequency:    9.8524215520
  - # 8
    frequency:    9.9761947042
  - # 9
    frequency:   13.2990040670
  - # 10
    frequency:   13.4063060363
  - # 11
    frequency:   14.9520996608
  - # 12
    frequency:   18.4130050768
  - # 13
    frequency:   26.5054918293
  - # 14
    frequency:   26.5287968784
  - # 15
    frequency:   27.2984372591

- q-position: [    0.0656566,    0.0000000,    0.0000000 ]
  distance:    0.0229028
  band:
  - # 1
    frequency:    0.3168255864
  - # 2
    frequency:    0.9323975012
  - # 3
    frequency:    1.5404596491
  - # 4
    frequency:    3.4358030219
  - # 5
    frequency:    3.7121933174
  - # 6
    frequency:    6.6618103956
  - # 7
    frequency:    9.8162258879
  - # 8
    frequency:    9.9640835871
  - # 9
    frequency:   13.2488496635
  - # 10
    frequency:   13.3708332146
  - # 11
    frequency:   14.9372239405
  - # 12
    frequency:   18.3754731253
  - # 13
    frequency:   26.5195104739
  - # 14
    frequency:   26.5554855679
  - # 15
    frequency:   27.3361639447

- q-position: [    0.0707071,    0.0000000,    0.0000000 ]
  distance:    0.0246645
  band:
  - # 1
    frequency:    0.3642504816
  - # 2
    frequency:    1.0039117210
  - # 3
    frequency:    1.6556736908
  - # 4
    frequency:    3.4450105521
  - # 5
    frequency:    3.7587605860
  - # 6
    frequency:    6.6469491653
  - # 7
    frequency:    9.7766597322
  - # 8
    frequency:    9.9513018104
  - # 9
    frequency:   13.1964190116
  - # 10
    frequency:   13.3332201251
  - # 11
    frequency:   14.9206206511
  - # 12
    frequency:   18.3357857177
  - # 13
    frequency:   26.5317897631
  - # 14
    frequency:   26.5835339537
  - # 15
    frequency:   27.3785775381

- q-position: [    0.0757576,    0.0000000,    0.0000000 ]
  distance:    0.0264263
  band:
  - # 1
    frequency:    0.4143306263
  - # 2
    frequency:    1.0753052515
  - # 3
    frequency:    1.7696158094
  - # 4
    frequency:    3.4550942644
  - # 5
    frequency:    3.8071768350
  - # 6
    frequency:    6.6314348364
  - # 7
    frequency:    9.7336372156
  - # 8
    frequency:    9.9378980614
  - # 9
    frequency:   13.1420142982
  - # 10
    frequency:   13.2936202176
  - # 11
    frequency:   14.9022580370
  - # 12
    frequency:   18.2941308165
  - # 13
    frequency:   26.5420837237
  - # 14
    frequency:   26.6127872160
  - # 15
    frequency:   27.4256791393

- q-position: [    0.0808081,    0.0000000,    0.0000000 ]
  distance:    0.0281880
  band:
  - # 1
    frequency:    0.4669204101
  - # 2
    frequency:    1.1465434647
  - # 3
    frequency:    1.8820045709
  - # 4
    frequency:    3.4660732440
  - # 5
    frequency:    3.8571759388
  - # 6
    frequency:    6.6153577542
  - # 7
    frequency:    9.6870768046
  - # 8
    frequency:    9.9239182545
  - # 9
    frequency:   13.0859401316
  - # 10
    frequency:   13.2521963025
  - # 11
    frequency:   14.8821204707
  - # 12
    frequency:   18.2507068186
  - # 13
    frequency:   26.5502393525
  - # 14
    frequency:   26.6430865974
  - # 15
    frequency:   27.4773686743

- q-position: [    0.0858586,    0.0000000,    0.0000000 ]
  distance:    0.0299498
  band:
  - # 1
    frequency:    0.5218710017
  - # 2
    frequency:    1.2175867430
  - # 3
    frequency:    1.9925187841
  - # 4
    frequency:    3.4779618003
  - # 5
    frequency:    3.9084891943
  - # 6
    frequency:    6.5988120364
  - # 7
    frequency:    9.6369046860
  - # 8
    frequency:    9.9094046816
  - # 9
    frequency:   13.0285035920
  - # 10
    frequency:   13.2091203836
  - # 11
    frequency:   14.8602082858
  - # 12
    frequency:   18.2057215073
  - # 13
    frequency:   26.5561861774
  - # 14
    frequency:   26.6742704338
  - # 15
    frequency:   27.5334569301

- q-position: [    0.0909091,    0.0000000,    0.0000000 ]
  distance:    0.0317115
  band:
  - # 1
    frequency:    0.5790298560
  - # 2
    frequency:    1.2883903277
  - # 3
    frequency:    2.1007937650
  - # 4
    frequency:    3.4907689189
  - # 5
    frequency:    3.9608455383
  - # 6
    frequency:    6.5818948107
  - # 7
    frequency:    9.5830588296
  - # 8
    frequency:    9.8943952699
  - # 9
    frequency:   12.9700145403
  - # 10
    frequency:   13.1645735023
  - # 11
    frequency:   14.8365373034
  - # 12
    frequency:   18.1593908604
  - # 13
    frequency:   26.5599198592
  - # 14
    frequency:   26.7061751164
  - # 15
    frequency:   27.5936835225

- q-position: [    0.0959596,    0.0000000,    0.0000000 ]
  distance:    0.0334733
  band:
  - # 1
    frequency:    0.6382398718
  - # 2
    frequency:    1.3589042115
  - # 3
    frequency:    2.2064170168
  - # 4
    frequency:    3.5044978377
  - # 5
    frequency:    4.0139715701
  - # 6
    frequency:    6.5647052986
  - # 7
    frequency:    9.5254938390
  - # 8
    frequency:    9.8789229791
  - # 9
    frequency:   12.9107860716
  - # 10
    frequency:   13.1187455729
  - # 11
    frequency:   14.8111381212
  - # 12
    frequency:   18.1119377177
  - # 13
    frequency:   26.5614838494
  - # 14
    frequency:   26.7386359763
  - # 15
    frequency:   27.6577367742

- q-position: [    0.1010101,    0.0000000,    0.0000000 ]
  distance:    0.0352350
  band:
  - # 1
    frequency:    0.6993381299
  - # 2
    frequency:    1.4290730711
  - # 3
    frequency:    2.3089232055
  - # 4
    frequency:    3.5191457516
  - # 5
    frequency:    4.0675914928
  - # 6
    frequency:    6.5473437160
  - # 7
    frequency:    9.4641866985
  - # 8
    frequency:    9.8630153676
  - # 9
    frequency:   12.8511349975
  - # 10
    frequency:   13.0718351851
  - # 11
    frequency:   14.7840552256
  - # 12
    frequency:   18.0635903122
  - # 13
    frequency:   26.5609522744
  - # 14
    frequency:   26.7714880890
  - # 15
    frequency:   27.7252723197

- q-position: [    0.1060606,    0.0000000,    0.0000000 ]
  distance:    0.0369968
  band:
  - # 1
    frequency:    0.7621540862
  - # 2
    frequency:    1.4988362383
  - # 3
    frequency:    2.4077883141
  - # 4
    frequency:    3.5347036534
  - # 5
    frequency:    4.1214271024
  - # 6
    frequency:    6.5299099559
  - # 7
    frequency:    9.3991435185
  - # 8
    frequency:    9.8466943611
  - # 9
    frequency:   12.7913822555
  - # 10
    frequency:   13.0240493420
  - # 11
    frequency:   14.7553459728
  - # 12
    frequency:   18.0145806780
  - # 13
    frequency:   26.5584158727
  - # 14
    frequency:   26.8045669961
  - # 15
    frequency:   27.7959286052

- q-position: [    0.1111111,    0.0000000,    0.0000000 ]
  distance:    0.0387585
  band:
  - # 1
    frequency:    0.8265070330
  - # 2
    frequency:    1.5681277047
  - # 3
    frequency:    2.5024228845
  - # 4
    frequency:    3.5511563070
  - # 5
    frequency:    4.1751979675
  - # 6
    frequency:    6.5125020130
  - # 7
    frequency:    9.3304073602
  - # 8
    frequency:    9.8299762560
  - # 9
    frequency:   12.7318531456
  - # 10
    frequency:   12.9756030980
  - # 11
    frequency:   14.7250794770
  - # 12
    frequency:   17.9651429507
  - # 13
    frequency:   26.5539715784
  - # 14
    frequency:   26.8377093469
  - # 15
    frequency:   27.8693386850

- q-position: [    0.1161616,    0.0000000,    0.0000000 ]
  distance:    0.0405203
  band:
  - # 1
    frequency:    0.8922025349
  - # 2
    frequency:    1.6368761536
  - # 3
    frequency:    2.5921643164
  - # 4
    frequency:    3.5684823536
  - # 5
    frequency:    4.2286219483
  - # 6
    frequency:    6.4952141077
  - # 7
    frequency:    9.2580671812
  - # 8
    frequency:    9.8128719907
  - # 9
    frequency:   12.6728773072
  - # 10
    frequency:   12.9267190569
  - # 11
    frequency:   14.6933354393
  - # 12
    frequency:   17.9155115830
  - # 13
    frequency:   26.5477155218
  - # 14
    frequency:   26.8707534615
  - # 15
    frequency:   27.9451385374

- q-position: [    0.1212121,    0.0000000,    0.0000000 ]
  distance:    0.0422820
  band:
  - # 1
    frequency:    0.9590273927
  - # 2
    frequency:    1.7050050134
  - # 3
    frequency:    2.6762683118
  - # 4
    frequency:    3.5866545417
  - # 5
    frequency:    4.2814161934
  - # 6
    frequency:    6.4781344680
  - # 7
    frequency:    9.1822678754
  - # 8
    frequency:    9.7953877154
  - # 9
    frequency:   12.6147883606
  - # 10
    frequency:   12.8776266894
  - # 11
    frequency:   14.6602029423
  - # 12
    frequency:   17.8659195012
  - # 13
    frequency:   26.5397388197
  - # 14
    frequency:   26.9035398223
  - # 15
    frequency:   28.0229725269

- q-position: [    0.1262626,    0.0000000,    0.0000000 ]
  distance:    0.0440438
  band:
  - # 1
    frequency:    1.0267424429
  - # 2
    frequency:    1.7724325259
  - # 3
    frequency:    2.7538997788
  - # 4
    frequency:    3.6056400726
  - # 5
    frequency:    4.3332987150
  - # 6
    frequency:    6.4613427417
  - # 7
    frequency:    9.1032212761
  - # 8
    frequency:    9.7775256884
  - # 9
    frequency:   12.5579231513
  - # 10
    frequency:   12.8285614258
  - # 11
    frequency:   14.6257792377
  - # 12
    frequency:   17.8165962347
  - # 13
    frequency:   26.5301254342
  - # 14
    frequency:   26.9359115003
  - # 15
    frequency:   28.1024967292

- q-position: [    0.1313131,    0.0000000,    0.0000000 ]
  distance:    0.0458055
  band:
  - # 1
    frequency:    1.0950721024
  - # 2
    frequency:    1.8390718226
  - # 3
    frequency:    2.8241238923
  - # 4
    frequency:    3.6254010504
  - # 5
    frequency:    4.3839905611
  - # 6
    frequency:    6.4449070424
  - # 7
    frequency:    9.0212178323
  - # 8
    frequency:    9.7592855213
  - # 9
    frequency:   12.5026205530
  - # 10
    frequency:   12.7797634848
  - # 11
    frequency:   14.5901685487
  - # 12
    frequency:   17.7677660514
  - # 13
    frequency:   26.5189514497
  - # 14
    frequency:   26.9677145241
  - # 15
    frequency:   28.1833807697

- q-position: [    0.1363636,    0.0000000,    0.0000000 ]
  distance:    0.0475673
  band:
  - # 1
    frequency:    1.1636889026
  - # 2
    frequency:    1.9048310077
  - # 3
    frequency:    2.8858986625
  - # 4
    frequency:    3.6458950235
  - # 5
    frequency:    4.4332184628
  - # 6
    frequency:    6.4288806953
  - # 7
    frequency:    8.9366384462
  - # 8
    frequency:    9.7406657848
  - # 9
    frequency:   12.4492198028
  - # 10
    frequency:   12.7314764043
  - # 11
    frequency:   14.5534809087
  - # 12
    frequency:   17.7196461340
  - # 13
    frequency:   26.5062852552
  - # 14
    frequency:   26.9987982021
  - # 15
    frequency:   28.2653086881

- q-position: [    0.1414141,    0.0000000,    0.0000000 ]
  distance:    0.0493290
  band:
  - # 1
    frequency:    1.2321901100
  - # 2
    frequency:    1.9696132436
  - # 3
    frequency:    2.9380714258
  - # 4
    frequency:    3.6670756025
  - # 5
    frequency:    4.4807176313
  - # 6
    frequency:    6.4132988556
  - # 7
    frequency:    8.8499656535
  - # 8
    frequency:    9.7216659753
  - # 9
    frequency:   12.3980583581
  - # 10
    frequency:   12.6839452486
  - # 11
    frequency:   14.5158310581
  - # 12
    frequency:   17.6724448349
  - # 13
    frequency:   26.4921882571
  - # 14
    frequency:   27.0290154053
  - # 15
    frequency:   28.3479792019

- q-position: [    0.1464646,    0.0000000,    0.0000000 ]
  distance:    0.0510908
  band:
  - # 1
    frequency:    1.3000615012
  - # 2
    frequency:    2.0333168430
  - # 3
    frequency:    2.9793834328
  - # 4
    frequency:    3.6888931412
  - # 5
    frequency:    4.5262341301
  - # 6
    frequency:    6.3981753318
  - # 7
    frequency:    8.7617929341
  - # 8
    frequency:    9.7022888256
  - # 9
    frequency:   12.3494692849
  - # 10
    frequency:   12.6374144807
  - # 11
    frequency:   14.4773374179
  - # 12
    frequency:   17.6263600423
  - # 13
    frequency:   26.4767158666
  - # 14
    frequency:   27.0582228229
  - # 15
    frequency:   28.4311056262

- q-position: [    0.1515152,    0.0000000,    0.0000000 ]
  distance:    0.0528525
  band:
  - # 1
    frequency:    1.3666196484
  - # 2
    frequency:    2.0958353730
  - # 3
    frequency:    3.0084896753
  - # 4
    frequency:    3.7112954642
  - # 5
    frequency:    4.5695260140
  - # 6
    frequency:    6.3835001658
  - # 7
    frequency:    8.6728304726
  - # 8
    frequency:    9.6825429183
  - # 9
    frequency:   12.3037781957
  - # 10
    frequency:   12.5921255085
  - # 11
    frequency:   14.4381211568
  - # 12
    frequency:   17.5815776904
  - # 13
    frequency:   26.4599185986
  - # 14
    frequency:   27.0862811986
  - # 15
    frequency:   28.5144156145

- q-position: [    0.1565657,    0.0000000,    0.0000000 ]
  distance:    0.0546143
  band:
  - # 1
    frequency:    1.4309171135
  - # 2
    frequency:    2.1570577820
  - # 3
    frequency:    3.0240063107
  - # 4
    frequency:    3.7342286275
  - # 5
    frequency:    4.6103623102
  - # 6
    frequency:    6.3692387748
  - # 7
    frequency:    8.5839051970
  - # 8
    frequency:    9.6624455399
  - # 9
    frequency:   12.2612997735
  - # 10
    frequency:   12.5483139337
  - # 11
    frequency:   14.3983053682
  - # 12
    frequency:   17.5382704406
  - # 13
    frequency:   26.4418431768
  - # 14
    frequency:   27.1130555576
  - # 15
    frequency:   28.5976508231

- q-position: [    0.1616162,    0.0000000,    0.0000000 ]
  distance:    0.0563760
  band:
  - # 1
    frequency:    1.4915815618
  - # 2
    frequency:    2.2168685668
  - # 3
    frequency:    3.0246077194
  - # 4
    frequency:    3.7576376957
  - # 5
    frequency:    4.6485190604
  - # 6
    frequency:    6.3553336874
  - # 7
    frequency:    8.4959525314
  - # 8
    frequency:    9.6420256819
  - # 9
    frequency:   12.2223339214
  - # 10
    frequency:   12.5062065583
  - # 11
    frequency:   14.3580143672
  - # 12
    frequency:   17.4965965573
  - # 13
    frequency:   26.4225335906
  - # 14
    frequency:   27.1384154342
  - # 15
    frequency:   28.6805665595

- q-position: [    0.1666667,    0.0000000,    0.0000000 ]
  distance:    0.0581378
  band:
  - # 1
    frequency:    1.5465337447
  - # 2
    frequency:    2.2751480001
  - # 3
    frequency:    3.0092137590
  - # 4
    frequency:    3.7814675219
  - # 5
    frequency:    4.6837721448
  - # 6
    frequency:    6.3417099942
  - # 7
    frequency:    8.4099972177
  - # 8
    frequency:    9.6213270682
  - # 9
    frequency:   12.1871615959
  - # 10
    frequency:   12.4660182314
  - # 11
    frequency:   14.3173731184
  - # 12
    frequency:   17.4566989920
  - # 13
    frequency:   26.4020320693
  - # 14
    frequency:   27.1622351055
  - # 15
    frequency:   28.7629314446

- q-position: [    0.1717172,    0.0000000,    0.0000000 ]
  distance:    0.0598995
  band:
  - # 1
    frequency:    1.5924793401
  - # 2
    frequency:    2.3317724475
  - # 3
    frequency:    2.9773425126
  - # 4
    frequency:    3.8056635162
  - # 5
    frequency:    4.7158874814
  - # 6
    frequency:    6.3282854144
  - # 7
    frequency:    8.3271210713
  - # 8
    frequency:    9.6004110621
  - # 9
    frequency:   12.1560403860
  - # 10
    frequency:   12.4279486393
  - # 11
    frequency:   14.2765067986
  - # 12
    frequency:   17.4187046879
  - # 13
    frequency:   26.3803799624
  - # 14
    frequency:   27.1843938408
  - # 15
    frequency:   28.8445271049

- q-position: [    0.1767677,    0.0000000,    0.0000000 ]
  distance:    0.0616613
  band:
  - # 1
    frequency:    1.6239819977
  - # 2
    frequency:    2.3866148044
  - # 3
    frequency:    2.9297593429
  - # 4
    frequency:    3.8301723883
  - # 5
    frequency:    4.7446102297
  - # 6
    frequency:    6.3149851959
  - # 7
    frequency:    8.2484169552
  - # 8
    frequency:    9.5793592857
  - # 9
    frequency:   12.1291999243
  - # 10
    frequency:   12.3921791671
  - # 11
    frequency:   14.2355404991
  - # 12
    frequency:   17.3827241045
  - # 13
    frequency:   26.3576185216
  - # 14
    frequency:   27.2047761709
  - # 15
    frequency:   28.9251478992

- q-position: [    0.1818182,    0.0000000,    0.0000000 ]
  distance:    0.0634230
  band:
  - # 1
    frequency:    1.6318146352
  - # 2
    frequency:    2.4395450903
  - # 3
    frequency:    2.8695890441
  - # 4
    frequency:    3.8549428485
  - # 5
    frequency:    4.7696555037
  - # 6
    frequency:    6.3017608342
  - # 7
    frequency:    8.1749307052
  - # 8
    frequency:    9.5582757741
  - # 9
    frequency:   12.1068372332
  - # 10
    frequency:   12.3588699670
  - # 11
    frequency:   14.1945990677
  - # 12
    frequency:   17.3488509591
  - # 13
    frequency:   26.3337895857
  - # 14
    frequency:   27.2232721830
  - # 15
    frequency:   29.0046006767

- q-position: [    0.1868687,    0.0000000,    0.0000000 ]
  distance:    0.0651848
  band:
  - # 1
    frequency:    1.6003221980
  - # 2
    frequency:    2.4904312397
  - # 3
    frequency:    2.8038248043
  - # 4
    frequency:    3.8799262544
  - # 5
    frequency:    4.7907034477
  - # 6
    frequency:    6.2886099879
  - # 7
    frequency:    8.1075959828
  - # 8
    frequency:    9.5372884851
  - # 9
    frequency:   12.0891121328
  - # 10
    frequency:   12.3281573714
  - # 11
    frequency:   14.1538070908
  - # 12
    frequency:   17.3171621738
  - # 13
    frequency:   26.3089361753
  - # 14
    frequency:   27.2397778446
  - # 15
    frequency:   29.0827045654

- q-position: [    0.1919192,    0.0000000,    0.0000000 ]
  distance:    0.0669465
  band:
  - # 1
    frequency:    1.5040627984
  - # 2
    frequency:    2.5391401283
  - # 3
    frequency:    2.7440046956
  - # 4
    frequency:    3.9050771848
  - # 5
    frequency:    4.8074011953
  - # 6
    frequency:    6.2755934524
  - # 7
    frequency:    8.0471702332
  - # 8
    frequency:    9.5165500059
  - # 9
    frequency:   12.0761428653
  - # 10
    frequency:   12.3001517799
  - # 11
    frequency:   14.1132890144
  - # 12
    frequency:   17.2877180112
  - # 13
    frequency:   26.2831030008
  - # 14
    frequency:   27.2541953575
  - # 15
    frequency:   29.1592907817

- q-position: [    0.1969697,    0.0000000,    0.0000000 ]
  distance:    0.0687083
  band:
  - # 1
    frequency:    1.3030709970
  - # 2
    frequency:    2.5855388735
  - # 3
    frequency:    2.7030978099
  - # 4
    frequency:    3.9303539266
  - # 5
    frequency:    4.8193733324
  - # 6
    frequency:    6.2628443708
  - # 7
    frequency:    7.9941817900
  - # 8
    frequency:    9.4962373224
  - # 9
    frequency:   12.0680021059
  - # 10
    frequency:   12.2749361219
  - # 11
    frequency:   14.0731694049
  - # 12
    frequency:   17.2605623772
  - # 13
    frequency:   26.2563368917
  - # 14
    frequency:   27.2664335447
  - # 15
    frequency:   29.2342024602

- q-position: [    0.2020202,    0.0000000,    0.0000000 ]
  distance:    0.0704700
  band:
  - # 1
    frequency:    0.9145197698
  - # 2
    frequency:    2.6294964414
  - # 3
    frequency:    2.6885744952
  - # 4
    frequency:    3.9557188568
  - # 5
    frequency:    4.8262413073
  - # 6
    frequency:    6.2505656646
  - # 7
    frequency:    7.9488974643
  - # 8
    frequency:    9.4765505659
  - # 9
    frequency:   12.0647135419
  - # 10
    frequency:   12.2525649663
  - # 11
    frequency:   14.0335733501
  - # 12
    frequency:   17.2357232664
  - # 13
    frequency:   26.2286871514
  - # 14
    frequency:   27.2764082681
  - # 15
    frequency:   29.3072944947

- q-position: [    0.2070707,    0.0000000,    0.0000000 ]
  distance:    0.0722318
  band:
  - # 1
    frequency:   -0.5539937834
  - # 2
    frequency:    2.6708855810
  - # 3
    frequency:    2.6992606073
  - # 4
    frequency:    3.9811387030
  - # 5
    frequency:    4.8276510981
  - # 6
    frequency:    6.2390140991
  - # 7
    frequency:    7.9113163167
  - # 8
    frequency:    9.4577107020
  - # 9
    frequency:   12.0662491964
  - # 10
    frequency:   12.2330643081
  - # 11
    frequency:   13.9946270055
  - # 12
    frequency:   17.2132133214
  - # 13
    frequency:   26.2002058428
  - # 14
    frequency:   27.2840428760
  - # 15
    frequency:   29.3784333875

- q-position: [    0.2121212,    0.0000000,    0.0000000 ]
  distance:    0.0739935
  band:
  - # 1
    frequency:   -1.3001652871
  - # 2