nqpoint: 300    
npath: 3      
segment_nqpoint:
- 100
- 100
- 100
labels:
- [ 'G', 'M' ]
- [ 'M', 'K' ]
- [ 'K', 'G' ]
reciprocal_lattice:
- [   0.29000141,   0.16743239,   0.00000000 ] # a*
- [   0.00000000,   0.33486479,   0.00000000 ] # b*
- [   0.00000000,   0.00000000,   0.03805457 ] # c*
natom: 7      
lattice:
- [     3.448259061646680,     0.000000000000000,     0.000000000000000 ] # a
- [    -1.724129530823340,     2.986279946201695,     0.000000000000000 ] # b
- [     0.000000000000000,     0.000000000000000,    26.278054411713217 ] # c
points:
- symbol: Br # 1
  coordinates: [  0.666666984744048,  0.333332985985145,  0.342491109082578 ]
  mass: 79.904000
- symbol: C # 2
  coordinates: [  0.000000000000000,  0.000000000000000,  0.463881892619331 ]
  mass: 12.010700
- symbol: C # 3
  coordinates: [  0.333332985432215,  0.666666983183674,  0.611635683932852 ]
  mass: 12.010700
- symbol: N # 4
  coordinates: [  0.333332985432215,  0.666666983183674,  0.564164442914296 ]
  mass: 14.006700
- symbol: O # 5
  coordinates: [  0.333332985432215,  0.666666983183674,  0.657508890917422 ]
  mass: 15.999400
- symbol: Zr # 6
  coordinates: [  0.333332985432215,  0.666666983183674,  0.417730966939380 ]
  mass: 91.224000
- symbol: Zr # 7
  coordinates: [  0.666666984744048,  0.333332985985145,  0.509562616818419 ]
  mass: 91.224000

phonon:
- q-position: [    0.0000000,    0.0000000,    0.0000000 ]
  distance:    0.0000000
  band:
  - # 1
    frequency:   -0.0000196541
  - # 2
    frequency:   -0.0000003529
  - # 3
    frequency:    0.0000169736
  - # 4
    frequency:    0.8743321813
  - # 5
    frequency:    0.8743321814
  - # 6
    frequency:    3.1631141768
  - # 7
    frequency:    3.1631141768
  - # 8
    frequency:    4.6689022679
  - # 9
    frequency:    5.3420583563
  - # 10
    frequency:    5.3420583564
  - # 11
    frequency:    5.9467266075
  - # 12
    frequency:    5.9467266076
  - # 13
    frequency:    7.4372979279
  - # 14
    frequency:    9.5489442794
  - # 15
    frequency:   15.2493269839
  - # 16
    frequency:   17.0975200835
  - # 17
    frequency:   17.0975200835
  - # 18
    frequency:   17.3707170714
  - # 19
    frequency:   17.3707170715
  - # 20
    frequency:   38.3212588710
  - # 21
    frequency:   68.7599727527

- q-position: [    0.0050505,    0.0000000,    0.0000000 ]
  distance:    0.0016912
  band:
  - # 1
    frequency:    0.0017701732
  - # 2
    frequency:    0.0525185058
  - # 3
    frequency:    0.1019779301
  - # 4
    frequency:    0.8741224922
  - # 5
    frequency:    0.8758706549
  - # 6
    frequency:    3.1633404251
  - # 7
    frequency:    3.1645673326
  - # 8
    frequency:    4.6680469090
  - # 9
    frequency:    5.3417730311
  - # 10
    frequency:    5.3428205538
  - # 11
    frequency:    5.9469245137
  - # 12
    frequency:    5.9473536800
  - # 13
    frequency:    7.4370213789
  - # 14
    frequency:    9.5480223960
  - # 15
    frequency:   15.2491299315
  - # 16
    frequency:   17.0972450900
  - # 17
    frequency:   17.0977043641
  - # 18
    frequency:   17.3707424113
  - # 19
    frequency:   17.3709250785
  - # 20
    frequency:   38.3212530143
  - # 21
    frequency:   68.7588278202

- q-position: [    0.0101010,    0.0000000,    0.0000000 ]
  distance:    0.0033825
  band:
  - # 1
    frequency:    0.0070667838
  - # 2
    frequency:    0.1049515575
  - # 3
    frequency:    0.2035922171
  - # 4
    frequency:    0.8735080065
  - # 5
    frequency:    0.8805402998
  - # 6
    frequency:    3.1640191602
  - # 7
    frequency:    3.1689159310
  - # 8
    frequency:    4.6654986822
  - # 9
    frequency:    5.3409180107
  - # 10
    frequency:    5.3450914654
  - # 11
    frequency:    5.9475177330
  - # 12
    frequency:    5.9492311775
  - # 13
    frequency:    7.4361935885
  - # 14
    frequency:    9.5452588240
  - # 15
    frequency:   15.2485392914
  - # 16
    frequency:   17.0964210416
  - # 17
    frequency:   17.0982547797
  - # 18
    frequency:   17.3708185507
  - # 19
    frequency:   17.3715486374
  - # 20
    frequency:   38.3212354758
  - # 21
    frequency:   68.7553953734

- q-position: [    0.0151515,    0.0000000,    0.0000000 ]
  distance:    0.0050737
  band:
  - # 1
    frequency:    0.0158485110
  - # 2
    frequency:    0.1572042607
  - # 3
    frequency:    0.3044091383
  - # 4
    frequency:    0.8725341558
  - # 5
    frequency:    0.8885243548
  - # 6
    frequency:    3.1651503518
  - # 7
    frequency:    3.1761276433
  - # 8
    frequency:    4.6613099233
  - # 9
    frequency:    5.3394961638
  - # 10
    frequency:    5.3488252939
  - # 11
    frequency:    5.9485047699
  - # 12
    frequency:    5.9523479420
  - # 13
    frequency:    7.4348201250
  - # 14
    frequency:    9.5406597844
  - # 15
    frequency:   15.2475566132
  - # 16
    frequency:   17.0950507380
  - # 17
    frequency:   17.0991640749
  - # 18
    frequency:   17.3709458422
  - # 19
    frequency:   17.3725863625
  - # 20
    frequency:   38.3212063500
  - # 21
    frequency:   68.7496824582

- q-position: [    0.0202020,    0.0000000,    0.0000000 ]
  distance:    0.0067649
  band:
  - # 1
    frequency:    0.0280489905
  - # 2
    frequency:    0.2091613725
  - # 3
    frequency:    0.4038265198
  - # 4
    frequency:    0.8712826069
  - # 5
    frequency:    0.9002061969
  - # 6
    frequency:    3.1667339479
  - # 7
    frequency:    3.1861494925
  - # 8
    frequency:    4.6555640278
  - # 9
    frequency:    5.3375122788
  - # 10
    frequency:    5.3539496448
  - # 11
    frequency:    5.9498831388
  - # 12
    frequency:    5.9566853823
  - # 13
    frequency:    7.4329102667
  - # 14
    frequency:    9.5342355980
  - # 15
    frequency:   15.2461844731
  - # 16
    frequency:   17.0931388577
  - # 17
    frequency:   17.1004202336
  - # 18
    frequency:   17.3711248503
  - # 19
    frequency:   17.3740359514
  - # 20
    frequency:   38.3211657936
  - # 21
    frequency:   68.7417007954

- q-position: [    0.0252525,    0.0000000,    0.0000000 ]
  distance:    0.0084562
  band:
  - # 1
    frequency:    0.0435800530
  - # 2
    frequency:    0.2606731756
  - # 3
    frequency:    0.5009050649
  - # 4
    frequency:    0.8698813942
  - # 5
    frequency:    0.9163232065
  - # 6
    frequency:    3.1687698727
  - # 7
    frequency:    3.1989091401
  - # 8
    frequency:    4.6483703836
  - # 9
    frequency:    5.3349730747
  - # 10
    frequency:    5.3603707418
  - # 11
    frequency:    5.9516493735
  - # 12
    frequency:    5.9622174917
  - # 13
    frequency:    7.4304769977
  - # 14
    frequency:    9.5260006162
  - # 15
    frequency:   15.2444264641
  - # 16
    frequency:   17.0906919747
  - # 17
    frequency:   17.1020065921
  - # 18
    frequency:   17.3713563192
  - # 19
    frequency:   17.3758941936
  - # 20
    frequency:   38.3211140249
  - # 21
    frequency:   68.7314667474

- q-position: [    0.0303030,    0.0000000,    0.0000000 ]
  distance:    0.0101474
  band:
  - # 1
    frequency:    0.0623356442
  - # 2
    frequency:    0.3115356761
  - # 3
    frequency:    0.5940655082
  - # 4
    frequency:    0.8685217710
  - # 5
    frequency:    0.9382618880
  - # 6
    frequency:    3.1712580231
  - # 7
    frequency:    3.2143165516
  - # 8
    frequency:    4.6398584377
  - # 9
    frequency:    5.3318872153
  - # 10
    frequency:    5.3679795572
  - # 11
    frequency:    5.9537990407
  - # 12
    frequency:    5.9689108890
  - # 13
    frequency:    7.4275370007
  - # 14
    frequency:    9.5159731254
  - # 15
    frequency:   15.2422871823
  - # 16
    frequency:   17.0877185784
  - # 17
    frequency:   17.1039019959
  - # 18
    frequency:   17.3716411297
  - # 19
    frequency:   17.3781569830
  - # 20
    frequency:   38.3210513228
  - # 21
    frequency:   68.7190012723

- q-position: [    0.0353535,    0.0000000,    0.0000000 ]
  distance:    0.0118387
  band:
  - # 1
    frequency:    0.0841959406
  - # 2
    frequency:    0.3614616482
  - # 3
    frequency:    0.6806290571
  - # 4
    frequency:    0.8674849557
  - # 5
    frequency:    0.9685136707
  - # 6
    frequency:    3.1741982651
  - # 7
    frequency:    3.2322659273
  - # 8
    frequency:    4.6301716764
  - # 9
    frequency:    5.3282653277
  - # 10
    frequency:    5.3766580706
  - # 11
    frequency:    5.9563267560
  - # 12
    frequency:    5.9767248970
  - # 13
    frequency:    7.4241106470
  - # 14
    frequency:    9.5041752277
  - # 15
    frequency:   15.2397722099
  - # 16
    frequency:   17.0842290946
  - # 17
    frequency:   17.1060809978
  - # 18
    frequency:   17.3719802509
  - # 19
    frequency:   17.3808193331
  - # 20
    frequency:   38.3209780246
  - # 21
    frequency:   68.7043298640

- q-position: [    0.0404040,    0.0000000,    0.0000000 ]
  distance:    0.0135299
  band:
  - # 1
    frequency:    0.1090312943
  - # 2
    frequency:    0.4100379091
  - # 3
    frequency:    0.7566322506
  - # 4
    frequency:    0.8671831822
  - # 5
    frequency:    1.0108584231
  - # 6
    frequency:    3.1775904290
  - # 7
    frequency:    3.2526377682
  - # 8
    frequency:    4.6194621528
  - # 9
    frequency:    5.3241200218
  - # 10
    frequency:    5.3862850132
  - # 11
    frequency:    5.9592262034
  - # 12
    frequency:    5.9856116739
  - # 13
    frequency:    7.4202219796
  - # 14
    frequency:    9.4906327009
  - # 15
    frequency:   15.2368880935
  - # 16
    frequency:   17.0802359027
  - # 17
    frequency:   17.1085140947
  - # 18
    frequency:   17.3723746867
  - # 19
    frequency:   17.3838753931
  - # 20
    frequency:   38.3208945247
  - # 21
    frequency:   68.6874824802

- q-position: [    0.0454545,    0.0000000,    0.0000000 ]
  distance:    0.0152211
  band:
  - # 1
    frequency:    0.1367057609
  - # 2
    frequency:    0.4566644804
  - # 3
    frequency:    0.8184716479
  - # 4
    frequency:    0.8682192601
  - # 5
    frequency:    1.0687191785
  - # 6
    frequency:    3.1814343039
  - # 7
    frequency:    3.2753009487
  - # 8
    frequency:    4.6078859743
  - # 9
    frequency:    5.3194659120
  - # 10
    frequency:    5.3967406861
  - # 11
    frequency:    5.9624901562
  - # 12
    frequency:    5.9955164109
  - # 13
    frequency:    7.4158986907
  - # 14
    frequency:    9.4753748395
  - # 15
    frequency:   15.2336423201
  - # 16
    frequency:   17.0757533486
  - # 17
    frequency:   17.1111680004
  - # 18
    frequency:   17.3728254231
  - # 19
    frequency:   17.3873184660
  - # 20
    frequency:   38.3208012724
  - # 21
    frequency:   68.6684934574

- q-position: [    0.0505051,    0.0000000,    0.0000000 ]
  distance:    0.0169124
  band:
  - # 1
    frequency:    0.1670800879
  - # 2
    frequency:    0.5004780800
  - # 3
    frequency:    0.8663740267
  - # 4
    frequency:    0.8714621069
  - # 5
    frequency:    1.1416917848
  - # 6
    frequency:    3.1857296321
  - # 7
    frequency:    3.3001146737
  - # 8
    frequency:    4.5955999378
  - # 9
    frequency:    5.3143196394
  - # 10
    frequency:    5.4079106648
  - # 11
    frequency:    5.9661104997
  - # 12
    frequency:    6.0063776092
  - # 13
    frequency:    7.4111720884
  - # 14
    frequency:    9.4584342805
  - # 15
    frequency:   15.2300432881
  - # 16
    frequency:   17.0707977484
  - # 17
    frequency:   17.1140059510
  - # 18
    frequency:   17.3733333767
  - # 19
    frequency:   17.3911410265
  - # 20
    frequency:   38.3206987694
  - # 21
    frequency:   68.6474014139

- q-position: [    0.0555556,    0.0000000,    0.0000000 ]
  distance:    0.0186036
  band:
  - # 1
    frequency:    0.2000141369
  - # 2
    frequency:    0.5402885246
  - # 3
    frequency:    0.8781096078
  - # 4
    frequency:    0.9043859552
  - # 5
    frequency:    1.2255552947
  - # 6
    frequency:    3.1904761029
  - # 7
    frequency:    3.3269302139
  - # 8
    frequency:    4.5827593261
  - # 9
    frequency:    5.3086998915
  - # 10
    frequency:    5.4196883907
  - # 11
    frequency:    5.9700782557
  - # 12
    frequency:    6.0181274434
  - # 13
    frequency:    7.4060770500
  - # 14
    frequency:    9.4398468181
  - # 15
    frequency:   15.2261002767
  - # 16
    frequency:   17.0653873812
  - # 17
    frequency:   17.1169880385
  - # 18
    frequency:   17.3738993487
  - # 19
    frequency:   17.3953347394
  - # 20
    frequency:   38.3205875670
  - # 21
    frequency:   68.6242491397

- q-position: [    0.0606061,    0.0000000,    0.0000000 ]
  distance:    0.0202948
  band:
  - # 1
    frequency:    0.2353687726
  - # 2
    frequency:    0.5746177931
  - # 3
    frequency:    0.8896490095
  - # 4
    frequency:    0.9367804083
  - # 5
    frequency:    1.3158652864
  - # 6
    frequency:    3.1956733454
  - # 7
    frequency:    3.3555923261
  - # 8
    frequency:    4.5695167684
  - # 9
    frequency:    5.3026274206
  - # 10
    frequency:    5.4319767665
  - # 11
    frequency:    5.9743836077
  - # 12
    frequency:    6.0306922153
  - # 13
    frequency:    7.4006519592
  - # 14
    frequency:    9.4196512088
  - # 15
    frequency:   15.2218234105
  - # 16
    frequency:   17.0595424705
  - # 17
    frequency:   17.1200715685
  - # 18
    frequency:   17.3745239850
  - # 19
    frequency:   17.3998904770
  - # 20
    frequency:   38.3204682632
  - # 21
    frequency:   68.5990834758

- q-position: [    0.0656566,    0.0000000,    0.0000000 ]
  distance:    0.0219861
  band:
  - # 1
    frequency:    0.2730072829
  - # 2
    frequency:    0.6019912381
  - # 3
    frequency:    0.9075653266
  - # 4
    frequency:    0.9663450142
  - # 5
    frequency:    1.4096654854
  - # 6
    frequency:    3.2013209219
  - # 7
    frequency:    3.3859402853
  - # 8
    frequency:    4.5560220193
  - # 9
    frequency:    5.2961250556
  - # 10
    frequency:    5.4446889337
  - # 11
    frequency:    5.9790159271
  - # 12
    frequency:    6.0439928988
  - # 13
    frequency:    7.3949386204
  - # 14
    frequency:    9.3978889717
  - # 15
    frequency:   15.2172236225
  - # 16
    frequency:   17.0532851512
  - # 17
    frequency:   17.1232114365
  - # 18
    frequency:   17.3752077440
  - # 19
    frequency:   17.4047983374
  - # 20
    frequency:   38.3203414997
  - # 21
    frequency:   68.5719551815

- q-position: [    0.0707071,    0.0000000,    0.0000000 ]
  distance:    0.0236773
  band:
  - # 1
    frequency:    0.3127963988
  - # 2
    frequency:    0.6215039769
  - # 3
    frequency:    0.9327747144
  - # 4
    frequency:    0.9946278935
  - # 5
    frequency:    1.5052417269
  - # 6
    frequency:    3.2074183207
  - # 7
    frequency:    3.4178084660
  - # 8
    frequency:    4.5424225061
  - # 9
    frequency:    5.2892177084
  - # 10
    frequency:    5.4577484258
  - # 11
    frequency:    5.9839638001
  - # 12
    frequency:    6.0579457702
  - # 13
    frequency:    7.3889821459
  - # 14
    frequency:    9.3746041875
  - # 15
    frequency:   15.2123126140
  - # 16
    frequency:   17.0466394234
  - # 17
    frequency:   17.1263605194
  - # 18
    frequency:   17.3759508720
  - # 19
    frequency:   17.4100476616
  - # 20
    frequency:   38.3202079584
  - # 21
    frequency:   68.5429187901

- q-position: [    0.0757576,    0.0000000,    0.0000000 ]
  distance:    0.0253685
  band:
  - # 1
    frequency:    0.3546069801
  - # 2
    frequency:    0.6332796540
  - # 3
    frequency:    0.9651655972
  - # 4
    frequency:    1.0224613461
  - # 5
    frequency:    1.6015980307
  - # 6
    frequency:    3.2139649493
  - # 7
    frequency:    3.4510264217
  - # 8
    frequency:    4.5288645214
  - # 9
    frequency:    5.2819323700
  - # 10
    frequency:    5.4710888746
  - # 11
    frequency:    5.9892150547
  - # 12
    frequency:    6.0724631203
  - # 13
    frequency:    7.3828308079
  - # 14
    frequency:    9.3498432981
  - # 15
    frequency:   15.2071028120
  - # 16
    frequency:   17.0396310930
  - # 17
    frequency:   17.1294700735
  - # 18
    frequency:   17.3767533869
  - # 19
    frequency:   17.4156270528
  - # 20
    frequency:   38.3200683577
  - # 21
    frequency:   68.5120324549

- q-position: [    0.0808081,    0.0000000,    0.0000000 ]
  distance:    0.0270598
  band:
  - # 1
    frequency:    0.3983144228
  - # 2
    frequency:    0.6383482976
  - # 3
    frequency:    1.0037208240
  - # 4
    frequency:    1.0502963684
  - # 5
    frequency:    1.6981218299
  - # 6
    frequency:    3.2209601269
  - # 7
    frequency:    3.4854184184
  - # 8
    frequency:    4.5154949703
  - # 9
    frequency:    5.2742980967
  - # 10
    frequency:    5.4846534250
  - # 11
    frequency:    5.9947567896
  - # 12
    frequency:    6.0874540384
  - # 13
    frequency:    7.3765358480
  - # 14
    frequency:    9.3236549103
  - # 15
    frequency:   15.2016073248
  - # 16
    frequency:   17.0322876991
  - # 17
    frequency:   17.1324901371
  - # 18
    frequency:   17.3776150685
  - # 19
    frequency:   17.4215243960
  - # 20
    frequency:   38.3199234488
  - # 21
    frequency:   68.4793577845

- q-position: [    0.0858586,    0.0000000,    0.0000000 ]
  distance:    0.0287510
  band:
  - # 1
    frequency:    0.4437988298
  - # 2
    frequency:    0.6380952117
  - # 3
    frequency:    1.0470689057
  - # 4
    frequency:    1.0783798571
  - # 5
    frequency:    1.7944065294
  - # 6
    frequency:    3.2284030774
  - # 7
    frequency:    3.5208023788
  - # 8
    frequency:    4.5024636256
  - # 9
    frequency:    5.2663459812
  - # 10
    frequency:    5.4983939772
  - # 11
    frequency:    6.0005754020
  - # 12
    frequency:    6.1028252642
  - # 13
    frequency:    7.3701512345
  - # 14
    frequency:    9.2960896061
  - # 15
    frequency:   15.1958398961
  - # 16
    frequency:   17.0246384295
  - # 17
    frequency:   17.1353699294
  - # 18
    frequency:   17.3785354566
  - # 19
    frequency:   17.4277268827
  - # 20
    frequency:   38.3197740123
  - # 21
    frequency:   68.4449596683

- q-position: [    0.0909091,    0.0000000,    0.0000000 ]
  distance:    0.0304423
  band:
  - # 1
    frequency:    0.4909449775
  - # 2
    frequency:    0.6338007341
  - # 3
    frequency:    1.0939445031
  - # 4
    frequency:    1.1068463240
  - # 5
    frequency:    1.8901595912
  - # 6
    frequency:    3.2362929232
  - # 7
    frequency:    3.5569881987
  - # 8
    frequency:    4.4899258731
  - # 9
    frequency:    5.2581091100
  - # 10
    frequency:    5.5122703493
  - # 11
    frequency:    6.0066566178
  - # 12
    frequency:    6.1184821021
  - # 13
    frequency:    7.3637333583
  - # 14
    frequency:    9.2671997623
  - # 15
    frequency:   15.1898148571
  - # 16
    frequency:   17.0167140254
  - # 17
    frequency:   17.1380582409
  - # 18
    frequency:   17.3795138532
  - # 19
    frequency:   17.4342210378
  - # 20
    frequency:   38.3196208534
  - # 21
    frequency:   68.4089060928

- q-position: [    0.0959596,    0.0000000,    0.0000000 ]
  distance:    0.0321335
  band:
  - # 1
    frequency:    0.5396421009
  - # 2
    frequency:    0.6264672689
  - # 3
    frequency:    1.1357665893
  - # 4
    frequency:    1.1433617582
  - # 5
    frequency:    1.9851537039
  - # 6
    frequency:    3.2446286778
  - # 7
    frequency:    3.5937754101
  - # 8
    frequency:    4.4780459503
  - # 9
    frequency:    5.2496225017
  - # 10
    frequency:    5.5262494228
  - # 11
    frequency:    6.0129855212
  - # 12
    frequency:    6.1343293958
  - # 13
    frequency:    7.3573406554
  - # 14
    frequency:    9.2370393800
  - # 15
    frequency:   15.1835470778
  - # 16
    frequency:   17.0085466764
  - # 17
    frequency:   17.1405038107
  - # 18
    frequency:   17.3805493301
  - # 19
    frequency:   17.4409927547
  - # 20
    frequency:   38.3194647986
  - # 21
    frequency:   68.3712679499

- q-position: [    0.1010101,    0.0000000,    0.0000000 ]
  distance:    0.0338247
  band:
  - # 1
    frequency:    0.5897835079
  - # 2
    frequency:    0.6168276213
  - # 3
    frequency:    1.1651747018
  - # 4
    frequency:    1.1946064491
  - # 5
    frequency:    2.0791998083
  - # 6
    frequency:    3.2534092404
  - # 7
    frequency:    3.6309501903
  - # 8
    frequency:    4.4670006738
  - # 9
    frequency:    5.2409230267
  - # 10
    frequency:    5.5403043136
  - # 11
    frequency:    6.0195465862
  - # 12
    frequency:    6.1502725661
  - # 13
    frequency:    7.3510331470
  - # 14
    frequency:    9.2056639258
  - # 15
    frequency:   15.1770519173
  - # 16
    frequency:   17.0001699074
  - # 17
    frequency:   17.1426556865
  - # 18
    frequency:   17.3816407397
  - # 19
    frequency:   17.4480273358
  - # 20
    frequency:   38.3193066910
  - # 21
    frequency:   68.3321188362

- q-position: [    0.1060606,    0.0000000,    0.0000000 ]
  distance:    0.0355160
  band:
  - # 1
    frequency:    0.6054096517
  - # 2
    frequency:    0.6412660260
  - # 3
    frequency:    1.1950835137
  - # 4
    frequency:    1.2471719570
  - # 5
    frequency:    2.1721315739
  - # 6
    frequency:    3.2626333894
  - # 7
    frequency:    3.6682817889
  - # 8
    frequency:    4.4569835978
  - # 9
    frequency:    5.2320493060
  - # 10
    frequency:    5.5544135916
  - # 11
    frequency:    6.0263237086
  - # 12
    frequency:    6.1662187155
  - # 13
    frequency:    7.3448718850
  - # 14
    frequency:    9.1731301873
  - # 15
    frequency:   15.1703451734
  - # 16
    frequency:   16.9916184574
  - # 17
    frequency:   17.1444635619
  - # 18
    frequency:   17.3827867282
  - # 19
    frequency:   17.4553095414
  - # 20
    frequency:   38.3191473867
  - # 21
    frequency:   68.2915348456

- q-position: [    0.1111111,    0.0000000,    0.0000000 ]
  distance:    0.0372072
  band:
  - # 1
    frequency:    0.5925998568
  - # 2
    frequency:    0.6939892712
  - # 3
    frequency:    1.2254941513
  - # 4
    frequency:    1.3006964503
  - # 5
    frequency:    2.2637961101
  - # 6
    frequency:    3.2722997771
  - # 7
    frequency:    3.7055185832
  - # 8
    frequency:    4.4482094218
  - # 9
    frequency:    5.2230415880
  - # 10
    frequency:    5.5685605568
  - # 11
    frequency:    6.0333002390
  - # 12
    frequency:    6.1820778055
  - # 13
    frequency:    7.3389182958
  - # 14
    frequency:    9.1394961409
  - # 15
    frequency:   15.1634430316
  - # 16
    frequency:   16.9829281524
  - # 17
    frequency:   17.1458780903
  - # 18
    frequency:   17.3839857507
  - # 19
    frequency:   17.4628236470
  - # 20
    frequency:   38.3189877500
  - # 21
    frequency:   68.2495943548

- q-position: [    0.1161616,    0.0000000,    0.0000000 ]
  distance:    0.0388984
  band:
  - # 1
    frequency:    0.5786913909
  - # 2
    frequency:    0.7478547164
  - # 3
    frequency:    1.2564021241
  - # 4
    frequency:    1.3549157840
  - # 5
    frequency:    2.3540481990
  - # 6
    frequency:    3.2824069247
  - # 7
    frequency:    3.7423842313
  - # 8
    frequency:    4.4409182127
  - # 9
    frequency:    5.2139416016
  - # 10
    frequency:    5.5827325695
  - # 11
    frequency:    6.0404590164
  - # 12
    frequency:    6.1977639131
  - # 13
    frequency:    7.3332334158
  - # 14
    frequency:    9.1048208344
  - # 15
    frequency:   15.1563620137
  - # 16
    frequency:   16.9741357724
  - # 17
    frequency:   17.1468511725
  - # 18
    frequency:   17.3852360866
  - # 19
    frequency:   17.4705535082
  - # 20
    frequency:   38.3188286498
  - # 21
    frequency:   68.2063778027

- q-position: [    0.1212121,    0.0000000,    0.0000000 ]
  distance:    0.0405897
  band:
  - # 1
    frequency:    0.5639173524
  - # 2
    frequency:    0.8027645175
  - # 3
    frequency:    1.2878015841
  - # 4
    frequency:    1.4096313066
  - # 5
    frequency:    2.4427465766
  - # 6
    frequency:    3.2929532176
  - # 7
    frequency:    3.7785748383
  - # 8
    frequency:    4.4353785735
  - # 9
    frequency:    5.2047923869
  - # 10
    frequency:    5.5969204228
  - # 11
    frequency:    6.0477824041
  - # 12
    frequency:    6.2131965721
  - # 13
    frequency:    7.3278770183
  - # 14
    frequency:    9.0691642836
  - # 15
    frequency:   15.1491189261
  - # 16
    frequency:   16.9652789135
  - # 17
    frequency:   17.1473362173
  - # 18
    frequency:   17.3865358563
  - # 19
    frequency:   17.4784826326
  - # 20
    frequency:   38.3186709551
  - # 21
    frequency:   68.1619674646

- q-position: [    0.1262626,    0.0000000,    0.0000000 ]
  distance:    0.0422809
  band:
  - # 1
    frequency:    0.5484733554
  - # 2
    frequency:    0.8586200308
  - # 3
    frequency:    1.3196886250
  - # 4
    frequency:    1.4646885658
  - # 5
    frequency:    2.5297514244
  - # 6
    frequency:    3.3039369021
  - # 7
    frequency:    3.8137587201
  - # 8
    frequency:    4.4318882301
  - # 9
    frequency:    5.1956381013
  - # 10
    frequency:    5.6111177377
  - # 11
    frequency:    6.0552523247
  - # 12
    frequency:    6.2283021970
  - # 13
    frequency:    7.3229066354
  - # 14
    frequency:    9.0325873827
  - # 15
    frequency:   15.1417308074
  - # 16
    frequency:   16.9563958456
  - # 17
    frequency:   17.1472883757
  - # 18
    frequency:   17.3878830372
  - # 19
    frequency:   17.4865942570
  - # 20
    frequency:   38.3185155312
  - # 21
    frequency:   68.1164472212

- q-position: [    0.1313131,    0.0000000,    0.0000000 ]
  distance:    0.0439721
  band:
  - # 1
    frequency:    0.5325329860
  - # 2
    frequency:    0.9153199234
  - # 3
    frequency:    1.3520642030
  - # 4
    frequency:    1.5199633309
  - # 5
    frequency:    2.6149225698
  - # 6
    frequency:    3.3153560822
  - # 7
    frequency:    3.8475812122
  - # 8
    frequency:    4.4307696536
  - # 9
    frequency:    5.1865238030
  - # 10
    frequency:    5.6253203555
  - # 11
    frequency:    6.0628502981
  - # 12
    frequency:    6.2430155858
  - # 13
    frequency:    7.3183764902
  - # 14
    frequency:    8.9951518287
  - # 15
    frequency:   15.1342148762
  - # 16
    frequency:   16.9475253664
  - # 17
    frequency:   17.1466647495
  - # 18
    frequency:   17.3892754796
  - # 19
    frequency:   17.4948714290
  - # 20
    frequency:   38.3183632353
  - # 21
    frequency:   68.0699023241

- q-position: [    0.1363636,    0.0000000,    0.0000000 ]
  distance:    0.0456634
  band:
  - # 1
    frequency:    0.5162586958
  - # 2
    frequency:    0.9727577289
  - # 3
    frequency:    1.3849371105
  - # 4
    frequency:    1.5753523828
  - # 5
    frequency:    2.6981180713
  - # 6
    frequency:    3.3272087188
  - # 7
    frequency:    3.8796777326
  - # 8
    frequency:    4.4323575825
  - # 9
    frequency:    5.1774952117
  - # 10
    frequency:    5.6395256997
  - # 11
    frequency:    6.0705574787
  - # 12
    frequency:    6.2572814843
  - # 13
    frequency:    7.3143363592
  - # 14
    frequency:    8.9569200586
  - # 15
    frequency:   15.1265884775
  - # 16
    frequency:   16.9387066521
  - # 17
    frequency:   17.1454245762
  - # 18
    frequency:   17.3907109219
  - # 19
    frequency:   17.5032970893
  - # 20
    frequency:   38.3182149130
  - # 21
    frequency:   68.0224191585

- q-position: [    0.1414141,    0.0000000,    0.0000000 ]
  distance:    0.0473546
  band:
  - # 1
    frequency:    0.4998098045
  - # 2
    frequency:    1.0308186413
  - # 3
    frequency:    1.4183273902
  - # 4
    frequency:    1.6307673952
  - # 5
    frequency:    2.7791929729
  - # 6
    frequency:    3.3394926295
  - # 7
    frequency:    3.9096982603
  - # 8
    frequency:    4.4369753634
  - # 9
    frequency:    5.1685984485
  - # 10
    frequency:    5.6537320730
  - # 11
    frequency:    6.0783546949
  - # 12
    frequency:    6.2710561858
  - # 13
    frequency:    7.3108303993
  - # 14
    frequency:    8.9179551996
  - # 15
    frequency:   15.1188690295
  - # 16
    frequency:   16.9299791038
  - # 17
    frequency:   17.1435293916
  - # 18
    frequency:   17.3921870052
  - # 19
    frequency:   17.5118541541
  - # 20
    frequency:   38.3180713944
  - # 21
    frequency:   67.9740850022

- q-position: [    0.1464646,    0.0000000,    0.0000000 ]
  distance:    0.0490459
  band:
  - # 1
    frequency:    0.4833486572
  - # 2
    frequency:    1.0893752590
  - # 3
    frequency:    1.4522705914
  - # 4
    frequency:    1.6861308309
  - # 5
    frequency:    2.8579980689
  - # 6
    frequency:    3.3522054919
  - # 7
    frequency:    3.9373443932
  - # 8
    frequency:    4.4448990313
  - # 9
    frequency:    5.1598797565
  - # 10
    frequency:    5.6679378580
  - # 11
    frequency:    6.0862224885
  - # 12
    frequency:    6.2843091288
  - # 13
    frequency:    7.3078959799
  - # 14
    frequency:    8.8783210310
  - # 15
    frequency:   15.1110739685
  - # 16
    frequency:   16.9213821932
  - # 17
    frequency:   17.1409431733
  - # 18
    frequency:   17.3937012876
  - # 19
    frequency:   17.5205255939
  - # 20
    frequency:   38.3179334903
  - # 21
    frequency:   67.9249877843

- q-position: [    0.1515152,    0.0000000,    0.0000000 ]
  distance:    0.0507371
  band:
  - # 1
    frequency:    0.4670455538
  - # 2
    frequency:    1.1482818996
  - # 3
    frequency:    1.4868233167
  - # 4
    frequency:    1.7413731645
  - # 5
    frequency:    2.9343785770
  - # 6
    frequency:    3.3653448489
  - # 7
    frequency:    3.9624153523
  - # 8
    frequency:    4.4563128301
  - # 9
    frequency:    5.1513852038
  - # 10
    frequency:    5.6821405884
  - # 11
    frequency:    6.0941411558
  - # 12
    frequency:    6.2970244420
  - # 13
    frequency:    7.3055625721
  - # 14
    frequency:    8.8380819583
  - # 15
    frequency:   15.1032206933
  - # 16
    frequency:   16.9129553034
  - # 17
    frequency:   17.1376324664
  - # 18
    frequency:   17.3952512569
  - # 19
    frequency:   17.5292945086
  - # 20
    frequency:   38.3178019889
  - # 21