nqpoint: 300    
npath: 3      
segment_nqpoint:
- 100
- 100
- 100
labels:
- [ 'G', 'M' ]
- [ 'M', 'K' ]
- [ 'K', 'G' ]
reciprocal_lattice:
- [   0.31665040,   0.18281819,   0.00000000 ] # a*
- [   0.00000000,   0.36563639,   0.00000000 ] # b*
- [   0.00000000,   0.00000000,   0.03953642 ] # c*
natom: 7      
lattice:
- [     3.158056961415085,     0.000000000000000,     0.000000000000000 ] # a
- [    -1.579028480707542,     2.734957555184165,     0.000000000000000 ] # b
- [     0.000000000000000,     0.000000000000000,    25.293136663155423 ] # c
points:
- symbol: C # 1
  coordinates: [  0.000000000000000,  0.000000000000000,  0.437230134546483 ]
  mass: 12.010700
- symbol: C # 2
  coordinates: [  0.333332985432215,  0.666666983183674,  0.582913725679550 ]
  mass: 12.010700
- symbol: H # 3
  coordinates: [  0.666666984744047,  0.333332985985145,  0.355827753586226 ]
  mass: 1.007940
- symbol: N # 4
  coordinates: [  0.333332985432215,  0.666666983183674,  0.533363794442782 ]
  mass: 14.006700
- symbol: S # 5
  coordinates: [  0.333332985432215,  0.666666983183674,  0.644172246413774 ]
  mass: 32.065000
- symbol: Ti # 6
  coordinates: [  0.333332985432215,  0.666666983183674,  0.393302255154998 ]
  mass: 47.867000
- symbol: Ti # 7
  coordinates: [  0.666666984744047,  0.333332985985145,  0.482782665549493 ]
  mass: 47.867000

phonon:
- q-position: [    0.0000000,    0.0000000,    0.0000000 ]
  distance:    0.0000000
  band:
  - # 1
    frequency:   -0.0000042787
  - # 2
    frequency:   -0.0000002165
  - # 3
    frequency:    0.0000053911
  - # 4
    frequency:    1.7834927477
  - # 5
    frequency:    1.7834927477
  - # 6
    frequency:    6.2064376939
  - # 7
    frequency:    6.2064376939
  - # 8
    frequency:    6.6854790387
  - # 9
    frequency:    8.3298146937
  - # 10
    frequency:    8.3298146937
  - # 11
    frequency:   10.7409708551
  - # 12
    frequency:   13.6047427557
  - # 13
    frequency:   13.6047427558
  - # 14
    frequency:   17.6904311899
  - # 15
    frequency:   17.6904311899
  - # 16
    frequency:   18.0408537446
  - # 17
    frequency:   27.2525002718
  - # 18
    frequency:   28.0794942045
  - # 19
    frequency:   28.0794942046
  - # 20
    frequency:   28.6381687087
  - # 21
    frequency:   57.2058324657

- q-position: [    0.0050505,    0.0000000,    0.0000000 ]
  distance:    0.0018466
  band:
  - # 1
    frequency:    0.0033567275
  - # 2
    frequency:    0.0804262536
  - # 3
    frequency:    0.1414967531
  - # 4
    frequency:    1.7842500889
  - # 5
    frequency:    1.7877780518
  - # 6
    frequency:    6.2066315293
  - # 7
    frequency:    6.2068522710
  - # 8
    frequency:    6.6857567215
  - # 9
    frequency:    8.3300209287
  - # 10
    frequency:    8.3308140215
  - # 11
    frequency:   10.7405416073
  - # 12
    frequency:   13.6048893577
  - # 13
    frequency:   13.6052587132
  - # 14
    frequency:   17.6902697158
  - # 15
    frequency:   17.6904481801
  - # 16
    frequency:   18.0404244823
  - # 17
    frequency:   27.2523559895
  - # 18
    frequency:   28.0787043068
  - # 19
    frequency:   28.0787748477
  - # 20
    frequency:   28.6385615176
  - # 21
    frequency:   57.2050108332

- q-position: [    0.0101010,    0.0000000,    0.0000000 ]
  distance:    0.0036933
  band:
  - # 1
    frequency:    0.0133454185
  - # 2
    frequency:    0.1608246390
  - # 3
    frequency:    0.2828664951
  - # 4
    frequency:    1.7865266386
  - # 5
    frequency:    1.8005540974
  - # 6
    frequency:    6.2072132395
  - # 7
    frequency:    6.2080803441
  - # 8
    frequency:    6.6866056136
  - # 9
    frequency:    8.3306392986
  - # 10
    frequency:    8.3338047398
  - # 11
    frequency:   10.7392551185
  - # 12
    frequency:   13.6053288112
  - # 13
    frequency:   13.6068055521
  - # 14
    frequency:   17.6897859144
  - # 15
    frequency:   17.6904984536
  - # 16
    frequency:   18.0391384248
  - # 17
    frequency:   27.2519236494
  - # 18
    frequency:   28.0763467142
  - # 19
    frequency:   28.0766185888
  - # 20
    frequency:   28.6397276923
  - # 21
    frequency:   57.2025469781

- q-position: [    0.0151515,    0.0000000,    0.0000000 ]
  distance:    0.0055399
  band:
  - # 1
    frequency:    0.0297315098
  - # 2
    frequency:    0.2411652986
  - # 3
    frequency:    0.4239780231
  - # 4
    frequency:    1.7903361368
  - # 5
    frequency:    1.8215919075
  - # 6
    frequency:    6.2081834358
  - # 7
    frequency:    6.2100752336
  - # 8
    frequency:    6.6880728892
  - # 9
    frequency:    8.3316687938
  - # 10
    frequency:    8.3387651920
  - # 11
    frequency:   10.7371151502
  - # 12
    frequency:   13.6060600610
  - # 13
    frequency:   13.6093801760
  - # 14
    frequency:   17.6889816415
  - # 15
    frequency:   17.6905799262
  - # 16
    frequency:   18.0370007506
  - # 17
    frequency:   27.2512047686
  - # 18
    frequency:   28.0724569257
  - # 19
    frequency:   28.0730308576
  - # 20
    frequency:   28.6416312899
  - # 21
    frequency:   57.1984440259

- q-position: [    0.0202020,    0.0000000,    0.0000000 ]
  distance:    0.0073866
  band:
  - # 1
    frequency:    0.0521548519
  - # 2
    frequency:    0.3214143279
  - # 3
    frequency:    0.5646915782
  - # 4
    frequency:    1.7957020326
  - # 5
    frequency:    1.8505425931
  - # 6
    frequency:    6.2095431362
  - # 7
    frequency:    6.2127601846
  - # 8
    frequency:    6.6902359337
  - # 9
    frequency:    8.3331077148
  - # 10
    frequency:    8.3456597374
  - # 11
    frequency:   10.7341279646
  - # 12
    frequency:   13.6070813534
  - # 13
    frequency:   13.6129774355
  - # 14
    frequency:   17.6878599671
  - # 15
    frequency:   17.6906891458
  - # 16
    frequency:   18.0340200601
  - # 17
    frequency:   27.2502018663
  - # 18
    frequency:   28.0670915568
  - # 19
    frequency:   28.0680206860
  - # 20
    frequency:   28.6442149906
  - # 21
    frequency:   57.1927071797

- q-position: [    0.0252525,    0.0000000,    0.0000000 ]
  distance:    0.0092332
  band:
  - # 1
    frequency:    0.0801676929
  - # 2
    frequency:    0.4015315751
  - # 3
    frequency:    0.7048541481
  - # 4
    frequency:    1.8026583306
  - # 5
    frequency:    1.8869783068
  - # 6
    frequency:    6.2112937638
  - # 7
    frequency:    6.2160301298
  - # 8
    frequency:    6.6932003094
  - # 9
    frequency:    8.3349536487
  - # 10
    frequency:    8.3544394047
  - # 11
    frequency:   10.7303023137
  - # 12
    frequency:   13.6083902449
  - # 13
    frequency:   13.6175901459
  - # 14
    frequency:   17.6864251391
  - # 15
    frequency:   17.6908213261
  - # 16
    frequency:   18.0302083307
  - # 17
    frequency:   27.2489184492
  - # 18
    frequency:   28.0603249192
  - # 19
    frequency:   28.0616006820
  - # 20
    frequency:   28.6474035690
  - # 21
    frequency:   57.1853437124

- q-position: [    0.0303030,    0.0000000,    0.0000000 ]
  distance:    0.0110799
  band:
  - # 1
    frequency:    0.1132750837
  - # 2
    frequency:    0.4814682277
  - # 3
    frequency:    0.8442943071
  - # 4
    frequency:    1.8112508243
  - # 5
    frequency:    1.9304367703
  - # 6
    frequency:    6.2134371445
  - # 7
    frequency:    6.2197545251
  - # 8
    frequency:    6.6970965857
  - # 9
    frequency:    8.3372034363
  - # 10
    frequency:    8.3650427574
  - # 11
    frequency:   10.7256494251
  - # 12
    frequency:   13.6099836131
  - # 13
    frequency:   13.6232091116
  - # 14
    frequency:   17.6846825311
  - # 15
    frequency:   17.6909703918
  - # 16
    frequency:   18.0255808591
  - # 17
    frequency:   27.2473589918
  - # 18
    frequency:   28.0522449365
  - # 19
    frequency:   28.0537869932
  - # 20
    frequency:   28.6511080517
  - # 21
    frequency:   57.1763629539

- q-position: [    0.0353535,    0.0000000,    0.0000000 ]
  distance:    0.0129265
  band:
  - # 1
    frequency:    0.1509709359
  - # 2
    frequency:    0.5611641109
  - # 3
    frequency:    0.9828165422
  - # 4
    frequency:    1.8215387577
  - # 5
    frequency:    1.9804625310
  - # 6
    frequency:    6.2159755028
  - # 7
    frequency:    6.2237815463
  - # 8
    frequency:    6.7020757782
  - # 9
    frequency:    8.3398531313
  - # 10
    frequency:    8.3773969273
  - # 11
    frequency:   10.7201829839
  - # 12
    frequency:   13.6118576712
  - # 13
    frequency:   13.6298231568
  - # 14
    frequency:   17.6826385707
  - # 15
    frequency:   17.6911290377
  - # 16
    frequency:   18.0201561919
  - # 17
    frequency:   27.2455289098
  - # 18
    frequency:   28.0429488788
  - # 19
    frequency:   28.0445992590
  - # 20
    frequency:   28.6552300720
  - # 21
    frequency:   57.1657762764

- q-position: [    0.0404040,    0.0000000,    0.0000000 ]
  distance:    0.0147732
  band:
  - # 1
    frequency:    0.1927658345
  - # 2
    frequency:    0.6405446276
  - # 3
    frequency:    1.1201951791
  - # 4
    frequency:    1.8335969607
  - # 5
    frequency:    2.0366408096
  - # 6
    frequency:    6.2189114567
  - # 7
    frequency:    6.2279438894
  - # 8
    frequency:    6.7083031955
  - # 9
    frequency:    8.3428979534
  - # 10
    frequency:    8.3914187663
  - # 11
    frequency:   10.7139191111
  - # 12
    frequency:   13.6140079855
  - # 13
    frequency:   13.6374191632
  - # 14
    frequency:   17.6803006457
  - # 15
    frequency:   17.6912887985
  - # 16
    frequency:   18.0139560518
  - # 17
    frequency:   27.2434345282
  - # 18
    frequency:   28.0325393335
  - # 19
    frequency:   28.0340605543
  - # 20
    frequency:   28.6596660078
  - # 21
    frequency:   57.1535970754

- q-position: [    0.0454545,    0.0000000,    0.0000000 ]
  distance:    0.0166198
  band:
  - # 1
    frequency:    0.2382055546
  - # 2
    frequency:    0.7195172860
  - # 3
    frequency:    1.2561683487
  - # 4
    frequency:    1.8475184944
  - # 5
    frequency:    2.0986223291
  - # 6
    frequency:    6.2222480088
  - # 7
    frequency:    6.2320662547
  - # 8
    frequency:    6.7159506525
  - # 9
    frequency:    8.3463322354
  - # 10
    frequency:    8.4070160693
  - # 11
    frequency:   10.7068763402
  - # 12
    frequency:   13.6164294955
  - # 13
    frequency:   13.6459821137
  - # 14
    frequency:   17.6776769841
  - # 15
    frequency:   17.6914401314
  - # 16
    frequency:   18.0070052643
  - # 17
    frequency:   27.2410830422
  - # 18
    frequency:   28.0211206973
  - # 19
    frequency:   28.0221973210
  - # 20
    frequency:   28.6643106144
  - # 21
    frequency:   57.1398407473

- q-position: [    0.0505051,    0.0000000,    0.0000000 ]
  distance:    0.0184665
  band:
  - # 1
    frequency:    0.2868812049
  - # 2
    frequency:    0.7979678004
  - # 3
    frequency:    1.3904330162
  - # 4
    frequency:    1.8634178082
  - # 5
    frequency:    2.1661389227
  - # 6
    frequency:    6.2259885364
  - # 7
    frequency:    6.2359743047
  - # 8
    frequency:    6.7251872981
  - # 9
    frequency:    8.3501493665
  - # 10
    frequency:    8.4240888210
  - # 11
    frequency:   10.6990755902
  - # 12
    frequency:   13.6191165377
  - # 13
    frequency:   13.6554951428
  - # 14
    frequency:   17.6747765031
  - # 15
    frequency:   17.6915725089
  - # 16
    frequency:   17.9993316910
  - # 17
    frequency:   27.2384824728
  - # 18
    frequency:   28.0087963368
  - # 19
    frequency:   28.0090392904
  - # 20
    frequency:   28.6690600017
  - # 21
    frequency:   57.1245246645

- q-position: [    0.0555556,    0.0000000,    0.0000000 ]
  distance:    0.0203131
  band:
  - # 1
    frequency:    0.3384328650
  - # 2
    frequency:    0.8757558267
  - # 3
    frequency:    1.5226430263
  - # 4
    frequency:    1.8814343330
  - # 5
    frequency:    2.2390097415
  - # 6
    frequency:    6.2301367759
  - # 7
    frequency:    6.2395045050
  - # 8
    frequency:    6.7361696755
  - # 9
    frequency:    8.3543417333
  - # 10
    frequency:    8.4425304258
  - # 11
    frequency:   10.6905401382
  - # 12
    frequency:   13.6220628708
  - # 13
    frequency:   13.6659395918
  - # 14
    frequency:   17.6716086209
  - # 15
    frequency:   17.6916745228
  - # 16
    frequency:   17.9909661809
  - # 17
    frequency:   27.2356416151
  - # 18
    frequency:   27.9946193962
  - # 19
    frequency:   27.9956664524
  - # 20
    frequency:   28.6738139214
  - # 21
    frequency:   57.1076681456

- q-position: [    0.0606061,    0.0000000,    0.0000000 ]
  distance:    0.0221598
  band:
  - # 1
    frequency:    0.3925487384
  - # 2
    frequency:    0.9527105483
  - # 3
    frequency:    1.6524133669
  - # 4
    frequency:    1.9017362906
  - # 5
    frequency:    2.3171368034
  - # 6
    frequency:    6.2346968041
  - # 7
    frequency:    6.2425138872
  - # 8
    frequency:    6.7490319998
  - # 9
    frequency:    8.3589006603
  - # 10
    frequency:    8.4622288905
  - # 11
    frequency:   10.6812955895
  - # 12
    frequency:   13.6252617045
  - # 13
    frequency:   13.6772950707
  - # 14
    frequency:   17.6681830243
  - # 15
    frequency:   17.6917339969
  - # 16
    frequency:   17.9819425468
  - # 17
    frequency:   27.2325699802
  - # 18
    frequency:   27.9789736759
  - # 19
    frequency:   27.9818265941
  - # 20
    frequency:   28.6784774120
  - # 21
    frequency:   57.0892924240

- q-position: [    0.0656566,    0.0000000,    0.0000000 ]
  distance:    0.0240064
  band:
  - # 1
    frequency:    0.4489615742
  - # 2
    frequency:    1.0286265798
  - # 3
    frequency:    1.7793350153
  - # 4
    frequency:    1.9245242456
  - # 5
    frequency:    2.4004872084
  - # 6
    frequency:    6.2396730139
  - # 7
    frequency:    6.2448885599
  - # 8
    frequency:    6.7638778453
  - # 9
    frequency:    8.3638163504
  - # 10
    frequency:    8.4830679321
  - # 11
    frequency:   10.6713698480
  - # 12
    frequency:   13.6287057307
  - # 13
    frequency:   13.6895395247
  - # 14
    frequency:   17.6645093834
  - # 15
    frequency:   17.6917381092
  - # 16
    frequency:   17.9722975792
  - # 17
    frequency:   27.2292777309
  - # 18
    frequency:   27.9621411643
  - # 19
    frequency:   27.9673667344
  - # 20
    frequency:   28.6829618948
  - # 21
    frequency:   57.0694206119

- q-position: [    0.0707071,    0.0000000,    0.0000000 ]
  distance:    0.0258531
  band:
  - # 1
    frequency:    0.5074436791
  - # 2
    frequency:    1.1032610519
  - # 3
    frequency:    1.9030046791
  - # 4
    frequency:    1.9500335310
  - # 5
    frequency:    2.4890589759
  - # 6
    frequency:    6.2450700835
  - # 7
    frequency:    6.2465498587
  - # 8
    frequency:    6.7807743551
  - # 9
    frequency:    8.3690778297
  - # 10
    frequency:    8.5049279975
  - # 11
    frequency:   10.6607930852
  - # 12
    frequency:   13.6323871556
  - # 13
    frequency:   13.7026493055
  - # 14
    frequency:   17.6605970038
  - # 15
    frequency:   17.6916735216
  - # 16
    frequency:   17.9620711114
  - # 17
    frequency:   27.2257756112
  - # 18
    frequency:   27.9441637767
  - # 19
    frequency:   27.9523707859
  - # 20
    frequency:   28.6871858294
  - # 21
    frequency:   57.0480776616

- q-position: [    0.0757576,    0.0000000,    0.0000000 ]
  distance:    0.0276997
  band:
  - # 1
    frequency:    0.5678014294
  - # 2
    frequency:    1.1763332924
  - # 3
    frequency:    1.9785341333
  - # 4
    frequency:    2.0230706489
  - # 5
    frequency:    2.5828301575
  - # 6
    frequency:    6.2474574172
  - # 7
    frequency:    6.2508929403
  - # 8
    frequency:    6.7997497006
  - # 9
    frequency:    8.3746728951
  - # 10
    frequency:    8.5276871852
  - # 11
    frequency:   10.6495977098
  - # 12
    frequency:   13.6362977356
  - # 13
    frequency:   13.7165992472
  - # 14
    frequency:   17.6564544052
  - # 15
    frequency:   17.6915265170
  - # 16
    frequency:   17.9513061483
  - # 17
    frequency:   27.2220748692
  - # 18
    frequency:   27.9250861829
  - # 19
    frequency:   27.9369164537
  - # 20
    frequency:   28.6910750385
  - # 21
    frequency:   57.0252903233

- q-position: [    0.0808081,    0.0000000,    0.0000000 ]
  distance:    0.0295464
  band:
  - # 1
    frequency:    0.6298698478
  - # 2
    frequency:    1.2475291313
  - # 3
    frequency:    2.0103260036
  - # 4
    frequency:    2.1392885587
  - # 5
    frequency:    2.6816979636
  - # 6
    frequency:    6.2476090343
  - # 7
    frequency:    6.2571467153
  - # 8
    frequency:    6.8207939100
  - # 9
    frequency:    8.3805880688
  - # 10
    frequency:    8.5512220662
  - # 11
    frequency:   10.6378183366
  - # 12
    frequency:   13.6404288137
  - # 13
    frequency:   13.7313627465
  - # 14
    frequency:   17.6520888137
  - # 15
    frequency:   17.6912831418
  - # 16
    frequency:   17.9400490758
  - # 17
    frequency:   27.2181871750
  - # 18
    frequency:   27.9049556723
  - # 19
    frequency:   27.9210753262
  - # 20
    frequency:   28.6945627925
  - # 21
    frequency:   57.0010871001

- q-position: [    0.0858586,    0.0000000,    0.0000000 ]
  distance:    0.0313930
  band:
  - # 1
    frequency:    0.6935075671
  - # 2
    frequency:    1.3165122798
  - # 3
    frequency:    2.0457273462
  - # 4
    frequency:    2.2515713158
  - # 5
    frequency:    2.7854239398
  - # 6
    frequency:    6.2470378195
  - # 7
    frequency:    6.2638366912
  - # 8
    frequency:    6.8438625865
  - # 9
    frequency:    8.3868085596
  - # 10
    frequency:    8.5754084074
  - # 11
    frequency:   10.6254917554
  - # 12
    frequency:   13.6447713579
  - # 13
    frequency:   13.7469118459
  - # 14
    frequency:   17.6475055541
  - # 15
    frequency:   17.6909293535
  - # 16
    frequency:   17.9283499663
  - # 17
    frequency:   27.2141245335
  - # 18
    frequency:   27.8838220109
  - # 19
    frequency:   27.9049131257
  - # 20
    frequency:   28.6975897326
  - # 21
    frequency:   56.9754981996

- q-position: [    0.0909091,    0.0000000,    0.0000000 ]
  distance:    0.0332397
  band:
  - # 1
    frequency:    0.7585923344
  - # 2
    frequency:    1.3829449181
  - # 3
    frequency:    2.0850537485
  - # 4
    frequency:    2.3600129942
  - # 5
    frequency:    2.8936055383
  - # 6
    frequency:    6.2458075140
  - # 7
    frequency:    6.2709682405
  - # 8
    frequency:    6.8688826119
  - # 9
    frequency:    8.3933182339
  - # 10
    frequency:    8.6001218045
  - # 11
    frequency:   10.6126568994
  - # 12
    frequency:   13.6493160007
  - # 13
    frequency:   13.7632173204
  - # 14
    frequency:   17.6427073311
  - # 15
    frequency:   17.6904511724
  - # 16
    frequency:   17.9162629964
  - # 17
    frequency:   27.2098991921
  - # 18
    frequency:   27.8617372887
  - # 19
    frequency:   27.8884900564
  - # 20
    frequency:   28.7001036902
  - # 21
    frequency:   56.9485554824

- q-position: [    0.0959596,    0.0000000,    0.0000000 ]
  distance:    0.0350863
  band:
  - # 1
    frequency:    0.8250171038
  - # 2
    frequency:    1.4465178892
  - # 3
    frequency:    2.1285877534
  - # 4
    frequency:    2.4648741821
  - # 5
    frequency:    3.0056866277
  - # 6
    frequency:    6.2440070231
  - # 7
    frequency:    6.2785467557
  - # 8
    frequency:    6.8957588043
  - # 9
    frequency:    8.4000995958
  - # 10
    frequency:    8.6252382313
  - # 11
    frequency:   10.5993548110
  - # 12
    frequency:   13.6540530803
  - # 13
    frequency:   13.7802487671
  - # 14
    frequency:   17.6376933869
  - # 15
    frequency:   17.6898348353
  - # 16
    frequency:   17.9038469890
  - # 17
    frequency:   27.2055235455
  - # 18
    frequency:   27.8387557608
  - # 19
    frequency:   27.8718612055
  - # 20
    frequency:   28.7020594446
  - # 21
    frequency:   56.9202924078

- q-position: [    0.1010101,    0.0000000,    0.0000000 ]
  distance:    0.0369330
  band:
  - # 1
    frequency:    0.8926867085
  - # 2
    frequency:    1.5069873884
  - # 3
    frequency:    2.1765419842
  - # 4
    frequency:    2.5665336208
  - # 5
    frequency:    3.1210020809
  - # 6
    frequency:    6.2417450745
  - # 7
    frequency:    6.2865775691
  - # 8
    frequency:    6.9243806121
  - # 9
    frequency:    8.4071337783
  - # 10
    frequency:    8.6506345180
  - # 11
    frequency:   10.5856286060
  - # 12
    frequency:   13.6589726812
  - # 13
    frequency:   13.7979746958
  - # 14
    frequency:   17.6324585320
  - # 15
    frequency:   17.6890669510
  - # 16
    frequency:   17.8911660887
  - # 17
    frequency:   27.2010100371
  - # 18
    frequency:   27.8149336794
  - # 19
    frequency:   27.8550769644
  - # 20
    frequency:   28.7034184502
  - # 21
    frequency:   56.8907439770

- q-position: [    0.1060606,    0.0000000,    0.0000000 ]
  distance:    0.0387796
  band:
  - # 1
    frequency:    0.9615150644
  - # 2
    frequency:    1.5642106678
  - # 3
    frequency:    2.2290233014
  - # 4
    frequency:    2.6654253499
  - # 5
    frequency:    3.2388371720
  - # 6
    frequency:    6.2391456585
  - # 7
    frequency:    6.2950658642
  - # 8
    frequency:    6.9546282010
  - # 9
    frequency:    8.4144005464
  - # 10
    frequency:    8.6761887677
  - # 11
    frequency:   10.5715234311
  - # 12
    frequency:   13.6640646771
  - # 13
    frequency:   13.8163626227
  - # 14
    frequency:   17.6269920581
  - # 15
    frequency:   17.6881346557
  - # 16
    frequency:   17.8782905626
  - # 17
    frequency:   27.1963710590
  - # 18
    frequency:   27.7903291199
  - # 19
    frequency:   27.8381834469
  - # 20
    frequency:   28.7041485520
  - # 21
    frequency:   56.8599466730

- q-position: [    0.1111111,    0.0000000,    0.0000000 ]
  distance:    0.0406263
  band:
  - # 1
    frequency:    1.0314228492
  - # 2
    frequency:    1.6181705485
  - # 3
    frequency:    2.2860081987
  - # 4
    frequency:    2.7619820918
  - # 5
    frequency:    3.3584809732
  - # 6
    frequency:    6.2363446089
  - # 7
    frequency:    6.3040165772
  - # 8
    frequency:    6.9863775802
  - # 9
    frequency:    8.4218783125
  - # 10
    frequency:    8.7017807250
  - # 11
    frequency:   10.5570864156
  - # 12
    frequency:   13.6693187726
  - # 13
    frequency:   13.8353791641
  - # 14
    frequency:   17.6212765604
  - # 15
    frequency:   17.6870257672
  - # 16
    frequency:   17.8652977002
  - # 17
    frequency:   27.1916188518
  - # 18
    frequency:   27.7650017996
  - # 19
    frequency:   27.8212228901
  - # 20
    frequency:   28.7042237032
  - # 21
    frequency:   56.8279383980

- q-position: [    0.1161616,    0.0000000,    0.0000000 ]
  distance:    0.0424729
  band:
  - # 1
    frequency:    1.1023355902
  - # 2
    frequency:    1.6689802673
  - # 3
    frequency:    2.3473379078
  - # 4
    frequency:    2.8565966361
  - # 5
    frequency:    3.4792619153
  - # 6
    frequency:    6.2334874488
  - # 7
    frequency:    6.3134342901
  - # 8
    frequency:    7.0195046656
  - # 9
    frequency:    8.4295441640
  - # 10
    frequency:    8.7272921055
  - # 11
    frequency:   10.5423666101
  - # 12
    frequency:   13.6747245455
  - # 13
    frequency:   13.8549901306
  - # 14
    frequency:   17.6152867388
  - # 15
    frequency:   17.6857289368
  - # 16
    frequency:   17.8522727473
  - # 17
    frequency:   27.1867654039
  - # 18
    frequency:   27.7390128906
  - # 19
    frequency:   27.8042340275
  - # 20
    frequency:   28.7036236916
  - # 21
    frequency:   56.7947584091

- q-position: [    0.1212121,    0.0000000,    0.0000000 ]
  distance:    0.0443196
  band:
  - # 1
    frequency:    1.1741821030
  - # 2
    frequency:    1.7168666575
  - # 3
    frequency:    2.4127352133
  - # 4
    frequency:    2.9496025405
  - # 5
    frequency:    3.6005641133
  - # 6
    frequency:    6.2307284584
  - # 7
    frequency:    6.3233231160
  - # 8
    frequency:    7.0538883394
  - # 9
    frequency:    8.4373739039
  - # 10
    frequency:    8.7526068998
  - # 11
    frequency:   10.5274149114
  - # 12
    frequency:   13.6802714886
  - # 13
    frequency:   13.8751606226
  - # 14
    frequency:   17.6089882973
  - # 15
    frequency:   17.6842337975
  - # 16
    frequency:   17.8393097550
  - # 17
    frequency:   27.1818223540
  - # 18
    frequency:   27.7124248276
  - # 19
    frequency:   27.7872524292
  - # 20
    frequency:   28.7023338785
  - # 21
    frequency:   56.7604472507

- q-position: [    0.1262626,    0.0000000,    0.0000000 ]
  distance:    0.0461662
  band:
  - # 1
    frequency:    1.2468932208
  - # 2
    frequency:    1.7621374135
  - # 3
    frequency:    2.4818372239
  - # 4
    frequency:    3.0412694731
  - # 5
    frequency:    3.7218290585
  - # 6
    frequency:    6.2282308441
  - # 7
    frequency:    6.3336865762
  - # 8
    frequency:    7.0894126511
  - # 9
    frequency:    8.4453421029
  - # 10
    frequency:    8.7776116627
  - # 11
    frequency:   10.5122839655
  - # 12
    frequency:   13.6859490514
  - # 13
    frequency:   13.8958551233
  - # 14
    frequency:   17.6023371376
  - # 15
    frequency:   17.6825311066
  - # 16
    frequency:   17.8265121473
  - # 17
    frequency:   27.1768008966
  - # 18
    frequency:   27.6853011097
  - # 19
    frequency:   27.7703108052
  - # 20
    frequency:   28.7003449530
  - # 21
    frequency:   56.7250466855

- q-position: [    0.1313131,    0.0000000,    0.0000000 ]
  distance:    0.0480129
  band:
  - # 1
    frequency:    1.3204007672
  - # 2
    frequency:    1.8051426112
  - # 3
    frequency:    2.5542339283
  - # 4
    frequency:    3.1318072449
  - # 5
    frequency:    3.8425485636
  - # 6
    frequency:    6.2261678564
  - # 7
    frequency:    6.3445274727
  - # 8
    frequency:    7.1259683326
  - # 9
    frequency:    8.4534221653
  - # 10
    frequency:    8.8021957981
  - # 11
    frequency:   10.4970280446
  - # 12
    frequency:   13.6917466799
  - # 13
    frequency:   13.9170375930
  - # 14
    frequency:   17.5952791369
  - # 15
    frequency:   17.6806128825
  - # 16
    frequency:   17.8139927227
  - # 17
    frequency:   27.1717116920
  - # 18
    frequency:   27.6577060993
  - # 19
    frequency:   27.7534392699
  - # 20
    frequency:   28.6976526996
  - # 21
    frequency:   56.6885996234

- q-position: [    0.1363636,    0.0000000,    0.0000000 ]
  distance:    0.0498595
  band:
  - # 1
    frequency:    1.3946367272
  - # 2
    frequency:    1.8462399265
  - # 3
    frequency:    2.6295030882
  - # 4
    frequency:    3.2213737947
  - # 5
    frequency:    3.9622536483
  - # 6
    frequency:    6.2247247008
  - # 7
    frequency:    6.3558477547
  - # 8
    frequency:    7.1634537911
  - # 9
    frequency:    8.4615864044
  - # 10
    frequency:    8.8262518518
  - # 11
    frequency:   10.4817028885
  - # 12
    frequency:   13.6976538568
  - # 13
    frequency:   13.9386715603
  - # 14
    frequency:   17.5877508780
  - # 15
    frequency:   17.6784725331
  - # 16
    frequency:   17.8018727180
  - # 17
    frequency:   27.1665647833
  - # 18
    frequency:   27.6297048160
  - # 19
    frequency:   27.7366655688
  - # 20
    frequency:   28.6942577807
  - # 21
    frequency:   56.6511500483

- q-position: [    0.1414141,    0.0000000,    0.0000000 ]
  distance:    0.0517062
  band:
  - # 1
    frequency:    1.4695325791
  - # 2
    frequency:    1.8857689545
  - # 3
    frequency:    2.7072360667
  - # 4
    frequency:    3.3100841614
  - # 5
    frequency:    4.0805023164
  - # 6
    frequency:    6.2241010906
  - # 7
    frequency:    6.3676483831
  - # 8
    frequency:    7.2017757176
  - # 9
    frequency:    8.4698061304
  - # 10
    frequency:    8.8496758225
  - # 11
    frequency:   10.4663655051
  - # 12
    frequency:   13.7036601388
  - # 13
    frequency:   13.9607202129
  - # 14
    frequency:   17.5796817339
  - # 15
    frequency:   17.6761049752
  - # 16
    frequency:   17.7902795342
  - # 17
    frequency:   27.1613695212
  - # 18
    frequency:   27.6013627290
  - # 19
    frequency:   27.7200152648
  - # 20
    frequency:   28.6901655305
  - # 21
    frequency:   56.6127429446

- q-position: [    0.1464646,    0.0000000,    0.0000000 ]
  distance:    0.0535528
  band:
  - # 1
    frequency:    1.5450187564
  - # 2
    frequency:    1.9240357175
  - # 3
    frequency:    2.7870534991
  - # 4
    frequency:    3.3980189067
  - # 5
    frequency:    4.1968677974
  - # 6
    frequency:    6.2245142688
  - # 7
    frequency:    6.3799291933
  - # 8
    frequency:    7.2408494188
  - # 9
    frequency:    8.4780517470
  - # 10
    frequency:    8.8723675032
  - # 11
    frequency:   10.4510739182
  - # 12
    frequency:   13.7097551932
  - # 13
    frequency:   13.9831464851
  - # 14
    frequency:   17.5709976185
  - # 15
    frequency:   17.6735067438
  - # 16
    frequency:   17.7793428143
  - # 17
    frequency:   27.1561344983
  - # 18
    frequency:   27.5727455464
  - # 19
    frequency:   27.7035118878
  - # 20
    frequency:   28.6853857612
  - # 21
    frequency:   56.5734242204

- q-position: [    0.1515152,    0.0000000,    0.0000000 ]
  distance:    0.0553995
  band:
  - # 1
    frequency:    1.6210242116
  - # 2
    frequency:    1.9613057174
  - # 3
    frequency:    2.8686124487
  - # 4
    frequency:    3.4852313624
  - # 5
    frequency:    4.3109280035
  - # 6
    frequency:    6.2262022769
  - # 7
    frequency:    6.3926887597
  - # 8
    frequency:    7.2805989491
  - # 9
    frequency:    8.4862928575
  - # 10
    frequency:    8.8942308626
  - # 11
    frequency:   10.4358868564
  - # 12
    frequency:   13.7159288327
  - # 13
    frequency:   14.0059131444
  - # 14
    frequency:   17.5616264240
  - # 15
    frequency:   17.6706760894
  - # 16
    frequency:   17.7691888494
  - # 17
    frequency:   27.1508674949
  - # 18
    frequency:   27.5439190035
  - # 19
    frequency:   27.6871770460
  - # 20
    frequency:   28.6799325774
  - # 21
    frequency:   56.5332406321
