nqpoint: 300    
npath: 3      
segment_nqpoint:
- 100
- 100
- 100
labels:
- [ 'G', 'M' ]
- [ 'M', 'K' ]
- [ 'K', 'G' ]
reciprocal_lattice:
- [   0.27446730,   0.15846377,   0.00000000 ] # a*
- [   0.00000000,   0.31692754,   0.00000000 ] # b*
- [   0.00000000,   0.00000000,   0.03675757 ] # c*
natom: 8      
lattice:
- [     3.643421285912004,     0.000000000000000,     0.000000000000000 ] # a
- [    -1.821710642956002,     3.155295390292618,     0.000000000000000 ] # b
- [     0.000000000000000,     0.000000000000000,    27.205277669576493 ] # c
points:
- symbol: C # 1
  coordinates: [  0.000000000000000,  0.000000000000000,  0.464712050606988 ]
  mass: 12.010700
- symbol: C # 2
  coordinates: [  0.333332985432215,  0.666666983183674,  0.611782651043221 ]
  mass: 12.010700
- symbol: H # 3
  coordinates: [  0.666666984744047,  0.333332985985145,  0.330818163641265 ]
  mass: 1.007940
- symbol: N # 4
  coordinates: [  0.333332985432215,  0.666666983183674,  0.566020464222691 ]
  mass: 14.006700
- symbol: O # 5
  coordinates: [  0.666666984744047,  0.333332985985145,  0.367051508909631 ]
  mass: 15.999400
- symbol: S # 6
  coordinates: [  0.333332985432215,  0.666666983183674,  0.669181836358735 ]
  mass: 32.065000
- symbol: Y # 7
  coordinates: [  0.333332985432215,  0.666666983183674,  0.414101725527139 ]
  mass: 88.905850
- symbol: Y # 8
  coordinates: [  0.666666984744047,  0.333332985985145,  0.514739855044896 ]
  mass: 88.905850

phonon:
- q-position: [    0.0000000,    0.0000000,    0.0000000 ]
  distance:    0.0000000
  band:
  - # 1
    frequency:   -0.0000079983
  - # 2
    frequency:   -0.0000005231
  - # 3
    frequency:    0.0000095121
  - # 4
    frequency:    0.3916897793
  - # 5
    frequency:    0.3916897794
  - # 6
    frequency:    3.4860783666
  - # 7
    frequency:    3.4860783666
  - # 8
    frequency:    4.6732986497
  - # 9
    frequency:    5.2826560979
  - # 10
    frequency:    5.2826560979
  - # 11
    frequency:    5.6532174174
  - # 12
    frequency:    5.6532174174
  - # 13
    frequency:    7.3953998147
  - # 14
    frequency:    9.4274596518
  - # 15
    frequency:    9.4274596518
  - # 16
    frequency:   10.7219618417
  - # 17
    frequency:   12.2806119512
  - # 18
    frequency:   12.2806119513
  - # 19
    frequency:   14.6589465013
  - # 20
    frequency:   14.6589465014
  - # 21
    frequency:   16.6074422526
  - # 22
    frequency:   26.9660937991
  - # 23
    frequency:   59.6162790021
  - # 24
    frequency:  114.2993818808

- q-position: [    0.0050505,    0.0000000,    0.0000000 ]
  distance:    0.0016006
  band:
  - # 1
    frequency:    0.0018408935
  - # 2
    frequency:    0.0562740532
  - # 3
    frequency:    0.1018576044
  - # 4
    frequency:    0.3931649761
  - # 5
    frequency:    0.3981012738
  - # 6
    frequency:    3.4860951525
  - # 7
    frequency:    3.4867732871
  - # 8
    frequency:    4.6732055296
  - # 9
    frequency:    5.2826434670
  - # 10
    frequency:    5.2871459730
  - # 11
    frequency:    5.6533722725
  - # 12
    frequency:    5.6546650967
  - # 13
    frequency:    7.3948759853
  - # 14
    frequency:    9.4272419151
  - # 15
    frequency:    9.4302617518
  - # 16
    frequency:   10.7209398722
  - # 17
    frequency:   12.2803490825
  - # 18
    frequency:   12.2838348872
  - # 19
    frequency:   14.6589983967
  - # 20
    frequency:   14.6591562598
  - # 21
    frequency:   16.6063586083
  - # 22
    frequency:   26.9660341076
  - # 23
    frequency:   59.6150463931
  - # 24
    frequency:  114.2993509476

- q-position: [    0.0101010,    0.0000000,    0.0000000 ]
  distance:    0.0032013
  band:
  - # 1
    frequency:    0.0072307697
  - # 2
    frequency:    0.1121560849
  - # 3
    frequency:    0.2020599405
  - # 4
    frequency:    0.3976595930
  - # 5
    frequency:    0.4174957652
  - # 6
    frequency:    3.4861457383
  - # 7
    frequency:    3.4888526712
  - # 8
    frequency:    4.6729290132
  - # 9
    frequency:    5.2826062033
  - # 10
    frequency:    5.3003630484
  - # 11
    frequency:    5.6538363433
  - # 12
    frequency:    5.6591130281
  - # 13
    frequency:    7.3933056240
  - # 14
    frequency:    9.4265893061
  - # 15
    frequency:    9.4386266255
  - # 16
    frequency:   10.7179959845
  - # 17
    frequency:   12.2795620160
  - # 18
    frequency:   12.2934474563
  - # 19
    frequency:   14.6591540253
  - # 20
    frequency:   14.6597852644
  - # 21
    frequency:   16.6031094014
  - # 22
    frequency:   26.9658550924
  - # 23
    frequency:   59.6113509896
  - # 24
    frequency:  114.2992582323

- q-position: [    0.0151515,    0.0000000,    0.0000000 ]
  distance:    0.0048019
  band:
  - # 1
    frequency:    0.0158555925
  - # 2
    frequency:    0.1671488326
  - # 3
    frequency:    0.2975823909
  - # 4
    frequency:    0.4054145434
  - # 5
    frequency:    0.4511731270
  - # 6
    frequency:    3.4862308078
  - # 7
    frequency:    3.4923006194
  - # 8
    frequency:    4.6724772480
  - # 9
    frequency:    5.2825461888
  - # 10
    frequency:    5.3215422191
  - # 11
    frequency:    5.6546081502
  - # 12
    frequency:    5.6668907244
  - # 13
    frequency:    7.3906921199
  - # 14
    frequency:    9.4255036279
  - # 15
    frequency:    9.4524231385
  - # 16
    frequency:   10.7134958751
  - # 17
    frequency:   12.2782553634
  - # 18
    frequency:   12.3092863636
  - # 19
    frequency:   14.6594132147
  - # 20
    frequency:   14.6608327036
  - # 21
    frequency:   16.5976998131
  - # 22
    frequency:   26.9655569318
  - # 23
    frequency:   59.6052000562
  - # 24
    frequency:  114.2991039866

- q-position: [    0.0202020,    0.0000000,    0.0000000 ]
  distance:    0.0064026
  band:
  - # 1
    frequency:    0.0273730793
  - # 2
    frequency:    0.2205007629
  - # 3
    frequency:    0.3821234092
  - # 4
    frequency:    0.4169559397
  - # 5
    frequency:    0.5035964239
  - # 6
    frequency:    3.4863514953
  - # 7
    frequency:    3.4970913650
  - # 8
    frequency:    4.6718627320
  - # 9
    frequency:    5.2824665448
  - # 10
    frequency:    5.3493869057
  - # 11
    frequency:    5.6556852365
  - # 12
    frequency:    5.6785926505
  - # 13
    frequency:    7.3870411462
  - # 14
    frequency:    9.4239878847
  - # 15
    frequency:    9.4714097184
  - # 16
    frequency:   10.7080491287
  - # 17
    frequency:   12.2764367870
  - # 18
    frequency:   12.3310963630
  - # 19
    frequency:   14.6597756774
  - # 20
    frequency:   14.6622972293
  - # 21
    frequency:   16.5901384888
  - # 22
    frequency:   26.9651399230
  - # 23
    frequency:   59.5966056779
  - # 24
    frequency:  114.2988886296

- q-position: [    0.0252525,    0.0000000,    0.0000000 ]
  distance:    0.0080032
  band:
  - # 1
    frequency:    0.0415168875
  - # 2
    frequency:    0.2709814307
  - # 3
    frequency:    0.4333030301
  - # 4
    frequency:    0.4498749842
  - # 5
    frequency:    0.5788564560
  - # 6
    frequency:    3.4865093786
  - # 7
    frequency:    3.5031902418
  - # 8
    frequency:    4.6711012388
  - # 9
    frequency:    5.2823716087
  - # 10
    frequency:    5.3820578717
  - # 11
    frequency:    5.6570641829
  - # 12
    frequency:    5.6951229308
  - # 13
    frequency:    7.3823606998
  - # 14
    frequency:    9.4220462814
  - # 15
    frequency:    9.4951995253
  - # 16
    frequency:   10.7025132655
  - # 17
    frequency:   12.2741169639
  - # 18
    frequency:   12.3585520046
  - # 19
    frequency:   14.6602410118
  - # 20
    frequency:   14.6641769631
  - # 21
    frequency:   16.5804375538
  - # 22
    frequency:   26.9646044810
  - # 23
    frequency:   59.5855847276
  - # 24
    frequency:  114.2986127456

- q-position: [    0.0303030,    0.0000000,    0.0000000 ]
  distance:    0.0096039
  band:
  - # 1
    frequency:    0.0581162261
  - # 2
    frequency:    0.3166992022
  - # 3
    frequency:    0.4561439140
  - # 4
    frequency:    0.5060368398
  - # 5
    frequency:    0.6702960528
  - # 6
    frequency:    3.4867064689
  - # 7
    frequency:    3.5105548226
  - # 8
    frequency:    4.6702110196
  - # 9
    frequency:    5.2822669024
  - # 10
    frequency:    5.4172308561
  - # 11
    frequency:    5.6587406266
  - # 12
    frequency:    5.7176807005
  - # 13
    frequency:    7.3766611599
  - # 14
    frequency:    9.4196842211
  - # 15
    frequency:    9.5232121720
  - # 16
    frequency:   10.6980049033
  - # 17
    frequency:   12.2713095361
  - # 18
    frequency:   12.3912821453
  - # 19
    frequency:   14.6608087016
  - # 20
    frequency:   14.6664695067
  - # 21
    frequency:   16.5686126365
  - # 22
    frequency:   26.9639511390
  - # 23
    frequency:   59.5721588193
  - # 24
    frequency:  114.2982770823

- q-position: [    0.0353535,    0.0000000,    0.0000000 ]
  distance:    0.0112045
  band:
  - # 1
    frequency:    0.0770702980
  - # 2
    frequency:    0.3556038343
  - # 3
    frequency:    0.4873315821
  - # 4
    frequency:    0.5584737429
  - # 5
    frequency:    0.7688822397
  - # 6
    frequency:    3.4869451985
  - # 7
    frequency:    3.5191360932
  - # 8
    frequency:    4.6692124426
  - # 9
    frequency:    5.2821590919
  - # 10
    frequency:    5.4523441303
  - # 11
    frequency:    5.6607092859
  - # 12
    frequency:    5.7475620579
  - # 13
    frequency:    7.3699553693
  - # 14
    frequency:    9.4169083026
  - # 15
    frequency:    9.5546155334
  - # 16
    frequency:   10.6959182757
  - # 17
    frequency:   12.2680310470
  - # 18
    frequency:   12.4288936507
  - # 19
    frequency:   14.6614781170
  - # 20
    frequency:   14.6691719560
  - # 21
    frequency:   16.5546829009
  - # 22
    frequency:   26.9631805471
  - # 23
    frequency:   59.5563542486
  - # 24
    frequency:  114.2978825483

- q-position: [    0.0404040,    0.0000000,    0.0000000 ]
  distance:    0.0128052
  band:
  - # 1
    frequency:    0.0983159714
  - # 2
    frequency:    0.3871961312
  - # 3
    frequency:    0.5271752146
  - # 4
    frequency:    0.6105602501
  - # 5
    frequency:    0.8703310083
  - # 6
    frequency:    3.4872284071
  - # 7
    frequency:    3.5288795621
  - # 8
    frequency:    4.6681280204
  - # 9
    frequency:    5.2820559391
  - # 10
    frequency:    5.4851259262
  - # 11
    frequency:    5.6629639878
  - # 12
    frequency:    5.7856856914
  - # 13
    frequency:    7.3622587431
  - # 14
    frequency:    9.4137263157
  - # 15
    frequency:    9.5882676962
  - # 16
    frequency:   10.6979440370
  - # 17
    frequency:   12.2643008640
  - # 18
    frequency:   12.4709917826
  - # 19
    frequency:   14.6622485152
  - # 20
    frequency:   14.6722809208
  - # 21
    frequency:   16.5386710885
  - # 22
    frequency:   26.9622934722
  - # 23
    frequency:   59.5382019209
  - # 24
    frequency:  114.2974302096

- q-position: [    0.0454545,    0.0000000,    0.0000000 ]
  distance:    0.0144058
  band:
  - # 1
    frequency:    0.1218043209
  - # 2
    frequency:    0.4132540241
  - # 3
    frequency:    0.5737157810
  - # 4
    frequency:    0.6632798180
  - # 5
    frequency:    0.9729583383
  - # 6
    frequency:    3.4875593257
  - # 7
    frequency:    3.5397262515
  - # 8
    frequency:    4.6669826776
  - # 9
    frequency:    5.2819662466
  - # 10
    frequency:    5.5142085272
  - # 11
    frequency:    5.6654977004
  - # 12
    frequency:    5.8320324560
  - # 13
    frequency:    7.3535894127
  - # 14
    frequency:    9.4101472357
  - # 15
    frequency:    9.6226806214
  - # 16
    frequency:   10.7060688286
  - # 17
    frequency:   12.2601410881
  - # 18
    frequency:   12.5171960591
  - # 19
    frequency:   14.6631190407
  - # 20
    frequency:   14.6757925516
  - # 21
    frequency:   16.5206035742
  - # 22
    frequency:   26.9612907967
  - # 23
    frequency:   59.5177372665
  - # 24
    frequency:  114.2969212860

- q-position: [    0.0505051,    0.0000000,    0.0000000 ]
  distance:    0.0160064
  band:
  - # 1
    frequency:    0.1474873874
  - # 2
    frequency:    0.4361520870
  - # 3
    frequency:    0.6244080938
  - # 4
    frequency:    0.7168247152
  - # 5
    frequency:    1.0760314544
  - # 6
    frequency:    3.4879415603
  - # 7
    frequency:    3.5516135523
  - # 8
    frequency:    4.6658041235
  - # 9
    frequency:    5.2818997945
  - # 10
    frequency:    5.5393531477
  - # 11
    frequency:    5.6683025675
  - # 12
    frequency:    5.8854719487
  - # 13
    frequency:    7.3439684124
  - # 14
    frequency:    9.4061812144
  - # 15
    frequency:    9.6560419524
  - # 16
    frequency:   10.7225205425
  - # 17
    frequency:   12.2555764509
  - # 18
    frequency:   12.5671514639
  - # 19
    frequency:   14.6640887263
  - # 20
    frequency:   14.6797025759
  - # 21
    frequency:   16.5005104374
  - # 22
    frequency:   26.9601735179
  - # 23
    frequency:   59.4950001432
  - # 24
    frequency:  114.2963571467

- q-position: [    0.0555556,    0.0000000,    0.0000000 ]
  distance:    0.0176071
  band:
  - # 1
    frequency:    0.1753120935
  - # 2
    frequency:    0.4575579810
  - # 3
    frequency:    0.6774254607
  - # 4
    frequency:    0.7711421339
  - # 5
    frequency:    1.1791820622
  - # 6
    frequency:    3.4883790752
  - # 7
    frequency:    3.5644759510
  - # 8
    frequency:    4.6646232389
  - # 9
    frequency:    5.2818672713
  - # 10
    frequency:    5.5611162476
  - # 11
    frequency:    5.6713699466
  - # 12
    frequency:    5.9441427873
  - # 13
    frequency:    7.3334199225
  - # 14
    frequency:    9.4018395688
  - # 15
    frequency:    9.6863389469
  - # 16
    frequency:   10.7496163218
  - # 17
    frequency:   12.2506341989
  - # 18
    frequency:   12.6205355883
  - # 19
    frequency:   14.6651564944
  - # 20
    frequency:   14.6840063472
  - # 21
    frequency:   16.4784255534
  - # 22
    frequency:   26.9589427472
  - # 23
    frequency:   59.4700347273
  - # 24
    frequency:  114.2957393055

- q-position: [    0.0606061,    0.0000000,    0.0000000 ]
  distance:    0.0192077
  band:
  - # 1
    frequency:    0.2052182477
  - # 2
    frequency:    0.4783965049
  - # 3
    frequency:    0.7316961734
  - # 4
    frequency:    0.8261107486
  - # 5
    frequency:    1.2821982710
  - # 6
    frequency:    3.4888761767
  - # 7
    frequency:    3.5782456466
  - # 8
    frequency:    4.6634744389
  - # 9
    frequency:    5.2818801976
  - # 10
    frequency:    5.5803337968
  - # 11
    frequency:    5.6746904484
  - # 12
    frequency:    6.0060077416
  - # 13
    frequency:    7.3219715823
  - # 14
    frequency:    9.3971347665
  - # 15
    frequency:    9.7116063785
  - # 16
    frequency:   10.7894923654
  - # 17
    frequency:   12.2453439665
  - # 18
    frequency:   12.6770626075
  - # 19
    frequency:   14.6663211573
  - # 20
    frequency:   14.6886989117
  - # 21
    frequency:   16.4543867087
  - # 22
    frequency:   26.9575997090
  - # 23
    frequency:   59.4428893925
  - # 24
    frequency:  114.2950694154

- q-position: [    0.0656566,    0.0000000,    0.0000000 ]
  distance:    0.0208084
  band:
  - # 1
    frequency:    0.2371385898
  - # 2
    frequency:    0.4991421271
  - # 3
    frequency:    0.7866110142
  - # 4
    frequency:    0.8815994496
  - # 5
    frequency:    1.3849422138
  - # 6
    frequency:    3.4894374971
  - # 7
    frequency:    3.5928530795
  - # 8
    frequency:    4.6623959994
  - # 9
    frequency:    5.2819508445
  - # 10
    frequency:    5.5977860393
  - # 11
    frequency:    5.6782539789
  - # 12
    frequency:    6.0692193079
  - # 13
    frequency:    7.3096548961
  - # 14
    frequency:    9.3920804067
  - # 15
    frequency:    9.7302524576
  - # 16
    frequency:   10.8437623028
  - # 17
    frequency:   12.2397376374
  - # 18
    frequency:   12.7364850422
  - # 19
    frequency:   14.6675814189
  - # 20
    frequency:   14.6937750988
  - # 21
    frequency:   16.4284357490
  - # 22
    frequency:   26.9561457399
  - # 23
    frequency:   59.4136165776
  - # 24
    frequency:  114.2943492630

- q-position: [    0.0707071,    0.0000000,    0.0000000 ]
  distance:    0.0224090
  band:
  - # 1
    frequency:    0.2709997213
  - # 2
    frequency:    0.5200305930
  - # 3
    frequency:    0.8418113017
  - # 4
    frequency:    0.9374864034
  - # 5
    frequency:    1.4873134950
  - # 6
    frequency:    3.4900679809
  - # 7
    frequency:    3.6082273899
  - # 8
    frequency:    4.6614303518
  - # 9
    frequency:    5.2820921447
  - # 10
    frequency:    5.6140816114
  - # 11
    frequency:    5.6820497830
  - # 12
    frequency:    6.1322556834
  - # 13
    frequency:    7.2965057585
  - # 14
    frequency:    9.3866911968
  - # 15
    frequency:    9.7413368174
  - # 16
    frequency:   10.9132306721
  - # 17
    frequency:   12.2338491965
  - # 18
    frequency:   12.7985941421
  - # 19
    frequency:   14.6689358760
  - # 20
    frequency:   14.6992296456
  - # 21
    frequency:   16.4006187657
  - # 22
    frequency:   26.9545822880
  - # 23
    frequency:   59.3822726432
  - # 24
    frequency:  114.2935807618

- q-position: [    0.0757576,    0.0000000,    0.0000000 ]
  distance:    0.0240097
  band:
  - # 1
    frequency:    0.3067233247
  - # 2
    frequency:    0.5411735048
  - # 3
    frequency:    0.8970737013
  - # 4
    frequency:    0.9936640809
  - # 5
    frequency:    1.5892312622
  - # 6
    frequency:    3.4907728732
  - # 7
    frequency:    3.6242968232
  - # 8
    frequency:    4.6606243531
  - # 9
    frequency:    5.2823175982
  - # 10
    frequency:    5.6296577857
  - # 11
    frequency:    5.6860664897
  - # 12
    frequency:    6.1939300019
  - # 13
    frequency:    7.2825651379
  - # 14
    frequency:    9.3809829233
  - # 15
    frequency:    9.7446678179
  - # 16
    frequency:   10.9977943763
  - # 17
    frequency:   12.2277145705
  - # 18
    frequency:   12.8632195498
  - # 19
    frequency:   14.6703830192
  - # 20
    frequency:   14.7050573677
  - # 21
    frequency:   16.3709863328
  - # 22
    frequency:   26.9529109118
  - # 23
    frequency:   59.3489177177
  - # 24
    frequency:  114.2927659459

- q-position: [    0.0808081,    0.0000000,    0.0000000 ]
  distance:    0.0256103
  band:
  - # 1
    frequency:    0.3442273926
  - # 2
    frequency:    0.5626170923
  - # 3
    frequency:    0.9522506901
  - # 4
    frequency:    1.0500393003
  - # 5
    frequency:    1.6906246171
  - # 6
    frequency:    3.4915577104
  - # 7
    frequency:    3.6409890995
  - # 8
    frequency:    4.6600295341
  - # 9
    frequency:    5.2826411714
  - # 10
    frequency:    5.6448164291
  - # 11
    frequency:    5.6902921600
  - # 12
    frequency:    6.2533537560
  - # 13
    frequency:    7.2678799674
  - # 14
    frequency:    9.3749724178
  - # 15
    frequency:    9.7406882795
  - # 16
    frequency:   11.0965625200
  - # 17
    frequency:   12.2213714613
  - # 18
    frequency:   12.9302287164
  - # 19
    frequency:   14.6719212351
  - # 20
    frequency:   14.7112533976
  - # 21
    frequency:   16.3395938089
  - # 22
    frequency:   26.9511332793
  - # 23
    frequency:   59.3136155336
  - # 24
    frequency:  114.2919069625

- q-position: [    0.0858586,    0.0000000,    0.0000000 ]
  distance:    0.0272110
  band:
  - # 1
    frequency:    0.3834273471
  - # 2
    frequency:    0.5843726645
  - # 3
    frequency:    1.0072392717
  - # 4
    frequency:    1.1065316442
  - # 5
    frequency:    1.7914270725
  - # 6
    frequency:    3.4924283140
  - # 7
    frequency:    3.6582317658
  - # 8
    frequency:    4.6597023275
  - # 9
    frequency:    5.2830771902
  - # 10
    frequency:    5.6597612965
  - # 11
    frequency:    5.6947143354
  - # 12
    frequency:    6.3098900923
  - # 13
    frequency:    7.2525043141
  - # 14
    frequency:    9.3686775158
  - # 15
    frequency:    9.7302389514
  - # 16
    frequency:   11.2081042147
  - # 17
    frequency:   12.2148591701
  - # 18
    frequency:   12.9995263580
  - # 19
    frequency:   14.6735488076
  - # 20
    frequency:   14.7178135167
  - # 21
    frequency:   16.3065017208
  - # 22
    frequency:   26.9492511676
  - # 23
    frequency:   59.2764332538
  - # 24
    frequency:  114.2910060645

- q-position: [    0.0909091,    0.0000000,    0.0000000 ]
  distance:    0.0288116
  band:
  - # 1
    frequency:    0.4242370086
  - # 2
    frequency:    0.6064328166
  - # 3
    frequency:    1.0619639251
  - # 4
    frequency:    1.1630715196
  - # 5
    frequency:    1.8915730990
  - # 6
    frequency:    3.4933907890
  - # 7
    frequency:    3.6759525569
  - # 8
    frequency:    4.6597042697
  - # 9
    frequency:    5.2836402267
  - # 10
    frequency:    5.6746272813
  - # 11
    frequency:    5.6993200897
  - # 12
    frequency:    6.3631082271
  - # 13
    frequency:    7.2365009168
  - # 14
    frequency:    9.3621170091
  - # 15
    frequency:    9.7143209245
  - # 16
    frequency:   11.3307015657
  - # 17
    frequency:   12.2082184144
  - # 18
    frequency:   13.0710540736
  - # 19
    frequency:   14.6752639196
  - # 20
    frequency:   14.7247346263
  - # 21
    frequency:   16.2717762541
  - # 22
    frequency:   26.9472664620
  - # 23
    frequency:   59.2374412887
  - # 24
    frequency:  114.2900656031

- q-position: [    0.0959596,    0.0000000,    0.0000000 ]
  distance:    0.0304122
  band:
  - # 1
    frequency:    0.4665694098
  - # 2
    frequency:    0.6287802941
  - # 3
    frequency:    1.1163669271
  - # 4
    frequency:    1.2195983216
  - # 5
    frequency:    1.9909957949
  - # 6
    frequency:    3.4944515244
  - # 7
    frequency:    3.6940797968
  - # 8
    frequency:    4.6601021650
  - # 9
    frequency:    5.2843449794
  - # 10
    frequency:    5.6895012971
  - # 11
    frequency:    5.7040960826
  - # 12
    frequency:    6.4127414313
  - # 13
    frequency:    7.2199432196
  - # 14
    frequency:    9.3553105915
  - # 15
    frequency:    9.6939274101
  - # 16
    frequency:   11.4625356454
  - # 17
    frequency:   12.2014911392
  - # 18
    frequency:   13.1447900617
  - # 19
    frequency:   14.6770646554
  - # 20
    frequency:   14.7320154174
  - # 21
    frequency:   16.2354898827
  - # 22
    frequency:   26.9451811550
  - # 23
    frequency:   59.1967131057
  - # 24
    frequency:  114.2890880187

- q-position: [    0.1010101,    0.0000000,    0.0000000 ]
  distance:    0.0320129
  band:
  - # 1
    frequency:    0.5103374675
  - # 2
    frequency:    0.6513929431
  - # 3
    frequency:    1.1704026421
  - # 4
    frequency:    1.2760588474
  - # 5
    frequency:    2.0896251633
  - # 6
    frequency:    3.4956171995
  - # 7
    frequency:    3.7125428857
  - # 8
    frequency:    4.6609681955
  - # 9
    frequency:    5.2852061477
  - # 10
    frequency:    5.7044366827
  - # 11
    frequency:    5.7090286160
  - # 12
    frequency:    6.4586487271
  - # 13
    frequency:    7.2029180654
  - # 14
    frequency:    9.3482787959
  - # 15
    frequency:    9.6699541111
  - # 16
    frequency:   11.6017945956
  - # 17
    frequency:   12.1947203222
  - # 18
    frequency:   13.2207486543
  - # 19
    frequency:   14.6789490023
  - # 20
    frequency:   14.7396573384
  - # 21
    frequency:   16.1977221791
  - # 22
    frequency:   26.9429973463
  - # 23
    frequency:   59.1543250297
  - # 24
    frequency:  114.2880758333

- q-position: [    0.1060606,    0.0000000,    0.0000000 ]
  distance:    0.0336135
  band:
  - # 1
    frequency:    0.5554545271
  - # 2
    frequency:    0.6742465081
  - # 3
    frequency:    1.2240340298
  - # 4
    frequency:    1.3324059780
  - # 5
    frequency:    2.1873866941
  - # 6
    frequency:    3.4968947927
  - # 7
    frequency:    3.7312729283
  - # 8
    frequency:    4.6623799544
  - # 9
    frequency:    5.2862383000
  - # 10
    frequency:    5.7141036935
  - # 11
    frequency:    5.7194630607
  - # 12
    frequency:    6.5007800611
  - # 13
    frequency:    7.1855292635
  - # 14
    frequency:    9.3410429255
  - # 15
    frequency:    9.6431668521
  - # 16
    frequency:   11.7467240115
  - # 17
    frequency:   12.1879497746
  - # 18
    frequency:   13.2989790824
  - # 19
    frequency:   14.6809148533
  - # 20
    frequency:   14.7476660058
  - # 21
    frequency:   16.1585608655
  - # 22
    frequency:   26.9407172414
  - # 23
    frequency:   59.1103560367
  - # 24
    frequency:  114.2870316412

- q-position: [    0.1111111,    0.0000000,    0.0000000 ]
  distance:    0.0352142
  band:
  - # 1
    frequency:    0.6018347981
  - # 2
    frequency:    0.6973162115
  - # 3
    frequency:    1.2772304407
  - # 4
    frequency:    1.3885976049
  - # 5
    frequency:    2.2842000605
  - # 6
    frequency:    3.4982915942
  - # 7
    frequency:    3.7502035725
  - # 8
    frequency:    4.6644203741
  - # 9
    frequency:    5.2874557369
  - # 10
    frequency:    5.7193070821
  - # 11
    frequency:    5.7345931098
  - # 12
    frequency:    6.5391446764
  - # 13
    frequency:    7.1679022915
  - # 14
    frequency:    9.3336249761
  - # 15
    frequency:    9.6142014893
  - # 16
    frequency:   11.8956441230
  - # 17
    frequency:   12.1812239385
  - # 18
    frequency:   13.3795624538
  - # 19
    frequency:   14.6829600091
  - # 20
    frequency:   14.7560532902
  - # 21
    frequency:   16.1181031849
  - # 22
    frequency:   26.9383431516
  - # 23
    frequency:   59.0648875410
  - # 24
    frequency:  114.2859581003

- q-position: [    0.1161616,    0.0000000,    0.0000000 ]
  distance:    0.0368148
  band:
  - # 1
    frequency:    0.6493936984
  - # 2
    frequency:    0.7205776298
  - # 3
    frequency:    1.3299661818
  - # 4
    frequency:    1.4445957624
  - # 5
    frequency:    2.3799777854
  - # 6
    frequency:    3.4998152216
  - # 7
    frequency:    3.7692721485
  - # 8
    frequency:    4.6671775167
  - # 9
    frequency:    5.2888723493
  - # 10
    frequency:    5.7246243779
  - # 11
    frequency:    5.7498272664
  - # 12
    frequency:    6.5737823378
  - # 13
    frequency:    7.1501904137
  - # 14
    frequency:    9.3260475510
  - # 15
    frequency:    9.5835782064
  - # 16
    frequency:   12.0469520757
  - # 17
    frequency:   12.1745876820
  - # 18
    frequency:   13.4626053102
  - # 19
    frequency:   14.6850821810
  - # 20
    frequency:   14.7648404436
  - # 21
    frequency:   16.0764577054
  - # 22
    frequency:   26.9358774928
  - # 23
    frequency:   59.0180031754
  - # 24
    frequency:  114.2848579228

- q-position: [    0.1212121,    0.0000000,    0.0000000 ]
  distance:    0.0384155
  band:
  - # 1
    frequency:    0.6980481210
  - # 2
    frequency:    0.7440071572
  - # 3
    frequency:    1.3822195584
  - # 4
    frequency:    1.5003659294
  - # 5
    frequency:    2.4746237604
  - # 6
    frequency:    3.5014736384
  - # 7
    frequency:    3.7884212108
  - # 8
    frequency:    4.6707441903
  - # 9
    frequency:    5.2905014730
  - # 10
    frequency:    5.7300410742
  - # 11
    frequency:    5.7651570299
  - # 12
    frequency:    6.6047370024
  - # 13
    frequency:    7.1325824347
  - # 14
    frequency:    9.3183337698
  - # 15
    frequency:    9.5517200630
  - # 16
    frequency:   12.1680860920
  - # 17
    frequency:   12.1991208209
  - # 18
    frequency:   13.5482273062
  - # 19
    frequency:   14.6872789933
  - # 20
    frequency:   14.7740628590
  - # 21
    frequency:   16.0337467180
  - # 22
    frequency:   26.9333227851
  - # 23
    frequency:   58.9697885674
  - # 24
    frequency:  114.2837338663

- q-position: [    0.1262626,    0.0000000,    0.0000000 ]
  distance:    0.0400161
  band:
  - # 1
    frequency:    0.7477166373
  - # 2
    frequency:    0.7675822253
  - # 3
    frequency:    1.4339722165
  - # 4
    frequency:    1.5558764671
  - # 5
    frequency:    2.5680314972
  - # 6
    frequency:    3.5032751723
  - # 7
    frequency:    3.8076006096
  - # 8
    frequency:    4.6752173560
  - # 9
    frequency:    5.2923557405
  - # 10
    frequency:    5.7355426332
  - # 11
    frequency:    5.7805673193
  - # 12
    frequency:    6.6320326657
  - # 13
    frequency:    7.1153120311
  - # 14
    frequency:    9.3105071688
  - # 15
    frequency:    9.5189709847
  - # 16
    frequency:   12.1617642671
  - # 17
    frequency:   12.3507016652
  - # 18
    frequency:   13.6365395533
  - # 19
    frequency:   14.6895479864
  - # 20
    frequency:   14.7837774343
  - # 21
    frequency:   15.9901094597
  - # 22
    frequency:   26.9306816516
  - # 23
    frequency:   58.9203311094
  - # 24
    frequency:  114.2825887238

- q-position: [    0.1313131,    0.0000000,    0.0000000 ]
  distance:    0.0416167
  band:
  - # 1
    frequency:    0.7912813803
  - # 2
    frequency:    0.7983196484
  - # 3
    frequency:    1.4852086781
  - # 4
    frequency:    1.6110981653
  - # 5
    frequency:    2.6600819822
  - # 6
    frequency:    3.5052285350
  - # 7
    frequency:    3.8267702394
  - # 8
    frequency:    4.6806972913
  - # 9
    frequency:    5.2944469311
  - # 10
    frequency:    5.7411145596
  - # 11
    frequency:    5.7960381768
  - # 12
    frequency:    6.6556517481
  - # 13
    frequency:    7.0986678626
  - # 14
    frequency:    9.3025915963
  - # 15
    frequency:    9.4856113585
  - # 16
    frequency:   12.1556671103
  - # 17
    frequency:   12.5003350466
  - # 18
    frequency:   13.7276091508
  - # 19
    frequency:   14.6918866196
  - # 20
    frequency:   14.7940741561
  - # 21
    frequency:   15.9457065072
  - # 22
    frequency:   26.9279568175
  - # 23
    frequency:   58.8697197255
  - # 24
    frequency:  114.2814253146

- q-position: [    0.1363636,    0.0000000,    0.0000000 ]
  distance:    0.0432174
  band:
  - # 1
    frequency:    0.8150842761
  - # 2
    frequency:    0.8497794934
  - # 3
    frequency:    1.5359160018
  - # 4
    frequency:    1.6660038749
  - # 5
    frequency:    2.7506409798
  - # 6
    frequency:    3.5073428392
  - # 7