nqpoint: 300    
npath: 3      
segment_nqpoint:
- 100
- 100
- 100
labels:
- [ 'G', 'M' ]
- [ 'M', 'K' ]
- [ 'K', 'G' ]
reciprocal_lattice:
- [   0.28364153,   0.16376051,   0.00000000 ] # a*
- [   0.00000000,   0.32752103,   0.00000000 ] # b*
- [   0.00000000,   0.00000000,   0.04147280 ] # c*
natom: 5      
lattice:
- [     3.525576813750317,     0.000000000000000,     0.000000000000000 ] # a
- [    -1.762788406875158,     3.053239083700650,     0.000000000000000 ] # b
- [     0.000000000000000,     0.000000000000000,    24.112186508739534 ] # c
points:
- symbol: Br # 1
  coordinates: [  0.333332985432214,  0.666666983183674,  0.626744758434167 ]
  mass: 79.904000
- symbol: Br # 2
  coordinates: [  0.666666984744047,  0.333332985985145,  0.373255241565833 ]
  mass: 79.904000
- symbol: C # 3
  coordinates: [  0.000000000000000,  0.000000000000000,  0.500000031169257 ]
  mass: 12.010700
- symbol: Sc # 4
  coordinates: [  0.333332985432214,  0.666666983183674,  0.449638399540689 ]
  mass: 44.955912
- symbol: Sc # 5
  coordinates: [  0.666666984744047,  0.333332985985145,  0.550361599994090 ]
  mass: 44.955912

phonon:
- q-position: [    0.0000000,    0.0000000,    0.0000000 ]
  distance:    0.0000000
  band:
  - # 1
    frequency:   -0.0000004791
  - # 2
    frequency:   -0.0000000688
  - # 3
    frequency:    0.0000003171
  - # 4
    frequency:    2.2887975871
  - # 5
    frequency:    2.2887975871
  - # 6
    frequency:    3.6675950921
  - # 7
    frequency:    3.6675950921
  - # 8
    frequency:    3.8448577265
  - # 9
    frequency:    5.7290056611
  - # 10
    frequency:    5.7290056611
  - # 11
    frequency:    7.3571763390
  - # 12
    frequency:    9.5919536563
  - # 13
    frequency:    9.5919536563
  - # 14
    frequency:   11.3091416550
  - # 15
    frequency:   17.3029639950

- q-position: [    0.0050505,    0.0000000,    0.0000000 ]
  distance:    0.0016541
  band:
  - # 1
    frequency:   -0.0172678028
  - # 2
    frequency:    0.0591909633
  - # 3
    frequency:    0.0936412576
  - # 4
    frequency:    2.2891250622
  - # 5
    frequency:    2.2905635098
  - # 6
    frequency:    3.6677376668
  - # 7
    frequency:    3.6681165725
  - # 8
    frequency:    3.8487339134
  - # 9
    frequency:    5.7286780517
  - # 10
    frequency:    5.7290700088
  - # 11
    frequency:    7.3573397547
  - # 12
    frequency:    9.5927088022
  - # 13
    frequency:    9.6003434076
  - # 14
    frequency:   11.3085858985
  - # 15
    frequency:   17.3010831078

- q-position: [    0.0101010,    0.0000000,    0.0000000 ]
  distance:    0.0033083
  band:
  - # 1
    frequency:   -0.0337930488
  - # 2
    frequency:    0.1183522358
  - # 3
    frequency:    0.1872373334
  - # 4
    frequency:    2.2901065596
  - # 5
    frequency:    2.2958406398
  - # 6
    frequency:    3.6680094066
  - # 7
    frequency:    3.6696784210
  - # 8
    frequency:    3.8604112988
  - # 9
    frequency:    5.7277006478
  - # 10
    frequency:    5.7292618365
  - # 11
    frequency:    7.3578304846
  - # 12
    frequency:    9.5949683516
  - # 13
    frequency:    9.6254155165
  - # 14
    frequency:   11.3069520057
  - # 15
    frequency:   17.2954452152

- q-position: [    0.0151515,    0.0000000,    0.0000000 ]
  distance:    0.0049624
  band:
  - # 1
    frequency:   -0.0488023340
  - # 2
    frequency:    0.1774541998
  - # 3
    frequency:    0.2807432807
  - # 4
    frequency:    2.2917393033
  - # 5
    frequency:    2.3045680600
  - # 6
    frequency:    3.6680380492
  - # 7
    frequency:    3.6722728932
  - # 8
    frequency:    3.8799490682
  - # 9
    frequency:    5.7260893221
  - # 10
    frequency:    5.7295775070
  - # 11
    frequency:    7.3586500765
  - # 12
    frequency:    9.5987147016
  - # 13
    frequency:    9.6668744842
  - # 14
    frequency:   11.3043445536
  - # 15
    frequency:   17.2860646077

- q-position: [    0.0202020,    0.0000000,    0.0000000 ]
  distance:    0.0066166
  band:
  - # 1
    frequency:   -0.0614476550
  - # 2
    frequency:    0.2364673829
  - # 3
    frequency:    0.3741145674
  - # 4
    frequency:    2.2940186885
  - # 5
    frequency:    2.3166474539
  - # 6
    frequency:    3.6674349252
  - # 7
    frequency:    3.6758871910
  - # 8
    frequency:    3.9072408988
  - # 9
    frequency:    5.7238692593
  - # 10
    frequency:    5.7300109865
  - # 11
    frequency:    7.3598014124
  - # 12
    frequency:    9.6039187205
  - # 13
    frequency:    9.7242132729
  - # 14
    frequency:   11.3009537745
  - # 15
    frequency:   17.2729650491

- q-position: [    0.0252525,    0.0000000,    0.0000000 ]
  distance:    0.0082707
  band:
  - # 1
    frequency:   -0.0707275731
  - # 2
    frequency:    0.2953625298
  - # 3
    frequency:    0.4673071572
  - # 4
    frequency:    2.2969383149
  - # 5
    frequency:    2.3319475597
  - # 6
    frequency:    3.6659412494
  - # 7
    frequency:    3.6805036254
  - # 8
    frequency:    3.9419049213
  - # 9
    frequency:    5.7210732591
  - # 10
    frequency:    5.7305538868
  - # 11
    frequency:    7.3612890813
  - # 12
    frequency:    9.6105400537
  - # 13
    frequency:    9.7966875753
  - # 14
    frequency:   11.2970837487
  - # 15
    frequency:   17.2561796961

- q-position: [    0.0303030,    0.0000000,    0.0000000 ]
  distance:    0.0099249
  band:
  - # 1
    frequency:   -0.0753180299
  - # 2
    frequency:    0.3541106714
  - # 3
    frequency:    0.5602774740
  - # 4
    frequency:    2.3004900324
  - # 5
    frequency:    2.3503097422
  - # 6
    frequency:    3.6634567804
  - # 7
    frequency:    3.6860998368
  - # 8
    frequency:    3.9832988034
  - # 9
    frequency:    5.7177397284
  - # 10
    frequency:    5.7311955243
  - # 11
    frequency:    7.3631197668
  - # 12
    frequency:    9.6185275470
  - # 13
    frequency:    9.8832702374
  - # 14
    frequency:   11.2932020634
  - # 15
    frequency:   17.2357509874

- q-position: [    0.0353535,    0.0000000,    0.0000000 ]
  distance:    0.0115790
  band:
  - # 1
    frequency:   -0.0731260948
  - # 2
    frequency:    0.4126831919
  - # 3
    frequency:    0.6529822549
  - # 4
    frequency:    2.3046639994
  - # 5
    frequency:    2.3715541641
  - # 6
    frequency:    3.6599960684
  - # 7
    frequency:    3.6926490707
  - # 8
    frequency:    4.0306095118
  - # 9
    frequency:    5.7139106415
  - # 10
    frequency:    5.7319229936
  - # 11
    frequency:    7.3653025690
  - # 12
    frequency:    9.6278197796
  - # 13
    frequency:    9.9825716603
  - # 14
    frequency:   11.2900255241
  - # 15
    frequency:   17.2117305029

- q-position: [    0.0404040,    0.0000000,    0.0000000 ]
  distance:    0.0132332
  band:
  - # 1
    frequency:   -0.0595932078
  - # 2
    frequency:    0.4710518932
  - # 3
    frequency:    0.7453783165
  - # 4
    frequency:    2.3094487517
  - # 5
    frequency:    2.3954860477
  - # 6
    frequency:    3.6556344183
  - # 7
    frequency:    3.7001204998
  - # 8
    frequency:    4.0829508460
  - # 9
    frequency:    5.7096297252
  - # 10
    frequency:    5.7327212571
  - # 11
    frequency:    7.3678492068
  - # 12
    frequency:    9.6383457020
  - # 13
    frequency:   10.0926998481
  - # 14
    frequency:   11.2886685502
  - # 15
    frequency:   17.1841787943

- q-position: [    0.0454545,    0.0000000,    0.0000000 ]
  distance:    0.0148873
  band:
  - # 1
    frequency:    0.0145117904
  - # 2
    frequency:    0.5291890554
  - # 3
    frequency:    0.8374222694
  - # 4
    frequency:    2.3148312827
  - # 5
    frequency:    2.4219015959
  - # 6
    frequency:    3.6504708743
  - # 7
    frequency:    3.7084795875
  - # 8
    frequency:    4.1394377691
  - # 9
    frequency:    5.7049410744
  - # 10
    frequency:    5.7335732487
  - # 11
    frequency:    7.3707740792
  - # 12
    frequency:    9.6500253669
  - # 13
    frequency:   10.2110142445
  - # 14
    frequency:   11.2909001836
  - # 15
    frequency:   17.1531651911

- q-position: [    0.0505051,    0.0000000,    0.0000000 ]
  distance:    0.0165415
  band:
  - # 1
    frequency:    0.0802522607
  - # 2
    frequency:    0.5870674935
  - # 3
    frequency:    0.9290702175
  - # 4
    frequency:    2.3207971337
  - # 5
    frequency:    2.4505932597
  - # 6
    frequency:    3.6446090213
  - # 7
    frequency:    3.7176884839
  - # 8
    frequency:    4.1992344858
  - # 9
    frequency:    5.6998883362
  - # 10
    frequency:    5.7344599901
  - # 11
    frequency:    7.3740941917
  - # 12
    frequency:    9.6627707474
  - # 13
    frequency:   10.3337074274
  - # 14
    frequency:   11.2995754634
  - # 15
    frequency:   17.1187675827

- q-position: [    0.0555556,    0.0000000,    0.0000000 ]
  distance:    0.0181956
  band:
  - # 1
    frequency:    0.1250425451
  - # 2
    frequency:    0.6446606096
  - # 3
    frequency:    1.0202774739
  - # 4
    frequency:    2.3273304921
  - # 5
    frequency:    2.4813541623
  - # 6
    frequency:    3.6381488679
  - # 7
    frequency:    3.7277064469
  - # 8
    frequency:    4.2615821580
  - # 9
    frequency:    5.6945145364
  - # 10
    frequency:    5.7353607203
  - # 11
    frequency:    7.3778289755
  - # 12
    frequency:    9.6764866275
  - # 13
    frequency:   10.4551839695
  - # 14
    frequency:   11.3192714213
  - # 15
    frequency:   17.0810721817

- q-position: [    0.0606061,    0.0000000,    0.0000000 ]
  distance:    0.0198498
  band:
  - # 1
    frequency:    0.1681666149
  - # 2
    frequency:    0.7019424401
  - # 3
    frequency:    1.1109983133
  - # 4
    frequency:    2.3344142975
  - # 5
    frequency:    2.5139816107
  - # 6
    frequency:    3.6311841727
  - # 7
    frequency:    3.7384902809
  - # 8
    frequency:    4.3258122029
  - # 9
    frequency:    5.6888625784
  - # 10
    frequency:    5.7362530360
  - # 11
    frequency:    7.3820000317
  - # 12
    frequency:    9.6910715580
  - # 13
    frequency:   10.5675151568
  - # 14
    frequency:   11.3568483763
  - # 15
    frequency:   17.0401732745

- q-position: [    0.0656566,    0.0000000,    0.0000000 ]
  distance:    0.0215039
  band:
  - # 1
    frequency:    0.2117465714
  - # 2
    frequency:    0.7588876973
  - # 3
    frequency:    1.2011857774
  - # 4
    frequency:    2.3420303547
  - # 5
    frequency:    2.5482797144
  - # 6
    frequency:    3.6238020303
  - # 7
    frequency:    3.7499947860
  - # 8
    frequency:    4.3913494596
  - # 9
    frequency:    5.6829764189
  - # 10
    frequency:    5.7371130423
  - # 11
    frequency:    7.3866308358
  - # 12
    frequency:    9.7064188614
  - # 13
    frequency:   10.6611703377
  - # 14
    frequency:   11.4207350207
  - # 15
    frequency:   16.9961729633

- q-position: [    0.0707071,    0.0000000,    0.0000000 ]
  distance:    0.0231581
  band:
  - # 1
    frequency:    0.2564035242
  - # 2
    frequency:    0.8154718057
  - # 3
    frequency:    1.2907915353
  - # 4
    frequency:    2.3501594503
  - # 5
    frequency:    2.5840611928
  - # 6
    frequency:    3.6160832260
  - # 7
    frequency:    3.7621732093
  - # 8
    frequency:    4.4577082120
  - # 9
    frequency:    5.6769029368
  - # 10
    frequency:    5.7379155134
  - # 11
    frequency:    7.3917464319
  - # 12
    frequency:    9.7224176774
  - # 13
    frequency:   10.7286508567
  - # 14
    frequency:   11.5173105982
  - # 15
    frequency:   16.9491809123

- q-position: [    0.0757576,    0.0000000,    0.0000000 ]
  distance:    0.0248122
  band:
  - # 1
    frequency:    0.3023354734
  - # 2
    frequency:    0.8716709313
  - # 3
    frequency:    1.3797658007
  - # 4
    frequency:    2.3587814747
  - # 5
    frequency:    2.6211484884
  - # 6
    frequency:    3.6081027586
  - # 7
    frequency:    3.7749776951
  - # 8
    frequency:    4.5244832441
  - # 9
    frequency:    5.6706945458
  - # 10
    frequency:    5.7386340609
  - # 11
    frequency:    7.3973731387
  - # 12
    frequency:    9.7389540337
  - # 13
    frequency:   10.7688510284
  - # 14
    frequency:   11.6465590479
  - # 15
    frequency:   16.8993141072

- q-position: [    0.0808081,    0.0000000,    0.0000000 ]
  distance:    0.0264663
  band:
  - # 1
    frequency:    0.3495794125
  - # 2
    frequency:    0.9274620054
  - # 3
    frequency:    1.4680573010
  - # 4
    frequency:    2.3678755456
  - # 5
    frequency:    2.6593743135
  - # 6
    frequency:    3.5999303270
  - # 7
    frequency:    3.7883597255
  - # 8
    frequency:    4.5913375121
  - # 9
    frequency:    5.6644126765
  - # 10
    frequency:    5.7392413115
  - # 11
    frequency:    7.4035382859
  - # 12
    frequency:    9.7559119320
  - # 13
    frequency:   10.7864912797
  - # 14
    frequency:   11.8026494571
  - # 15
    frequency:   16.8466966480

- q-position: [    0.0858586,    0.0000000,    0.0000000 ]
  distance:    0.0281205
  band:
  - # 1
    frequency:    0.3981020085
  - # 2
    frequency:    0.9828227411
  - # 3
    frequency:    1.5556132921
  - # 4
    frequency:    2.3774201320
  - # 5
    frequency:    2.6985817551
  - # 6
    frequency:    3.5916307409
  - # 7
    frequency:    3.8022705489
  - # 8
    frequency:    4.6579875038
  - # 9
    frequency:    5.6581323683
  - # 10
    frequency:    5.7397090900
  - # 11
    frequency:    7.4102699909
  - # 12
    frequency:    9.7731744348
  - # 13
    frequency:   10.7878020306
  - # 14
    frequency:   11.9782638820
  - # 15
    frequency:   16.7914595979

- q-position: [    0.0909091,    0.0000000,    0.0000000 ]
  distance:    0.0297746
  band:
  - # 1
    frequency:    0.4478375720
  - # 2
    frequency:    1.0377316437
  - # 3
    frequency:    1.6423796113
  - # 4
    frequency:    2.3873931789
  - # 5
    frequency:    2.7386240492
  - # 6
    frequency:    3.5832642745
  - # 7
    frequency:    3.8166615929
  - # 8
    frequency:    4.7241868270
  - # 9
    frequency:    5.6519483858
  - # 10
    frequency:    5.7400086110
  - # 11
    frequency:    7.4175969863
  - # 12
    frequency:    9.7906247437
  - # 13
    frequency:   10.7777910652
  - # 14
    frequency:   12.1673395824
  - # 15
    frequency:   16.7337409235

- q-position: [    0.0959596,    0.0000000,    0.0000000 ]
  distance:    0.0314288
  band:
  - # 1
    frequency:    0.4987059349
  - # 2
    frequency:    1.0921680137
  - # 3
    frequency:    1.7283007609
  - # 4
    frequency:    2.3977722299
  - # 5
    frequency:    2.7793641178
  - # 6
    frequency:    3.5748869923
  - # 7
    frequency:    3.8314848566
  - # 8
    frequency:    4.7897080060
  - # 9
    frequency:    5.6459835347
  - # 10
    frequency:    5.7401106757
  - # 11
    frequency:    7.4255485004
  - # 12
    frequency:    9.8081472561
  - # 13
    frequency:   10.7598400005
  - # 14
    frequency:   12.3654799917
  - # 15
    frequency:   16.6736855783

- q-position: [    0.1010101,    0.0000000,    0.0000000 ]
  distance:    0.0330829
  band:
  - # 1
    frequency:    0.5506215008
  - # 2
    frequency:    1.1461119435
  - # 3
    frequency:    1.8133200129
  - # 4
    frequency:    2.4085345472
  - # 5
    frequency:    2.8206739413
  - # 6
    frequency:    3.5665510801
  - # 7
    frequency:    3.8466932827
  - # 8
    frequency:    4.8543218314
  - # 9
    frequency:    5.6404002311
  - # 10
    frequency:    5.7399858756
  - # 11
    frequency:    7.4341541950
  - # 12
    frequency:    9.8256285904
  - # 13
    frequency:   10.7361232074
  - # 14
    frequency:   12.5695410917
  - # 15
    frequency:   16.6114458045

- q-position: [    0.1060606,    0.0000000,    0.0000000 ]
  distance:    0.0347371
  band:
  - # 1
    frequency:    0.6034980116
  - # 2
    frequency:    1.1995443075
  - # 3
    frequency:    1.8973795238
  - # 4
    frequency:    2.4196572273
  - # 5
    frequency:    2.8624338218
  - # 6
    frequency:    3.5583052107
  - # 7
    frequency:    3.8622411065
  - # 8
    frequency:    4.9177728773
  - # 9
    frequency:    5.6354169141
  - # 10
    frequency:    5.7396048029
  - # 11
    frequency:    7.4434441601
  - # 12
    frequency:    9.8429585707
  - # 13
    frequency:   10.7080473170
  - # 14
    frequency:   12.7771951231
  - # 15
    frequency:   16.5471817731

- q-position: [    0.1111111,    0.0000000,    0.0000000 ]
  distance:    0.0363912
  band:
  - # 1
    frequency:    0.6572510778
  - # 2
    frequency:    1.2524467468
  - # 3
    frequency:    1.9804204490
  - # 4
    frequency:    2.4311173123
  - # 5
    frequency:    2.9045315699
  - # 6
    frequency:    3.5501949740
  - # 7
    frequency:    3.8780841804
  - # 8
    frequency:    4.9797489916
  - # 9
    frequency:    5.6313315576
  - # 10
    frequency:    5.7389382669
  - # 11
    frequency:    7.4534489631
  - # 12
    frequency:    9.8600311602
  - # 13
    frequency:   10.6765496768
  - # 14
    frequency:   12.9866333110
  - # 15
    frequency:   16.4810627470

- q-position: [    0.1161616,    0.0000000,    0.0000000 ]
  distance:    0.0380454
  band:
  - # 1
    frequency:    0.7117994798
  - # 2
    frequency:    1.3048016466
  - # 3
    frequency:    2.0623830400
  - # 4
    frequency:    2.4428918952
  - # 5
    frequency:    2.9468616310
  - # 6
    frequency:    3.5422634064
  - # 7
    frequency:    3.8941802741
  - # 8
    frequency:    5.0398419437
  - # 9
    frequency:    5.6285550618
  - # 10
    frequency:    5.7379575173
  - # 11
    frequency:    7.4641997486
  - # 12
    frequency:    9.8767453364
  - # 13
    frequency:   10.6422799367
  - # 14
    frequency:   13.1963833661
  - # 15
    frequency:   16.4132690712

- q-position: [    0.1212121,    0.0000000,    0.0000000 ]
  distance:    0.0396995
  band:
  - # 1
    frequency:    0.7670657724
  - # 2
    frequency:    1.3565921102
  - # 3
    frequency:    2.1432067046
  - # 4
    frequency:    2.4549582186
  - # 5
    frequency:    2.9893241421
  - # 6
    frequency:    3.5345516697
  - # 7
    frequency:    3.9104893503
  - # 8
    frequency:    5.0974970100
  - # 9
    frequency:    5.6276566584
  - # 10
    frequency:    5.7366344756
  - # 11
    frequency:    7.4757283805
  - # 12
    frequency:    9.8930059013
  - # 13
    frequency:   10.6057080049
  - # 14
    frequency:   13.4051982564
  - # 15
    frequency:   16.3439955023

- q-position: [    0.1262626,    0.0000000,    0.0000000 ]
  distance:    0.0413537
  band:
  - # 1
    frequency:    0.8229764843
  - # 2
    frequency:    1.4078019275
  - # 3
    frequency:    2.2228300058
  - # 4
    frequency:    2.4672937664
  - # 5
    frequency:    3.0318238783
  - # 6
    frequency:    3.5270999568
  - # 7
    frequency:    3.9269738138
  - # 8
    frequency:    5.1519541287
  - # 9
    frequency:    5.6294185789
  - # 10
    frequency:    5.7349419732
  - # 11
    frequency:    7.4880676162
  - # 12
    frequency:    9.9087242177
  - # 13
    frequency:   10.5671887719
  - # 14
    frequency:   13.6119851810
  - # 15
    frequency:   16.2734567710

- q-position: [    0.1313131,    0.0000000,    0.0000000 ]
  distance:    0.0430078
  band:
  - # 1
    frequency:    0.8794620833
  - # 2
    frequency:    1.4584155398
  - # 3
    frequency:    2.3011905619
  - # 4
    frequency:    2.4798763471
  - # 5
    frequency:    3.0742689967
  - # 6
    frequency:    3.5199487578
  - # 7
    frequency:    3.9435987371
  - # 8
    frequency:    5.2021992740
  - # 9
    frequency:    5.6348812195
  - # 10
    frequency:    5.7328539979
  - # 11
    frequency:    7.5012512978
  - # 12
    frequency:    9.9238188695
  - # 13
    frequency:   10.5270017206
  - # 14
    frequency:   13.8157551992
  - # 15
    frequency:   16.2018970072

- q-position: [    0.1363636,    0.0000000,    0.0000000 ]
  distance:    0.0446620
  band:
  - # 1
    frequency:    0.9364568075
  - # 2
    frequency:    1.5084180025
  - # 3
    frequency:    2.3782248008
  - # 4
    frequency:    2.4926841696
  - # 5
    frequency:    3.1165693851
  - # 6
    frequency:    3.5131407254
  - # 7
    frequency:    3.9603320590
  - # 8
    frequency:    5.2469804926
  - # 9
    frequency:    5.6453242428
  - # 10
    frequency:    5.7303459489
  - # 11
    frequency:    7.5153145409
  - # 12
    frequency:    9.9382162380
  - # 13
    frequency:   10.4853757721
  - # 14
    frequency:   14.0155802221
  - # 15
    frequency:   16.1296061447

- q-position: [    0.1414141,    0.0000000,    0.0000000 ]
  distance:    0.0463161
  band:
  - # 1
    frequency:    0.9938984241
  - # 2
    frequency:    1.5577949450
  - # 3
    frequency:    2.4538674977
  - # 4
    frequency:    2.5056959107
  - # 5
    frequency:    3.1586342211
  - # 6
    frequency:    3.5067236017
  - # 7
    frequency:    3.9771447584
  - # 8
    frequency:    5.2849857695
  - # 9
    frequency:    5.6620863537
  - # 10
    frequency:    5.7273949005
  - # 11
    frequency:    7.5302938966
  - # 12
    frequency:    9.9518509930
  - # 13
    frequency:   10.4425052740
  - # 14
    frequency:   14.2105453119
  - # 15
    frequency:   16.0569495952

- q-position: [    0.1464646,    0.0000000,    0.0000000 ]
  distance:    0.0479703
  band:
  - # 1
    frequency:    1.0517279531
  - # 2
    frequency:    1.6065325299
  - # 3
    frequency:    2.5188907730
  - # 4
    frequency:    2.5280509968
  - # 5
    frequency:    3.2003678821
  - # 6
    frequency:    3.5007551601
  - # 7
    frequency:    3.9940110029
  - # 8
    frequency:    5.3152428153
  - # 9
    frequency:    5.6861635773
  - # 10
    frequency:    5.7239798736
  - # 11
    frequency:    7.5462274561
  - # 12
    frequency:    9.9646664939
  - # 13
    frequency:   10.3985605537
  - # 14
    frequency:   14.3996794675
  - # 15
    frequency:   15.9844247072

- q-position: [    0.1515152,    0.0000000,    0.0000000 ]
  distance:    0.0496244
  band:
  - # 1
    frequency:    1.1098893782
  - # 2
    frequency:    1.6546174130
  - # 3
    frequency:    2.5322485353
  - # 4
    frequency:    2.6007039637
  - # 5
    frequency:    3.2416622084
  - # 6
    frequency:    3.4953123084
  - # 7
    frequency:    4.0109082709
  - # 8
    frequency:    5.3375753513
  - # 9
    frequency:    5.7177514072
  - # 10
    frequency:    5.7200821160
  - # 11
    frequency:    7.5631548624
  - # 12
    frequency:    9.9766151003
  - # 13
    frequency:   10.3536950629
  - # 14
    frequency:   14.5818317822
  - # 15
    frequency:   15.9127751936

- q-position: [    0.1565657,    0.0000000,    0.0000000 ]
  distance:    0.0512785
  band:
  - # 1
    frequency:    1.1683293600
  - # 2
    frequency:    1.7020367030
  - # 3
    frequency:    2.5457495936
  - # 4
    frequency:    2.6717494382
  - # 5
    frequency:    3.2823799791
  - # 6
    frequency:    3.4905097174
  - # 7
    frequency:    4.0278174472
  - # 8
    frequency:    5.3527366832
  - # 9
    frequency:    5.7156853893
  - # 10
    frequency:    5.7561099930
  - # 11
    frequency:    7.5811171830
  - # 12
    frequency:    9.9876583896
  - # 13
    frequency:   10.3080503420
  - # 14
    frequency:   14.7554140146
  - # 15
    frequency:   15.8432413298

- q-position: [    0.1616162,    0.0000000,    0.0000000 ]
  distance:    0.0529327
  band:
  - # 1
    frequency:    1.2269969589
  - # 2
    frequency:    1.7487779248
  - # 3
    frequency:    2.5593749940
  - # 4
    frequency:    2.7411018188
  - # 5
    frequency:    3.3223147174
  - # 6
    frequency:    3.4865432236
  - # 7
    frequency:    4.0447228930
  - # 8
    frequency:    5.3620816290
  - # 9
    frequency:    5.7107762624
  - # 10
    frequency:    5.7998912852
  - # 11
    frequency:    7.6001565968
  - # 12
    frequency:    9.9977672812
  - # 13
    frequency:   10.2617595701
  - # 14
    frequency:   14.9177997757
  - # 15
    frequency:   15.7781550143

- q-position: [    0.1666667,    0.0000000,    0.0000000 ]
  distance:    0.0545868
  band:
  - # 1
    frequency:    1.2858433721
  - # 2
    frequency:    1.7948289844
  - # 3
    frequency:    2.5731064571
  - # 4
    frequency:    2.8086621860
  - # 5
    frequency:    3.3610767969
  - # 6
    frequency:    3.4838086241
  - # 7
    frequency:    4.0616124876
  - # 8
    frequency:    5.3670873612
  - # 9
    frequency:    5.7053444088
  - # 10
    frequency:    5.8476175737
  - # 11
    frequency:    7.6203158345
  - # 12
    frequency:   10.0069220695
  - # 13
    frequency:   10.2149501899
  - # 14
    frequency:   15.0638057516
  - # 15
    frequency:   15.7224538281

- q-position: [    0.1717172,    0.0000000,    0.0000000 ]
  distance:    0.0562410
  band:
  - # 1
    frequency:    1.3448216875
  - # 2
    frequency:    1.8401781390
  - # 3
    frequency:    2.5869263945
  - # 4
    frequency:    2.8743109798
  - # 5
    frequency:    3.3977090297
  - # 6
    frequency:    3.4832936660
  - # 7
    frequency:    4.0784776429
  - # 8
    frequency:    5.3690463605
  - # 9
    frequency:    5.6993829056
  - # 10
    frequency:    5.8979882328
  - # 11
    frequency:    7.6416373147
  - # 12
    frequency:   10.0151123643
  - # 13
    frequency:   10.1677459315
  - # 14
    frequency:   15.1820843217
  - # 15
    frequency:   15.6872844489

- q-position: [    0.1767677,    0.0000000,    0.0000000 ]
  distance:    0.0578951
  band:
  - # 1
    frequency:    1.4038866559
  - # 2
    frequency:    1.8848139711
  - # 3
    frequency:    2.6008179177
  - # 4
    frequency:    2.9378963773
  - # 5
    frequency:    3.4292833810
  - # 6
    frequency:    3.4879932373
  - # 7
    frequency:    4.0953132891
  - # 8
    frequency:    5.3689750335
  - # 9
    frequency:    5.6928885316
  - # 10
    frequency:    5.9499711387
  - # 11
    frequency:    7.6641619071
  - # 12
    frequency:   10.0223369424
  - # 13
    frequency:   10.1202684535
  - # 14
    frequency:   15.2518619983
  - # 15
    frequency:   15.6932608045

- q-position: [    0.1818182,    0.0000000,    0.0000000 ]
  distance:    0.0595493
  band:
  - # 1
    frequency:    1.4629944797
  - # 2
    frequency:    1.9287253684
  - # 3
    frequency:    2.6147648393
  - # 4
    frequency:    2.9992155771
  - # 5
    frequency:    3.4492025362
  - # 6
    frequency:    3.5046268318
  - # 7
    frequency:    4.1121178314
  - # 8
    frequency:    5.3676387165
  - # 9
    frequency:    5.6858620598
  - # 10
    frequency:    6.0027780572
  - # 11
    frequency:    7.6879272618
  - # 12
    frequency:   10.0286035135
  - # 13
    frequency:   10.0726387606
  - # 14
    frequency:   15.2604512179
  - # 15
    frequency:   15.7529493093

- q-position: [    0.1868687,    0.0000000,    0.0000000 ]
  distance:    0.0612034
  band:
  - # 1
    frequency:    1.5221026202
  - # 2
    frequency:    1.9719015097
  - # 3
    frequency:    2.6287516676
  - # 4
    frequency:    3.0579843854
  - # 5
    frequency:    3.4574330261
  - # 6
    frequency:    3.5334361846
  - # 7
    frequency:    4.1288930769
  - # 8
    frequency:    5.3656096356
  - # 9
    frequency:    5.6783085401
  - # 10
    frequency:    6.0558074494
  - # 11
    frequency:    7.7129656466
  - # 12
    frequency:   10.0249785130
  - # 13
    frequency:   10.0339284027
  - # 14
    frequency:   15.2256092248
  - # 15
    frequency:   15.8485073522

- q-position: [    0.1919192,    0.0000000,    0.0000000 ]
  distance:    0.0628576
  band:
  - # 1
    frequency:    1.5811696204
  - # 2
    frequency:    2.0143318570
  - # 3
    frequency:    2.6427635947
  - # 4
    frequency:    3.1137881953
  - # 5
    frequency:    3.4618304469
  - # 6
    frequency:    3.5669094519
  - # 7
    frequency:    4.1456441306
  - # 8
    frequency:    5.3633210762
  - # 9
    frequency:    5.6702375678
  - # 10
    frequency:    6.1085914444
  - # 11
    frequency:    7.7393012467
  - # 12
    frequency:    9.9774113228
  - # 13
    frequency:   10.0383361560
  - # 14
    frequency:   15.1697100465
  - # 15
    frequency:   15.9575089722

- q-position: [    0.1969697,    0.0000000,    0.0000000 ]
  distance:    0.0645117
  band:
  - # 1
    frequency:    1.6401549448
  - # 2
    frequency:    2.0560061551
  - # 3
    frequency:    2.6567864779
  - # 4
    frequency:    3.1660071178
  - # 5
    frequency:    3.4665392042
  - # 6
    frequency:    3.6014567506
  - # 7
    frequency:    4.1623792612
  - # 8
    frequency:    5.3611083464
  - # 9
    frequency:    5.6616635299
  - # 10
    frequency:    6.1607563801
  - # 11
    frequency:    7.7669469043
  - # 12
    frequency:    9.9300641177
  - # 13
    frequency:   10.0418590728
  - # 14
    frequency:   15.1041977902
  - # 15
    frequency:   16.0684894453

- q-position: [    0.2020202,    0.0000000,    0.0000000 ]
  distance:    0.0661659
  band:
  - # 1
    frequency:    1.6990188332
  - # 2
    frequency:    2.0969144377
  - # 3
    frequency:    2.6708068165
  - # 4
    frequency:    3.2137209141
  - # 5
    frequency:    3.4735367183
  - # 6
    frequency:    3.6359614628
  - # 7
    frequency:    4.1791097348
  - # 8
    frequency:    5.3592372586
  - # 9
    frequency:    5.6526058244
  - # 10
    frequency:    6.2119961406
  - # 11
    frequency:    7.7959003002
  - # 12
    frequency:    9.8830686463
  - # 13
    frequency:   10.0445366728
  - # 14
    frequency:   15.0340324250
  - # 15
    frequency:   16.1764975804

- q-position: [    0.2070707,    0.0000000,    0.0000000 ]
  distance:    0.0678200
  band:
  - # 1
    frequency:    1.7577221707
  - # 2
    frequency:    2.1370470401
  - # 3
    frequency:    2.6848117222
  - # 4
    frequency:    3.2556585857
  - # 5
    frequency:    3.4844472404
  - # 6
    frequency:    3.6700172989
  - # 7
    frequency:    4.1958496172
  - # 8
    frequency:    5.3579232095
  - # 9
    frequency:    5.6430890447
  - # 10
    frequency:    6.2620551341
  - # 11
    frequency:    7.8261396147
  - # 12
    frequency:    9.8365631971
  - # 13
    frequency:   10.0464151037
  - # 14
    frequency:   14.9615147541
  - # 15
    frequency:   16.2792689905

- q-position: [    0.2121212,    0.0000000,    0.0000000 ]
  distance:    0.0694742
  band:
  - # 1
    frequency:    1.8162263703