nqpoint: 300    
npath: 3      
segment_nqpoint:
- 100
- 100
- 100
labels:
- [ 'G', 'M' ]
- [ 'M', 'K' ]
- [ 'K', 'G' ]
reciprocal_lattice:
- [   0.32568213,   0.18803267,   0.00000000 ] # a*
- [   0.00000000,   0.37606533,   0.00000000 ] # b*
- [   0.00000000,   0.00000000,   0.04465472 ] # c*
natom: 5      
lattice:
- [     3.070478536039852,     0.000000000000000,     0.000000000000000 ] # a
- [    -1.535239268019926,     2.659112413958216,     0.000000000000000 ] # b
- [     0.000000000000000,     0.000000000000000,    22.394049455105741 ] # c
points:
- symbol: C # 1
  coordinates: [  0.000000000000000,  0.000000000000000,  0.500000044246471 ]
  mass: 12.010700
- symbol: O # 2
  coordinates: [  0.333332985432214,  0.666666983183674,  0.598107523248858 ]
  mass: 15.999400
- symbol: O # 3
  coordinates: [  0.666666984744047,  0.333332985985145,  0.401892476751142 ]
  mass: 15.999400
- symbol: Ti # 4
  coordinates: [  0.333332985432214,  0.666666983183674,  0.441719478370389 ]
  mass: 47.867000
- symbol: Ti # 5
  coordinates: [  0.666666984744047,  0.333332985985145,  0.558280520969203 ]
  mass: 47.867000

phonon:
- q-position: [    0.0000000,    0.0000000,    0.0000000 ]
  distance:    0.0000000
  band:
  - # 1
    frequency:   -7.9136543333
  - # 2
    frequency:   -7.9136543332
  - # 3
    frequency:   -0.0000064338
  - # 4
    frequency:    0.0000020236
  - # 5
    frequency:    0.0000061180
  - # 6
    frequency:    2.9596911430
  - # 7
    frequency:    2.9596911430
  - # 8
    frequency:    8.4395530332
  - # 9
    frequency:   11.4270351181
  - # 10
    frequency:   11.4270351181
  - # 11
    frequency:   14.5084479113
  - # 12
    frequency:   14.5084479113
  - # 13
    frequency:   16.4930513668
  - # 14
    frequency:   17.1750081362
  - # 15
    frequency:   21.5655650644

- q-position: [    0.0050505,    0.0000000,    0.0000000 ]
  distance:    0.0018993
  band:
  - # 1
    frequency:   -7.9053064998
  - # 2
    frequency:   -7.8827270429
  - # 3
    frequency:    0.0349926532
  - # 4
    frequency:    0.0902440635
  - # 5
    frequency:    0.1621841471
  - # 6
    frequency:    2.9610117013
  - # 7
    frequency:    2.9626043291
  - # 8
    frequency:    8.4390969931
  - # 9
    frequency:   11.4241440858
  - # 10
    frequency:   11.4263260987
  - # 11
    frequency:   14.5090417869
  - # 12
    frequency:   14.5091068220
  - # 13
    frequency:   16.4927106533
  - # 14
    frequency:   17.1737914809
  - # 15
    frequency:   21.5651578413

- q-position: [    0.0101010,    0.0000000,    0.0000000 ]
  distance:    0.0037986
  band:
  - # 1
    frequency:   -7.8802576434
  - # 2
    frequency:   -7.7893597820
  - # 3
    frequency:    0.0706704142
  - # 4
    frequency:    0.1805518558
  - # 5
    frequency:    0.3243164643
  - # 6
    frequency:    2.9649695821
  - # 7
    frequency:    2.9713172934
  - # 8
    frequency:    8.4377302576
  - # 9
    frequency:   11.4154909251
  - # 10
    frequency:   11.4242019945
  - # 11
    frequency:   14.5108196613
  - # 12
    frequency:   14.5110753474
  - # 13
    frequency:   16.4916882942
  - # 14
    frequency:   17.1701473806
  - # 15
    frequency:   21.5639356099

- q-position: [    0.0151515,    0.0000000,    0.0000000 ]
  distance:    0.0056980
  band:
  - # 1
    frequency:   -7.8384913610
  - # 2
    frequency:   -7.6317245129
  - # 3
    frequency:    0.1076827916
  - # 4
    frequency:    0.2709873819
  - # 5
    frequency:    0.4863428362
  - # 6
    frequency:    2.9715537559
  - # 7
    frequency:    2.9857530837
  - # 8
    frequency:    8.4354569907
  - # 9
    frequency:   11.4011351824
  - # 10
    frequency:   11.4206716490
  - # 11
    frequency:   14.5137703295
  - # 12
    frequency:   14.5143292198
  - # 13
    frequency:   16.4899836572
  - # 14
    frequency:   17.1640934793
  - # 15
    frequency:   21.5618966975

- q-position: [    0.0202020,    0.0000000,    0.0000000 ]
  distance:    0.0075973
  band:
  - # 1
    frequency:   -7.7799791864
  - # 2
    frequency:   -7.4065144893
  - # 3
    frequency:    0.1466176258
  - # 4
    frequency:    0.3616152495
  - # 5
    frequency:    0.6482048133
  - # 6
    frequency:    2.9807470218
  - # 7
    frequency:    3.0057929163
  - # 8
    frequency:    8.4322841659
  - # 9
    frequency:   11.3811752592
  - # 10
    frequency:   11.4157497446
  - # 11
    frequency:   14.5178752850
  - # 12
    frequency:   14.5188291499
  - # 13
    frequency:   16.4875957630
  - # 14
    frequency:   17.1556593407
  - # 15
    frequency:   21.5590383621

- q-position: [    0.0252525,    0.0000000,    0.0000000 ]
  distance:    0.0094966
  band:
  - # 1
    frequency:   -7.7046788678
  - # 2
    frequency:   -7.1084714911
  - # 3
    frequency:    0.1879931991
  - # 4
    frequency:    0.4525010971
  - # 5
    frequency:    0.8098382639
  - # 6
    frequency:    2.9925278100
  - # 7
    frequency:    3.0312907342
  - # 8
    frequency:    8.4282216262
  - # 9
    frequency:   11.3557472583
  - # 10
    frequency:   11.4094567216
  - # 11
    frequency:   14.5231089679
  - # 12
    frequency:   14.5245225056
  - # 13
    frequency:   16.4845233943
  - # 14
    frequency:   17.1448866927
  - # 15
    frequency:   21.5553568597

- q-position: [    0.0303030,    0.0000000,    0.0000000 ]
  distance:    0.0113959
  band:
  - # 1
    frequency:   -7.6125318885
  - # 2
    frequency:   -6.7295080189
  - # 3
    frequency:    0.2322781496
  - # 4
    frequency:    0.5437121820
  - # 5
    frequency:    0.9711738949
  - # 6
    frequency:    3.0068727728
  - # 7
    frequency:    3.0620952097
  - # 8
    frequency:    8.4232821865
  - # 9
    frequency:   11.3250235834
  - # 10
    frequency:   11.4018186738
  - # 11
    frequency:   14.5294390999
  - # 12
    frequency:   14.5313455645
  - # 13
    frequency:   16.4807652411
  - # 14
    frequency:   17.1318297875
  - # 15
    frequency:   21.5508475365

- q-position: [    0.0353535,    0.0000000,    0.0000000 ]
  distance:    0.0132952
  band:
  - # 1
    frequency:   -7.5034601675
  - # 2
    frequency:   -6.2570370055
  - # 3
    frequency:    0.2799589649
  - # 4
    frequency:    0.6353181862
  - # 5
    frequency:    1.1321428779
  - # 6
    frequency:    3.0237602486
  - # 7
    frequency:    3.0980837868
  - # 8
    frequency:    8.4174818096
  - # 9
    frequency:   11.2892115012
  - # 10
    frequency:   11.3928672300
  - # 11
    frequency:   14.5368270970
  - # 12
    frequency:   14.5392262716
  - # 13
    frequency:   16.4763200738
  - # 14
    frequency:   17.1165558966
  - # 15
    frequency:   21.5455049437

- q-position: [    0.0404040,    0.0000000,    0.0000000 ]
  distance:    0.0151946
  band:
  - # 1
    frequency:   -7.3773618554
  - # 2
    frequency:   -5.6705310315
  - # 3
    frequency:    0.3317183425
  - # 4
    frequency:    0.7273923109
  - # 5
    frequency:    1.2926976308
  - # 6
    frequency:    3.0431747349
  - # 7
    frequency:    3.1392227824
  - # 8
    frequency:    8.4108399034
  - # 9
    frequency:   11.2485519384
  - # 10
    frequency:   11.3826394295
  - # 11
    frequency:   14.5452285463
  - # 12
    frequency:   14.5480874591
  - # 13
    frequency:   16.4711869376
  - # 14
    frequency:   17.0991459691
  - # 15
    frequency:   21.5393229734

- q-position: [    0.0454545,    0.0000000,    0.0000000 ]
  distance:    0.0170939
  band:
  - # 1
    frequency:   -7.2341061266
  - # 2
    frequency:   -4.9334117305
  - # 3
    frequency:    0.3889805658
  - # 4
    frequency:    0.8200127384
  - # 5
    frequency:    1.4528851555
  - # 6
    frequency:    3.0651125822
  - # 7
    frequency:    3.1856994370
  - # 8
    frequency:    8.4033798425
  - # 9
    frequency:   11.2033188810
  - # 10
    frequency:   11.3711776039
  - # 11
    frequency:   14.5545937334
  - # 12
    frequency:   14.5578505292
  - # 13
    frequency:   16.4653653572
  - # 14
    frequency:   17.0796954940
  - # 15
    frequency:   21.5322950115

- q-position: [    0.0505051,    0.0000000,    0.0000000 ]
  distance:    0.0189932
  band:
  - # 1
    frequency:   -7.0735268655
  - # 2
    frequency:   -3.9691404530
  - # 3
    frequency:    0.4562610023
  - # 4
    frequency:    0.9132645509
  - # 5
    frequency:    1.6131601076
  - # 6
    frequency:    3.0895892313
  - # 7
    frequency:    3.2383073782
  - # 8
    frequency:    8.3951299137
  - # 9
    frequency:   11.1538199102
  - # 10
    frequency:   11.3585292740
  - # 11
    frequency:   14.5648682053
  - # 12
    frequency:   14.5684396780
  - # 13
    frequency:   16.4588555397
  - # 14
    frequency:   17.0583156206
  - # 15
    frequency:   21.5244141053

- q-position: [    0.0555556,    0.0000000,    0.0000000 ]
  distance:    0.0208925
  band:
  - # 1
    frequency:   -6.8954151517
  - # 2
    frequency:   -2.5520492569
  - # 3
    frequency:    0.5617509337
  - # 4
    frequency:    1.0072422070
  - # 5
    frequency:    1.7765972888
  - # 6
    frequency:    3.1166484769
  - # 7
    frequency:    3.3000938968
  - # 8
    frequency:    8.3861251399
  - # 9
    frequency:   11.1003987534
  - # 10
    frequency:   11.3447470737
  - # 11
    frequency:   14.5759933531
  - # 12
    frequency:   14.5797868486
  - # 13
    frequency:   16.4516585649
  - # 14
    frequency:   17.0351346189
  - # 15
    frequency:   21.5156731429

- q-position: [    0.0606061,    0.0000000,    0.0000000 ]
  distance:    0.0227918
  band:
  - # 1
    frequency:   -6.6995105029
  - # 2
    frequency:    0.2698703819
  - # 3
    frequency:    1.1020526825
  - # 4
    frequency:    1.7347811032
  - # 5
    frequency:    2.0895951922
  - # 6
    frequency:    3.1463744780
  - # 7
    frequency:    3.3904073057
  - # 8
    frequency:    8.3764110808
  - # 9
    frequency:   11.0434414475
  - # 10
    frequency:   11.3298887084
  - # 11
    frequency:   14.5879070014
  - # 12
    frequency:   14.5918377602
  - # 13
    frequency:   16.4437765489
  - # 14
    frequency:   17.0102997889
  - # 15
    frequency:   21.5060650413

- q-position: [    0.0656566,    0.0000000,    0.0000000 ]
  distance:    0.0246912
  band:
  - # 1
    frequency:   -6.4854909480
  - # 2
    frequency:    0.5439016477
  - # 3
    frequency:    1.1978193683
  - # 4
    frequency:    2.0572382384
  - # 5
    frequency:    3.1789075751
  - # 6
    frequency:    3.2771182594
  - # 7
    frequency:    3.9375161426
  - # 8
    frequency:    8.3660526727
  - # 9
    frequency:   10.9833893444
  - # 10
    frequency:   11.3140169558
  - # 11
    frequency:   14.6005439876
  - # 12
    frequency:   14.6045595847
  - # 13
    frequency:   16.4352127665
  - # 14
    frequency:   16.9839799861
  - # 15
    frequency:   21.4955829396

- q-position: [    0.0707071,    0.0000000,    0.0000000 ]
  distance:    0.0265905
  band:
  - # 1
    frequency:   -6.2529622600
  - # 2
    frequency:    0.6313014337
  - # 3
    frequency:    1.2946867619
  - # 4
    frequency:    2.2142774959
  - # 5
    frequency:    3.2144654759
  - # 6
    frequency:    3.4246651883
  - # 7
    frequency:    5.1228679705
  - # 8
    frequency:    8.3551581690
  - # 9
    frequency:   10.9207660899
  - # 10
    frequency:   11.2971997131
  - # 11
    frequency:   14.6138367206
  - # 12
    frequency:   14.6179511866
  - # 13
    frequency:   16.4259717185
  - # 14
    frequency:   16.9563690002
  - # 15
    frequency:   21.4842203960

- q-position: [    0.0757576,    0.0000000,    0.0000000 ]
  distance:    0.0284898
  band:
  - # 1
    frequency:   -6.0014471733
  - # 2
    frequency:    0.7066603569
  - # 3
    frequency:    1.3928258442
  - # 4
    frequency:    2.3635035755
  - # 5
    frequency:    3.2533720847
  - # 6
    frequency:    3.5085968795
  - # 7
    frequency:    6.1631801332
  - # 8
    frequency:    8.3439605614
  - # 9
    frequency:   10.8562359834
  - # 10
    frequency:   11.2795100941
  - # 11
    frequency:   14.6277157068
  - # 12
    frequency:   14.6320573770
  - # 13
    frequency:   16.4160591286
  - # 14
    frequency:   16.9276901497
  - # 15
    frequency:   21.4719715851

- q-position: [    0.0808081,    0.0000000,    0.0000000 ]
  distance:    0.0303891
  band:
  - # 1
    frequency:   -5.7303763531
  - # 2
    frequency:    0.7799744293
  - # 3
    frequency:    1.4924396813
  - # 4
    frequency:    2.5075278090
  - # 5
    frequency:    3.2960972449
  - # 6
    frequency:    3.5892320688
  - # 7
    frequency:    7.0869487694
  - # 8
    frequency:    8.3332256656
  - # 9
    frequency:   10.7907415777
  - # 10
    frequency:   11.2610265730
  - # 11
    frequency:   14.6421100332
  - # 12
    frequency:   14.6469894960
  - # 13
    frequency:   16.4054818573
  - # 14
    frequency:   16.8982026451
  - # 15
    frequency:   21.4588314959

- q-position: [    0.0858586,    0.0000000,    0.0000000 ]
  distance:    0.0322884
  band:
  - # 1
    frequency:   -5.4390845927
  - # 2
    frequency:    0.8535441821
  - # 3
    frequency:    1.5937680495
  - # 4
    frequency:    2.6461565214
  - # 5
    frequency:    3.3433119559
  - # 6
    frequency:    3.6728992190
  - # 7
    frequency:    7.9194597386
  - # 8
    frequency:    8.3294635839
  - # 9
    frequency:   10.7258744703
  - # 10
    frequency:   11.2418331728
  - # 11
    frequency:   14.6569477992
  - # 12
    frequency:   14.6629560941
  - # 13
    frequency:   16.3942477279
  - # 14
    frequency:   16.8682105864
  - # 15
    frequency:   21.4447961271

- q-position: [    0.0909091,    0.0000000,    0.0000000 ]
  distance:    0.0341878
  band:
  - # 1
    frequency:   -5.1268186725
  - # 2
    frequency:    0.9281382633
  - # 3
    frequency:    1.6970883474
  - # 4
    frequency:    2.7786762432
  - # 5
    frequency:    3.3959650127
  - # 6
    frequency:    3.7616853635
  - # 7
    frequency:    8.2887081766
  - # 8
    frequency:    8.7202355548
  - # 9
    frequency:   10.6650951019
  - # 10
    frequency:   11.2220196867
  - # 11
    frequency:   14.6721564926
  - # 12
    frequency:   14.6803099676
  - # 13
    frequency:   16.3823652775
  - # 14
    frequency:   16.8380759882
  - # 15
    frequency:   21.4298626827

- q-position: [    0.0959596,    0.0000000,    0.0000000 ]
  distance:    0.0360871
  band:
  - # 1
    frequency:   -4.7927680065
  - # 2
    frequency:    1.0040583226
  - # 3
    frequency:    1.8027070801
  - # 4
    frequency:    2.9042595419
  - # 5
    frequency:    3.4553876670
  - # 6
    frequency:    3.8567480930
  - # 7
    frequency:    8.2827813977
  - # 8
    frequency:    9.4178589434
  - # 9
    frequency:   10.6191957487
  - # 10
    frequency:   11.2016819226
  - # 11
    frequency:   14.6876633036
  - # 12
    frequency:   14.6996221469
  - # 13
    frequency:   16.3698434828
  - # 14
    frequency:   16.8082381211
  - # 15
    frequency:   21.4140297675

- q-position: [    0.1010101,    0.0000000,    0.0000000 ]
  distance:    0.0379864
  band:
  - # 1
    frequency:   -4.4361353484
  - # 2
    frequency:    1.0814295961
  - # 3
    frequency:    1.9109307818
  - # 4
    frequency:    3.0221644631
  - # 5
    frequency:    3.5234302196
  - # 6
    frequency:    3.9588261165
  - # 7
    frequency:    8.2699190576
  - # 8
    frequency:   10.0048126024
  - # 9
    frequency:   10.6440662300
  - # 10
    frequency:   11.1809219499
  - # 11
    frequency:   14.7033953748
  - # 12
    frequency:   14.7218010070
  - # 13
    frequency:   16.3566915924
  - # 14
    frequency:   16.7792430605
  - # 15
    frequency:   21.3972975856

- q-position: [    0.1060606,    0.0000000,    0.0000000 ]
  distance:    0.0398857
  band:
  - # 1
    frequency:   -4.0562683586
  - # 2
    frequency:    1.1603026451
  - # 3
    frequency:    2.0219966143
  - # 4
    frequency:    3.1318901711
  - # 5
    frequency:    3.6026217906
  - # 6
    frequency:    4.0682869647
  - # 7
    frequency:    8.2556782371
  - # 8
    frequency:   10.2554053651
  - # 9
    frequency:   10.9633193715
  - # 10
    frequency:   11.1598483267
  - # 11
    frequency:   14.7192799870
  - # 12
    frequency:   14.7482874866
  - # 13
    frequency:   16.3429193442
  - # 14
    frequency:   16.7517902455
  - # 15
    frequency:   21.3796681474

- q-position: [    0.1111111,    0.0000000,    0.0000000 ]
  distance:    0.0417850
  band:
  - # 1
    frequency:   -3.6528570076
  - # 2
    frequency:    1.2406949081
  - # 3
    frequency:    2.1359328811
  - # 4
    frequency:    3.2332807459
  - # 5
    frequency:    3.6963077400
  - # 6
    frequency:    4.1850964994
  - # 7
    frequency:    8.2407991189
  - # 8
    frequency:   10.2528411340
  - # 9
    frequency:   11.1385762781
  - # 10
    frequency:   11.4938804366
  - # 11
    frequency:   14.7352446817
  - # 12
    frequency:   14.7813765708
  - # 13
    frequency:   16.3285381120
  - # 14
    frequency:   16.7268083556
  - # 15
    frequency:   21.3611454917

- q-position: [    0.1161616,    0.0000000,    0.0000000 ]
  distance:    0.0436844
  band:
  - # 1
    frequency:   -3.2261158122
  - # 2
    frequency:    1.3226092819
  - # 3
    frequency:    2.2523199756
  - # 4
    frequency:    3.3265466003
  - # 5
    frequency:    3.8086378248
  - # 6
    frequency:    4.3088281365
  - # 7
    frequency:    8.2255461091
  - # 8
    frequency:   10.2010640595
  - # 9
    frequency:   11.1172277890
  - # 10
    frequency:   12.0296854572
  - # 11
    frequency:   14.7512173225
  - # 12
    frequency:   14.8247314321
  - # 13
    frequency:   16.3135639520
  - # 14
    frequency:   16.7055834736
  - # 15
    frequency:   21.3417359335

- q-position: [    0.1212121,    0.0000000,    0.0000000 ]
  distance:    0.0455837
  band:
  - # 1
    frequency:   -2.7765933783
  - # 2
    frequency:    1.4060426556
  - # 3
    frequency:    2.3699654576
  - # 4
    frequency:    3.4122009968
  - # 5
    frequency:    3.9441543831
  - # 6
    frequency:    4.4387404507
  - # 7
    frequency:    8.2100790912
  - # 8
    frequency:   10.1377682836
  - # 9
    frequency:   11.0959315691
  - # 10
    frequency:   12.5276678724
  - # 11
    frequency:   14.7671261020
  - # 12
    frequency:   14.8841079202
  - # 13
    frequency:   16.2980241137
  - # 14
    frequency:   16.6899833839
  - # 15
    frequency:   21.3214483525

- q-position: [    0.1262626,    0.0000000,    0.0000000 ]
  distance:    0.0474830
  band:
  - # 1
    frequency:   -2.3035565527
  - # 2
    frequency:    1.4909895156
  - # 3
    frequency:    2.4866363841
  - # 4
    frequency:    3.4909463858
  - # 5
    frequency:    4.1066844879
  - # 6
    frequency:    4.5738977289
  - # 7
    frequency:    8.1945307455
  - # 8
    frequency:   10.0710841317
  - # 9
    frequency:   11.0748228407
  - # 10
    frequency:   12.9701982786
  - # 11
    frequency:   14.7828994996
  - # 12
    frequency:   14.9679410342
  - # 13
    frequency:   16.2819692131
  - # 14
    frequency:   16.6828614826
  - # 15
    frequency:   21.3002945441

- q-position: [    0.1313131,    0.0000000,    0.0000000 ]
  distance:    0.0493823
  band:
  - # 1
    frequency:   -1.7991561764
  - # 2
    frequency:    1.5774428431
  - # 3
    frequency:    2.5991608133
  - # 4
    frequency:    3.5635581065
  - # 5
    frequency:    4.2975900020
  - # 6
    frequency:    4.7132896516
  - # 7
    frequency:    8.1790309530
  - # 8
    frequency:   10.0038689497
  - # 9
    frequency:   11.0540428934
  - # 10
    frequency:   13.3413336528
  - # 11
    frequency:   14.7984661994
  - # 12
    frequency:   15.0861654805
  - # 13
    frequency:   16.2654934636
  - # 14
    frequency:   16.6887876757
  - # 15
    frequency:   21.2782896632

- q-position: [    0.1363636,    0.0000000,    0.0000000 ]
  distance:    0.0512816
  band:
  - # 1
    frequency:   -1.2272893797
  - # 2
    frequency:    1.6653933329
  - # 3
    frequency:    2.7041414394
  - # 4
    frequency:    3.6307978163
  - # 5
    frequency:    4.5142886778
  - # 6
    frequency:    4.8559193540
  - # 7
    frequency:    8.1637173285
  - # 8
    frequency:    9.9375253338
  - # 9
    frequency:   11.0337383439
  - # 10
    frequency:   13.6281931772
  - # 11
    frequency:   14.8137549790
  - # 12
    frequency:   15.2438342124
  - # 13
    frequency:   16.2487641077
  - # 14
    frequency:   16.7152887728
  - # 15
    frequency:   21.2554528053

- q-position: [    0.1414141,    0.0000000,    0.0000000 ]
  distance:    0.0531810
  band:
  - # 1
    frequency:   -0.2898092527
  - # 2
    frequency:    1.7548274180
  - # 3
    frequency:    2.7990010633
  - # 4
    frequency:    3.6933653956
  - # 5
    frequency:    4.7503772578
  - # 6
    frequency:    5.0008518498
  - # 7
    frequency:    8.1487413176
  - # 8
    frequency:    9.8729219991
  - # 9
    frequency:   11.0140600383
  - # 10
    frequency:   13.8297505057
  - # 11
    frequency:   14.8286945812
  - # 12
    frequency:   15.4298636324
  - # 13
    frequency:   16.2320566943
  - # 14
    frequency:   16.7744140129
  - # 15
    frequency:   21.2318077907

- q-position: [    0.1464646,    0.0000000,    0.0000000 ]
  distance:    0.0550803
  band:
  - # 1
    frequency:    1.0403540826
  - # 2
    frequency:    1.8457243144
  - # 3
    frequency:    2.8826379333
  - # 4
    frequency:    3.7518824952
  - # 5
    frequency:    4.9975177424
  - # 6
    frequency:    5.1472299758
  - # 7
    frequency:    8.1342727735
  - # 8
    frequency:    9.8106873347
  - # 9
    frequency:   10.9951615328
  - # 10
    frequency:   13.9598888206
  - # 11
    frequency:   14.8432135821
  - # 12
    frequency:   15.6139530975
  - # 13
    frequency:   16.2157823514
  - # 14
    frequency:   16.8824820612
  - # 15
    frequency:   21.2073842491

- q-position: [    0.1515152,    0.0000000,    0.0000000 ]
  distance:    0.0569796
  band:
  - # 1
    frequency:    1.4317733863
  - # 2
    frequency:    1.9380521599
  - # 3
    frequency:    2.9553241874
  - # 4
    frequency:    3.8068962239
  - # 5
    frequency:    5.2476961569
  - # 6
    frequency:    5.2942694865
  - # 7
    frequency:    8.1205040987
  - # 8
    frequency:    9.7513216959
  - # 9
    frequency:   10.9771970984
  - # 10
    frequency:   14.0385172430
  - # 11
    frequency:   14.8572402708
  - # 12
    frequency:   15.7626958408
  - # 13
    frequency:   16.2004739191
  - # 14
    frequency:   17.0527857403
  - # 15
    frequency:   21.1822191539

- q-position: [    0.1565657,    0.0000000,    0.0000000 ]
  distance:    0.0588789
  band:
  - # 1
    frequency:    1.6937698978
  - # 2
    frequency:    2.0317632319
  - # 3
    frequency:    3.0181549493
  - # 4
    frequency:    3.8588931540
  - # 5
    frequency:    5.4412431523
  - # 6
    frequency:    5.4945607578
  - # 7
    frequency:    8.1076544277
  - # 8
    frequency:    9.6952462879
  - # 9
    frequency:   10.9603192094
  - # 10
    frequency:   14.0824261080
  - # 11
    frequency:   14.8707025558
  - # 12
    frequency:   15.8612081060
  - # 13
    frequency:   16.1866779284
  - # 14
    frequency:   17.2831886936
  - # 15
    frequency:   21.1563590406

- q-position: [    0.1616162,    0.0000000,    0.0000000 ]
  distance:    0.0607782
  band:
  - # 1
    frequency:    1.8914164925
  - # 2
    frequency:    2.1267881805
  - # 3
    frequency:    3.0725082944
  - # 4
    frequency:    3.9083172871
  - # 5
    frequency:    5.5874602259
  - # 6
    frequency:    5.7336962096
  - # 7
    frequency:    8.0959740958
  - # 8
    frequency:    9.6428268616
  - # 9
    frequency:   10.9446755019
  - # 10
    frequency:   14.1029327477
  - # 11
    frequency:   14.8835279143
  - # 12
    frequency:   15.9157361737
  - # 13
    frequency:   16.1747319895
  - # 14
    frequency:   17.5560870304
  - # 15
    frequency:   21.1298632834

- q-position: [    0.1666667,    0.0000000,    0.0000000 ]
  distance:    0.0626776
  band:
  - # 1
    frequency:    2.0502298438
  - # 2
    frequency:    2.2230291744
  - # 3
    frequency:    3.1197150439
  - # 4
    frequency:    3.9555886089
  - # 5
    frequency:    5.7322446920
  - # 6
    frequency:    5.9623238937
  - # 7
    frequency:    8.0857495119
  - # 8
    frequency:    9.5943866444
  - # 9
    frequency:   10.9304052248
  - # 10
    frequency:   14.1070933347
  - # 11
    frequency:   14.8956433981
  - # 12
    frequency:   15.9398341326
  - # 13
    frequency:   16.1645627471
  - # 14
    frequency:   17.8512191744
  - # 15
    frequency:   21.1028090496

- q-position: [    0.1717172,    0.0000000,    0.0000000 ]
  distance:    0.0645769
  band:
  - # 1
    frequency:    2.1831121024
  - # 2
    frequency:    2.3203518456
  - # 3
    frequency:    3.1609181342
  - # 4
    frequency:    4.0011208143
  - # 5
    frequency:    5.8749138822
  - # 6
    frequency:    6.1788622184
  - # 7
    frequency:    8.0773084234
  - # 8
    frequency:    9.5502146238
  - # 9
    frequency:   10.9176352602
  - # 10
    frequency:   14.0992861993
  - # 11
    frequency:   14.9069757106
  - # 12
    frequency:   15.9448756195
  - # 13
    frequency:   16.1557460293
  - # 14
    frequency:   18.1535077725
  - # 15
    frequency:   21.0752989861

- q-position: [    0.1767677,    0.0000000,    0.0000000 ]
  distance:    0.0664762
  band:
  - # 1
    frequency:    2.2974040514
  - # 2
    frequency:    2.4185759286
  - # 3
    frequency:    3.1970418522
  - # 4
    frequency:    4.0453378598
  - # 5
    frequency:    6.0147582152
  - # 6
    frequency:    6.3825456925
  - # 7
    frequency:    8.0710253211
  - # 8
    frequency:    9.5105720219
  - # 9
    frequency:   10.9064758462
  - # 10
    frequency:   14.0823105200
  - # 11
    frequency:   14.9174513658
  - # 12
    frequency:   15.9383555516
  - # 13
    frequency:   16.1478019080
  - # 14
    frequency:   18.4533572644
  - # 15
    frequency:   21.0474735010

- q-position: [    0.1818182,    0.0000000,    0.0000000 ]
  distance:    0.0683755
  band:
  - # 1
    frequency:    2.3975831100
  - # 2
    frequency:    2.5174645518
  - # 3
    frequency:    3.2288091010
  - # 4
    frequency:    4.0886894744
  - # 5
    frequency:    6.1510228056
  - # 6
    frequency:    6.5731490089
  - # 7
    frequency:    8.0673262757
  - # 8
    frequency:    9.4756983328
  - # 9
    frequency:   10.8970162078
  - # 10
    frequency:   14.0580412071
  - # 11
    frequency:   14.9269969370
  - # 12
    frequency:   15.9248087468
  - # 13
    frequency:   16.1404170299
  - # 14
    frequency:   18.7448428685
  - # 15
    frequency:   21.0195310512

- q-position: [    0.1868687,    0.0000000,    0.0000000 ]
  distance:    0.0702748
  band:
  - # 1
    frequency:    2.4865140314
  - # 2
    frequency:    2.6167122941
  - # 3
    frequency:    3.2567732342
  - # 4
    frequency:    4.1316658341
  - # 5
    frequency:    6.2828923708
  - # 6
    frequency:    6.7508028549
  - # 7
    frequency:    8.0666916722
  - # 8
    frequency:    9.4458175646
  - # 9
    frequency:   10.8893203630
  - # 10
    frequency:   14.0278048875
  - # 11
    frequency:   14.9355394005
  - # 12
    frequency:   15.9068973755
  - # 13
    frequency:   16.1334668862
  - # 14
    frequency:   19.0241946839
  - # 15
    frequency:   20.9917629602

- q-position: [    0.1919192,    0.0000000,    0.0000000 ]
  distance:    0.0721742
  band:
  - # 1
    frequency:    2.5660994070
  - # 2
    frequency:    2.7159324293
  - # 3
    frequency:    3.2813499336
  - # 4
    frequency:    4.1748113694
  - # 5
    frequency:    6.4094822628
  - # 6
    frequency:    6.9158754718
  - # 7
    frequency:    8.0696539588
  - # 8
    frequency:    9.4211448775
  - # 9
    frequency:   10.8834234266
  - # 10
    frequency:   13.9925962558
  - # 11
    frequency:   14.9430065732
  - # 12
    frequency:   15.8861813171
  - # 13
    frequency:   16.1269423036
  - # 14
    frequency:   19.2888261908
  - # 15
    frequency:   20.9646157939

- q-position: [    0.1969697,    0.0000000,    0.0000000 ]
  distance:    0.0740735
  band:
  - # 1
    frequency:    2.6376452774
  - # 2
    frequency:    2.8146443525
  - # 3
    frequency:    3.3028443026
  - # 4
    frequency:    4.2187371009
  - # 5
    frequency:    6.5298405092
  - # 6
    frequency:    7.0688972861
  - # 7
    frequency:    8.0767856289
  - # 8
    frequency:    9.4018934797
  - # 9
    frequency:   10.8793287562
  - # 10
    frequency:   13.9532045899
  - # 11
    frequency:   14.9493276397
  - # 12
    frequency:   15.8635876178
  - # 13
    frequency:   16.1208789984
  - # 14
    frequency:   19.5366951710
  - # 15
    frequency:   20.9388084582

- q-position: [    0.2020202,    0.0000000,    0.0000000 ]
  distance:    0.0759728
  band:
  - # 1
    frequency:    2.7020786375
  - # 2
    frequency:    2.9122631175
  - # 3
    frequency:    3.3214726152
  - # 4
    frequency:    4.2641299361
  - # 5
    frequency:    6.6429680753
  - # 6
    frequency:    7.2105123084
  - # 7
    frequency:    8.0886705823
  - # 8
    frequency:    9.3882813098
  - # 9
    frequency:   10.8770062736
  - # 10
    frequency:   13.9102892212
  - # 11
    frequency:   14.9544337601
  - # 12
    frequency:   15.8396790911
  - # 13
    frequency:   16.1153163366
  - # 14
    frequency:   19.7657737029
  - # 15
    frequency:   20.9155624345

- q-position: [    0.2070707,    0.0000000,    0.0000000 ]
  distance:    0.0778721
  band:
  - # 1
    frequency:    2.7600824670
  - # 2
    frequency:    3.0080943851
  - # 3
    frequency:    3.3373798059
  - # 4
    frequency:    4.3117559456
  - # 5
    frequency:    6.7478658394
  - # 6
    frequency:    7.3414454969
  - # 7
    frequency:    8.1058510923
  - # 8
    frequency:    9.3805366505
  - # 9
    frequency:   10.8763922299
  - # 10
    frequency:   13.8644254776
  - # 11
    frequency:   14.9582587436
  - # 12
    frequency:   15.8148054968
  - # 13
    frequency:   16.1102789565
  - # 14
    frequency:   19.9734047023
  - # 15
    frequency:   20.8970691243

- q-position: [    0.2121212,    0.0000000,    0.0000000 ]
  distance:    0.0797714
  band:
  - # 1
    frequency:    2.8121819916
  - # 2