nqpoint: 300    
npath: 3      
segment_nqpoint:
- 100
- 100
- 100
labels:
- [ 'G', 'M' ]
- [ 'M', 'K' ]
- [ 'K', 'G' ]
reciprocal_lattice:
- [   0.32568213,   0.18803267,   0.00000000 ] # a*
- [   0.00000000,   0.37606533,   0.00000000 ] # b*
- [   0.00000000,   0.00000000,   0.04465472 ] # c*
natom: 5      
lattice:
- [     3.070478536039852,     0.000000000000000,     0.000000000000000 ] # a
- [    -1.535239268019926,     2.659112413958216,     0.000000000000000 ] # b
- [     0.000000000000000,     0.000000000000000,    22.394049455105741 ] # c
points:
- symbol: C # 1
  coordinates: [  0.000000000000000,  0.000000000000000,  0.500000044246471 ]
  mass: 12.010700
- symbol: O # 2
  coordinates: [  0.333332985432214,  0.666666983183674,  0.598107523248858 ]
  mass: 15.999400
- symbol: O # 3
  coordinates: [  0.666666984744047,  0.333332985985145,  0.401892476751142 ]
  mass: 15.999400
- symbol: Ti # 4
  coordinates: [  0.333332985432214,  0.666666983183674,  0.441719478370389 ]
  mass: 47.867000
- symbol: Ti # 5
  coordinates: [  0.666666984744047,  0.333332985985145,  0.558280520969203 ]
  mass: 47.867000

phonon:
- q-position: [    0.0000000,    0.0000000,    0.0000000 ]
  distance:    0.0000000
  band:
  - # 1
    frequency:   -3.4339634363
  - # 2
    frequency:   -3.4339634351
  - # 3
    frequency:   -0.0000532179
  - # 4
    frequency:   -0.0000002331
  - # 5
    frequency:    0.0000368352
  - # 6
    frequency:    3.3664386175
  - # 7
    frequency:    3.3664386179
  - # 8
    frequency:    8.3893730279
  - # 9
    frequency:   10.9956981006
  - # 10
    frequency:   10.9956981007
  - # 11
    frequency:   14.7513202899
  - # 12
    frequency:   14.7513202900
  - # 13
    frequency:   16.4742316822
  - # 14
    frequency:   17.1068196262
  - # 15
    frequency:   21.5394934206

- q-position: [    0.0050505,    0.0000000,    0.0000000 ]
  distance:    0.0018993
  band:
  - # 1
    frequency:   -3.4264676402
  - # 2
    frequency:   -3.3838452552
  - # 3
    frequency:    0.0044714556
  - # 4
    frequency:    0.1073096006
  - # 5
    frequency:    0.1823750449
  - # 6
    frequency:    3.3667349565
  - # 7
    frequency:    3.3690360805
  - # 8
    frequency:    8.3890120255
  - # 9
    frequency:   10.9944347577
  - # 10
    frequency:   10.9955133138
  - # 11
    frequency:   14.7508337580
  - # 12
    frequency:   14.7511798456
  - # 13
    frequency:   16.4739313037
  - # 14
    frequency:   17.1058166416
  - # 15
    frequency:   21.5391357351

- q-position: [    0.0101010,    0.0000000,    0.0000000 ]
  distance:    0.0037986
  band:
  - # 1
    frequency:   -3.4039564475
  - # 2
    frequency:   -3.2291921320
  - # 3
    frequency:    0.0182343880
  - # 4
    frequency:    0.2150319002
  - # 5
    frequency:    0.3648331832
  - # 6
    frequency:    3.3676471278
  - # 7
    frequency:    3.3769081387
  - # 8
    frequency:    8.3879293526
  - # 9
    frequency:   10.9906515305
  - # 10
    frequency:   10.9949576010
  - # 11
    frequency:   14.7493784896
  - # 12
    frequency:   14.7507601227
  - # 13
    frequency:   16.4730309090
  - # 14
    frequency:   17.1028118231
  - # 15
    frequency:   21.5380628246

- q-position: [    0.0151515,    0.0000000,    0.0000000 ]
  distance:    0.0056980
  band:
  - # 1
    frequency:   -3.3663601438
  - # 2
    frequency:   -2.9549300000
  - # 3
    frequency:    0.0426997572
  - # 4
    frequency:    0.3235975872
  - # 5
    frequency:    0.5475844875
  - # 6
    frequency:    3.3692459057
  - # 7
    frequency:    3.3903410536
  - # 8
    frequency:    8.3861260553
  - # 9
    frequency:   10.9843689211
  - # 10
    frequency:   10.9940269287
  - # 11
    frequency:   14.7469675763
  - # 12
    frequency:   14.7500659382
  - # 13
    frequency:   16.4715326956
  - # 14
    frequency:   17.0978176198
  - # 15
    frequency:   21.5362751182

- q-position: [    0.0202020,    0.0000000,    0.0000000 ]
  distance:    0.0075973
  band:
  - # 1
    frequency:   -3.3135687208
  - # 2
    frequency:   -2.5254812092
  - # 3
    frequency:    0.0823112684
  - # 4
    frequency:    0.4334740899
  - # 5
    frequency:    0.7313301084
  - # 6
    frequency:    3.3716537605
  - # 7
    frequency:    3.4100127477
  - # 8
    frequency:    8.3836040254
  - # 9
    frequency:   10.9756214368
  - # 10
    frequency:   10.9927146537
  - # 11
    frequency:   14.7436232132
  - # 12
    frequency:   14.7491052725
  - # 13
    frequency:   16.4694402462
  - # 14
    frequency:   17.0908549285
  - # 15
    frequency:   21.5337733028

- q-position: [    0.0252525,    0.0000000,    0.0000000 ]
  distance:    0.0094966
  band:
  - # 1
    frequency:   -3.2454430648
  - # 2
    frequency:   -1.8452952402
  - # 3
    frequency:    0.1565724743
  - # 4
    frequency:    0.5451852503
  - # 5
    frequency:    0.9192923794
  - # 6
    frequency:    3.3750521461
  - # 7
    frequency:    3.4375219100
  - # 8
    frequency:    8.3803662476
  - # 9
    frequency:   10.9644581383
  - # 10
    frequency:   10.9910116397
  - # 11
    frequency:   14.7393772892
  - # 12
    frequency:   14.7478891981
  - # 13
    frequency:   16.4667584114
  - # 14
    frequency:   17.0819533225
  - # 15
    frequency:   21.5305582822

- q-position: [    0.0303030,    0.0000000,    0.0000000 ]
  distance:    0.0113959
  band:
  - # 1
    frequency:   -3.1618348260
  - # 2
    frequency:   -0.5397194115
  - # 3
    frequency:    0.6180247063
  - # 4
    frequency:    0.6593317229
  - # 5
    frequency:    1.1569793220
  - # 6
    frequency:    3.3796928047
  - # 7
    frequency:    3.4770945634
  - # 8
    frequency:    8.3764172045
  - # 9
    frequency:   10.9509435038
  - # 10
    frequency:   10.9889064215
  - # 11
    frequency:   14.7342722738
  - # 12
    frequency:   14.7464317790
  - # 13
    frequency:   16.4634931501
  - # 14
    frequency:   17.0711513865
  - # 15
    frequency:   21.5266311207

- q-position: [    0.0353535,    0.0000000,    0.0000000 ]
  distance:    0.0132952
  band:
  - # 1
    frequency:   -3.0626200204
  - # 2
    frequency:   -0.1725879608
  - # 3
    frequency:    0.7766101277
  - # 4
    frequency:    1.2322164495
  - # 5
    frequency:    2.1098542423
  - # 6
    frequency:    3.3859143527
  - # 7
    frequency:    3.5427350465
  - # 8
    frequency:    8.3717635316
  - # 9
    frequency:   10.9351587383
  - # 10
    frequency:   10.9863854117
  - # 11
    frequency:   14.7283624675
  - # 12
    frequency:   14.7447499412
  - # 13
    frequency:   16.4596513329
  - # 14
    frequency:   17.0584971729
  - # 15
    frequency:   21.5219929742

- q-position: [    0.0404040,    0.0000000,    0.0000000 ]
  distance:    0.0151946
  band:
  - # 1
    frequency:   -2.9477538138
  - # 2
    frequency:   -0.0490109662
  - # 3
    frequency:    0.8978256550
  - # 4
    frequency:    1.4253369378
  - # 5
    frequency:    2.9105129894
  - # 6
    frequency:    3.3941659904
  - # 7
    frequency:    3.6981916166
  - # 8
    frequency:    8.3664151049
  - # 9
    frequency:   10.9172037495
  - # 10
    frequency:   10.9834331515
  - # 11
    frequency:   14.7217157122
  - # 12
    frequency:   14.7428633127
  - # 13
    frequency:   16.4552405136
  - # 14
    frequency:   17.0440488023
  - # 15
    frequency:   21.5166450105

- q-position: [    0.0454545,    0.0000000,    0.0000000 ]
  distance:    0.0170939
  band:
  - # 1
    frequency:   -2.8173561169
  - # 2
    frequency:    0.1458395138
  - # 3
    frequency:    1.0238862446
  - # 4
    frequency:    1.6060193806
  - # 5
    frequency:    3.3022653189
  - # 6
    frequency:    3.4050408825
  - # 7
    frequency:    4.1290987802
  - # 8
    frequency:    8.3603869640
  - # 9
    frequency:   10.8972001804
  - # 10
    frequency:   10.9800326020
  - # 11
    frequency:   14.7144157055
  - # 12
    frequency:   14.7407940352
  - # 13
    frequency:   16.4502686755
  - # 14
    frequency:   17.0278752402
  - # 15
    frequency:   21.5105883206

- q-position: [    0.0505051,    0.0000000,    0.0000000 ]
  distance:    0.0189932
  band:
  - # 1
    frequency:   -2.6718370701
  - # 2
    frequency:    0.2237658416
  - # 3
    frequency:    1.1557547920
  - # 4
    frequency:    1.7827089122
  - # 5
    frequency:    3.4193224366
  - # 6
    frequency:    3.4343779119
  - # 7
    frequency:    4.7515066300
  - # 8
    frequency:    8.3537030086
  - # 9
    frequency:   10.8752961987
  - # 10
    frequency:   10.9761654731
  - # 11
    frequency:   14.7065651193
  - # 12
    frequency:   14.7385665438
  - # 13
    frequency:   16.4447439586
  - # 14
    frequency:   17.0100572948
  - # 15
    frequency:   21.5038238251

- q-position: [    0.0555556,    0.0000000,    0.0000000 ]
  distance:    0.0208925
  band:
  - # 1
    frequency:   -2.5120619409
  - # 2
    frequency:    0.2948998176
  - # 3
    frequency:    1.2943185519
  - # 4
    frequency:    1.9564712372
  - # 5
    frequency:    3.4380468809
  - # 6
    frequency:    3.5068682857
  - # 7
    frequency:    5.3916234996
  - # 8
    frequency:    8.3464039264
  - # 9
    frequency:   10.8516743510
  - # 10
    frequency:   10.9718125890
  - # 11
    frequency:   14.6982898123
  - # 12
    frequency:   14.7362073181
  - # 13
    frequency:   16.4386743751
  - # 14
    frequency:   16.9906888975
  - # 15
    frequency:   21.4963521785

- q-position: [    0.0606061,    0.0000000,    0.0000000 ]
  distance:    0.0227918
  band:
  - # 1
    frequency:   -2.3395247883
  - # 2
    frequency:    0.3658853134
  - # 3
    frequency:    1.4401187385
  - # 4
    frequency:    2.1272531891
  - # 5
    frequency:    3.4625838382
  - # 6
    frequency:    3.5656977119
  - # 7
    frequency:    6.0162980422
  - # 8
    frequency:    8.3385667765
  - # 9
    frequency:   10.8265650400
  - # 10
    frequency:   10.9669542858
  - # 11
    frequency:   14.6897445522
  - # 12
    frequency:   14.7337446021
  - # 13
    frequency:   16.4320675197
  - # 14
    frequency:   16.9698787543
  - # 15
    frequency:   21.4881736744

- q-position: [    0.0656566,    0.0000000,    0.0000000 ]
  distance:    0.0246912
  band:
  - # 1
    frequency:   -2.1564387348
  - # 2
    frequency:    0.4386026173
  - # 3
    frequency:    1.5928943590
  - # 4
    frequency:    2.2945970712
  - # 5
    frequency:    3.4947297820
  - # 6
    frequency:    3.6218293090
  - # 7
    frequency:    6.6215440478
  - # 8
    frequency:    8.3303636865
  - # 9
    frequency:   10.8002709342
  - # 10
    frequency:   10.9615708393
  - # 11
    frequency:   14.6811208533
  - # 12
    frequency:   14.7312080945
  - # 13
    frequency:   16.4249302817
  - # 14
    frequency:   16.9477524912
  - # 15
    frequency:   21.4792881552

- q-position: [    0.0707071,    0.0000000,    0.0000000 ]
  distance:    0.0265905
  band:
  - # 1
    frequency:   -1.9655753334
  - # 2
    frequency:    0.5136944344
  - # 3
    frequency:    1.7509838156
  - # 4
    frequency:    2.4577743890
  - # 5
    frequency:    3.5367910084
  - # 6
    frequency:    3.6792929623
  - # 7
    frequency:    7.2071015162
  - # 8
    frequency:    8.3222985694
  - # 9
    frequency:   10.7732141476
  - # 10
    frequency:   10.9556429175
  - # 11
    frequency:   14.6726578143
  - # 12
    frequency:   14.7286286097
  - # 13
    frequency:   16.4172685636
  - # 14
    frequency:   16.9244554703
  - # 15
    frequency:   21.4696949318

- q-position: [    0.0757576,    0.0000000,    0.0000000 ]
  distance:    0.0284898
  band:
  - # 1
    frequency:   -1.7696810614
  - # 2
    frequency:    0.5913539136
  - # 3
    frequency:    1.9108261180
  - # 4
    frequency:    2.6158019814
  - # 5
    frequency:    3.5915947879
  - # 6
    frequency:    3.7403052808
  - # 7
    frequency:    7.7708481094
  - # 8
    frequency:    8.3168863982
  - # 9
    frequency:   10.7460350640
  - # 10
    frequency:   10.9491520557
  - # 11
    frequency:   14.6646572711
  - # 12
    frequency:   14.7260377105
  - # 13
    frequency:   16.4090870166
  - # 14
    frequency:   16.9001565326
  - # 15
    frequency:   21.4593927141

- q-position: [    0.0808081,    0.0000000,    0.0000000 ]
  distance:    0.0303891
  band:
  - # 1
    frequency:   -1.5704670561
  - # 2
    frequency:    0.6715814332
  - # 3
    frequency:    2.0669965425
  - # 4
    frequency:    2.7674396744
  - # 5
    frequency:    3.6623119524
  - # 6
    frequency:    3.8065844014
  - # 7
    frequency:    8.2399284232
  - # 8
    frequency:    8.3866251269
  - # 9
    frequency:   10.7198216278
  - # 10
    frequency:   10.9420811499
  - # 11
    frequency:   14.6575052231
  - # 12
    frequency:   14.7234673140
  - # 13
    frequency:   16.4003888005
  - # 14
    frequency:   16.8750530429
  - # 15
    frequency:   21.4483795604

- q-position: [    0.0858586,    0.0000000,    0.0000000 ]
  distance:    0.0322884
  band:
  - # 1
    frequency:   -1.3673960758
  - # 2
    frequency:    0.7542871200
  - # 3
    frequency:    2.2131176380
  - # 4
    frequency:    2.9112225795
  - # 5
    frequency:    3.7519503659
  - # 6
    frequency:    3.8797505724
  - # 7
    frequency:    8.2761239786
  - # 8
    frequency:    8.8679110988
  - # 9
    frequency:   10.6967176117
  - # 10
    frequency:   10.9344149623
  - # 11
    frequency:   14.6517024685
  - # 12
    frequency:   14.7209492722
  - # 13
    frequency:   16.3911753869
  - # 14
    frequency:   16.8493777941
  - # 15
    frequency:   21.4366528454

- q-position: [    0.0909091,    0.0000000,    0.0000000 ]
  distance:    0.0341878
  band:
  - # 1
    frequency:   -1.1563311000
  - # 2
    frequency:    0.8393374027
  - # 3
    frequency:    2.3434767666
  - # 4
    frequency:    3.0455823989
  - # 5
    frequency:    3.8625090697
  - # 6
    frequency:    3.9613749477
  - # 7
    frequency:    8.2680632009
  - # 8
    frequency:    9.3668873352
  - # 9
    frequency:   10.6818519225
  - # 10
    frequency:   10.9261406373
  - # 11
    frequency:   14.6479088391
  - # 12
    frequency:   14.7185149310
  - # 13
    frequency:   16.3814464354
  - # 14
    frequency:   16.8234086200
  - # 15
    frequency:   21.4242092556

- q-position: [    0.0959596,    0.0000000,    0.0000000 ]
  distance:    0.0360871
  band:
  - # 1
    frequency:   -0.9269468112
  - # 2
    frequency:    0.9265780080
  - # 3
    frequency:    2.4545906125
  - # 4
    frequency:    3.1690984667
  - # 5
    frequency:    3.9941275902
  - # 6
    frequency:    4.0528041456
  - # 7
    frequency:    8.2567926903
  - # 8
    frequency:    9.8262143250
  - # 9
    frequency:   10.6909722511
  - # 10
    frequency:   10.9172482204
  - # 11
    frequency:   14.6470074751
  - # 12
    frequency:   14.7161946690
  - # 13
    frequency:   16.3711998008
  - # 14
    frequency:   16.7974820203
  - # 15
    frequency:   21.4110448127

- q-position: [    0.1010101,    0.0000000,    0.0000000 ]
  distance:    0.0379864
  band:
  - # 1
    frequency:   -0.6525757968
  - # 2
    frequency:    1.0158459015
  - # 3
    frequency:    2.5458526337
  - # 4
    frequency:    3.2808471516
  - # 5
    frequency:    4.1448129168
  - # 6
    frequency:    4.1548475008
  - # 7
    frequency:    8.2442975223
  - # 8
    frequency:   10.1852186598
  - # 9
    frequency:   10.7817084286
  - # 10
    frequency:   10.9077311771
  - # 11
    frequency:   14.6501981401
  - # 12
    frequency:   14.7140174218
  - # 13
    frequency:   16.3604317762
  - # 14
    frequency:   16.7720128537
  - # 15
    frequency:   21.3971549329

- q-position: [    0.1060606,    0.0000000,    0.0000000 ]
  distance:    0.0398857
  band:
  - # 1
    frequency:   -0.1656919450
  - # 2
    frequency:    1.1069755835
  - # 3
    frequency:    2.6190183387
  - # 4
    frequency:    3.3807007924
  - # 5
    frequency:    4.2674969720
  - # 6
    frequency:    4.3109989707
  - # 7
    frequency:    8.2310427155
  - # 8
    frequency:   10.3457485542
  - # 9
    frequency:   10.8975869059
  - # 10
    frequency:   11.0500474610
  - # 11
    frequency:   14.6591305978
  - # 12
    frequency:   14.7120101940
  - # 13
    frequency:   16.3491377543
  - # 14
    frequency:   16.7475234012
  - # 15
    frequency:   21.3825345247

- q-position: [    0.1111111,    0.0000000,    0.0000000 ]
  distance:    0.0417850
  band:
  - # 1
    frequency:    0.5864071575
  - # 2
    frequency:    1.1998022953
  - # 3
    frequency:    2.6770809433
  - # 4
    frequency:    3.4693884900
  - # 5
    frequency:    4.3898763457
  - # 6
    frequency:    4.4885380853
  - # 7
    frequency:    8.2172253382
  - # 8
    frequency:   10.3755897255
  - # 9
    frequency:   10.8868172408
  - # 10
    frequency:   11.4254648133
  - # 11
    frequency:   14.6760864414
  - # 12
    frequency:   14.7101975669
  - # 13
    frequency:   16.3373136073
  - # 14
    frequency:   16.7246872074
  - # 15
    frequency:   21.3671781340

- q-position: [    0.1161616,    0.0000000,    0.0000000 ]
  distance:    0.0436844
  band:
  - # 1
    frequency:    0.8332288496
  - # 2
    frequency:    1.2941634295
  - # 3
    frequency:    2.7232651049
  - # 4
    frequency:    3.5482729490
  - # 5
    frequency:    4.5204696845
  - # 6
    frequency:    4.6735295878
  - # 7
    frequency:    8.2029700143
  - # 8
    frequency:   10.3655578440
  - # 9
    frequency:   10.8754289373
  - # 10
    frequency:   11.8133671899
  - # 11
    frequency:   14.7041978087
  - # 12
    frequency:   14.7086012042
  - # 13
    frequency:   16.3249582368
  - # 14
    frequency:   16.7043967120
  - # 15
    frequency:   21.3510801411

- q-position: [    0.1212121,    0.0000000,    0.0000000 ]
  distance:    0.0455837
  band:
  - # 1
    frequency:    1.0140596912
  - # 2
    frequency:    1.3898988284
  - # 3
    frequency:    2.7604598893
  - # 4
    frequency:    3.6189922278
  - # 5
    frequency:    4.6574822042
  - # 6
    frequency:    4.8627305476
  - # 7
    frequency:    8.1883804369
  - # 8
    frequency:   10.3424078814
  - # 9
    frequency:   10.8634341391
  - # 10
    frequency:   12.1818608865
  - # 11
    frequency:   14.7072393647
  - # 12
    frequency:   14.7476220763
  - # 13
    frequency:   16.3120778712
  - # 14
    frequency:   16.6878697638
  - # 15
    frequency:   21.3342350203

- q-position: [    0.1262626,    0.0000000,    0.0000000 ]
  distance:    0.0474830
  band:
  - # 1
    frequency:    1.1616013270
  - # 2
    frequency:    1.4868503469
  - # 3
    frequency:    2.7910278665
  - # 4
    frequency:    3.6831548250
  - # 5
    frequency:    4.7991462096
  - # 6
    frequency:    5.0536300873
  - # 7
    frequency:    8.1735579462
  - # 8
    frequency:   10.3139638002
  - # 9
    frequency:   10.8508508175
  - # 10
    frequency:   12.5165633536
  - # 11
    frequency:   14.7061264281
  - # 12
    frequency:   14.8114164759
  - # 13
    frequency:   16.2986926287
  - # 14
    frequency:   16.6768197926
  - # 15
    frequency:   21.3166376727

- q-position: [    0.1313131,    0.0000000,    0.0000000 ]
  distance:    0.0493823
  band:
  - # 1
    frequency:    1.2882468773
  - # 2
    frequency:    1.5848608851
  - # 3
    frequency:    2.8168168555
  - # 4
    frequency:    3.7421713988
  - # 5
    frequency:    4.9438893481
  - # 6
    frequency:    5.2443575181
  - # 7
    frequency:    8.1586102631
  - # 8
    frequency:   10.2832204669
  - # 9
    frequency:   10.8377031818
  - # 10
    frequency:   12.8071923018
  - # 11
    frequency:   14.7052724402
  - # 12
    frequency:   14.9005670125
  - # 13
    frequency:   16.2848452776
  - # 14
    frequency:   16.6737270492
  - # 15
    frequency:   21.2982838473

- q-position: [    0.1363636,    0.0000000,    0.0000000 ]
  distance:    0.0512816
  band:
  - # 1
    frequency:    1.4002329218
  - # 2
    frequency:    1.6837729981
  - # 3
    frequency:    2.8392452853
  - # 4
    frequency:    3.7972045155
  - # 5
    frequency:    5.0903840719
  - # 6
    frequency:    5.4335442018
  - # 7
    frequency:    8.1436568701
  - # 8
    frequency:   10.2516144955
  - # 9
    frequency:   10.8240220535
  - # 10
    frequency:   13.0463041961
  - # 11
    frequency:   14.7046826856
  - # 12
    frequency:   15.0175569949
  - # 13
    frequency:   16.2706105370
  - # 14
    frequency:   16.6822529875
  - # 15
    frequency:   21.2791706709

- q-position: [    0.1414141,    0.0000000,    0.0000000 ]
  distance:    0.0531810
  band:
  - # 1
    frequency:    1.5011698061
  - # 2
    frequency:    1.7834271335
  - # 3
    frequency:    2.8593968929
  - # 4
    frequency:    3.8491848896
  - # 5
    frequency:    5.2375299691
  - # 6
    frequency:    5.6201947365
  - # 7
    frequency:    8.1288333131
  - # 8
    frequency:   10.2199671616
  - # 9
    frequency:   10.8098452016
  - # 10
    frequency:   13.2312857829
  - # 11
    frequency:   14.7043572970
  - # 12
    frequency:   15.1588815030
  - # 13
    frequency:   16.2561004965
  - # 14
    frequency:   16.7077874378
  - # 15
    frequency:   21.2592973153

- q-position: [    0.1464646,    0.0000000,    0.0000000 ]
  distance:    0.0550803
  band:
  - # 1
    frequency:    1.5933323018
  - # 2
    frequency:    1.8836595107
  - # 3
    frequency:    2.8781012581
  - # 4
    frequency:    3.8988530634
  - # 5
    frequency:    5.3844100329
  - # 6
    frequency:    5.8035843980
  - # 7
    frequency:    8.1142953974
  - # 8
    frequency:   10.1888161572
  - # 9
    frequency:   10.7952176337
  - # 10
    frequency:   13.3657080142
  - # 11
    frequency:   14.7042909061
  - # 12
    frequency:   15.3129523425
  - # 13
    frequency:   16.2414589307
  - # 14
    frequency:   16.7578646193
  - # 15
    frequency:   21.2386658415

- q-position: [    0.1515152,    0.0000000,    0.0000000 ]
  distance:    0.0569796
  band:
  - # 1
    frequency:    1.6782391158
  - # 2
    frequency:    1.9842996349
  - # 3
    frequency:    2.8959954577
  - # 4
    frequency:    3.9468044127
  - # 5
    frequency:    5.5302429232
  - # 6
    frequency:    5.9831830636
  - # 7
    frequency:    8.1002238006
  - # 8
    frequency:   10.1585508774
  - # 9
    frequency:   10.7801918386
  - # 10
    frequency:   13.4577876248
  - # 11
    frequency:   14.7044723460
  - # 12
    frequency:   15.4621423947
  - # 13
    frequency:   16.2268380117
  - # 14
    frequency:   16.8415455211
  - # 15
    frequency:   21.2172822778

- q-position: [    0.1565657,    0.0000000,    0.0000000 ]
  distance:    0.0588789
  band:
  - # 1
    frequency:    1.7569498925
  - # 2
    frequency:    2.0851674296
  - # 3
    frequency:    2.9135689185
  - # 4
    frequency:    3.9935286617
  - # 5
    frequency:    5.6743399133
  - # 6
    frequency:    6.1586006339
  - # 7
    frequency:    8.0868294633
  - # 8
    frequency:   10.1294738974
  - # 9
    frequency:   10.7648279758
  - # 10
    frequency:   13.5171215569
  - # 11
    frequency:   14.7048844118
  - # 12
    frequency:   15.5890343007
  - # 13
    frequency:   16.2123596824
  - # 14
    frequency:   16.9664115803
  - # 15
    frequency:   21.1951580153

- q-position: [    0.1616162,    0.0000000,    0.0000000 ]
  distance:    0.0607782
  band:
  - # 1
    frequency:    1.8302323699
  - # 2
    frequency:    2.1860699773
  - # 3
    frequency:    2.9311951849
  - # 4
    frequency:    4.0394418520
  - # 5
    frequency:    5.8160684129
  - # 6
    frequency:    6.3295484408
  - # 7
    frequency:    8.0743600396
  - # 8
    frequency:   10.1018312564
  - # 9
    frequency:   10.7491940073
  - # 10
    frequency:   13.5522186512
  - # 11
    frequency:   14.7055036854
  - # 12
    frequency:   15.6835706139
  - # 13
    frequency:   16.1980792429
  - # 14
    frequency:   17.1338879252
  - # 15
    frequency:   21.1723116425

- q-position: [    0.1666667,    0.0000000,    0.0000000 ]
  distance:    0.0626776
  band:
  - # 1
    frequency:    1.8986633008
  - # 2
    frequency:    2.2867978711
  - # 3
    frequency:    2.9491541342
  - # 4
    frequency:    4.0849114178
  - # 5
    frequency:    5.9548212418
  - # 6
    frequency:    6.4958120670
  - # 7
    frequency:    8.0631076254
  - # 8
    frequency:   10.0758283479
  - # 9
    frequency:   10.7333657667
  - # 10
    frequency:   13.5696368645
  - # 11
    frequency:   14.7063004312
  - # 12
    frequency:   15.7456206149
  - # 13
    frequency:   16.1839761829
  - # 14
    frequency:   17.3375308346
  - # 15
    frequency:   21.1487714027

- q-position: [    0.1717172,    0.0000000,    0.0000000 ]
  distance:    0.0645769
  band:
  - # 1
    frequency:    1.9626927382
  - # 2
    frequency:    2.3871212222
  - # 3
    frequency:    2.9676475163
  - # 4
    frequency:    4.1302757553
  - # 5
    frequency:    6.0899901639
  - # 6
    frequency:    6.6572321652
  - # 7
    frequency:    8.0534178391
  - # 8
    frequency:   10.0516387478
  - # 9
    frequency:   10.7174269581
  - # 10
    frequency:   13.5741089735
  - # 11
    frequency:   14.7072385688
  - # 12
    frequency:   15.7813028699
  - # 13
    frequency:   16.1699815699
  - # 14
    frequency:   17.5665405669
  - # 15
    frequency:   21.1245785523

- q-position: [    0.1767677,    0.0000000,    0.0000000 ]
  distance:    0.0664762
  band:
  - # 1
    frequency:    2.0226866083
  - # 2
    frequency:    2.4867854326
  - # 3
    frequency:    2.9868100537
  - # 4
    frequency:    4.1758596070
  - # 5
    frequency:    6.2209424861
  - # 6
    frequency:    6.8136908430
  - # 7
    frequency:    8.0457000179
  - # 8
    frequency:   10.0294094719
  - # 9
    frequency:   10.7014690791
  - # 10
    frequency:   13.5689745300
  - # 11
    frequency:   14.7082757250
  - # 12
    frequency:   15.7979614333
  - # 13
    frequency:   16.1560234075
  - # 14
    frequency:   17.8102986723
  - # 15
    frequency:   21.0997920537

- q-position: [    0.1818182,    0.0000000,    0.0000000 ]
  distance:    0.0683755
  band:
  - # 1
    frequency:    2.0789555473
  - # 2
    frequency:    2.5855069440
  - # 3
    frequency:    3.0067177980
  - # 4
    frequency:    4.2219862286
  - # 5
    frequency:    6.3470004164
  - # 6
    frequency:    6.9651019249
  - # 7
    frequency:    8.0404376405
  - # 8
    frequency:   10.0092644569
  - # 9
    frequency:   10.6855912567
  - # 10
    frequency:   13.5565954989
  - # 11
    frequency:   14.7093633690
  - # 12
    frequency:   15.8016183102
  - # 13
    frequency:   16.1420620155
  - # 14
    frequency:   18.0604553145
  - # 15
    frequency:   21.0744952867

- q-position: [    0.1868687,    0.0000000,    0.0000000 ]
  distance:    0.0702748
  band:
  - # 1
    frequency:    2.1317744765
  - # 2
    frequency:    2.6829693269
  - # 3
    frequency:    3.0273950177
  - # 4
    frequency:    4.2689868802
  - # 5
    frequency:    6.4674243657
  - # 6
    frequency:    7.1114039260
  - # 7
    frequency:    8.0381968696
  - # 8
    frequency:    9.9913072544
  - # 9
    frequency:   10.6698999858
  - # 10
    frequency:   13.5386706297
  - # 11
    frequency:   14.7104470336
  - # 12
    frequency:   15.7965475287
  - # 13
    frequency:   16.1281030030
  - # 14
    frequency:   18.3110166337
  - # 15
    frequency:   21.0488058842

- q-position: [    0.1919192,    0.0000000,    0.0000000 ]
  distance:    0.0721742
  band:
  - # 1
    frequency:    2.1813955565
  - # 2
    frequency:    2.7788202700
  - # 3
    frequency:    3.0488205234
  - # 4
    frequency:    4.3172077419
  - # 5
    frequency:    6.5814036717
  - # 6
    frequency:    7.2525549417
  - # 7
    frequency:    8.0396290539
  - # 8
    frequency:    9.9756235257
  - # 9
    frequency:   10.6545087551
  - # 10
    frequency:   13.5164532699
  - # 11
    frequency:   14.7114666199
  - # 12
    frequency:   15.7856219933
  - # 13
    frequency:   16.1141931137
  - # 14
    frequency:   18.5577686646
  - # 15
    frequency:   21.0228905207

- q-position: [    0.1969697,    0.0000000,    0.0000000 ]
  distance:    0.0740735
  band:
  - # 1
    frequency:    2.2280562085
  - # 2
    frequency:    2.8726702769
  - # 3
    frequency:    3.0709340139
  - # 4
    frequency:    4.3670139274
  - # 5
    frequency:    6.6880613647
  - # 6
    frequency:    7.3885289129
  - # 7
    frequency:    8.0454600764
  - # 8
    frequency:    9.9622837032
  - # 9
    frequency:   10.6395375421
  - # 10
    frequency:   13.4908974746
  - # 11
    frequency:   14.7123567869
  - # 12
    frequency:   15.7707433190
  - # 13
    frequency:   16.1004092571
  - # 14
    frequency:   18.7976890701
  - # 15
    frequency:   20.9969877327

- q-position: [    0.2020202,    0.0000000,    0.0000000 ]
  distance:    0.0759728
  band:
  - # 1
    frequency:    2.2719834084
  - # 2
    frequency:    2.9640941170
  - # 3
    frequency:    3.0936427194
  - # 4
    frequency:    4.4187898827
  - # 5
    frequency:    6.7864829218
  - # 6
    frequency:    7.5193129014
  - # 7
    frequency:    8.0564562666
  - # 8
    frequency:    9.9513460522
  - # 9
    frequency:   10.6251121552
  - # 10
    frequency:   13.4627552244
  - # 11
    frequency:   14.7130474214
  - # 12
    frequency:   15.7531698258
  - # 13
    frequency:   16.0868474474
  - # 14
    frequency:   19.0284964939
  - # 15
    frequency:   20.9714440721

- q-position: [    0.2070707,    0.0000000,    0.0000000 ]
  distance:    0.0778721
  band:
  - # 1
    frequency:    2.3133952318
  - # 2
    frequency:    3.0526362439
  - # 3
    frequency:    3.1168283618
  - # 4
    frequency:    4.4729351909
  - # 5
    frequency:    6.8757800781
  - # 6
    frequency:    7.6449051349
  - # 7
    frequency:    8.0733555952
  - # 8
    frequency:    9.9428602709
  - # 9
    frequency:   10.6113633959
  - # 10
    frequency:   13.4326412618
  - # 11
    frequency:   14.7134641843
  - # 12
    frequency:   15.7337362575
  - # 13
    frequency:   16.0736139384
  - # 14
    frequency:   19.2483158425
  - # 15
    frequency:   20.9467727947

- q-position: [    0.2121212,    0.0000000,    0.0000000 ]
  distance:    0.0797714
  band:
  - # 1
    frequency:    2.3525005103
  - # 2