nqpoint: 300    
npath: 3      
segment_nqpoint:
- 100
- 100
- 100
labels:
- [ 'G', 'M' ]
- [ 'M', 'K' ]
- [ 'K', 'G' ]
reciprocal_lattice:
- [   0.27945994,   0.16134627,   0.00000000 ] # a*
- [   0.00000000,   0.32269255,   0.00000000 ] # b*
- [   0.00000000,   0.00000000,   0.03871558 ] # c*
natom: 7      
lattice:
- [     3.578330381069792,     0.000000000000000,     0.000000000000000 ] # a
- [    -1.789165190534896,     3.098925013140252,     0.000000000000000 ] # b
- [     0.000000000000000,     0.000000000000000,    25.829394168397521 ] # c
points:
- symbol: N # 1
  coordinates: [  0.000000000000000,  0.000000000000000,  0.500000028245438 ]
  mass: 14.006700
- symbol: N # 2
  coordinates: [  0.333332985432215,  0.666666983183674,  0.600873433938317 ]
  mass: 14.006700
- symbol: N # 3
  coordinates: [  0.666666984744047,  0.333332985985145,  0.399126566061683 ]
  mass: 14.006700
- symbol: O # 4
  coordinates: [  0.333332985432215,  0.666666983183674,  0.651559771734345 ]
  mass: 15.999400
- symbol: O # 5
  coordinates: [  0.666666984744047,  0.333332985985145,  0.348440228265655 ]
  mass: 15.999400
- symbol: Y # 6
  coordinates: [  0.333332985432215,  0.666666983183674,  0.445683265969779 ]
  mass: 88.905850
- symbol: Y # 7
  coordinates: [  0.666666984744047,  0.333332985985145,  0.554316733608640 ]
  mass: 88.905850

phonon:
- q-position: [    0.0000000,    0.0000000,    0.0000000 ]
  distance:    0.0000000
  band:
  - # 1
    frequency:   -0.0000016887
  - # 2
    frequency:   -0.0000003091
  - # 3
    frequency:    0.0000019489
  - # 4
    frequency:    1.2793435093
  - # 5
    frequency:    1.2793435093
  - # 6
    frequency:    1.5975893076
  - # 7
    frequency:    1.5975893076
  - # 8
    frequency:    2.6199665507
  - # 9
    frequency:    2.6199665507
  - # 10
    frequency:    3.8148863853
  - # 11
    frequency:    4.9085293849
  - # 12
    frequency:    6.8446952666
  - # 13
    frequency:    6.8446952666
  - # 14
    frequency:    6.9874332978
  - # 15
    frequency:    6.9874332978
  - # 16
    frequency:    7.8176000922
  - # 17
    frequency:    8.2015126217
  - # 18
    frequency:    8.2015126217
  - # 19
    frequency:   12.0415620854
  - # 20
    frequency:   41.2676733317
  - # 21
    frequency:   41.5076058852

- q-position: [    0.0050505,    0.0000000,    0.0000000 ]
  distance:    0.0016298
  band:
  - # 1
    frequency:   -0.0567224975
  - # 2
    frequency:   -0.0018474902
  - # 3
    frequency:    0.0524306947
  - # 4
    frequency:    1.2801665979
  - # 5
    frequency:    1.2817437870
  - # 6
    frequency:    1.5963428109
  - # 7
    frequency:    1.5975095795
  - # 8
    frequency:    2.6205123210
  - # 9
    frequency:    2.6214037761
  - # 10
    frequency:    3.8165247149
  - # 11
    frequency:    4.9084319409
  - # 12
    frequency:    6.8440801609
  - # 13
    frequency:    6.8446427912
  - # 14
    frequency:    6.9875329516
  - # 15
    frequency:    6.9883509003
  - # 16
    frequency:    7.8158308268
  - # 17
    frequency:    8.2015009477
  - # 18
    frequency:    8.2056392172
  - # 19
    frequency:   12.0412254380
  - # 20
    frequency:   41.2670615791
  - # 21
    frequency:   41.5068511769

- q-position: [    0.0101010,    0.0000000,    0.0000000 ]
  distance:    0.0032595
  band:
  - # 1
    frequency:   -0.1132435607
  - # 2
    frequency:   -0.0073934161
  - # 3
    frequency:    0.1049036004
  - # 4
    frequency:    1.2826091440
  - # 5
    frequency:    1.2888932751
  - # 6
    frequency:    1.5926167147
  - # 7
    frequency:    1.5973251008
  - # 8
    frequency:    2.6221415462
  - # 9
    frequency:    2.6256925807
  - # 10
    frequency:    3.8214321175
  - # 11
    frequency:    4.9081393571
  - # 12
    frequency:    6.8422411070
  - # 13
    frequency:    6.8444855470
  - # 14
    frequency:    6.9878276490
  - # 15
    frequency:    6.9910757105
  - # 16
    frequency:    7.8108056200
  - # 17
    frequency:    8.2014685115
  - # 18
    frequency:    8.2177489822
  - # 19
    frequency:   12.0402165716
  - # 20
    frequency:   41.2652270794
  - # 21
    frequency:   41.5045880955

- q-position: [    0.0151515,    0.0000000,    0.0000000 ]
  distance:    0.0048893
  band:
  - # 1
    frequency:   -0.1693763951
  - # 2
    frequency:   -0.0166369685
  - # 3
    frequency:    0.1574555831
  - # 4
    frequency:    1.2865932213
  - # 5
    frequency:    1.3006430707
  - # 6
    frequency:    1.5864510746
  - # 7
    frequency:    1.5971959710
  - # 8
    frequency:    2.6248304328
  - # 9
    frequency:    2.6327664387
  - # 10
    frequency:    3.8295858943
  - # 11
    frequency:    4.9076508826
  - # 12
    frequency:    6.8391912686
  - # 13
    frequency:    6.8442239579
  - # 14
    frequency:    6.9883047496
  - # 15
    frequency:    6.9955308097
  - # 16
    frequency:    7.8032634127
  - # 17
    frequency:    8.2014230561
  - # 18
    frequency:    8.2371393274
  - # 19
    frequency:   12.0385387115
  - # 20
    frequency:   41.2621721052
  - # 21
    frequency:   41.5008197694

- q-position: [    0.0202020,    0.0000000,    0.0000000 ]
  distance:    0.0065190
  band:
  - # 1
    frequency:   -0.2249613224
  - # 2
    frequency:   -0.0295602572
  - # 3
    frequency:    0.2101130548
  - # 4
    frequency:    1.2919957296
  - # 5
    frequency:    1.3167611023
  - # 6
    frequency:    1.5779123942
  - # 7
    frequency:    1.5973759043
  - # 8
    frequency:    2.6285408104
  - # 9
    frequency:    2.6425210700
  - # 10
    frequency:    3.8409484179
  - # 11
    frequency:    4.9069652820
  - # 12
    frequency:    6.8349373954
  - # 13
    frequency:    6.8438583420
  - # 14
    frequency:    6.9889436776
  - # 15
    frequency:    7.0016079597
  - # 16
    frequency:    7.7941590237
  - # 17
    frequency:    8.2013774352
  - # 18
    frequency:    8.2629115657
  - # 19
    frequency:   12.0361972258
  - # 20
    frequency:   41.2579004396
  - # 21
    frequency:   41.4955514057

- q-position: [    0.0252525,    0.0000000,    0.0000000 ]
  distance:    0.0081488
  band:
  - # 1
    frequency:   -0.2798745298
  - # 2
    frequency:   -0.0461062970
  - # 3
    frequency:    0.2628873748
  - # 4
    frequency:    1.2986563735
  - # 5
    frequency:    1.3369530769
  - # 6
    frequency:    1.5670938614
  - # 7
    frequency:    1.5981934712
  - # 8
    frequency:    2.6332221763
  - # 9
    frequency:    2.6548231667
  - # 10
    frequency:    3.8554674443
  - # 11
    frequency:    4.9060808597
  - # 12
    frequency:    6.8294665157
  - # 13
    frequency:    6.8433883813
  - # 14
    frequency:    6.9897166075
  - # 15
    frequency:    7.0091878456
  - # 16
    frequency:    7.7844442130
  - # 17
    frequency:    8.2013495341
  - # 18
    frequency:    8.2941833812
  - # 19
    frequency:   12.0331996149
  - # 20
    frequency:   41.2524173682
  - # 21
    frequency:   41.4887902798

- q-position: [    0.0303030,    0.0000000,    0.0000000 ]
  distance:    0.0097786
  band:
  - # 1
    frequency:   -0.3340324631
  - # 2
    frequency:   -0.0661567546
  - # 3
    frequency:    0.3157710790
  - # 4
    frequency:    1.3063848342
  - # 5
    frequency:    1.3608863966
  - # 6
    frequency:    1.5541171300
  - # 7
    frequency:    1.6000276183
  - # 8
    frequency:    2.6388142268
  - # 9
    frequency:    2.6695206109
  - # 10
    frequency:    3.8730765589
  - # 11
    frequency:    4.9049954926
  - # 12
    frequency:    6.8227389270
  - # 13
    frequency:    6.8428124727
  - # 14
    frequency:    6.9905893356
  - # 15
    frequency:    7.0181562969
  - # 16
    frequency:    7.7749451185
  - # 17
    frequency:    8.2013621538
  - # 18
    frequency:    8.3302028258
  - # 19
    frequency:   12.0295554962
  - # 20
    frequency:   41.2457296693
  - # 21
    frequency:   41.4805457208

- q-position: [    0.0353535,    0.0000000,    0.0000000 ]
  distance:    0.0114083
  band:
  - # 1
    frequency:   -0.3873921369
  - # 2
    frequency:   -0.0895137733
  - # 3
    frequency:    0.3687352591
  - # 4
    frequency:    1.3149634638
  - # 5
    frequency:    1.3882134068
  - # 6
    frequency:    1.5391378273
  - # 7
    frequency:    1.6032792524
  - # 8
    frequency:    2.6452496219
  - # 9
    frequency:    2.6864528286
  - # 10
    frequency:    3.8936957621
  - # 11
    frequency:    4.9037066728
  - # 12
    frequency:    6.8146895433
  - # 13
    frequency:    6.8421270339
  - # 14
    frequency:    6.9915222661
  - # 15
    frequency:    7.0284138090
  - # 16
    frequency:    7.7663230838
  - # 17
    frequency:    8.2014428535
  - # 18
    frequency:    8.3703774352
  - # 19
    frequency:   12.0252765840
  - # 20
    frequency:   41.2378456000
  - # 21
    frequency:   41.4708290932

- q-position: [    0.0404040,    0.0000000,    0.0000000 ]
  distance:    0.0130381
  band:
  - # 1
    frequency:   -0.4399482311
  - # 2
    frequency:   -0.1158895306
  - # 3
    frequency:    0.4217283430
  - # 4
    frequency:    1.3241398205
  - # 5
    frequency:    1.4185907282
  - # 6
    frequency:    1.5223594678
  - # 7
    frequency:    1.6083414890
  - # 8
    frequency:    2.6524567442
  - # 9
    frequency:    2.7054601691
  - # 10
    frequency:    3.9172321929
  - # 11
    frequency:    4.9022115583
  - # 12
    frequency:    6.8052361709
  - # 13
    frequency:    6.8413258329
  - # 14
    frequency:    6.9924714474
  - # 15
    frequency:    7.0398789115
  - # 16
    frequency:    7.7590793784
  - # 17
    frequency:    8.2016237463
  - # 18
    frequency:    8.4142588324
  - # 19
    frequency:   12.0203766654
  - # 20
    frequency:   41.2287748806
  - # 21
    frequency:   41.4596537739

- q-position: [    0.0454545,    0.0000000,    0.0000000 ]
  distance:    0.0146678
  band:
  - # 1
    frequency:   -0.4917280623
  - # 2
    frequency:   -0.1449055508
  - # 3
    frequency:    0.4746764024
  - # 4
    frequency:    1.3335974667
  - # 5
    frequency:    1.4516915592
  - # 6
    frequency:    1.5040669130
  - # 7
    frequency:    1.6155725666
  - # 8
    frequency:    2.6603622544
  - # 9
    frequency:    2.7263915774
  - # 10
    frequency:    3.9435809841
  - # 11
    frequency:    4.9005070325
  - # 12
    frequency:    6.7942917650
  - # 13
    frequency:    6.8403994030
  - # 14
    frequency:    6.9933896033
  - # 15
    frequency:    7.0524872318
  - # 16
    frequency:    7.7535749444
  - # 17
    frequency:    8.2019412407
  - # 18
    frequency:    8.4615127694
  - # 19
    frequency:   12.0148715706
  - # 20
    frequency:   41.2185286753
  - # 21
    frequency:   41.4470351263

- q-position: [    0.0505051,    0.0000000,    0.0000000 ]
  distance:    0.0162976
  band:
  - # 1
    frequency:   -0.5427854397
  - # 2
    frequency:   -0.1761020921
  - # 3
    frequency:    0.5274849482
  - # 4
    frequency:    1.3428758213
  - # 5
    frequency:    1.4847086003
  - # 6
    frequency:    1.4872065837
  - # 7
    frequency:    1.6252780834
  - # 8
    frequency:    2.6688933059
  - # 9
    frequency:    2.7491102269
  - # 10
    frequency:    3.9726262312
  - # 11
    frequency:    4.8985897723
  - # 12
    frequency:    6.7817776289
  - # 13
    frequency:    6.8393345840
  - # 14
    frequency:    6.9942271202
  - # 15
    frequency:    7.0661881181
  - # 16
    frequency:    7.7500517845
  - # 17
    frequency:    8.2024357219
  - # 18
    frequency:    8.5118891532
  - # 19
    frequency:   12.0087791388
  - # 20
    frequency:   41.2071195703
  - # 21
    frequency:   41.4329904695

- q-position: [    0.0555556,    0.0000000,    0.0000000 ]
  distance:    0.0179274
  band:
  - # 1
    frequency:   -0.5931941737
  - # 2
    frequency:   -0.2089563011
  - # 3
    frequency:    0.5800420252
  - # 4
    frequency:    1.3511582362
  - # 5
    frequency:    1.4651086447
  - # 6
    frequency:    1.5248239968
  - # 7
    frequency:    1.6377151691
  - # 8
    frequency:    2.6779793448
  - # 9
    frequency:    2.7734970926
  - # 10
    frequency:    4.0042420518
  - # 11
    frequency:    4.8964563240
  - # 12
    frequency:    6.7676351056
  - # 13
    frequency:    6.8381142206
  - # 14
    frequency:    6.9949329672
  - # 15
    frequency:    7.0809402392
  - # 16
    frequency:    7.7486520369
  - # 17
    frequency:    8.2031511657
  - # 18
    frequency:    8.5651970219
  - # 19
    frequency:   12.0021191783
  - # 20
    frequency:   41.1945615492
  - # 21
    frequency:   41.4175390445

- q-position: [    0.0606061,    0.0000000,    0.0000000 ]
  distance:    0.0195571
  band:
  - # 1
    frequency:   -0.6430417427
  - # 2
    frequency:   -0.2429064372
  - # 3
    frequency:    0.6322223098
  - # 4
    frequency:    1.3567304874
  - # 5
    frequency:    1.4470069837
  - # 6
    frequency:    1.5641622446
  - # 7
    frequency:    1.6531480889
  - # 8
    frequency:    2.6875534716
  - # 9
    frequency:    2.7994526656
  - # 10
    frequency:    4.0382937001
  - # 11
    frequency:    4.8941031899
  - # 12
    frequency:    6.7518341318
  - # 13
    frequency:    6.8367170276
  - # 14
    frequency:    6.9954555391
  - # 15
    frequency:    7.0967071278
  - # 16
    frequency:    7.7494346925
  - # 17
    frequency:    8.2041346795
  - # 18
    frequency:    8.6212851678
  - # 19
    frequency:   11.9949134210
  - # 20
    frequency:   41.1808699657
  - # 21
    frequency:   41.4007019762

- q-position: [    0.0656566,    0.0000000,    0.0000000 ]
  distance:    0.0211869
  band:
  - # 1
    frequency:   -0.6924234003
  - # 2
    frequency:   -0.2773785663
  - # 3
    frequency:    0.6838918543
  - # 4
    frequency:    1.3561016125
  - # 5
    frequency:    1.4339359630
  - # 6
    frequency:    1.6045737339
  - # 7
    frequency:    1.6720392034
  - # 8
    frequency:    2.6975533866
  - # 9
    frequency:    2.8268971141
  - # 10
    frequency:    4.0746387019
  - # 11
    frequency:    4.8915269246
  - # 12
    frequency:    6.7343779082
  - # 13
    frequency:    6.8351176250
  - # 14
    frequency:    6.9957434251
  - # 15
    frequency:    7.1134532691
  - # 16
    frequency:    7.7523908331
  - # 17
    frequency:    8.2054359656
  - # 18
    frequency:    8.6800276510
  - # 19
    frequency:   11.9871854714
  - # 20
    frequency:   41.1660615138
  - # 21
    frequency:   41.3825022326

- q-position: [    0.0707071,    0.0000000,    0.0000000 ]
  distance:    0.0228166
  band:
  - # 1
    frequency:   -0.7414368600
  - # 2
    frequency:   -0.3118119516
  - # 3
    frequency:    0.7349131077
  - # 4
    frequency:    1.3454235536
  - # 5
    frequency:    1.4297971573
  - # 6
    frequency:    1.6445987858
  - # 7
    frequency:    1.6955967047
  - # 8
    frequency:    2.7079219616
  - # 9
    frequency:    2.8557692370
  - # 10
    frequency:    4.1131279663
  - # 11
    frequency:    4.8887242469
  - # 12
    frequency:    6.7153037505
  - # 13
    frequency:    6.8332867339
  - # 14
    frequency:    6.9957461077
  - # 15
    frequency:    7.1311410581
  - # 16
    frequency:    7.7574580094
  - # 17
    frequency:    8.2071067049
  - # 18
    frequency:    8.7413131818
  - # 19
    frequency:   11.9789607486
  - # 20
    frequency:   41.1501541946
  - # 21
    frequency:   41.3629645801

- q-position: [    0.0757576,    0.0000000,    0.0000000 ]
  distance:    0.0244464
  band:
  - # 1
    frequency:   -0.7901776194
  - # 2
    frequency:   -0.3456800144
  - # 3
    frequency:    0.7851498593
  - # 4
    frequency:    1.3255683063
  - # 5
    frequency:    1.4337798823
  - # 6
    frequency:    1.6812192062
  - # 7
    frequency:    1.7265289216
  - # 8
    frequency:    2.7186074999
  - # 9
    frequency:    2.8860245371
  - # 10
    frequency:    4.1536068334
  - # 11
    frequency:    4.8856921703
  - # 12
    frequency:    6.6946808026
  - # 13
    frequency:    6.8311915198
  - # 14
    frequency:    6.9954146042
  - # 15
    frequency:    7.1497287412
  - # 16
    frequency:    7.7645338526
  - # 17
    frequency:    8.2091998624
  - # 18
    frequency:    8.8050374666
  - # 19
    frequency:   11.9702664225
  - # 20
    frequency:   41.1331672818
  - # 21
    frequency:   41.3421155356

- q-position: [    0.0808081,    0.0000000,    0.0000000 ]
  distance:    0.0260762
  band:
  - # 1
    frequency:   -0.8387349577
  - # 2
    frequency:   -0.3785049619
  - # 3
    frequency:    0.8344717879
  - # 4
    frequency:    1.3002040543
  - # 5
    frequency:    1.4422800153
  - # 6
    frequency:    1.7122862465
  - # 7
    frequency:    1.7666285106
  - # 8
    frequency:    2.7295637456
  - # 9
    frequency:    2.9176327076
  - # 10
    frequency:    4.1959160171
  - # 11
    frequency:    4.8824281643
  - # 12
    frequency:    6.6726056333
  - # 13
    frequency:    6.8287960667
  - # 14
    frequency:    6.9947020576
  - # 15
    frequency:    7.1691693012
  - # 16
    frequency:    7.7734886298
  - # 17
    frequency:    8.2117689184
  - # 18
    frequency:    8.8710978106
  - # 19
    frequency:   11.9611313421
  - # 20
    frequency:   41.1151212835
  - # 21
    frequency:   41.3199833161

- q-position: [    0.0858586,    0.0000000,    0.0000000 ]
  distance:    0.0277059
  band:
  - # 1
    frequency:   -0.8871886453
  - # 2
    frequency:   -0.4098655796
  - # 3
    frequency:    0.8827583547
  - # 4
    frequency:    1.2716667962
  - # 5
    frequency:    1.4530226687
  - # 6
    frequency:    1.7398394454
  - # 7
    frequency:    1.8134677538
  - # 8
    frequency:    2.7407497018
  - # 9
    frequency:    2.9505747782
  - # 10
    frequency:    4.2398923973
  - # 11
    frequency:    4.8789303616
  - # 12
    frequency:    6.6491967946
  - # 13
    frequency:    6.8260619622
  - # 14
    frequency:    6.9935642854
  - # 15
    frequency:    7.1894101541
  - # 16
    frequency:    7.7841763195
  - # 17
    frequency:    8.2148670347
  - # 18
    frequency:    8.9393894433
  - # 19
    frequency:   11.9515859563
  - # 20
    frequency:   41.0960379025
  - # 21
    frequency:   41.2965977847

- q-position: [    0.0909091,    0.0000000,    0.0000000 ]
  distance:    0.0293357
  band:
  - # 1
    frequency:   -0.9356064091
  - # 2
    frequency:   -0.4393988417
  - # 3
    frequency:    0.9299018469
  - # 4
    frequency:    1.2410151242
  - # 5
    frequency:    1.4650010926
  - # 6
    frequency:    1.7661196013
  - # 7
    frequency:    1.8643996794
  - # 8
    frequency:    2.7521293113
  - # 9
    frequency:    2.9848401250
  - # 10
    frequency:    4.2853696137
  - # 11
    frequency:    4.8751978424
  - # 12
    frequency:    6.6245892650
  - # 13
    frequency:    6.8229489749
  - # 14
    frequency:    6.9919602878
  - # 15
    frequency:    7.2103934828
  - # 16
    frequency:    7.7964438504
  - # 17
    frequency:    8.2185461717
  - # 18
    frequency:    9.0098031651
  - # 19
    frequency:   11.9416622276
  - # 20
    frequency:   41.0759399938
  - # 21
    frequency:   41.2719903947

- q-position: [    0.0959596,    0.0000000,    0.0000000 ]
  distance:    0.0309654
  band:
  - # 1
    frequency:   -0.9840421995
  - # 2
    frequency:   -0.4667966840
  - # 3
    frequency:    0.9758094633
  - # 4
    frequency:    1.2087203096
  - # 5
    frequency:    1.4777796836
  - # 6
    frequency:    1.7919252997
  - # 7
    frequency:    1.9182141545
  - # 8
    frequency:    2.7636710430
  - # 9
    frequency:    3.0204235112
  - # 10
    frequency:    4.3321783914
  - # 11
    frequency:    4.8712310507
  - # 12
    frequency:    6.5989294315
  - # 13
    frequency:    6.8194158020
  - # 14
    frequency:    6.9898527141
  - # 15
    frequency:    7.2320570293
  - # 16
    frequency:    7.8101383284
  - # 17
    frequency:    8.2228561721
  - # 18
    frequency:    9.0822240061
  - # 19
    frequency:   11.9313935358
  - # 20
    frequency:   41.0548515197
  - # 21
    frequency:   41.2461941311

- q-position: [    0.1010101,    0.0000000,    0.0000000 ]
  distance:    0.0325952
  band:
  - # 1
    frequency:   -1.0325352832
  - # 2
    frequency:   -0.4917994870
  - # 3
    frequency:    1.0204044214
  - # 4
    frequency:    1.1749857937
  - # 5
    frequency:    1.4911670174
  - # 6
    frequency:    1.8173854847
  - # 7
    frequency:    1.9743757148
  - # 8
    frequency:    2.7753474216
  - # 9
    frequency:    3.0573222913
  - # 10
    frequency:    4.3801464853
  - # 11
    frequency:    4.8670324478
  - # 12
    frequency:    6.5723709864
  - # 13
    frequency:    6.8154208702
  - # 14
    frequency:    6.9872082803
  - # 15
    frequency:    7.2543351906
  - # 16
    frequency:    7.8251122722
  - # 17
    frequency:    8.2278438375
  - # 18
    frequency:    9.1565306543
  - # 19
    frequency:   11.9208145747
  - # 20
    frequency:   41.0327975029
  - # 21
    frequency:   41.2192434496

- q-position: [    0.1060606,    0.0000000,    0.0000000 ]
  distance:    0.0342250
  band:
  - # 1
    frequency:   -1.0811101539
  - # 2
    frequency:   -0.5141876605
  - # 3
    frequency:    1.0636261539
  - # 4
    frequency:    1.1398699097
  - # 5
    frequency:    1.5050850523
  - # 6
    frequency:    1.8424080966
  - # 7
    frequency:    2.0325829102
  - # 8
    frequency:    2.7871345271
  - # 9
    frequency:    3.0955338820
  - # 10
    frequency:    4.4290980289
  - # 11
    frequency:    4.8626076153
  - # 12
    frequency:    6.5450718760
  - # 13
    frequency:    6.8109231667
  - # 14
    frequency:    6.9839981285
  - # 15
    frequency:    7.2771602882
  - # 16
    frequency:    7.8412270394
  - # 17
    frequency:    8.2335520232
  - # 18
    frequency:    9.2325954568
  - # 19
    frequency:   11.9099612379
  - # 20
    frequency:   41.0098039773
  - # 21
    frequency:   41.1911742142

- q-position: [    0.1111111,    0.0000000,    0.0000000 ]
  distance:    0.0358547
  band:
  - # 1
    frequency:   -1.1297771953
  - # 2
    frequency:   -0.5337723856
  - # 3
    frequency:    1.1033326901
  - # 4
    frequency:    1.1054297299
  - # 5
    frequency:    1.5195135180
  - # 6
    frequency:    1.8668400884
  - # 7
    frequency:    2.0926139978
  - # 8
    frequency:    2.7990114854
  - # 9
    frequency:    3.1350535752
  - # 10
    frequency:    4.4788518257
  - # 11
    frequency:    4.8579672716
  - # 12
    frequency:    6.5171922795
  - # 13
    frequency:    6.8058830838
  - # 14
    frequency:    6.9801981149
  - # 15
    frequency:    7.3004639181
  - # 16
    frequency:    7.8583547227
  - # 17
    frequency:    8.2400187804
  - # 18
    frequency:    9.3102848352
  - # 19
    frequency:   11.8988704963
  - # 20
    frequency:   40.9858979365
  - # 21
    frequency:   41.1620236332

- q-position: [    0.1161616,    0.0000000,    0.0000000 ]
  distance:    0.0374845
  band:
  - # 1
    frequency:   -1.1785339854
  - # 2
    frequency:   -0.5503861736
  - # 3
    frequency:    1.0652523183
  - # 4
    frequency:    1.1457846819
  - # 5
    frequency:    1.5344636153
  - # 6
    frequency:    1.8905248750
  - # 7
    frequency:    2.1542732436
  - # 8
    frequency:    2.8109599671
  - # 9
    frequency:    3.1758727365
  - # 10
    frequency:    4.5292174878
  - # 11
    frequency:    4.8531312987
  - # 12
    frequency:    6.4888935008
  - # 13
    frequency:    6.8002632577
  - # 14
    frequency:    6.9757890141
  - # 15
    frequency:    7.3241783113
  - # 16
    frequency:    7.8763788334
  - # 17
    frequency:    8.2472765752
  - # 18
    frequency:    9.3894599864
  - # 19
    frequency:   11.8875802656
  - # 20
    frequency:   40.9611072801
  - # 21
    frequency:   41.1318301941

- q-position: [    0.1212121,    0.0000000,    0.0000000 ]
  distance:    0.0391142
  band:
  - # 1
    frequency:   -1.2273670788
  - # 2
    frequency:   -0.5638735434
  - # 3
    frequency:    1.0254275679
  - # 4
    frequency:    1.1846734343
  - # 5
    frequency:    1.5499640342
  - # 6
    frequency:    1.9133235210
  - # 7
    frequency:    2.2173718777
  - # 8
    frequency:    2.8229637044
  - # 9
    frequency:    3.2179774065
  - # 10
    frequency:    4.5799864985
  - # 11
    frequency:    4.8481377123
  - # 12
    frequency:    6.4603376199
  - # 13
    frequency:    6.7940293815
  - # 14
    frequency:    6.9707566267
  - # 15
    frequency:    7.3482376530
  - # 16
    frequency:    7.8951940872
  - # 17
    frequency:    8.2553516130
  - # 18
    frequency:    9.4699777630
  - # 19
    frequency:   11.8761292642
  - # 20
    frequency:   40.9354607578
  - # 21
    frequency:   41.1006335970

- q-position: [    0.1262626,    0.0000000,    0.0000000 ]
  distance:    0.0407440
  band:
  - # 1
    frequency:   -1.2762540818
  - # 2
    frequency:   -0.5740818125
  - # 3
    frequency:    0.9835717443
  - # 4
    frequency:    1.2220895202
  - # 5
    frequency:    1.5660526052
  - # 6
    frequency:    1.9351218437
  - # 7
    frequency:    2.2817218659
  - # 8
    frequency:    2.8350080347
  - # 9
    frequency:    3.2613472877
  - # 10
    frequency:    4.6309091446
  - # 11
    frequency:    4.8430656385
  - # 12
    frequency:    6.4316877487
  - # 13
    frequency:    6.7871509770
  - # 14
    frequency:    6.9650917833
  - # 15
    frequency:    7.3725793264
  - # 16
    frequency:    7.9147055736
  - # 17
    frequency:    8.2642632907
  - # 18
    frequency:    9.5516916516
  - # 19
    frequency:   11.8645568625
  - # 20
    frequency:   40.9089879111
  - # 21
    frequency:   41.0684746891

- q-position: [    0.1313131,    0.0000000,    0.0000000 ]
  distance:    0.0423738
  band:
  - # 1
    frequency:   -1.3251658274
  - # 2
    frequency:   -0.5808517349
  - # 3
    frequency:    0.9392988741
  - # 4
    frequency:    1.2580357438
  - # 5
    frequency:    1.5827707631
  - # 6
    frequency:    1.9558316080
  - # 7
    frequency:    2.3471346107
  - # 8
    frequency:    2.8470794767
  - # 9
    frequency:    3.3059550734
  - # 10
    frequency:    4.6816229214
  - # 11
    frequency:    4.8381067060
  - # 12
    frequency:    6.4031087510
  - # 13
    frequency:    6.7796021062
  - # 14
    frequency:    6.9587902408
  - # 15
    frequency:    7.3971450510
  - # 16
    frequency:    7.9348275488
  - # 17
    frequency:    8.2740237974
  - # 18
    frequency:    9.6344527831
  - # 19
    frequency:   11.8529029235
  - # 20
    frequency:   40.8817190121
  - # 21
    frequency:   41.0353953980

- q-position: [    0.1363636,    0.0000000,    0.0000000 ]
  distance:    0.0440035
  band:
  - # 1
    frequency:   -1.3740684805
  - # 2
    frequency:   -0.5840074597
  - # 3
    frequency:    0.8920997386
  - # 4
    frequency:    1.2925224068
  - # 5
    frequency:    1.6001595667
  - # 6
    frequency:    1.9753891756
  - # 7
    frequency:    2.4134214718
  - # 8
    frequency:    2.8591653420
  - # 9
    frequency:    3.3517660521
  - # 10
    frequency:    4.7313564240
  - # 11
    frequency:    4.8338608616
  - # 12
    frequency:    6.3747683126
  - # 13
    frequency:    6.7713620045
  - # 14
    frequency:    6.9518524753
  - # 15
    frequency:    7.4218818946
  - # 16
    frequency:    7.9554820426
  - # 17
    frequency:    8.2846378740
  - # 18
    frequency:    9.7181109275
  - # 19
    frequency:   11.8412076368
  - # 20
    frequency:   40.8536849998
  - # 21
    frequency:   41.0014386672

- q-position: [    0.1414141,    0.0000000,    0.0000000 ]
  distance:    0.0456333
  band:
  - # 1
    frequency:   -1.4229254376
  - # 2
    frequency:   -0.5833449688
  - # 3
    frequency:    0.8413016406
  - # 4
    frequency:    1.3255656819
  - # 5
    frequency:    1.6182566969
  - # 6
    frequency:    1.9937531066
  - # 7
    frequency:    2.4803948174
  - # 8
    frequency:    2.8712533850
  - # 9
    frequency:    3.3987378953
  - # 10
    frequency:    4.7770295969
  - # 11
    frequency:    4.8332357650
  - # 12
    frequency:    6.3468382668
  - # 13
    frequency:    6.7624156214
  - # 14
    frequency:    6.9442833824
  - # 15
    frequency:    7.4467431385
  - # 16
    frequency:    7.9765974289
  - # 17
    frequency:    8.2961027374
  - # 18
    frequency:    9.8025154353
  - # 19
    frequency:   11.8295113468
  - # 20
    frequency:   40.8249174131
  - # 21
    frequency:   40.9666483921

- q-position: [    0.1464646,    0.0000000,    0.0000000 ]
  distance:    0.0472630
  band:
  - # 1
    frequency:   -1.4716989299
  - # 2
    frequency:   -0.5786176739
  - # 3
    frequency:    0.7859992267
  - # 4
    frequency:    1.3571861759
  - # 5
    frequency:    1.6370941566
  - # 6
    frequency:    2.0109014251
  - # 7
    frequency:    2.5478690765
  - # 8
    frequency:    2.8833314920
  - # 9
    frequency:    3.4468205298
  - # 10
    frequency:    4.8026253066
  - # 11
    frequency:    4.8520748421
  - # 12
    frequency:    6.3194960985
  - # 13
    frequency:    6.7527540506
  - # 14
    frequency:    6.9360919024
  - # 15
    frequency:    7.4716889820
  - # 16
    frequency:    7.9981070685
  - # 17
    frequency:    8.3084081644
  - # 18
    frequency:    9.8875161027
  - # 19
    frequency:   11.8178543802
  - # 20
    frequency:   40.7954483196
  - # 21
    frequency:   40.9310693599

- q-position: [    0.1515152,    0.0000000,    0.0000000 ]
  distance:    0.0488928
  band:
  - # 1
    frequency:   -1.5203512884
  - # 2
    frequency:   -0.5695170259
  - # 3
    frequency:    0.7249292687
  - # 4
    frequency:    1.3874077031
  - # 5
    frequency:    1.6566965437
  - # 6
    frequency:    2.0268288917
  - # 7
    frequency:    2.6156615986
  - # 8
    frequency:    2.8953874108
  - # 9
    frequency:    3.4959559814
  - # 10
    frequency:    4.8036844948
  - # 11
    frequency:    4.8946618125
  - # 12
    frequency:    6.2929265480
  - # 13
    frequency:    6.7423748383
  - # 14
    frequency:    6.9272905936
  - # 15
    frequency:    7.4966870746
  - # 16
    frequency:    8.0199481027
  - # 17
    frequency:    8.3215367271
  - # 18
    frequency:    9.9729639398
  - # 19
    frequency:   11.8062768746
  - # 20
    frequency:   40.7653102396
  - # 21
    frequency:   40.8947471929
