nqpoint: 300    
npath: 3      
segment_nqpoint:
- 100
- 100
- 100
labels:
- [ 'G', 'M' ]
- [ 'M', 'K' ]
- [ 'K', 'G' ]
reciprocal_lattice:
- [   0.29963622,   0.17299505,   0.00000000 ] # a*
- [   0.00000000,   0.34599010,   0.00000000 ] # b*
- [   0.00000000,   0.00000000,   0.04127806 ] # c*
natom: 6      
lattice:
- [     3.337380249392129,     0.000000000000000,     0.000000000000000 ] # a
- [    -1.668690124696065,     2.890256078057384,     0.000000000000000 ] # b
- [     0.000000000000000,     0.000000000000000,    24.225946792567054 ] # c
points:
- symbol: C # 1
  coordinates: [  0.000000000000000,  0.000000000000000,  0.468433448325487 ]
  mass: 12.010700
- symbol: N # 2
  coordinates: [  0.333332985432215,  0.666666983183674,  0.574543822250046 ]
  mass: 14.006700
- symbol: O # 3
  coordinates: [  0.333332985432215,  0.666666983183674,  0.628497491674449 ]
  mass: 15.999400
- symbol: O # 4
  coordinates: [  0.666666984744047,  0.333332985985145,  0.371502508325551 ]
  mass: 15.999400
- symbol: Zr # 5
  coordinates: [  0.333332985432215,  0.666666983183674,  0.410094334314641 ]
  mass: 91.224000
- symbol: Zr # 6
  coordinates: [  0.666666984744047,  0.333332985985145,  0.523328097051146 ]
  mass: 91.224000

phonon:
- q-position: [    0.0000000,    0.0000000,    0.0000000 ]
  distance:    0.0000000
  band:
  - # 1
    frequency:  -10.0102807456
  - # 2
    frequency:  -10.0102807456
  - # 3
    frequency:   -0.0000144391
  - # 4
    frequency:    0.0000002202
  - # 5
    frequency:    0.0000112299
  - # 6
    frequency:    3.7128337353
  - # 7
    frequency:    3.7128337353
  - # 8
    frequency:    4.4694270107
  - # 9
    frequency:    4.4694270107
  - # 10
    frequency:    6.1669783528
  - # 11
    frequency:    8.2111421603
  - # 12
    frequency:    9.5997879057
  - # 13
    frequency:    9.5997879057
  - # 14
    frequency:   13.8432934742
  - # 15
    frequency:   13.8432934742
  - # 16
    frequency:   14.6142526173
  - # 17
    frequency:   18.4590732462
  - # 18
    frequency:   41.3334273891

- q-position: [    0.0050505,    0.0000000,    0.0000000 ]
  distance:    0.0017474
  band:
  - # 1
    frequency:  -10.0087238744
  - # 2
    frequency:  -10.0058380079
  - # 3
    frequency:    0.0017001800
  - # 4
    frequency:    0.0650405380
  - # 5
    frequency:    0.1294371525
  - # 6
    frequency:    3.7129226753
  - # 7
    frequency:    3.7142106354
  - # 8
    frequency:    4.4690194750
  - # 9
    frequency:    4.4693264062
  - # 10
    frequency:    6.1667382196
  - # 11
    frequency:    8.2058279539
  - # 12
    frequency:    9.6000347087
  - # 13
    frequency:    9.6044624542
  - # 14
    frequency:   13.8433269870
  - # 15
    frequency:   13.8437336396
  - # 16
    frequency:   14.6138682783
  - # 17
    frequency:   18.4590548582
  - # 18
    frequency:   41.3325766174

- q-position: [    0.0101010,    0.0000000,    0.0000000 ]
  distance:    0.0034948
  band:
  - # 1
    frequency:  -10.0040570695
  - # 2
    frequency:   -9.9925121043
  - # 3
    frequency:    0.0066802736
  - # 4
    frequency:    0.1300256542
  - # 5
    frequency:    0.2588373898
  - # 6
    frequency:    3.7131897098
  - # 7
    frequency:    3.7183291604
  - # 8
    frequency:    4.4677994135
  - # 9
    frequency:    4.4690271096
  - # 10
    frequency:    6.1660159168
  - # 11
    frequency:    8.1901598272
  - # 12
    frequency:    9.6007754702
  - # 13
    frequency:    9.6182167683
  - # 14
    frequency:   13.8434283489
  - # 15
    frequency:   13.8450604737
  - # 16
    frequency:   14.6127172884
  - # 17
    frequency:   18.4589981228
  - # 18
    frequency:   41.3300257317

- q-position: [    0.0151515,    0.0000000,    0.0000000 ]
  distance:    0.0052423
  band:
  - # 1
    frequency:   -9.9962917488
  - # 2
    frequency:   -9.9703099903
  - # 3
    frequency:    0.0149410618
  - # 4
    frequency:    0.1948999479
  - # 5
    frequency:    0.3881641721
  - # 6
    frequency:    3.7136354805
  - # 7
    frequency:    3.7251529619
  - # 8
    frequency:    4.4657744604
  - # 9
    frequency:    4.4685368000
  - # 10
    frequency:    6.1648057450
  - # 11
    frequency:    8.1649071584
  - # 12
    frequency:    9.6020112428
  - # 13
    frequency:    9.6402970584
  - # 14
    frequency:   13.8436000214
  - # 15
    frequency:   13.8472927970
  - # 16
    frequency:   14.6108057735
  - # 17
    frequency:   18.4588983478
  - # 18
    frequency:   41.3257790168

- q-position: [    0.0202020,    0.0000000,    0.0000000 ]
  distance:    0.0069897
  band:
  - # 1
    frequency:   -9.9854469122
  - # 2
    frequency:   -9.9392433497
  - # 3
    frequency:    0.0264252030
  - # 4
    frequency:    0.2596080591
  - # 5
    frequency:    0.5173817105
  - # 6
    frequency:    3.7142610531
  - # 7
    frequency:    3.7346220329
  - # 8
    frequency:    4.4629573322
  - # 9
    frequency:    4.4678687084
  - # 10
    frequency:    6.1630982428
  - # 11
    frequency:    8.1311962685
  - # 12
    frequency:    9.6037437654
  - # 13
    frequency:    9.6696033306
  - # 14
    frequency:   13.8438460786
  - # 15
    frequency:   13.8504613269
  - # 16
    frequency:   14.6081440986
  - # 17
    frequency:   18.4587477844
  - # 18
    frequency:   41.3198436032

- q-position: [    0.0252525,    0.0000000,    0.0000000 ]
  distance:    0.0087371
  band:
  - # 1
    frequency:   -9.9715490970
  - # 2
    frequency:   -9.8993287333
  - # 3
    frequency:    0.0410536521
  - # 4
    frequency:    0.3240946948
  - # 5
    frequency:    0.6464553435
  - # 6
    frequency:    3.7150679099
  - # 7
    frequency:    3.7466535002
  - # 8
    frequency:    4.4593658162
  - # 9
    frequency:    4.4670422868
  - # 10
    frequency:    6.1608802585
  - # 11
    frequency:    8.0903436799
  - # 12
    frequency:    9.6059754395
  - # 13
    frequency:    9.7048566301
  - # 14
    frequency:   13.8441721652
  - # 15
    frequency:   13.8546076858
  - # 16
    frequency:   14.6047471131
  - # 17
    frequency:   18.4585357331
  - # 18
    frequency:   41.3122294492

- q-position: [    0.0303030,    0.0000000,    0.0000000 ]
  distance:    0.0104845
  band:
  - # 1
    frequency:   -9.9546323152
  - # 2
    frequency:   -9.8505877590
  - # 3
    frequency:    0.0587272305
  - # 4
    frequency:    0.3883046596
  - # 5
    frequency:    0.7753519138
  - # 6
    frequency:    3.7160579397
  - # 7
    frequency:    3.7611426035
  - # 8
    frequency:    4.4550227539
  - # 9
    frequency:    4.4660841859
  - # 10
    frequency:    6.1581350823
  - # 11
    frequency:    8.0437110400
  - # 12
    frequency:    9.6087092970
  - # 13
    frequency:    9.7447447831
  - # 14
    frequency:   13.8445854367
  - # 15
    frequency:   13.8597829773
  - # 16
    frequency:   14.6006345243
  - # 17
    frequency:   18.4582486895
  - # 18
    frequency:   41.3029493180

- q-position: [    0.0353535,    0.0000000,    0.0000000 ]
  distance:    0.0122320
  band:
  - # 1
    frequency:   -9.9347379711
  - # 2
    frequency:   -9.7930473762
  - # 3
    frequency:    0.0793282901
  - # 4
    frequency:    0.4521828937
  - # 5
    frequency:    0.9040401444
  - # 6
    frequency:    3.7172334239
  - # 7
    frequency:    3.7779637403
  - # 8
    frequency:    4.4499560192
  - # 9
    frequency:    4.4650295828
  - # 10
    frequency:    6.1548426732
  - # 11
    frequency:    7.9926062989
  - # 12
    frequency:    9.6119489581
  - # 13
    frequency:    9.7880220082
  - # 14
    frequency:   13.8450944849
  - # 15
    frequency:   13.8660458940
  - # 16
    frequency:   14.5958314313
  - # 17
    frequency:   18.4578705266
  - # 18
    frequency:   41.2920187468

- q-position: [    0.0404040,    0.0000000,    0.0000000 ]
  distance:    0.0139794
  band:
  - # 1
    frequency:   -9.9119147601
  - # 2
    frequency:   -9.7267402033
  - # 3
    frequency:    0.1027225248
  - # 4
    frequency:    0.5156745205
  - # 5
    frequency:    1.0324910129
  - # 6
    frequency:    3.7185970162
  - # 7
    frequency:    3.7969714356
  - # 8
    frequency:    4.4441984889
  - # 9
    frequency:    4.4639239153
  - # 10
    frequency:    6.1509800236
  - # 11
    frequency:    7.9382313008
  - # 12
    frequency:    9.6156985809
  - # 13
    frequency:    9.8335621784
  - # 14
    frequency:   13.8457092451
  - # 15
    frequency:   13.8734603099
  - # 16
    frequency:   14.5903690672
  - # 17
    frequency:   18.4573827106
  - # 18
    frequency:   41.2794560100

- q-position: [    0.0454545,    0.0000000,    0.0000000 ]
  distance:    0.0157268
  band:
  - # 1
    frequency:   -9.8862185474
  - # 2
    frequency:   -9.6517049445
  - # 3
    frequency:    0.1287608518
  - # 4
    frequency:    0.5787249052
  - # 5
    frequency:    1.1606781201
  - # 6
    frequency:    3.7201517174
  - # 7
    frequency:    3.8180010820
  - # 8
    frequency:    4.4377880062
  - # 9
    frequency:    4.4628250920
  - # 10
    frequency:    6.1465217223
  - # 11
    frequency:    7.8816636923
  - # 12
    frequency:    9.6199628024
  - # 13
    frequency:    9.8803777539
  - # 14
    frequency:   13.8464408900
  - # 15
    frequency:   13.8820922933
  - # 16
    frequency:   14.5842858211
  - # 17
    frequency:   18.4567645463
  - # 18
    frequency:   41.2652820760

- q-position: [    0.0505051,    0.0000000,    0.0000000 ]
  distance:    0.0174742
  band:
  - # 1
    frequency:   -9.8577122249
  - # 2
    frequency:   -9.5679868991
  - # 3
    frequency:    0.1572812828
  - # 4
    frequency:    0.6412797275
  - # 5
    frequency:    1.2885780497
  - # 6
    frequency:    3.7219008432
  - # 7
    frequency:    3.8408692865
  - # 8
    frequency:    4.4307673346
  - # 9
    frequency:    4.4618062597
  - # 10
    frequency:    6.1414407807
  - # 11
    frequency:    7.8238592642
  - # 12
    frequency:    9.6247466708
  - # 13
    frequency:    9.9276181671
  - # 14
    frequency:   13.8473017061
  - # 15
    frequency:   13.8920064562
  - # 16
    frequency:   14.5776286354
  - # 17
    frequency:   18.4559934484
  - # 18
    frequency:   41.2495205571

- q-position: [    0.0555556,    0.0000000,    0.0000000 ]
  distance:    0.0192217
  band:
  - # 1
    frequency:   -9.8264655475
  - # 2
    frequency:   -9.4756385729
  - # 3
    frequency:    0.1881107228
  - # 4
    frequency:    0.7032850702
  - # 5
    frequency:    1.4161707086
  - # 6
    frequency:    3.7238479830
  - # 7
    frequency:    3.8653736716
  - # 8
    frequency:    4.4231840999
  - # 9
    frequency:    4.4609592145
  - # 10
    frequency:    6.1357098026
  - # 11
    frequency:    7.7656639518
  - # 12
    frequency:    9.6300555701
  - # 13
    frequency:    9.9745583155
  - # 14
    frequency:   13.8483049577
  - # 15
    frequency:   13.9032615278
  - # 16
    frequency:   14.5704549229
  - # 17
    frequency:   18.4550452326
  - # 18
    frequency:   41.2321976540

- q-position: [    0.0606061,    0.0000000,    0.0000000 ]
  distance:    0.0209691
  band:
  - # 1
    frequency:   -9.7925549459
  - # 2
    frequency:   -9.3747204092
  - # 3
    frequency:    0.2210666477
  - # 4
    frequency:    0.7646875253
  - # 5
    frequency:    1.5434396399
  - # 6
    frequency:    3.7259969514
  - # 7
    frequency:    3.8912919938
  - # 8
    frequency:    4.4150907192
  - # 9
    frequency:    4.4603985317
  - # 10
    frequency:    6.1293025758
  - # 11
    frequency:    7.7078286804
  - # 12
    frequency:    9.6358951373
  - # 13
    frequency:   10.0205838384
  - # 14
    frequency:   13.8494647354
  - # 15
    frequency:   13.9159049950
  - # 16
    frequency:   14.5628351997
  - # 17
    frequency:   18.4538944235
  - # 18
    frequency:   41.2133420933

- q-position: [    0.0656566,    0.0000000,    0.0000000 ]
  distance:    0.0227165
  band:
  - # 1
    frequency:   -9.7560633157
  - # 2
    frequency:   -9.2653016567
  - # 3
    frequency:    0.2559586355
  - # 4
    frequency:    0.8254343214
  - # 5
    frequency:    1.6703722908
  - # 6
    frequency:    3.7283517287
  - # 7
    frequency:    3.9183805073
  - # 8
    frequency:    4.4065443129
  - # 9
    frequency:    4.4602664442
  - # 10
    frequency:    6.1221961577
  - # 11
    frequency:    7.6510233654
  - # 12
    frequency:    9.6422711730
  - # 13
    frequency:   10.0651767255
  - # 14
    frequency:   13.8507957924
  - # 15
    frequency:   13.9299665849
  - # 16
    frequency:   14.5548567198
  - # 17
    frequency:   18.4525145742
  - # 18
    frequency:   41.1929850604

- q-position: [    0.0707071,    0.0000000,    0.0000000 ]
  distance:    0.0244639
  band:
  - # 1
    frequency:   -9.7170797829
  - # 2
    frequency:   -9.1474613940
  - # 3
    frequency:    0.2925897454
  - # 4
    frequency:    0.8854734741
  - # 5
    frequency:    1.7969602134
  - # 6
    frequency:    3.7309163940
  - # 7
    frequency:    3.9463716241
  - # 8
    frequency:    4.3976065956
  - # 9
    frequency:    4.4607383787
  - # 10
    frequency:    6.1143734997
  - # 11
    frequency:    7.5958483932
  - # 12
    frequency:    9.6491895454
  - # 13
    frequency:   10.1079028032
  - # 14
    frequency:   13.8523133691
  - # 15
    frequency:   13.9454502677
  - # 16
    frequency:   14.5466285095
  - # 17
    frequency:   18.4508785915
  - # 18
    frequency:   41.1711601255

- q-position: [    0.0757576,    0.0000000,    0.0000000 ]
  distance:    0.0262114
  band:
  - # 1
    frequency:   -9.6756994431
  - # 2
    frequency:   -9.0212897360
  - # 3
    frequency:    0.3307577594
  - # 4
    frequency:    0.9447539617
  - # 5
    frequency:    1.9231991684
  - # 6
    frequency:    3.7336950481
  - # 7
    frequency:    3.9749711794
  - # 8
    frequency:    4.3883437425
  - # 9
    frequency:    4.4620288082
  - # 10
    frequency:    6.1058266082
  - # 11
    frequency:    7.5428430723
  - # 12
    frequency:    9.6566560891
  - # 13
    frequency:   10.1484015208
  - # 14
    frequency:   13.8540330059
  - # 15
    frequency:   13.9623243153
  - # 16
    frequency:   14.5382883568
  - # 17
    frequency:   18.4489590646
  - # 18
    frequency:   41.1479031649

- q-position: [    0.0808081,    0.0000000,    0.0000000 ]
  distance:    0.0279588
  band:
  - # 1
    frequency:   -9.6320230751
  - # 2
    frequency:   -8.8868892466
  - # 3
    frequency:    0.3702563179
  - # 4
    frequency:    1.0032259278
  - # 5
    frequency:    2.0490890879
  - # 6
    frequency:    3.7366917297
  - # 7
    frequency:    4.0038560908
  - # 8
    frequency:    4.3788262248
  - # 9
    frequency:    4.4643966019
  - # 10
    frequency:    6.0965601644
  - # 11
    frequency:    7.4924911755
  - # 12
    frequency:    9.6646764997
  - # 13
    frequency:   10.1863779007
  - # 14
    frequency:   13.8559703471
  - # 15
    frequency:   13.9805087761
  - # 16
    frequency:   14.5300125024
  - # 17
    frequency:   18.4467285915
  - # 18
    frequency:   41.1232522770

- q-position: [    0.0858586,    0.0000000,    0.0000000 ]
  distance:    0.0297062
  band:
  - # 1
    frequency:   -9.5861568283
  - # 2
    frequency:   -8.7443765884
  - # 3
    frequency:    0.4108759958
  - # 4
    frequency:    1.0608409152
  - # 5
    frequency:    2.1746338411
  - # 6
    frequency:    3.7399103274
  - # 7
    frequency:    4.0326740037
  - # 8
    frequency:    4.3691286068
  - # 9
    frequency:    4.4681482467
  - # 10
    frequency:    6.0865954241
  - # 11
    frequency:    7.4452240352
  - # 12
    frequency:    9.6732562248
  - # 13
    frequency:   10.2215962823
  - # 14
    frequency:   13.8581409362
  - # 15
    frequency:   13.9998595422
  - # 16
    frequency:   14.5220289648
  - # 17
    frequency:   18.4441600994
  - # 18
    frequency:   41.0972476934

- q-position: [    0.0909091,    0.0000000,    0.0000000 ]
  distance:    0.0314536
  band:
  - # 1
    frequency:   -9.5382118826
  - # 2
    frequency:   -8.5938844371
  - # 3
    frequency:    0.4524053801
  - # 4
    frequency:    1.1175521291
  - # 5
    frequency:    2.2998407255
  - # 6
    frequency:    3.7433544908
  - # 7
    frequency:    4.0610476803
  - # 8
    frequency:    4.3593292988
  - # 9
    frequency:    4.4736361413
  - # 10
    frequency:    6.0759741058
  - # 11
    frequency:    7.4014218489
  - # 12
    frequency:    9.6824003531
  - # 13
    frequency:   10.2538754239
  - # 14
    frequency:   13.8605600044
  - # 15
    frequency:   14.0201481367
  - # 16
    frequency:   14.5146354784
  - # 17
    frequency:   18.4412271568
  - # 18
    frequency:   41.0699316844

- q-position: [    0.0959596,    0.0000000,    0.0000000 ]
  distance:    0.0332011
  band:
  - # 1
    frequency:   -9.4883040809
  - # 2
    frequency:   -8.4355636911
  - # 3
    frequency:    0.4946322135
  - # 4
    frequency:    1.1733147347
  - # 5
    frequency:    2.4247195799
  - # 6
    frequency:    3.7470275467
  - # 7
    frequency:    4.0885881493
  - # 8
    frequency:    4.3495102535
  - # 9
    frequency:    4.4812479091
  - # 10
    frequency:    6.0647618632
  - # 11
    frequency:    7.3614139652
  - # 12
    frequency:    9.6921135019
  - # 13
    frequency:   10.2830845471
  - # 14
    frequency:   13.8632422545
  - # 15
    frequency:   14.0410367917
  - # 16
    frequency:   14.5082225767
  - # 17
    frequency:   18.4379042735
  - # 18
    frequency:   41.0413484616

- q-position: [    0.1010101,    0.0000000,    0.0000000 ]
  distance:    0.0349485
  band:
  - # 1
    frequency:   -9.4365535357
  - # 2
    frequency:   -8.2695860018
  - # 3
    frequency:    0.5373446792
  - # 4
    frequency:    1.2280861865
  - # 5
    frequency:    2.5492813857
  - # 6
    frequency:    3.7509324284
  - # 7
    frequency:    4.1149210290
  - # 8
    frequency:    4.3397565975
  - # 9
    frequency:    4.4913822730
  - # 10
    frequency:    6.0530508712
  - # 11
    frequency:    7.3254789653
  - # 12
    frequency:    9.7023997056
  - # 13
    frequency:   10.3091399677
  - # 14
    frequency:   13.8662016408
  - # 15
    frequency:   14.0620501200
  - # 16
    frequency:   14.5033005884
  - # 17
    frequency:   18.4341671859
  - # 18
    frequency:   41.0115440748

- q-position: [    0.1060606,    0.0000000,    0.0000000 ]
  distance:    0.0366959
  band:
  - # 1
    frequency:   -9.3830842075
  - # 2
    frequency:   -8.0961466414
  - # 3
    frequency:    0.5803328973
  - # 4
    frequency:    1.2818265911
  - # 5
    frequency:    2.6735361756
  - # 6
    frequency:    3.7550716273
  - # 7
    frequency:    4.1397281961
  - # 8
    frequency:    4.3301561842
  - # 9
    frequency:    4.5044092968
  - # 10
    frequency:    6.0409610488
  - # 11
    frequency:    7.2938453201
  - # 12
    frequency:    9.7132623061
  - # 13
    frequency:   10.3320020291
  - # 14
    frequency:   13.8694511485
  - # 15
    frequency:   14.0825491953
  - # 16
    frequency:   14.5005247868
  - # 17
    frequency:   18.4299931268
  - # 18
    frequency:   40.9805663056

- q-position: [    0.1111111,    0.0000000,    0.0000000 ]
  distance:    0.0384433
  band:
  - # 1
    frequency:   -9.3280234586
  - # 2
    frequency:   -7.9154677108
  - # 3
    frequency:    0.6233907012
  - # 4
    frequency:    1.3344991003
  - # 5
    frequency:    2.7974900224
  - # 6
    frequency:    3.7594471783
  - # 7
    frequency:    4.1628004288
  - # 8
    frequency:    4.3207990555
  - # 9
    frequency:    4.5206193640
  - # 10
    frequency:    6.0286395396
  - # 11
    frequency:    7.2666932639
  - # 12
    frequency:    9.7247038461
  - # 13
    frequency:   10.3516721321
  - # 14
    frequency:   13.8730025739
  - # 15
    frequency:   14.1017227416
  - # 16
    frequency:   14.5007040045
  - # 17
    frequency:   18.4253610771
  - # 18
    frequency:   40.9484645577

- q-position: [    0.1161616,    0.0000000,    0.0000000 ]
  distance:    0.0401908
  band:
  - # 1
    frequency:   -9.2715015815
  - # 2
    frequency:   -7.7278016658
  - # 3
    frequency:    0.6663177477
  - # 4
    frequency:    1.3860703342
  - # 5
    frequency:    2.9211408058
  - # 6
    frequency:    3.7640606928
  - # 7
    frequency:    4.1840872305
  - # 8
    frequency:    4.3117767992
  - # 9
    frequency:    4.5401747478
  - # 10
    frequency:    6.0162582572
  - # 11
    frequency:    7.2441582990
  - # 12
    frequency:    9.7367259681
  - # 13
    frequency:   10.3681897258
  - # 14
    frequency:   13.8768663070
  - # 15
    frequency:   14.1186220422
  - # 16
    frequency:   14.5047660865
  - # 17
    frequency:   18.4202519997
  - # 18
    frequency:   40.9152897429

- q-position: [    0.1212121,    0.0000000,    0.0000000 ]
  distance:    0.0419382
  band:
  - # 1
    frequency:   -9.2136513042
  - # 2
    frequency:   -7.5334351025
  - # 3
    frequency:    0.7089219972
  - # 4
    frequency:    1.4365108271
  - # 5
    frequency:    3.0444723812
  - # 6
    frequency:    3.7689134529
  - # 7
    frequency:    4.2037243954
  - # 8
    frequency:    4.3031817878
  - # 9
    frequency:    4.5630833513
  - # 10
    frequency:    6.0040095571
  - # 11
    frequency:    7.2263364387
  - # 12
    frequency:    9.7493293196
  - # 13
    frequency:   10.3816291894
  - # 14
    frequency:   13.8810511208
  - # 15
    frequency:   14.1322695151
  - # 16
    frequency:   14.5136501807
  - # 17
    frequency:   18.4146490540
  - # 18
    frequency:   40.8810941653

- q-position: [    0.1262626,    0.0000000,    0.0000000 ]
  distance:    0.0436856
  band:
  - # 1
    frequency:   -9.1546072747
  - # 2
    frequency:   -7.3326926879
  - # 3
    frequency:    0.7510225702
  - # 4
    frequency:    1.4857954921
  - # 5
    frequency:    3.1674466682
  - # 6
    frequency:    3.7740065813
  - # 7
    frequency:    4.2220257235
  - # 8
    frequency:    4.2951062879
  - # 9
    frequency:    4.5892084811
  - # 10
    frequency:    5.9921003631
  - # 11
    frequency:    7.2132909806
  - # 12
    frequency:    9.7625134663
  - # 13
    frequency:   10.3920965847
  - # 14
    frequency:   13.8855639676
  - # 15
    frequency:   14.1418418949
  - # 16
    frequency:   14.5281248489
  - # 17
    frequency:   18.4085377918
  - # 18
    frequency:   40.8459314013

- q-position: [    0.1313131,    0.0000000,    0.0000000 ]
  distance:    0.0454330
  band:
  - # 1
    frequency:   -9.0945055263
  - # 2
    frequency:   -7.1259410493
  - # 3
    frequency:    0.7924529510
  - # 4
    frequency:    1.5339040968
  - # 5
    frequency:    3.2899930634
  - # 6
    frequency:    3.7793412985
  - # 7
    frequency:    4.2394413730
  - # 8
    frequency:    4.2876414344
  - # 9
    frequency:    4.6183126097
  - # 10
    frequency:    5.9807452893
  - # 11
    frequency:    7.2050603291
  - # 12
    frequency:    9.7762768156
  - # 13
    frequency:   10.3997262990
  - # 14
    frequency:   13.8904097861
  - # 15
    frequency:   14.1468617981
  - # 16
    frequency:   14.5485981170
  - # 17
    frequency:   18.4019063354
  - # 18
    frequency:   40.8098561785

- q-position: [    0.1363636,    0.0000000,    0.0000000 ]
  distance:    0.0471805
  band:
  - # 1
    frequency:   -9.0334829274
  - # 2
    frequency:   -6.9135923401
  - # 3
    frequency:    0.8330644622
  - # 4
    frequency:    1.5808217383
  - # 5
    frequency:    3.4119944477
  - # 6
    frequency:    3.7849192757
  - # 7
    frequency:    4.2564996603
  - # 8
    frequency:    4.2808760661
  - # 9
    frequency:    4.6501189831
  - # 10
    frequency:    5.9701594096
  - # 11
    frequency:    7.2016662110
  - # 12
    frequency:    9.7906165507
  - # 13
    frequency:   10.4046776245
  - # 14
    frequency:   13.8955913216
  - # 15
    frequency:   14.1472873522
  - # 16
    frequency:   14.5750296779
  - # 17
    frequency:   18.3947455379
  - # 18
    frequency:   40.7729242516

- q-position: [    0.1414141,    0.0000000,    0.0000000 ]
  distance:    0.0489279
  band:
  - # 1
    frequency:   -8.9716766186
  - # 2
    frequency:   -6.6961070835
  - # 3
    frequency:    0.8727298876
  - # 4
    frequency:    1.6265393074
  - # 5
    frequency:    3.5332689237
  - # 6
    frequency:    3.7907430827
  - # 7
    frequency:    4.2737515593
  - # 8
    frequency:    4.2748954347
  - # 9
    frequency:    4.6843727621
  - # 10
    frequency:    5.9605513218
  - # 11
    frequency:    7.2031215654
  - # 12
    frequency:    9.8055285772
  - # 13
    frequency:   10.4071313305
  - # 14
    frequency:   13.9011089618
  - # 15
    frequency:   14.1434466718
  - # 16
    frequency:   14.6069983478
  - # 17
    frequency:   18.3870491273
  - # 18
    frequency:   40.7351922767

- q-position: [    0.1464646,    0.0000000,    0.0000000 ]
  distance:    0.0506753
  band:
  - # 1
    frequency:   -8.9092234416
  - # 2
    frequency:   -6.4739957675
  - # 3
    frequency:    0.9113470689
  - # 4
    frequency:    1.6710539270
  - # 5
    frequency:    3.6535463070
  - # 6
    frequency:    3.7968167226
  - # 7
    frequency:    4.2697798058
  - # 8
    frequency:    4.2917295438
  - # 9
    frequency:    4.7208912880
  - # 10
    frequency:    5.9521170469
  - # 11
    frequency:    7.2094374315
  - # 12
    frequency:    9.8210074832
  - # 13
    frequency:   10.4072862889
  - # 14
    frequency:   13.9069605902
  - # 15
    frequency:   14.1358762790
  - # 16
    frequency:   14.6438655760
  - # 17
    frequency:   18.3788138366
  - # 18
    frequency:   40.6967176845

- q-position: [    0.1515152,    0.0000000,    0.0000000 ]
  distance:    0.0524227
  band:
  - # 1
    frequency:   -8.8462593630
  - # 2
    frequency:   -6.2478185376
  - # 3
    frequency:    0.9488422574
  - # 4
    frequency:    1.7143693495
  - # 5
    frequency:    3.7724383723
  - # 6
    frequency:    3.8031462290
  - # 7
    frequency:    4.2656029916
  - # 8
    frequency:    4.3109233753
  - # 9
    frequency:    4.7596023701
  - # 10
    frequency:    5.9450351372
  - # 11
    frequency:    7.2206282601
  - # 12
    frequency:    9.8370465134
  - # 13
    frequency:   10.4053562069
  - # 14
    frequency:   13.9131414606
  - # 15
    frequency:   14.1251642148
  - # 16
    frequency:   14.6849341702
  - # 17
    frequency:   18.3700395201
  - # 18
    frequency:   40.6575585520

- q-position: [    0.1565657,    0.0000000,    0.0000000 ]
  distance:    0.0541702
  band:
  - # 1
    frequency:   -8.7829188979
  - # 2
    frequency:   -6.0181822408
  - # 3
    frequency:    0.9851729752
  - # 4
    frequency:    1.7564962957
  - # 5
    frequency:    3.8097402892
  - # 6
    frequency:    3.8894020070
  - # 7
    frequency:    4.2624308654
  - # 8
    frequency:    4.3317707507
  - # 9
    frequency:    4.8005743131
  - # 10
    frequency:    5.9394631955
  - # 11
    frequency:    7.2367152031
  - # 12
    frequency:    9.8536375585
  - # 13
    frequency:   10.4015665068
  - # 14
    frequency:   13.9196440940
  - # 15
    frequency:   14.1118524077
  - # 16
    frequency:   14.7295475963
  - # 17
    frequency:   18.3607292596
  - # 18
    frequency:   40.6177734732

- q-position: [    0.1616162,    0.0000000,    0.0000000 ]
  distance:    0.0559176
  band:
  - # 1
    frequency:   -8.7193345391
  - # 2
    frequency:   -5.7857340456
  - # 3
    frequency:    1.0203301278
  - # 4
    frequency:    1.7974527186
  - # 5
    frequency:    3.8166108410
  - # 6
    frequency:    4.0036946782
  - # 7
    frequency:    4.2603199309
  - # 8
    frequency:    4.3546613841
  - # 9
    frequency:    4.8440408113
  - # 10
    frequency:    5.9355358658
  - # 11
    frequency:    7.2577270482
  - # 12
    frequency:    9.8707711596
  - # 13
    frequency:   10.3961513813
  - # 14
    frequency:   13.9264582008
  - # 15
    frequency:   14.0963972173
  - # 16
    frequency:   14.7771308848
  - # 17
    frequency:   18.3508894617
  - # 18
    frequency:   40.5774214297

- q-position: [    0.1666667,    0.0000000,    0.0000000 ]
  distance:    0.0576650
  band:
  - # 1
    frequency:   -8.6556361948
  - # 2
    frequency:   -5.5511509556
  - # 3
    frequency:    1.0543391325
  - # 4
    frequency:    1.8372639718
  - # 5
    frequency:    3.8237735811
  - # 6
    frequency:    4.1143204736
  - # 7
    frequency:    4.2593160251
  - # 8
    frequency:    4.3799598176
  - # 9
    frequency:    4.8904185604
  - # 10
    frequency:    5.9333642794
  - # 11
    frequency:    7.2836985635
  - # 12
    frequency:    9.8884365273
  - # 13
    frequency:   10.3893510353
  - # 14
    frequency:   13.9335706286
  - # 15
    frequency:   14.0791654383
  - # 16
    frequency:   14.8271958238
  - # 17
    frequency:   18.3405299484
  - # 18
    frequency:   40.5365616613

- q-position: [    0.1717172,    0.0000000,    0.0000000 ]
  distance:    0.0594124
  band:
  - # 1
    frequency:   -8.5919506420
  - # 2
    frequency:   -5.3151247744
  - # 3
    frequency:    1.0872598747
  - # 4
    frequency:    1.8759628679
  - # 5
    frequency:    3.8312483168
  - # 6
    frequency:    4.2199524953
  - # 7
    frequency:    4.2594532430
  - # 8
    frequency:    4.4080748021
  - # 9
    frequency:    4.9403055933
  - # 10
    frequency:    5.9330369284
  - # 11
    frequency:    7.3146660988
  - # 12
    frequency:    9.9066215759
  - # 13
    frequency:   10.3814091127
  - # 14
    frequency:   13.9409653402
  - # 15
    frequency:   14.0604457212
  - # 16
    frequency:   14.8793304688
  - # 17
    frequency:   18.3296640432
  - # 18
    frequency:   40.4952535362

- q-position: [    0.1767677,    0.0000000,    0.0000000 ]
  distance:    0.0611599
  band:
  - # 1
    frequency:   -8.5284009989
  - # 2
    frequency:   -5.0783424965
  - # 3
    frequency:    1.1191853816
  - # 4
    frequency:    1.9135896096
  - # 5
    frequency:    3.8390590966
  - # 6
    frequency:    4.2607531661
  - # 7
    frequency:    4.3187344467
  - # 8
    frequency:    4.4396994857
  - # 9
    frequency:    4.9944348921
  - # 10
    frequency:    5.9346220042
  - # 11
    frequency:    7.3506603947
  - # 12
    frequency:    9.9253129716
  - # 13
    frequency:   10.3725702962
  - # 14