nqpoint: 300    
npath: 3      
segment_nqpoint:
- 100
- 100
- 100
labels:
- [ 'G', 'M' ]
- [ 'M', 'K' ]
- [ 'K', 'G' ]
reciprocal_lattice:
- [   0.29963622,   0.17299505,   0.00000000 ] # a*
- [   0.00000000,   0.34599010,   0.00000000 ] # b*
- [   0.00000000,   0.00000000,   0.04127806 ] # c*
natom: 6      
lattice:
- [     3.337380249392129,     0.000000000000000,     0.000000000000000 ] # a
- [    -1.668690124696065,     2.890256078057384,     0.000000000000000 ] # b
- [     0.000000000000000,     0.000000000000000,    24.225946792567054 ] # c
points:
- symbol: C # 1
  coordinates: [  0.000000000000000,  0.000000000000000,  0.468433448325487 ]
  mass: 12.010700
- symbol: N # 2
  coordinates: [  0.333332985432215,  0.666666983183674,  0.574543822250046 ]
  mass: 14.006700
- symbol: O # 3
  coordinates: [  0.333332985432215,  0.666666983183674,  0.628497491674449 ]
  mass: 15.999400
- symbol: O # 4
  coordinates: [  0.666666984744047,  0.333332985985145,  0.371502508325551 ]
  mass: 15.999400
- symbol: Zr # 5
  coordinates: [  0.333332985432215,  0.666666983183674,  0.410094334314641 ]
  mass: 91.224000
- symbol: Zr # 6
  coordinates: [  0.666666984744047,  0.333332985985145,  0.523328097051146 ]
  mass: 91.224000

phonon:
- q-position: [    0.0000000,    0.0000000,    0.0000000 ]
  distance:    0.0000000
  band:
  - # 1
    frequency:   -9.7616655921
  - # 2
    frequency:   -9.7616655921
  - # 3
    frequency:   -0.0000017599
  - # 4
    frequency:   -0.0000010302
  - # 5
    frequency:    0.0000019202
  - # 6
    frequency:    3.4854819759
  - # 7
    frequency:    3.4854819759
  - # 8
    frequency:    4.5809190142
  - # 9
    frequency:    4.5809190142
  - # 10
    frequency:    6.1580283011
  - # 11
    frequency:    8.5122398122
  - # 12
    frequency:    9.5630869027
  - # 13
    frequency:    9.5630869027
  - # 14
    frequency:   13.6904645467
  - # 15
    frequency:   13.6904645467
  - # 16
    frequency:   14.7250792161
  - # 17
    frequency:   18.6908878516
  - # 18
    frequency:   41.3296301732

- q-position: [    0.0050505,    0.0000000,    0.0000000 ]
  distance:    0.0017474
  band:
  - # 1
    frequency:   -9.7607107909
  - # 2
    frequency:   -9.7575207388
  - # 3
    frequency:   -0.0942272216
  - # 4
    frequency:    0.0630223712
  - # 5
    frequency:    0.1459313179
  - # 6
    frequency:    3.4857725058
  - # 7
    frequency:    3.4868958178
  - # 8
    frequency:    4.5803933445
  - # 9
    frequency:    4.5807760134
  - # 10
    frequency:    6.1577468879
  - # 11
    frequency:    8.5044564377
  - # 12
    frequency:    9.5631992850
  - # 13
    frequency:    9.5699656700
  - # 14
    frequency:   13.6900883875
  - # 15
    frequency:   13.6905452036
  - # 16
    frequency:   14.7244086565
  - # 17
    frequency:   18.6902512660
  - # 18
    frequency:   41.3287850433

- q-position: [    0.0101010,    0.0000000,    0.0000000 ]
  distance:    0.0034948
  band:
  - # 1
    frequency:   -9.7578470955
  - # 2
    frequency:   -9.7450877166
  - # 3
    frequency:   -0.1200458791
  - # 4
    frequency:    0.1260374000
  - # 5
    frequency:    0.2532416741
  - # 6
    frequency:    3.4866439683
  - # 7
    frequency:    3.4911247294
  - # 8
    frequency:    4.5788189805
  - # 9
    frequency:    4.5803504447
  - # 10
    frequency:    6.1569005049
  - # 11
    frequency:    8.4817520510
  - # 12
    frequency:    9.5635379942
  - # 13
    frequency:    9.5899590908
  - # 14
    frequency:   13.6889638202
  - # 15
    frequency:   13.6907971233
  - # 16
    frequency:   14.7223998316
  - # 17
    frequency:   18.6883452263
  - # 18
    frequency:   41.3262510562

- q-position: [    0.0151515,    0.0000000,    0.0000000 ]
  distance:    0.0052423
  band:
  - # 1
    frequency:   -9.7530766385
  - # 2
    frequency:   -9.7243711775
  - # 3
    frequency:   -0.1425272316
  - # 4
    frequency:    0.1890374986
  - # 5
    frequency:    0.3638360918
  - # 6
    frequency:    3.4880959801
  - # 7
    frequency:    3.4981311409
  - # 8
    frequency:    4.5762038631
  - # 9
    frequency:    4.5796526664
  - # 10
    frequency:    6.1554826868
  - # 11
    frequency:    8.4458338746
  - # 12
    frequency:    9.5641077050
  - # 13
    frequency:    9.6213687126
  - # 14
    frequency:   13.6871025406
  - # 15
    frequency:   13.6912500603
  - # 16
    frequency:   14.7190613038
  - # 17
    frequency:   18.6851808442
  - # 18
    frequency:   41.3220324167

- q-position: [    0.0202020,    0.0000000,    0.0000000 ]
  distance:    0.0069897
  band:
  - # 1
    frequency:   -9.7464030014
  - # 2
    frequency:   -9.6953790013
  - # 3
    frequency:   -0.1655618952
  - # 4
    frequency:    0.2520145926
  - # 5
    frequency:    0.4765555107
  - # 6
    frequency:    3.4901278958
  - # 7
    frequency:    3.5078533192
  - # 8
    frequency:    4.5725612453
  - # 9
    frequency:    4.5787001334
  - # 10
    frequency:    6.1534825450
  - # 11
    frequency:    8.3989522430
  - # 12
    frequency:    9.5649161640
  - # 13
    frequency:    9.6619594903
  - # 14
    frequency:   13.6845239253
  - # 15
    frequency:   13.6919532919
  - # 16
    frequency:   14.7144073494
  - # 17
    frequency:   18.6807765052
  - # 18
    frequency:   41.3161361206

- q-position: [    0.0252525,    0.0000000,    0.0000000 ]
  distance:    0.0087371
  band:
  - # 1
    frequency:   -9.7378312540
  - # 2
    frequency:   -9.6581224890
  - # 3
    frequency:   -0.1888827927
  - # 4
    frequency:    0.3149598891
  - # 5
    frequency:    0.5904505184
  - # 6
    frequency:    3.4927387984
  - # 7
    frequency:    3.5202066039
  - # 8
    frequency:    4.5679097179
  - # 9
    frequency:    4.5775176963
  - # 10
    frequency:    6.1508846073
  - # 11
    frequency:    8.3434109837
  - # 12
    frequency:    9.5659741243
  - # 13
    frequency:    9.7094504117
  - # 14
    frequency:   13.6812548591
  - # 15
    frequency:   13.6929751262
  - # 16
    frequency:   14.7084579696
  - # 17
    frequency:   18.6751576711
  - # 18
    frequency:   41.3085719362

- q-position: [    0.0303030,    0.0000000,    0.0000000 ]
  distance:    0.0104845
  band:
  - # 1
    frequency:   -9.7273680088
  - # 2
    frequency:   -9.6126166363
  - # 3
    frequency:   -0.2116923610
  - # 4
    frequency:    0.3778636565
  - # 5
    frequency:    0.7050373422
  - # 6
    frequency:    3.4959274851
  - # 7
    frequency:    3.5350849754
  - # 8
    frequency:    4.5622732438
  - # 9
    frequency:    4.5761380411
  - # 10
    frequency:    6.1476686178
  - # 11
    frequency:    8.2812797922
  - # 12
    frequency:    9.5672952518
  - # 13
    frequency:    9.7618035255
  - # 14
    frequency:   13.6773294935
  - # 15
    frequency:   13.6944021668
  - # 16
    frequency:   14.7012389146
  - # 17
    frequency:   18.6683566063
  - # 18
    frequency:   41.2993523795

- q-position: [    0.0353535,    0.0000000,    0.0000000 ]
  distance:    0.0122320
  band:
  - # 1
    frequency:   -9.7150214875
  - # 2
    frequency:   -9.5588804942
  - # 3
    frequency:   -0.2332390558
  - # 4
    frequency:    0.4407150229
  - # 5
    frequency:    0.8200663716
  - # 6
    frequency:    3.4996924488
  - # 7
    frequency:    3.5523628113
  - # 8
    frequency:    4.5556811958
  - # 9
    frequency:    4.5746022926
  - # 10
    frequency:    6.1438093213
  - # 11
    frequency:    8.2142978069
  - # 12
    frequency:    9.5688960051
  - # 13
    frequency:    9.8173221535
  - # 14
    frequency:   13.6727889415
  - # 15
    frequency:   13.6963382920
  - # 16
    frequency:   14.6927817270
  - # 17
    frequency:   18.6604120330
  - # 18
    frequency:   41.2884926816

- q-position: [    0.0404040,    0.0000000,    0.0000000 ]
  distance:    0.0139794
  band:
  - # 1
    frequency:   -9.7008016004
  - # 2
    frequency:   -9.4969376198
  - # 3
    frequency:   -0.2528756967
  - # 4
    frequency:    0.5035017939
  - # 5
    frequency:    0.9354021068
  - # 6
    frequency:    3.5040318547
  - # 7
    frequency:    3.5718966828
  - # 8
    frequency:    4.5481683980
  - # 9
    frequency:    4.5729608096
  - # 10
    frequency:    6.1392762753
  - # 11
    frequency:    8.1438876990
  - # 12
    frequency:    9.5707954878
  - # 13
    frequency:    9.8746389410
  - # 14
    frequency:   13.6676809083
  - # 15
    frequency:   13.6989032916
  - # 16
    frequency:   14.6831238189
  - # 17
    frequency:   18.6513687198
  - # 18
    frequency:   41.2760107499

- q-position: [    0.0454545,    0.0000000,    0.0000000 ]
  distance:    0.0157268
  band:
  - # 1
    frequency:   -9.6847200328
  - # 2
    frequency:   -9.4268166283
  - # 3
    frequency:   -0.2700323278
  - # 4
    frequency:    0.5662102952
  - # 5
    frequency:    1.0509681532
  - # 6
    frequency:    3.5089435120
  - # 7
    frequency:    3.5935270421
  - # 8
    frequency:    4.5397751636
  - # 9
    frequency:    4.5712742046
  - # 10
    frequency:    6.1340337493
  - # 11
    frequency:    8.0712124685
  - # 12
    frequency:    9.5730152733
  - # 13
    frequency:    9.9326615107
  - # 14
    frequency:   13.6620592626
  - # 15
    frequency:   13.7022310966
  - # 16
    frequency:   14.6723085985
  - # 17
    frequency:   18.6412770098
  - # 18
    frequency:   41.2619271230

- q-position: [    0.0505051,    0.0000000,    0.0000000 ]
  distance:    0.0174742
  band:
  - # 1
    frequency:   -9.6667903404
  - # 2
    frequency:   -9.3485518521
  - # 3
    frequency:   -0.2841813258
  - # 4
    frequency:    0.6288252431
  - # 5
    frequency:    1.1667210786
  - # 6
    frequency:    3.5144248390
  - # 7
    frequency:    3.6170796722
  - # 8
    frequency:    4.5305473259
  - # 9
    frequency:    4.5696146218
  - # 10
    frequency:    6.1280407952
  - # 11
    frequency:    7.9972383010
  - # 12
    frequency:    9.5755792014
  - # 13
    frequency:    9.9905122789
  - # 14
    frequency:   13.6559835519
  - # 15
    frequency:   13.7064675280
  - # 16
    frequency:   14.6603856714
  - # 17
    frequency:   18.6301922951
  - # 18
    frequency:   41.2462649191

- q-position: [    0.0555556,    0.0000000,    0.0000000 ]
  distance:    0.0192217
  band:
  - # 1
    frequency:   -9.6470280478
  - # 2
    frequency:   -9.2621841219
  - # 3
    frequency:   -0.2948049664
  - # 4
    frequency:    0.6913296439
  - # 5
    frequency:    1.2826372485
  - # 6
    frequency:    3.5204728226
  - # 7
    frequency:    3.6423668039
  - # 8
    frequency:    4.5205362568
  - # 9
    frequency:    4.5680673087
  - # 10
    frequency:    6.1212516070
  - # 11
    frequency:    7.9227889533
  - # 12
    frequency:    9.5785131479
  - # 13
    frequency:   10.0474768413
  - # 14
    frequency:   13.6495184647
  - # 15
    frequency:   13.7117674859
  - # 16
    frequency:   14.6474111498
  - # 17
    frequency:   18.6181744434
  - # 18
    frequency:   41.2290497793

- q-position: [    0.0606061,    0.0000000,    0.0000000 ]
  distance:    0.0209691
  band:
  - # 1
    frequency:   -9.6254507487
  - # 2
    frequency:   -9.1677616817
  - # 3
    frequency:   -0.3013622552
  - # 4
    frequency:    0.7537047280
  - # 5
    frequency:    1.3987058159
  - # 6
    frequency:    3.5270839712
  - # 7
    frequency:    3.6691878431
  - # 8
    frequency:    4.5097988668
  - # 9
    frequency:    4.5667325026
  - # 10
    frequency:    6.1136163227
  - # 11
    frequency:    7.8485881235
  - # 12
    frequency:    9.5818447672
  - # 13
    frequency:   10.1029642871
  - # 14
    frequency:   13.6427332456
  - # 15
    frequency:   13.7182914977
  - # 16
    frequency:   14.6334481205
  - # 17
    frequency:   18.6052871880
  - # 18
    frequency:   41.2103098046

- q-position: [    0.0656566,    0.0000000,    0.0000000 ]
  distance:    0.0227165
  band:
  - # 1
    frequency:   -9.6020782062
  - # 2
    frequency:   -9.0653412541
  - # 3
    frequency:   -0.3032479375
  - # 4
    frequency:    0.8159299165
  - # 5
    frequency:    1.5149247916
  - # 6
    frequency:    3.5342542592
  - # 7
    frequency:    3.6973297113
  - # 8
    frequency:    4.4983975793
  - # 9
    frequency:    4.5657276326
  - # 10
    frequency:    6.1050824607
  - # 11
    frequency:    7.7752905074
  - # 12
    frequency:    9.5856032090
  - # 13
    frequency:   10.1564784848
  - # 14
    frequency:   13.6357010670
  - # 15
    frequency:   13.7262015426
  - # 16
    frequency:   14.6185673377
  - # 17
    frequency:   18.5915974858
  - # 18
    frequency:   41.1900754887

- q-position: [    0.0707071,    0.0000000,    0.0000000 ]
  distance:    0.0244639
  band:
  - # 1
    frequency:   -9.5769324482
  - # 2
    frequency:   -8.9549892761
  - # 3
    frequency:   -0.2997317156
  - # 4
    frequency:    0.8779828258
  - # 5
    frequency:    1.6312987171
  - # 6
    frequency:    3.5419790655
  - # 7
    frequency:    3.7265668742
  - # 8
    frequency:    4.4864002733
  - # 9
    frequency:    4.5651897917
  - # 10
    frequency:    6.0955972160
  - # 11
    frequency:    7.7035033566
  - # 12
    frequency:    9.5898188102
  - # 13
    frequency:   10.2075981979
  - # 14
    frequency:   13.6284983631
  - # 15
    frequency:   13.7356560676
  - # 16
    frequency:   14.6028482431
  - # 17
    frequency:   18.5771748547
  - # 18
    frequency:   41.1683796457

- q-position: [    0.0757576,    0.0000000,    0.0000000 ]
  distance:    0.0262114
  band:
  - # 1
    frequency:   -9.5500378567
  - # 2
    frequency:   -8.8367833261
  - # 3
    frequency:   -0.2898534682
  - # 4
    frequency:    0.9398393082
  - # 5
    frequency:    1.7478371800
  - # 6
    frequency:    3.5502531019
  - # 7
    frequency:    3.7566612349
  - # 8
    frequency:    4.4738801858
  - # 9
    frequency:    4.5652783572
  - # 10
    frequency:    6.0851108586
  - # 11
    frequency:    7.6338002909
  - # 12
    frequency:    9.5945227653
  - # 13
    frequency:   10.2559638938
  - # 14
    frequency:   13.6212041320
  - # 15
    frequency:   13.7468041012
  - # 16
    frequency:   14.5863804571
  - # 17
    frequency:   18.5620906991
  - # 18
    frequency:   41.1452573337

- q-position: [    0.0808081,    0.0000000,    0.0000000 ]
  distance:    0.0279588
  band:
  - # 1
    frequency:   -9.5214212493
  - # 2
    frequency:   -8.7108137650
  - # 3
    frequency:   -0.2722154747
  - # 4
    frequency:    1.0014735307
  - # 5
    frequency:    1.8645537431
  - # 6
    frequency:    3.5590703352
  - # 7
    frequency:    3.7873622008
  - # 8
    frequency:    4.4609157682
  - # 9
    frequency:    4.5661775186
  - # 10
    frequency:    6.0735814479
  - # 11
    frequency:    7.5667287399
  - # 12
    frequency:    9.5997467765
  - # 13
    frequency:   10.3012694584
  - # 14
    frequency:   13.6138992116
  - # 15
    frequency:   13.7597783458
  - # 16
    frequency:   14.5692659547
  - # 17
    frequency:   18.5464176310
  - # 18
    frequency:   41.1207457741

- q-position: [    0.0858586,    0.0000000,    0.0000000 ]
  distance:    0.0297062
  band:
  - # 1
    frequency:   -9.4911119481
  - # 2
    frequency:   -8.5771856192
  - # 3
    frequency:   -0.2444961397
  - # 4
    frequency:    1.0628580907
  - # 5
    frequency:    1.9814650158
  - # 6
    frequency:    3.5684238995
  - # 7
    frequency:    3.8184074164
  - # 8
    frequency:    4.4475904884
  - # 9
    frequency:    4.5680982949
  - # 10
    frequency:    6.0609809882
  - # 11
    frequency:    7.5028120634
  - # 12
    frequency:    9.6055226875
  - # 13
    frequency:   10.3432573997
  - # 14
    frequency:   13.6066655348
  - # 15
    frequency:   13.7746870715
  - # 16
    frequency:   14.5516222465
  - # 17
    frequency:   18.5302287970
  - # 18
    frequency:   41.0948842673

- q-position: [    0.0909091,    0.0000000,    0.0000000 ]
  distance:    0.0314536
  band:
  - # 1
    frequency:   -9.4591418372
  - # 2
    frequency:   -8.4360207281
  - # 3
    frequency:   -0.2019913985
  - # 4
    frequency:    1.1239641689
  - # 5
    frequency:    2.0985896695
  - # 6
    frequency:    3.5783060012
  - # 7
    frequency:    3.8495248762
  - # 8
    frequency:    4.4339925710
  - # 9
    frequency:    4.5712793972
  - # 10
    frequency:    6.0473029674
  - # 11
    frequency:    7.4425472378
  - # 12
    frequency:    9.6118821060
  - # 13
    frequency:   10.3817164326
  - # 14
    frequency:   13.5995853715
  - # 15
    frequency:   13.7916045107
  - # 16
    frequency:   14.5335870456
  - # 17
    frequency:   18.5135972197
  - # 18
    frequency:   41.0677141057

- q-position: [    0.0959596,    0.0000000,    0.0000000 ]
  distance:    0.0332011
  band:
  - # 1
    frequency:   -9.4255454042
  - # 2
    frequency:   -8.2874601820
  - # 3
    frequency:   -0.1303884994
  - # 4
    frequency:    1.1847617169
  - # 5
    frequency:    2.2159472185
  - # 6
    frequency:    3.5887078161
  - # 7
    frequency:    3.8804373671
  - # 8
    frequency:    4.4202146716
  - # 9
    frequency:    4.5759860384
  - # 10
    frequency:    6.0325709315
  - # 11
    frequency:    7.3863990376
  - # 12
    frequency:    9.6188560170
  - # 13
    frequency:   10.4164805607
  - # 14
    frequency:   13.5927405629
  - # 15
    frequency:   13.8105592401
  - # 16
    frequency:   14.5153251538
  - # 17
    frequency:   18.4965951609
  - # 18
    frequency:   41.0392784825

- q-position: [    0.1010101,    0.0000000,    0.0000000 ]
  distance:    0.0349485
  band:
  - # 1
    frequency:   -9.3903597672
  - # 2
    frequency:   -8.1316670685
  - # 3
    frequency:    0.1081823705
  - # 4
    frequency:    1.2452196778
  - # 5
    frequency:    2.3335563862
  - # 6
    frequency:    3.5996193809
  - # 7
    frequency:    3.9108703634
  - # 8
    frequency:    4.4063534768
  - # 9
    frequency:    4.5825055927
  - # 10
    frequency:    6.0168473718
  - # 11
    frequency:    7.3347918536
  - # 12
    frequency:    9.6264743952
  - # 13
    frequency:   10.4474289495
  - # 14
    frequency:   13.5862117549
  - # 15
    frequency:   13.8315196648
  - # 16
    frequency:   14.4970386841
  - # 17
    frequency:   18.4792935149
  - # 18
    frequency:   41.0096223984

- q-position: [    0.1060606,    0.0000000,    0.0000000 ]
  distance:    0.0366959
  band:
  - # 1
    frequency:   -9.3536246854
  - # 2
    frequency:   -7.9688295341
  - # 3
    frequency:    0.2128674280
  - # 4
    frequency:    1.3053062367
  - # 5
    frequency:    2.4514328528
  - # 6
    frequency:    3.6110294799
  - # 7
    frequency:    3.9405644452
  - # 8
    frequency:    4.3925092270
  - # 9
    frequency:    4.5911390190
  - # 10
    frequency:    6.0002418086
  - # 11
    frequency:    7.2881005862
  - # 12
    frequency:    9.6347658198
  - # 13
    frequency:   10.4744860250
  - # 14
    frequency:   13.5800776368
  - # 15
    frequency:   13.8543751407
  - # 16
    frequency:   14.4789823100
  - # 17
    frequency:   18.4617612401
  - # 18
    frequency:   40.9787925657

- q-position: [    0.1111111,    0.0000000,    0.0000000 ]
  distance:    0.0384433
  band:
  - # 1
    frequency:   -9.3153825523
  - # 2
    frequency:   -7.7991641543
  - # 3
    frequency:    0.2893824504
  - # 4
    frequency:    1.3649890965
  - # 5
    frequency:    2.5695861386
  - # 6
    frequency:    3.6229255294
  - # 7
    frequency:    3.9692928297
  - # 8
    frequency:    4.3787851593
  - # 9
    frequency:    4.6021874063
  - # 10
    frequency:    5.9829166628
  - # 11
    frequency:    7.2466423027
  - # 12
    frequency:    9.6437570988
  - # 13
    frequency:   10.4976213583
  - # 14
    frequency:   13.5744141925
  - # 15
    frequency:   13.8789104538
  - # 16
    frequency:   14.4614860182
  - # 17
    frequency:   18.4440648328
  - # 18
    frequency:   40.9468373091

- q-position: [    0.1161616,    0.0000000,    0.0000000 ]
  distance:    0.0401908
  band:
  - # 1
    frequency:   -9.2756783742
  - # 2
    frequency:   -7.6229195714
  - # 3
    frequency:    0.3561309020
  - # 4
    frequency:    1.4242357756
  - # 5
    frequency:    2.6880153267
  - # 6
    frequency:    3.6352934652
  - # 7
    frequency:    3.9968834981
  - # 8
    frequency:    4.3652868664
  - # 9
    frequency:    4.6159340657
  - # 10
    frequency:    5.9650894736
  - # 11
    frequency:    7.2106703805
  - # 12
    frequency:    9.6534729082
  - # 13
    frequency:   10.5168490210
  - # 14
    frequency:   13.5692939701
  - # 15
    frequency:   13.9047704535
  - # 16
    frequency:   14.4449887068
  - # 17
    frequency:   18.4262678521
  - # 18
    frequency:   40.9138064651

- q-position: [    0.1212121,    0.0000000,    0.0000000 ]
  distance:    0.0419382
  band:
  - # 1
    frequency:   -9.2345597326
  - # 2
    frequency:   -7.4403803246
  - # 3
    frequency:    0.4175388884
  - # 4
    frequency:    1.4830139198
  - # 5
    frequency:    2.8067032635
  - # 6
    frequency:    3.6481176354
  - # 7
    frequency:    4.0232437088
  - # 8
    frequency:    4.3521215742
  - # 9
    frequency:    4.6326242680
  - # 10
    frequency:    5.9470303425
  - # 11
    frequency:    7.1803725534
  - # 12
    frequency:    9.6639354540
  - # 13
    frequency:   10.5322262183
  - # 14
    frequency:   13.5647853761
  - # 15
    frequency:   13.9314113398
  - # 16
    frequency:   14.4300861930
  - # 17
    frequency:   18.4084304980
  - # 18
    frequency:   40.8797512785

- q-position: [    0.1262626,    0.0000000,    0.0000000 ]
  distance:    0.0436856
  band:
  - # 1
    frequency:   -9.1920767331
  - # 2
    frequency:   -7.2518707350
  - # 3
    frequency:    0.4753687756
  - # 4
    frequency:    1.5412916235
  - # 5
    frequency:    2.9256087959
  - # 6
    frequency:    3.6613807077
  - # 7
    frequency:    4.0483828965
  - # 8
    frequency:    4.3393973362
  - # 9
    frequency:    4.6524465390
  - # 10
    frequency:    5.9290541803
  - # 11
    frequency:    7.1558736146
  - # 12
    frequency:    9.6751641612
  - # 13
    frequency:   10.5438511200
  - # 14
    frequency:   13.5609520013
  - # 15
    frequency:   13.9580378688
  - # 16
    frequency:   14.4175943486
  - # 17
    frequency:   18.3906092494
  - # 18
    frequency:   40.8447242971

- q-position: [    0.1313131,    0.0000000,    0.0000000 ]
  distance:    0.0454330
  band:
  - # 1
    frequency:   -9.1482819427
  - # 2
    frequency:   -7.0577586318
  - # 3
    frequency:    0.5304706925
  - # 4
    frequency:    1.5990377514
  - # 5
    frequency:    3.0446565200
  - # 6
    frequency:    3.6750635968
  - # 7
    frequency:    4.0724290022
  - # 8
    frequency:    4.3272221504
  - # 9
    frequency:    4.6755204594
  - # 10
    frequency:    5.9115082395
  - # 11
    frequency:    7.1372426463
  - # 12
    frequency:    9.6871753963
  - # 13
    frequency:   10.5518599181
  - # 14
    frequency:   13.5578519838
  - # 15
    frequency:   13.9835377861
  - # 16
    frequency:   14.4086159578
  - # 17
    frequency:   18.3728565628
  - # 18
    frequency:   40.8087792636

- q-position: [    0.1363636,    0.0000000,    0.0000000 ]
  distance:    0.0471805
  band:
  - # 1
    frequency:   -9.1032303171
  - # 2
    frequency:   -6.8584586120
  - # 3
    frequency:    0.5833040716
  - # 4
    frequency:    1.6562222532
  - # 5
    frequency:    3.1637234140
  - # 6
    frequency:    3.6891454247
  - # 7
    frequency:    4.0956340873
  - # 8
    frequency:    4.3157029999
  - # 9
    frequency:    4.7018952848
  - # 10
    frequency:    5.8947562885
  - # 11
    frequency:    7.1245037698
  - # 12
    frequency:    9.6999822289
  - # 13
    frequency:   10.5564232172
  - # 14
    frequency:   13.5555374151
  - # 15
    frequency:   14.0064566816
  - # 16
    frequency:   14.4045679404
  - # 17
    frequency:   18.3552206366
  - # 18
    frequency:   40.7719710064

- q-position: [    0.1414141,    0.0000000,    0.0000000 ]
  distance:    0.0489279
  band:
  - # 1
    frequency:   -9.0569791205
  - # 2
    frequency:   -6.6544344092
  - # 3
    frequency:    0.6341449043
  - # 4
    frequency:    1.7128164617
  - # 5
    frequency:    3.2826216036
  - # 6
    frequency:    3.7036035234
  - # 7
    frequency:    4.1183678398
  - # 8
    frequency:    4.3049448247
  - # 9
    frequency:    4.7315612443
  - # 10
    frequency:    5.8791613599
  - # 11
    frequency:    7.1176487998
  - # 12
    frequency:    9.7135942365
  - # 13
    frequency:   10.5577419269
  - # 14
    frequency:   13.5540537958
  - # 15
    frequency:   14.0251079774
  - # 16
    frequency:   14.4070740218
  - # 17
    frequency:   18.3377452399
  - # 18
    frequency:   40.7343553276

- q-position: [    0.1464646,    0.0000000,    0.0000000 ]
  distance:    0.0506753
  band:
  - # 1
    frequency:   -9.0095878419
  - # 2
    frequency:   -6.4461998295
  - # 3
    frequency:    0.6831842887
  - # 4
    frequency:    1.7687933659
  - # 5
    frequency:    3.4010763400
  - # 6
    frequency:    3.7184134966
  - # 7
    frequency:    4.1411013476
  - # 8
    frequency:    4.2950494274
  - # 9
    frequency:    4.7644720727
  - # 10
    frequency:    5.8650691473
  - # 11
    frequency:    7.1166499662
  - # 12
    frequency:    9.7280173560
  - # 13
    frequency:   10.5560428469
  - # 14
    frequency:   13.5534395454
  - # 15
    frequency:   14.0379207300
  - # 16
    frequency:   14.4176199444
  - # 17
    frequency:   18.3204696096
  - # 18
    frequency:   40.6959888886

- q-position: [    0.1515152,    0.0000000,    0.0000000 ]
  distance:    0.0524227
  band:
  - # 1
    frequency:   -8.9611181080
  - # 2
    frequency:   -6.2343176052
  - # 3
    frequency:    0.7305813599
  - # 4
    frequency:    1.8241278485
  - # 5
    frequency:    3.5186979619
  - # 6
    frequency:    3.7335493549
  - # 7
    frequency:    4.1643869069
  - # 8
    frequency:    4.2861143221
  - # 9
    frequency:    4.8005746440
  - # 10
    frequency:    5.8527938460
  - # 11
    frequency:    7.1214710397
  - # 12
    frequency:    9.7432537843
  - # 13
    frequency:   10.5515741434
  - # 14
    frequency:   13.5537255725
  - # 15
    frequency:   14.0439553894
  - # 16
    frequency:   14.4370408585
  - # 17
    frequency:   18.3034284131
  - # 18
    frequency:   40.6569290951

- q-position: [    0.1565657,    0.0000000,    0.0000000 ]
  distance:    0.0541702
  band:
  - # 1
    frequency:   -8.9116335986
  - # 2
    frequency:   -6.0193954527
  - # 3
    frequency:    0.7764938407
  - # 4
    frequency:    1.8787968804
  - # 5
    frequency:    3.6349459962
  - # 6
    frequency:    3.7489837423
  - # 7
    frequency:    4.1888418964
  - # 8
    frequency:    4.2782315310
  - # 9
    frequency:    4.8398404078
  - # 10
    frequency:    5.8426076911
  - # 11
    frequency:    7.1320756150
  - # 12
    frequency:    9.7593019298
  - # 13
    frequency:   10.5446008894
  - # 14
    frequency:   13.5549349100
  - # 15
    frequency:   14.0432304050
  - # 16
    frequency:   14.4651978074
  - # 17
    frequency:   18.2866517767
  - # 18
    frequency:   40.6172339780

- q-position: [    0.1616162,    0.0000000,    0.0000000 ]
  distance:    0.0559176
  band:
  - # 1
    frequency:   -8.8611999642
  - # 2
    frequency:   -5.8020786384
  - # 3
    frequency:    0.8210957839
  - # 4
    frequency:    1.9327796624
  - # 5
    frequency:    3.7490822259
  - # 6
    frequency:    3.7646882689
  - # 7
    frequency:    4.2151465240
  - # 8
    frequency:    4.2714863387
  - # 9
    frequency:    4.8822933889
  - # 10
    frequency:    5.8347348268
  - # 11
    frequency:    7.1484318092
  - # 12
    frequency:    9.7761564148
  - # 13
    frequency:   10.5354008093
  - # 14
    frequency:   13.5570824198
  - # 15
    frequency:   14.0365681464
  - # 16
    frequency:   14.5011346879
  - # 17
    frequency:   18.2701653794
  - # 18
    frequency:   40.5769620745

- q-position: [    0.1666667,    0.0000000,    0.0000000 ]
  distance:    0.0576650
  band:
  - # 1
    frequency:   -8.8098847493
  - # 2
    frequency:   -5.5830385051
  - # 3
    frequency:    0.8645867500
  - # 4
    frequency:    1.9860577078
  - # 5
    frequency:    3.7806339653
  - # 6
    frequency:    3.8601070204
  - # 7
    frequency:    4.2440680131
  - # 8
    frequency:    4.2659560131
  - # 9
    frequency:    4.9280297043
  - # 10
    frequency:    5.8293496185
  - # 11
    frequency:    7.1705130952
  - # 12
    frequency:    9.7938081276
  - # 13
    frequency:   10.5242603245
  - # 14
    frequency:   13.5601745714
  - # 15
    frequency:   14.0251394868
  - # 16
    frequency:   14.5435362259
  - # 17
    frequency:   18.2539906075
  - # 18
    frequency:   40.5361723056

- q-position: [    0.1717172,    0.0000000,    0.0000000 ]
  distance:    0.0594124
  band:
  - # 1
    frequency:   -8.7577573226
  - # 2
    frequency:   -5.3629567120
  - # 3
    frequency:    0.9071944634
  - # 4
    frequency:    2.0386148601
  - # 5
    frequency:    3.7967918643
  - # 6
    frequency:    3.9666706837
  - # 7
    frequency:    4.2617085111
  - # 8
    frequency:    4.2765272641
  - # 9
    frequency:    4.9772228744
  - # 10
    frequency:    5.8265791879
  - # 11
    frequency:    7.1982953377
  - # 12
    frequency:    9.8122443215
  - # 13
    frequency:   10.5114709557
  - # 14
    frequency:   13.5642092981
  - # 15
    frequency:   14.0100799025
  - # 16
    frequency:   14.5911140542
  - # 17
    frequency:   18.2381447690
  - # 18
    frequency:   40.4949238526

- q-position: [    0.1767677,    0.0000000,    0.0000000 ]
  distance:    0.0611599
  band:
  - # 1
    frequency:   -8.7048888149
  - # 2
    frequency:   -5.1425054066
  - # 3
    frequency:    0.9491721426
  - # 4
    frequency:    2.0904372430
  - # 5
    frequency:    3.8131337070
  - # 6
    frequency:    4.0669634846
  - # 7
    frequency:    4.2588011900
  - # 8
    frequency:    4.3137136682
  - # 9
    frequency:    5.0301075648
  - # 10
    frequency:    5.8265098443
  - # 11
    frequency:    7.2317503589
  - # 12
    frequency:    9.8314487589
  - # 13
    frequency:   10.4973260936
  - # 14