nqpoint: 300    
npath: 3      
segment_nqpoint:
- 100
- 100
- 100
labels:
- [ 'G', 'M' ]
- [ 'M', 'K' ]
- [ 'K', 'G' ]
reciprocal_lattice:
- [   0.28915544,   0.16694397,   0.00000000 ] # a*
- [   0.00000000,   0.33388794,   0.00000000 ] # b*
- [   0.00000000,   0.00000000,   0.03833193 ] # c*
natom: 7      
lattice:
- [     3.458347515525476,     0.000000000000000,     0.000000000000000 ] # a
- [    -1.729173757762738,     2.995016803554655,     0.000000000000000 ] # b
- [     0.000000000000000,     0.000000000000000,    26.087912332054845 ] # c
points:
- symbol: Br # 1
  coordinates: [  0.333332985432215,  0.666666983183674,  0.655012640128299 ]
  mass: 79.904000
- symbol: C # 2
  coordinates: [  0.666666984744048,  0.333332985985145,  0.390537769719547 ]
  mass: 12.010700
- symbol: N # 3
  coordinates: [  0.000000000000000,  0.000000000000000,  0.535479515333469 ]
  mass: 14.006700
- symbol: N # 4
  coordinates: [  0.666666984744048,  0.333332985985145,  0.344987359871701 ]
  mass: 14.006700
- symbol: O # 5
  coordinates: [  0.666666984744048,  0.333332985985145,  0.441718930152452 ]
  mass: 15.999400
- symbol: Zr # 6
  coordinates: [  0.333332985432215,  0.666666983183674,  0.493438578621869 ]
  mass: 91.224000
- symbol: Zr # 7
  coordinates: [  0.666666984744048,  0.333332985985145,  0.579945480216431 ]
  mass: 91.224000

phonon:
- q-position: [    0.0000000,    0.0000000,    0.0000000 ]
  distance:    0.0000000
  band:
  - # 1
    frequency:   -0.6706441600
  - # 2
    frequency:   -0.6706441599
  - # 3
    frequency:   -0.0000120336
  - # 4
    frequency:   -0.0000004556
  - # 5
    frequency:    0.0000099594
  - # 6
    frequency:    3.0971221694
  - # 7
    frequency:    3.0971221694
  - # 8
    frequency:    4.5885758815
  - # 9
    frequency:    5.0359377336
  - # 10
    frequency:    5.0359377336
  - # 11
    frequency:    6.5923850522
  - # 12
    frequency:    6.5923850522
  - # 13
    frequency:    7.2209625274
  - # 14
    frequency:    9.3709121033
  - # 15
    frequency:   13.3213049864
  - # 16
    frequency:   14.0735090962
  - # 17
    frequency:   14.0735090962
  - # 18
    frequency:   15.5465846662
  - # 19
    frequency:   15.5465846662
  - # 20
    frequency:   32.0352824526
  - # 21
    frequency:   67.9152027912

- q-position: [    0.0050505,    0.0000000,    0.0000000 ]
  distance:    0.0016863
  band:
  - # 1
    frequency:   -0.6705147531
  - # 2
    frequency:   -0.6674999648
  - # 3
    frequency:    0.0016029582
  - # 4
    frequency:    0.0589760742
  - # 5
    frequency:    0.0827696097
  - # 6
    frequency:    3.0973623963
  - # 7
    frequency:    3.0980004992
  - # 8
    frequency:    4.5874921192
  - # 9
    frequency:    5.0356137866
  - # 10
    frequency:    5.0370185913
  - # 11
    frequency:    6.5923170791
  - # 12
    frequency:    6.5926707713
  - # 13
    frequency:    7.2207653112
  - # 14
    frequency:    9.3699652629
  - # 15
    frequency:   13.3210876620
  - # 16
    frequency:   14.0735067403
  - # 17
    frequency:   14.0736423990
  - # 18
    frequency:   15.5466278530
  - # 19
    frequency:   15.5466491784
  - # 20
    frequency:   32.0348221132
  - # 21
    frequency:   67.9149377293

- q-position: [    0.0101010,    0.0000000,    0.0000000 ]
  distance:    0.0033726
  band:
  - # 1
    frequency:   -0.6701034616
  - # 2
    frequency:   -0.6579897541
  - # 3
    frequency:    0.0064242663
  - # 4
    frequency:    0.1177742923
  - # 5
    frequency:    0.1655186048
  - # 6
    frequency:    3.0980825231
  - # 7
    frequency:    3.1006307549
  - # 8
    frequency:    4.5842792397
  - # 9
    frequency:    5.0346424746
  - # 10
    frequency:    5.0402247006
  - # 11
    frequency:    6.5921128052
  - # 12
    frequency:    6.5935259387
  - # 13
    frequency:    7.2201746358
  - # 14
    frequency:    9.3671267760
  - # 15
    frequency:   13.3204348459
  - # 16
    frequency:   14.0734997822
  - # 17
    frequency:   14.0740422307
  - # 18
    frequency:   15.5467569800
  - # 19
    frequency:   15.5468424546
  - # 20
    frequency:   32.0334422480
  - # 21
    frequency:   67.9141431563

- q-position: [    0.0151515,    0.0000000,    0.0000000 ]
  distance:    0.0050589
  band:
  - # 1
    frequency:   -0.6693457959
  - # 2
    frequency:   -0.6418699669
  - # 3
    frequency:    0.0145092253
  - # 4
    frequency:    0.1762346008
  - # 5
    frequency:    0.2482246883
  - # 6
    frequency:    3.0992808866
  - # 7
    frequency:    3.1049988402
  - # 8
    frequency:    4.5790472768
  - # 9
    frequency:    5.0330253864
  - # 10
    frequency:    5.0454518516
  - # 11
    frequency:    6.5917711764
  - # 12
    frequency:    6.5949445737
  - # 13
    frequency:    7.2191934278
  - # 14
    frequency:    9.3624027398
  - # 15
    frequency:   13.3193440364
  - # 16
    frequency:   14.0734885502
  - # 17
    frequency:   14.0747083564
  - # 18
    frequency:   15.5469707404
  - # 19
    frequency:   15.5471637100
  - # 20
    frequency:   32.0311463128
  - # 21
    frequency:   67.9128209083

- q-position: [    0.0202020,    0.0000000,    0.0000000 ]
  distance:    0.0067452
  band:
  - # 1
    frequency:   -0.6681480362
  - # 2
    frequency:   -0.6186962092
  - # 3
    frequency:    0.0259519677
  - # 4
    frequency:    0.2342272163
  - # 5
    frequency:    0.3308625563
  - # 6
    frequency:    3.1009547102
  - # 7
    frequency:    3.1110816053
  - # 8
    frequency:    4.5719639516
  - # 9
    frequency:    5.0307651745
  - # 10
    frequency:    5.0525420020
  - # 11
    frequency:    6.5912904681
  - # 12
    frequency:    6.5969166746
  - # 13
    frequency:    7.2178265913
  - # 14
    frequency:    9.3558032971
  - # 15
    frequency:   13.3178111566
  - # 16
    frequency:   14.0734735877
  - # 17
    frequency:   14.0756403705
  - # 18
    frequency:   15.5472669348
  - # 19
    frequency:   15.5476116280
  - # 20
    frequency:   32.0279400547
  - # 21
    frequency:   67.9109740385

- q-position: [    0.0252525,    0.0000000,    0.0000000 ]
  distance:    0.0084315
  band:
  - # 1
    frequency:   -0.6664022438
  - # 2
    frequency:   -0.5877542164
  - # 3
    frequency:    0.0409352636
  - # 4
    frequency:    0.2916571691
  - # 5
    frequency:    0.4134031474
  - # 6
    frequency:    3.1031000961
  - # 7
    frequency:    3.1188473439
  - # 8
    frequency:    4.5632360096
  - # 9
    frequency:    5.0278655632
  - # 10
    frequency:    5.0613018986
  - # 11
    frequency:    6.5906683325
  - # 12
    frequency:    6.5994281696
  - # 13
    frequency:    7.2160810470
  - # 14
    frequency:    9.3473426077
  - # 15
    frequency:   13.3158306901
  - # 16
    frequency:   14.0734556491
  - # 17
    frequency:   14.0768376761
  - # 18
    frequency:   15.5476424394
  - # 19
    frequency:   15.5481843457
  - # 20
    frequency:   32.0238314947
  - # 21
    frequency:   67.9086068065

- q-position: [    0.0303030,    0.0000000,    0.0000000 ]
  distance:    0.0101178
  band:
  - # 1
    frequency:   -0.6639995072
  - # 2
    frequency:   -0.5479349371
  - # 3
    frequency:    0.0598179957
  - # 4
    frequency:    0.3484617361
  - # 5
    frequency:    0.4958135101
  - # 6
    frequency:    3.1057120159
  - # 7
    frequency:    3.1282564546
  - # 8
    frequency:    4.5530903202
  - # 9
    frequency:    5.0243313596
  - # 10
    frequency:    5.0715219152
  - # 11
    frequency:    6.5899018632
  - # 12
    frequency:    6.6024608518
  - # 13
    frequency:    7.2139657869
  - # 14
    frequency:    9.3370388086
  - # 15
    frequency:   13.3133958652
  - # 16
    frequency:   14.0734356926
  - # 17
    frequency:   14.0782994572
  - # 18
    frequency:   15.5480931649
  - # 19
    frequency:   15.5488794358
  - # 20
    frequency:   32.0188309022
  - # 21
    frequency:   67.9057246641

- q-position: [    0.0353535,    0.0000000,    0.0000000 ]
  distance:    0.0118041
  band:
  - # 1
    frequency:   -0.6608388267
  - # 2
    frequency:   -0.4975119480
  - # 3
    frequency:    0.0833434337
  - # 4
    frequency:    0.4046036078
  - # 5
    frequency:    0.5780571573
  - # 6
    frequency:    3.1087842981
  - # 7
    frequency:    3.1392622331
  - # 8
    frequency:    4.5417580201
  - # 9
    frequency:    5.0201684707
  - # 10
    frequency:    5.0829918239
  - # 11
    frequency:    6.5889876761
  - # 12
    frequency:    6.6059923026
  - # 13
    frequency:    7.2114919448
  - # 14
    frequency:    9.3249139651
  - # 15
    frequency:   13.3104988842
  - # 16
    frequency:   14.0734148713
  - # 17
    frequency:   14.0800246456
  - # 18
    frequency:   15.5486140058
  - # 19
    frequency:   15.5496938825
  - # 20
    frequency:   32.0129507626
  - # 21
    frequency:   67.9023342360

- q-position: [    0.0404040,    0.0000000,    0.0000000 ]
  distance:    0.0134904
  band:
  - # 1
    frequency:   -0.6568312615
  - # 2
    frequency:   -0.4337659727
  - # 3
    frequency:    0.1131948571
  - # 4
    frequency:    0.4600627966
  - # 5
    frequency:    0.6600946983
  - # 6
    frequency:    3.1123096145
  - # 7
    frequency:    3.1518117617
  - # 8
    frequency:    4.5294631589
  - # 9
    frequency:    5.0153839263
  - # 10
    frequency:    5.0955120384
  - # 11
    frequency:    6.5879220032
  - # 12
    frequency:    6.6099958070
  - # 13
    frequency:    7.2086728806
  - # 14
    frequency:    9.3109940111
  - # 15
    frequency:   13.3071311893
  - # 16
    frequency:   14.0733945234
  - # 17
    frequency:   14.0820118828
  - # 18
    frequency:   15.5491987847
  - # 19
    frequency:   15.5506240530
  - # 20
    frequency:   32.0062057381
  - # 21
    frequency:   67.8984432975

- q-position: [    0.0454545,    0.0000000,    0.0000000 ]
  distance:    0.0151767
  band:
  - # 1
    frequency:   -0.6519003351
  - # 2
    frequency:   -0.3526347401
  - # 3
    frequency:    0.1536507508
  - # 4
    frequency:    0.5148293436
  - # 5
    frequency:    0.7418845415
  - # 6
    frequency:    3.1162794645
  - # 7
    frequency:    3.1658468567
  - # 8
    frequency:    4.5164157991
  - # 9
    frequency:    5.0099859091
  - # 10
    frequency:    5.1089003731
  - # 11
    frequency:    6.5867007990
  - # 12
    frequency:    6.6144402672
  - # 13
    frequency:    7.2055242794
  - # 14
    frequency:    9.2953086818
  - # 15
    frequency:   13.3032837591
  - # 16
    frequency:   14.0733761590
  - # 17
    frequency:   14.0842594800
  - # 18
    frequency:   15.5498401936
  - # 19
    frequency:   15.5516656657
  - # 20
    frequency:   31.9986126216
  - # 21
    frequency:   67.8940607479

- q-position: [    0.0505051,    0.0000000,    0.0000000 ]
  distance:    0.0168630
  band:
  - # 1
    frequency:   -0.6459800764
  - # 2
    frequency:   -0.2512010337
  - # 3
    frequency:    0.2157670216
  - # 4
    frequency:    0.5688977531
  - # 5
    frequency:    0.8233835198
  - # 6
    frequency:    3.1206841592
  - # 7
    frequency:    3.1813050383
  - # 8
    frequency:    4.5028086995
  - # 9
    frequency:    5.0039837933
  - # 10
    frequency:    5.1229951865
  - # 11
    frequency:    6.5853198558
  - # 12
    frequency:    6.6192901180
  - # 13
    frequency:    7.2020642623
  - # 14
    frequency:    9.2778914380
  - # 15
    frequency:   13.2989474284
  - # 16
    frequency:   14.0733614462
  - # 17
    frequency:   14.0867653769
  - # 18
    frequency:   15.5505297344
  - # 19
    frequency:   15.5528137537
  - # 20
    frequency:   31.9901902836
  - # 21
    frequency:   67.8891965800

- q-position: [    0.0555556,    0.0000000,    0.0000000 ]
  distance:    0.0185493
  band:
  - # 1
    frequency:   -0.6390118777
  - # 2
    frequency:   -0.1393984278
  - # 3
    frequency:    0.3113331517
  - # 4
    frequency:    0.6222632782
  - # 5
    frequency:    0.9045473638
  - # 6
    frequency:    3.1255128057
  - # 7
    frequency:    3.1981204895
  - # 8
    frequency:    4.4888164868
  - # 9
    frequency:    4.9973881942
  - # 10
    frequency:    5.1376560015
  - # 11
    frequency:    6.5837749245
  - # 12
    frequency:    6.6245052531
  - # 13
    frequency:    7.1983135068
  - # 14
    frequency:    9.2587793840
  - # 15
    frequency:   13.2941132209
  - # 16
    frequency:   14.0733521949
  - # 17
    frequency:   14.0895271013
  - # 18
    frequency:   15.5512576640
  - # 19
    frequency:   15.5540626259
  - # 20
    frequency:   31.9809596127
  - # 21
    frequency:   67.8838618463

- q-position: [    0.0606061,    0.0000000,    0.0000000 ]
  distance:    0.0202356
  band:
  - # 1
    frequency:   -0.6309409417
  - # 2
    frequency:    0.0742197585
  - # 3
    frequency:    0.4196831852
  - # 4
    frequency:    0.6749197715
  - # 5
    frequency:    0.9853310089
  - # 6
    frequency:    3.1307532913
  - # 7
    frequency:    3.2162249760
  - # 8
    frequency:    4.4745963398
  - # 9
    frequency:    4.9902110273
  - # 10
    frequency:    5.1527625762
  - # 11
    frequency:    6.5820618406
  - # 12
    frequency:    6.6300409658
  - # 13
    frequency:    7.1942953736
  - # 14
    frequency:    9.2380131796
  - # 15
    frequency:   13.2887726890
  - # 16
    frequency:   14.0733503394
  - # 17
    frequency:   14.0925417319
  - # 18
    frequency:   15.5520129453
  - # 19
    frequency:   15.5554058256
  - # 20
    frequency:   31.9709434497
  - # 21
    frequency:   67.8780686212

- q-position: [    0.0656566,    0.0000000,    0.0000000 ]
  distance:    0.0219219
  band:
  - # 1
    frequency:   -0.6217127175
  - # 2
    frequency:    0.1559177594
  - # 3
    frequency:    0.5213841467
  - # 4
    frequency:    0.7268586907
  - # 5
    frequency:    1.0656887577
  - # 6
    frequency:    3.1363922710
  - # 7
    frequency:    3.2355487027
  - # 8
    frequency:    4.4602894579
  - # 9
    frequency:    4.9824655805
  - # 10
    frequency:    5.1682131533
  - # 11
    frequency:    6.5801766498
  - # 12
    frequency:    6.6358479144
  - # 13
    frequency:    7.1900360332
  - # 14
    frequency:    9.2156369464
  - # 15
    frequency:   13.2829182505
  - # 16
    frequency:   14.0733579189
  - # 17
    frequency:   14.0958058661
  - # 18
    frequency:   15.5527832082
  - # 19
    frequency:   15.5568360875
  - # 20
    frequency:   31.9601665153
  - # 21
    frequency:   67.8718299607

- q-position: [    0.0707071,    0.0000000,    0.0000000 ]
  distance:    0.0236082
  band:
  - # 1
    frequency:   -0.6112694487
  - # 2
    frequency:    0.2075195145
  - # 3
    frequency:    0.6149946657
  - # 4
    frequency:    0.7780688749
  - # 5
    frequency:    1.1455743363
  - # 6
    frequency:    3.1424151569
  - # 7
    frequency:    3.2560210912
  - # 8
    frequency:    4.4460228312
  - # 9
    frequency:    4.9741665983
  - # 10
    frequency:    5.1839223714
  - # 11
    frequency:    6.5781157321
  - # 12
    frequency:    6.6418721204
  - # 13
    frequency:    7.1855645837
  - # 14
    frequency:    9.1916981713
  - # 15
    frequency:   13.2765435148
  - # 16
    frequency:   14.0733770567
  - # 17
    frequency:   14.0993155927
  - # 18
    frequency:   15.5535547237
  - # 19
    frequency:   15.5583452937
  - # 20
    frequency:   31.9486553320
  - # 21
    frequency:   67.8651598582

- q-position: [    0.0757576,    0.0000000,    0.0000000 ]
  distance:    0.0252945
  band:
  - # 1
    frequency:   -0.5995467732
  - # 2
    frequency:    0.2529427968
  - # 3
    frequency:    0.7023593310
  - # 4
    frequency:    0.8285367906
  - # 5
    frequency:    1.2249408825
  - # 6
    frequency:    3.1488061125
  - # 7
    frequency:    3.2775714669
  - # 8
    frequency:    4.4319110243
  - # 9
    frequency:    4.9653303785
  - # 10
    frequency:    5.1998191264
  - # 11
    frequency:    6.5758759215
  - # 12
    frequency:    6.6480550106
  - # 13
    frequency:    7.1809131504
  - # 14
    frequency:    9.1662476056
  - # 15
    frequency:   13.2696435920
  - # 16
    frequency:   14.0734099385
  - # 17
    frequency:   14.1030664732
  - # 18
    frequency:   15.5543123935
  - # 19
    frequency:   15.5599244299
  - # 20
    frequency:   31.9364381396
  - # 21
    frequency:   67.8580731976

- q-position: [    0.0808081,    0.0000000,    0.0000000 ]
  distance:    0.0269808
  band:
  - # 1
    frequency:   -0.5864701948
  - # 2
    frequency:    0.2968454062
  - # 3
    frequency:    0.7850451256
  - # 4
    frequency:    0.8782470330
  - # 5
    frequency:    1.3037408993
  - # 6
    frequency:    3.1555480526
  - # 7
    frequency:    3.3001296490
  - # 8
    frequency:    4.4180578216
  - # 9
    frequency:    4.9559748814
  - # 10
    frequency:    5.2158445408
  - # 11
    frequency:    6.5734546175
  - # 12
    frequency:    6.6543335179
  - # 13
    frequency:    7.1761169483
  - # 14
    frequency:    9.1393391617
  - # 15
    frequency:   13.2622153773
  - # 16
    frequency:   14.0734587887
  - # 17
    frequency:   14.1070535304
  - # 18
    frequency:   15.5550397579
  - # 19
    frequency:   15.5615635428
  - # 20
    frequency:   31.9235448062
  - # 21
    frequency:   67.8505857037

- q-position: [    0.0858586,    0.0000000,    0.0000000 ]
  distance:    0.0286671
  band:
  - # 1
    frequency:   -0.5719511418
  - # 2
    frequency:    0.3408141008
  - # 3
    frequency:    0.8641366335
  - # 4
    frequency:    0.9271829400
  - # 5
    frequency:    1.3819261981
  - # 6
    frequency:    3.1626226502
  - # 7
    frequency:    3.3236264428
  - # 8
    frequency:    4.4045576637
  - # 9
    frequency:    4.9461198508
  - # 10
    frequency:    5.2319501126
  - # 11
    frequency:    6.5708498878
  - # 12
    frequency:    6.6606402588
  - # 13
    frequency:    7.1712142889
  - # 14
    frequency:    9.1110298079
  - # 15
    frequency:   13.2542578064
  - # 16
    frequency:   14.0735258467
  - # 17
    frequency:   14.1112712467
  - # 18
    frequency:   15.5557190225
  - # 19
    frequency:   15.5632516986
  - # 20
    frequency:   31.9100067330
  - # 21
    frequency:   67.8427138904

- q-position: [    0.0909091,    0.0000000,    0.0000000 ]
  distance:    0.0303534
  band:
  - # 1
    frequency:   -0.5558822135
  - # 2
    frequency:    0.3855069291
  - # 3
    frequency:    0.9403762298
  - # 4
    frequency:    0.9753272356
  - # 5
    frequency:    1.4594478494
  - # 6
    frequency:    3.1700103529
  - # 7
    frequency:    3.3479940358
  - # 8
    frequency:    4.3914968603
  - # 9
    frequency:    4.9357869438
  - # 10
    frequency:    5.2480960653
  - # 11
    frequency:    6.5680605592
  - # 12
    frequency:    6.6669038108
  - # 13
    frequency:    7.1662465043
  - # 14
    frequency:    9.0813794620
  - # 15
    frequency:   13.2457720778
  - # 16
    frequency:   14.0736133416
  - # 17
    frequency:   14.1157135698
  - # 18
    frequency:   15.5563311069
  - # 19
    frequency:   15.5649769453
  - # 20
    frequency:   31.8958567542
  - # 21
    frequency:   67.8344750056

- q-position: [    0.0959596,    0.0000000,    0.0000000 ]
  distance:    0.0320398
  band:
  - # 1
    frequency:   -0.5381310332
  - # 2
    frequency:    0.4312189616
  - # 3
    frequency:    1.0142824074
  - # 4
    frequency:    1.0226626479
  - # 5
    frequency:    1.5362561522
  - # 6
    frequency:    3.1776904097
  - # 7
    frequency:    3.3731663024
  - # 8
    frequency:    4.3789545856
  - # 9
    frequency:    4.9249998699
  - # 10
    frequency:    5.2642498984
  - # 11
    frequency:    6.5650862937
  - # 12
    frequency:    6.6730491184
  - # 13
    frequency:    7.1612577540
  - # 14
    frequency:    9.0504508833
  - # 15
    frequency:   13.2367618368
  - # 16
    frequency:   14.0737234672
  - # 17
    frequency:   14.1203739290
  - # 18
    frequency:   15.5568557144
  - # 19
    frequency:   15.5667262786
  - # 20
    frequency:   31.8811290330
  - # 21
    frequency:   67.8258869752

- q-position: [    0.1010101,    0.0000000,    0.0000000 ]
  distance:    0.0337261
  band:
  - # 1
    frequency:   -0.5185318187
  - # 2
    frequency:    0.4780796416
  - # 3
    frequency:    1.0691724811
  - # 4
    frequency:    1.0862261401
  - # 5
    frequency:    1.6123006303
  - # 6
    frequency:    3.1856409107
  - # 7
    frequency:    3.3990790228
  - # 8
    frequency:    4.3670036807
  - # 9
    frequency:    4.9137845332
  - # 10
    frequency:    5.2803851201
  - # 11
    frequency:    6.5619276515
  - # 12
    frequency:    6.6789980623
  - # 13
    frequency:    7.1562946769
  - # 14
    frequency:    9.0183095641
  - # 15
    frequency:   13.2272333225
  - # 16
    frequency:   14.0738583560
  - # 17
    frequency:   14.1252452577
  - # 18
    frequency:   15.5572714243
  - # 19
    frequency:   15.5684856127
  - # 20
    frequency:   31.8658589523
  - # 21
    frequency:   67.8169683445

- q-position: [    0.1060606,    0.0000000,    0.0000000 ]
  distance:    0.0354124
  band:
  - # 1
    frequency:   -0.4968732230
  - # 2
    frequency:    0.5261344506
  - # 3
    frequency:    1.1148411259
  - # 4
    frequency:    1.1564787403
  - # 5
    frequency:    1.6875300598
  - # 6
    frequency:    3.1938388419
  - # 7
    frequency:    3.4256700230
  - # 8
    frequency:    4.3557112878
  - # 9
    frequency:    4.9021691772
  - # 10
    frequency:    5.2964801460
  - # 11
    frequency:    6.5585861355
  - # 12
    frequency:    6.6846702288
  - # 13
    frequency:    7.1514058443
  - # 14
    frequency:    8.9850236210
  - # 15
    frequency:   13.2171954741
  - # 16
    frequency:   14.0740200535
  - # 17
    frequency:   14.1303200246
  - # 18
    frequency:   15.5575558049
  - # 19
    frequency:   15.5702397574
  - # 20
    frequency:   31.8500830018
  - # 21
    frequency:   67.8077382181

- q-position: [    0.1111111,    0.0000000,    0.0000000 ]
  distance:    0.0370987
  band:
  - # 1
    frequency:   -0.4728799288
  - # 2
    frequency:    0.5753829937
  - # 3
    frequency:    1.1596545096
  - # 4
    frequency:    1.2252423268
  - # 5
    frequency:    1.7618925318
  - # 6
    frequency:    3.2022601564
  - # 7
    frequency:    3.4528792426
  - # 8
    frequency:    4.3451393452
  - # 9
    frequency:    4.8901845246
  - # 10
    frequency:    5.3125173394
  - # 11
    frequency:    6.5550642210
  - # 12
    frequency:    6.6899839183
  - # 13
    frequency:    7.1466409708
  - # 14
    frequency:    8.9506636858
  - # 15
    frequency:   13.2066599973
  - # 16
    frequency:   14.0742104932
  - # 17
    frequency:   14.1355902702
  - # 18
    frequency:   15.5576855474
  - # 19
    frequency:   15.5719724021
  - # 20
    frequency:   31.8338386619
  - # 21
    frequency:   67.7982161988

- q-position: [    0.1161616,    0.0000000,    0.0000000 ]
  distance:    0.0387850
  band:
  - # 1
    frequency:   -0.4461833284
  - # 2
    frequency:    0.6257984203
  - # 3
    frequency:    1.2036004856
  - # 4
    frequency:    1.2926697351
  - # 5
    frequency:    1.8353355546
  - # 6
    frequency:    3.2108798655
  - # 7
    frequency:    3.4806487347
  - # 8
    frequency:    4.3353449690
  - # 9
    frequency:    4.8778639100
  - # 10
    frequency:    5.3284821798
  - # 11
    frequency:    6.5513653662
  - # 12
    frequency:    6.6948574260
  - # 13
    frequency:    7.1420498445
  - # 14
    frequency:    8.9153027961
  - # 15
    frequency:   13.1956413931
  - # 16
    frequency:   14.0744314715
  - # 17
    frequency:   14.1410476482
  - # 18
    frequency:   15.5576366187
  - # 19
    frequency:   15.5736661084
  - # 20
    frequency:   31.8171642833
  - # 21
    frequency:   67.7884223248

- q-position: [    0.1212121,    0.0000000,    0.0000000 ]
  distance:    0.0404713
  band:
  - # 1
    frequency:   -0.4162719534
  - # 2
    frequency:    0.6773380390
  - # 3
    frequency:    1.2466691686
  - # 4
    frequency:    1.3588778885
  - # 5
    frequency:    1.9078061957
  - # 6
    frequency:    3.2196721507
  - # 7
    frequency:    3.5089226026
  - # 8
    frequency:    4.3263807445
  - # 9
    frequency:    4.8652433966
  - # 10
    frequency:    5.3443625390
  - # 11
    frequency:    6.5474940062
  - # 12
    frequency:    6.6992106114
  - # 13
    frequency:    7.1376809535
  - # 14
    frequency:    8.8790162868
  - # 15
    frequency:   13.1841569480
  - # 16
    frequency:   14.0746846243
  - # 17
    frequency:   14.1466834709
  - # 18
    frequency:   15.5573844312
  - # 19
    frequency:   15.5753023112
  - # 20
    frequency:   31.8000989649
  - # 21
    frequency:   67.7783770065

- q-position: [    0.1262626,    0.0000000,    0.0000000 ]
  distance:    0.0421576
  band:
  - # 1
    frequency:   -0.3824011712
  - # 2
    frequency:    0.7299494492
  - # 3
    frequency:    1.2888532209
  - # 4
    frequency:    1.4239570138
  - # 5
    frequency:    1.9792512703
  - # 6
    frequency:    3.2286104992
  - # 7
    frequency:    3.5376468756
  - # 8
    frequency:    4.3182949524
  - # 9
    frequency:    4.8523618718
  - # 10
    frequency:    5.3601480550
  - # 11
    frequency:    6.5434555301
  - # 12
    frequency:    6.7029667508
  - # 13
    frequency:    7.1335798131
  - # 14
    frequency:    8.8418816805
  - # 15
    frequency:   13.1722266903
  - # 16
    frequency:   14.0749714035
  - # 17
    frequency:   14.1524887568
  - # 18
    frequency:   15.5569040279
  - # 19
    frequency:   15.5768613305
  - # 20
    frequency:   31.7826824285
  - # 21
    frequency:   67.7681009626

- q-position: [    0.1313131,    0.0000000,    0.0000000 ]
  distance:    0.0438439
  band:
  - # 1
    frequency:   -0.3434115195
  - # 2
    frequency:    0.7835742443
  - # 3
    frequency:    1.3301480946
  - # 4
    frequency:    1.4879771419
  - # 5
    frequency:    2.0496175764
  - # 6
    frequency:    3.2376678655
  - # 7
    frequency:    3.5667693205
  - # 8
    frequency:    4.3111317481
  - # 9
    frequency:    4.8392611143
  - # 10
    frequency:    5.3758295886
  - # 11
    frequency:    6.5392562417
  - # 12
    frequency:    6.7060546253
  - # 13
    frequency:    7.1297870339
  - # 14
    frequency:    8.8039785790
  - # 15
    frequency:   13.1598733130
  - # 16
    frequency:   14.0752930564
  - # 17
    frequency:   14.1584542786
  - # 18
    frequency:   15.5561702795
  - # 19
    frequency:   15.5783223938
  - # 20
    frequency:   31.7649548915
  - # 21
    frequency:   67.7576151556

- q-position: [    0.1363636,    0.0000000,    0.0000000 ]
  distance:    0.0455302
  band:
  - # 1
    frequency:   -0.2973077873
  - # 2
    frequency:    0.8381503318
  - # 3
    frequency:    1.3705522360
  - # 4
    frequency:    1.5509927912
  - # 5
    frequency:    2.1188521825
  - # 6
    frequency:    3.2468168598
  - # 7
    frequency:    3.5962391872
  - # 8
    frequency:    4.3049313182
  - # 9
    frequency:    4.8259858246
  - # 10
    frequency:    5.3913987570
  - # 11
    frequency:    6.5349033044
  - # 12
    frequency:    6.7084107517
  - # 13
    frequency:    7.1263362234
  - # 14
    frequency:    8.7653885538
  - # 15
    frequency:   13.1471220667
  - # 16
    frequency:   14.0756506055
  - # 17
    frequency:   14.1645706116
  - # 18
    frequency:   15.5551580915
  - # 19
    frequency:   15.5796636699
  - # 20
    frequency:   31.7469569389
  - # 21
    frequency:   67.7469407277

- q-position: [    0.1414141,    0.0000000,    0.0000000 ]
  distance:    0.0472165
  band:
  - # 1
    frequency:   -0.2400404822
  - # 2
    frequency:    0.8936134308
  - # 3
    frequency:    1.4100672565
  - # 4
    frequency:    1.6130464056
  - # 5
    frequency:    2.1869027703
  - # 6
    frequency:    3.2560299652
  - # 7
    frequency:    3.6260068786
  - # 8
    frequency:    4.2997300334
  - # 9
    frequency:    4.8125836113
  - # 10
    frequency:    5.4068475313
  - # 11
    frequency:    6.5304046734
  - # 12
    frequency:    6.7099816156
  - # 13
    frequency:    7.1232518578
  - # 14
    frequency:    8.7261950365
  - # 15
    frequency:   13.1340006256
  - # 16
    frequency:   14.0760448312
  - # 17
    frequency:   14.1708281808
  - # 18
    frequency:   15.5538426184
  - # 19
    frequency:   15.5808623160
  - # 20
    frequency:   31.7287293928
  - # 21
    frequency:   67.7360989358

- q-position: [    0.1464646,    0.0000000,    0.0000000 ]
  distance:    0.0489028
  band:
  - # 1
    frequency:   -0.1600683347
  - # 2
    frequency:    0.9498980650
  - # 3
    frequency:    1.4486980748
  - # 4
    frequency:    1.6741709196
  - # 5
    frequency:    2.2537180356
  - # 6
    frequency:    3.2652797853
  - # 7
    frequency:    3.6560235331
  - # 8
    frequency:    4.2955606226
  - # 9
    frequency:    4.7991049245
  - # 10
    frequency:    5.4221678955
  - # 11
    frequency:    6.5257690154
  - # 12
    frequency:    6.7107257216
  - # 13
    frequency:    7.1205473090
  - # 14
    frequency:    8.6864832082
  - # 15
    frequency:   13.1205389279
  - # 16
    frequency:   14.0764762556
  - # 17
    frequency:   14.1772173058
  - # 18
    frequency:   15.5521994822
  - # 19
    frequency:   15.5818945366
  - # 20
    frequency:   31.7103131824
  - # 21
    frequency:   67.7251110885

- q-position: [    0.1515152,    0.0000000,    0.0000000 ]
  distance:    0.0505891
  band:
  - # 1
    frequency:    0.0871340043
  - # 2
    frequency:    1.0069382328
  - # 3
    frequency:    1.4864530334
  - # 4
    frequency:    1.7343917014
  - # 5
    frequency:    2.3192481500
  - # 6
    frequency:    3.2745393216
  - # 7
    frequency:    3.6862405034
  - # 8
    frequency:    4.2924523936
  - # 9
    frequency:    4.7856029301
  - # 10
    frequency:    5.4373515573
  - # 11
    frequency:    6.5210056172
  - # 12
    frequency:    6.7106152624
  - # 13
    frequency:    7.1182232248
  - # 14
    frequency:    8.6463398870
  - # 15
    frequency:   13.1067689950
  - # 16
    frequency:   14.0769451292
  - # 17
    frequency:   14.1837282427
  - # 18
    frequency:   15.5502049924
  - # 19
    frequency:   15.5827356564
  - # 20
    frequency:   31.6917492133
  - # 21