nqpoint: 300    
npath: 3      
segment_nqpoint:
- 100
- 100
- 100
labels:
- [ 'G', 'M' ]
- [ 'M', 'K' ]
- [ 'K', 'G' ]
reciprocal_lattice:
- [   0.29656989,   0.17122470,   0.00000000 ] # a*
- [   0.00000000,   0.34244941,   0.00000000 ] # b*
- [   0.00000000,   0.00000000,   0.03725184 ] # c*
natom: 8      
lattice:
- [     3.371886519180703,     0.000000000000000,     0.000000000000000 ] # a
- [    -1.685943259590352,     2.920139384275533,     0.000000000000000 ] # b
- [     0.000000000000000,     0.000000000000000,    26.844308921121698 ] # c
points:
- symbol: C # 1
  coordinates: [  0.000000000000000,  0.000000000000000,  0.522613066655586 ]
  mass: 12.010700
- symbol: C # 2
  coordinates: [  0.666666984744048,  0.333332985985145,  0.380138818387099 ]
  mass: 12.010700
- symbol: N # 3
  coordinates: [  0.333332985432215,  0.666666983183674,  0.616764585598264 ]
  mass: 14.006700
- symbol: N # 4
  coordinates: [  0.666666984744048,  0.333332985985145,  0.426558124398723 ]
  mass: 14.006700
- symbol: O # 5
  coordinates: [  0.333332985432215,  0.666666983183674,  0.664733406755031 ]
  mass: 15.999400
- symbol: O # 6
  coordinates: [  0.666666984744048,  0.333332985985145,  0.335266593244969 ]
  mass: 15.999400
- symbol: Sc # 7
  coordinates: [  0.333332985432215,  0.666666983183674,  0.476208070774463 ]
  mass: 44.955912
- symbol: Sc # 8
  coordinates: [  0.666666984744048,  0.333332985985145,  0.570054707341120 ]
  mass: 44.955912

phonon:
- q-position: [    0.0000000,    0.0000000,    0.0000000 ]
  distance:    0.0000000
  band:
  - # 1
    frequency:   -0.9593822608
  - # 2
    frequency:   -0.9593822608
  - # 3
    frequency:   -0.0000014909
  - # 4
    frequency:    0.0000003111
  - # 5
    frequency:    0.0000024484
  - # 6
    frequency:    3.6784568914
  - # 7
    frequency:    3.6784568914
  - # 8
    frequency:    5.4982606246
  - # 9
    frequency:    5.4982606246
  - # 10
    frequency:    5.7035342233
  - # 11
    frequency:    6.7773067584
  - # 12
    frequency:    6.7773067584
  - # 13
    frequency:    7.6885614327
  - # 14
    frequency:    9.4414465293
  - # 15
    frequency:    9.4414465293
  - # 16
    frequency:   10.8024192668
  - # 17
    frequency:   12.7058043229
  - # 18
    frequency:   12.7058043229
  - # 19
    frequency:   17.7317666785
  - # 20
    frequency:   17.7317666785
  - # 21
    frequency:   17.8992165489
  - # 22
    frequency:   38.7981301771
  - # 23
    frequency:   44.5239076798
  - # 24
    frequency:   69.3222329233

- q-position: [    0.0050505,    0.0000000,    0.0000000 ]
  distance:    0.0017295
  band:
  - # 1
    frequency:   -0.9585805253
  - # 2
    frequency:   -0.9570336791
  - # 3
    frequency:   -0.1551249289
  - # 4
    frequency:    0.0740007606
  - # 5
    frequency:    0.1997733954
  - # 6
    frequency:    3.6786337981
  - # 7
    frequency:    3.6794467113
  - # 8
    frequency:    5.4966755875
  - # 9
    frequency:    5.4985512542
  - # 10
    frequency:    5.7053219877
  - # 11
    frequency:    6.7774455780
  - # 12
    frequency:    6.7775056327
  - # 13
    frequency:    7.6890076641
  - # 14
    frequency:    9.4411524438
  - # 15
    frequency:    9.4413597207
  - # 16
    frequency:   10.8015701818
  - # 17
    frequency:   12.7058214702
  - # 18
    frequency:   12.7074308558
  - # 19
    frequency:   17.7308777223
  - # 20
    frequency:   17.7318135738
  - # 21
    frequency:   17.8993317031
  - # 22
    frequency:   38.7980748736
  - # 23
    frequency:   44.5231334431
  - # 24
    frequency:   69.3207172092

- q-position: [    0.0101010,    0.0000000,    0.0000000 ]
  distance:    0.0034591
  band:
  - # 1
    frequency:   -0.9561992266
  - # 2
    frequency:   -0.9500678275
  - # 3
    frequency:   -0.1905314564
  - # 4
    frequency:    0.1481224741
  - # 5
    frequency:    0.3160164175
  - # 6
    frequency:    3.6791647013
  - # 7
    frequency:    3.6824062515
  - # 8
    frequency:    5.4920904888
  - # 9
    frequency:    5.4994221515
  - # 10
    frequency:    5.7105159937
  - # 11
    frequency:    6.7778612073
  - # 12
    frequency:    6.7780986228
  - # 13
    frequency:    7.6903465443
  - # 14
    frequency:    9.4402654907
  - # 15
    frequency:    9.4410942468
  - # 16
    frequency:   10.7990235191
  - # 17
    frequency:   12.7058729304
  - # 18
    frequency:   12.7123052200
  - # 19
    frequency:   17.7281951842
  - # 20
    frequency:   17.7319541425
  - # 21
    frequency:   17.8996957196
  - # 22
    frequency:   38.7979091387
  - # 23
    frequency:   44.5208117423
  - # 24
    frequency:   69.3161747812

- q-position: [    0.0151515,    0.0000000,    0.0000000 ]
  distance:    0.0051886
  band:
  - # 1
    frequency:   -0.9523070168
  - # 2
    frequency:   -0.9386971835
  - # 3
    frequency:   -0.1998095570
  - # 4
    frequency:    0.2224701088
  - # 5
    frequency:    0.4284402858
  - # 6
    frequency:    3.6800501587
  - # 7
    frequency:    3.6873059475
  - # 8
    frequency:    5.4849457075
  - # 9
    frequency:    5.5008703472
  - # 10
    frequency:    5.7186780425
  - # 11
    frequency:    6.7785511630
  - # 12
    frequency:    6.7790749591
  - # 13
    frequency:    7.6925785809
  - # 14
    frequency:    9.4387716266
  - # 15
    frequency:    9.4406350093
  - # 16
    frequency:   10.7947810835
  - # 17
    frequency:   12.7059587603
  - # 18
    frequency:   12.7204117340
  - # 19
    frequency:   17.7236756024
  - # 20
    frequency:   17.7321880342
  - # 21
    frequency:   17.9003607008
  - # 22
    frequency:   38.7976334982
  - # 23
    frequency:   44.5169456041
  - # 24
    frequency:   69.3086197575

- q-position: [    0.0202020,    0.0000000,    0.0000000 ]
  distance:    0.0069182
  band:
  - # 1
    frequency:   -0.9470086173
  - # 2
    frequency:   -0.9231961514
  - # 3
    frequency:   -0.1926506605
  - # 4
    frequency:    0.2971191165
  - # 5
    frequency:    0.5420343497
  - # 6
    frequency:    3.6812911306
  - # 7
    frequency:    3.6940971618
  - # 8
    frequency:    5.4758014342
  - # 9
    frequency:    5.5028909104
  - # 10
    frequency:    5.7292515892
  - # 11
    frequency:    6.7795113227
  - # 12
    frequency:    6.7804171214
  - # 13
    frequency:    7.6957044506
  - # 14
    frequency:    9.4366476014
  - # 15
    frequency:    9.4399569997
  - # 16
    frequency:   10.7888459789
  - # 17
    frequency:   12.7060790608
  - # 18
    frequency:   12.7317243360
  - # 19
    frequency:   17.7172574194
  - # 20
    frequency:   17.7325146675
  - # 21
    frequency:   17.9014025568
  - # 22
    frequency:   38.7972488263
  - # 23
    frequency:   44.5115400659
  - # 24
    frequency:   69.2980755857

- q-position: [    0.0252525,    0.0000000,    0.0000000 ]
  distance:    0.0086477
  band:
  - # 1
    frequency:   -0.9404320717
  - # 2
    frequency:   -0.9038141635
  - # 3
    frequency:   -0.1708551618
  - # 4
    frequency:    0.3721063564
  - # 5
    frequency:    0.6576301256
  - # 6
    frequency:    3.6828890245
  - # 7
    frequency:    3.7027131115
  - # 8
    frequency:    5.4652071431
  - # 9
    frequency:    5.5054769758
  - # 10
    frequency:    5.7416922837
  - # 11
    frequency:    6.7807359490
  - # 12
    frequency:    6.7821014727
  - # 13
    frequency:    7.6997247506
  - # 14
    frequency:    9.4338611903
  - # 15
    frequency:    9.4390255307
  - # 16
    frequency:   10.7812227553
  - # 17
    frequency:   12.7062339867
  - # 18
    frequency:   12.7462066919
  - # 19
    frequency:   17.7088742613
  - # 20
    frequency:   17.7329332337
  - # 21
    frequency:   17.9029076557
  - # 22
    frequency:   38.7967563416
  - # 23
    frequency:   44.5046021674
  - # 24
    frequency:   69.2845749190

- q-position: [    0.0303030,    0.0000000,    0.0000000 ]
  distance:    0.0103773
  band:
  - # 1
    frequency:   -0.9327141852
  - # 2
    frequency:   -0.8807014879
  - # 3
    frequency:   -0.1299003935
  - # 4
    frequency:    0.4474266019
  - # 5
    frequency:    0.7750361537
  - # 6
    frequency:    3.6848457588
  - # 7
    frequency:    3.7130701125
  - # 8
    frequency:    5.4536356583
  - # 9
    frequency:    5.5086197798
  - # 10
    frequency:    5.7555339124
  - # 11
    frequency:    6.7822177224
  - # 12
    frequency:    6.7840991281
  - # 13
    frequency:    7.7046396608
  - # 14
    frequency:    9.4303715187
  - # 15
    frequency:    9.4377965588
  - # 16
    frequency:   10.7719176208
  - # 17
    frequency:   12.7064237574
  - # 18
    frequency:   12.7638123415
  - # 19
    frequency:   17.6984683930
  - # 20
    frequency:   17.7334427021
  - # 21
    frequency:   17.9049592696
  - # 22
    frequency:   38.7961576024
  - # 23
    frequency:   44.4961409359
  - # 24
    frequency:   69.2681594451

- q-position: [    0.0353535,    0.0000000,    0.0000000 ]
  distance:    0.0121068
  band:
  - # 1
    frequency:   -0.9239866392
  - # 2
    frequency:   -0.8538634054
  - # 3
    frequency:   -0.0225091416
  - # 4
    frequency:    0.5230346091
  - # 5
    frequency:    0.8937870694
  - # 6
    frequency:    3.6871638452
  - # 7
    frequency:    3.7250690940
  - # 8
    frequency:    5.4414691011
  - # 9
    frequency:    5.5123087082
  - # 10
    frequency:    5.7704024409
  - # 11
    frequency:    6.7839477841
  - # 12
    frequency:    6.7863770403
  - # 13
    frequency:    7.7104485271
  - # 14
    frequency:    9.4261294773
  - # 15
    frequency:    9.4362170949
  - # 16
    frequency:   10.7609387256
  - # 17
    frequency:   12.7066486693
  - # 18
    frequency:   12.7844848784
  - # 19
    frequency:   17.6860012583
  - # 20
    frequency:   17.7340418272
  - # 21
    frequency:   17.9076269094
  - # 22
    frequency:   38.7954545003
  - # 23
    frequency:   44.4861673701
  - # 24
    frequency:   69.2488796666

- q-position: [    0.0404040,    0.0000000,    0.0000000 ]
  distance:    0.0138363
  band:
  - # 1
    frequency:   -0.9143648880
  - # 2
    frequency:   -0.8231398907
  - # 3
    frequency:    0.1406806012
  - # 4
    frequency:    0.5988515958
  - # 5
    frequency:    1.0133801536
  - # 6
    frequency:    3.6898464886
  - # 7
    frequency:    3.7385973305
  - # 8
    frequency:    5.4290098972
  - # 9
    frequency:    5.5165313510
  - # 10
    frequency:    5.7860049692
  - # 11
    frequency:    6.7859157845
  - # 12
    frequency:    6.7888992783
  - # 13
    frequency:    7.7171493793
  - # 14
    frequency:    9.4210782273
  - # 15
    frequency:    9.4342257017
  - # 16
    frequency:   10.7482965209
  - # 17
    frequency:   12.7069091076
  - # 18
    frequency:   12.8081581600
  - # 19
    frequency:   17.6714593841
  - # 20
    frequency:   17.7347291560
  - # 21
    frequency:   17.9109602698
  - # 22
    frequency:   38.7946492520
  - # 23
    frequency:   44.4746944184
  - # 24
    frequency:   69.2267946368

- q-position: [    0.0454545,    0.0000000,    0.0000000 ]
  distance:    0.0155659
  band:
  - # 1
    frequency:   -0.9039410459
  - # 2
    frequency:   -0.7881953671
  - # 3
    frequency:    0.2098412793
  - # 4
    frequency:    0.6747742519
  - # 5
    frequency:    1.1333551578
  - # 6
    frequency:    3.6928977061
  - # 7
    frequency:    3.7535303389
  - # 8
    frequency:    5.4164986959
  - # 9
    frequency:    5.5212735669
  - # 10
    frequency:    5.8021117288
  - # 11
    frequency:    6.7881099406
  - # 12
    frequency:    6.7916284695
  - # 13
    frequency:    7.7247383979
  - # 14
    frequency:    9.4151537955
  - # 15
    frequency:    9.4317530737
  - # 16
    frequency:   10.7340041980
  - # 17
    frequency:   12.7072055550
  - # 18
    frequency:   12.8347565432
  - # 19
    frequency:   17.6548556341
  - # 20
    frequency:   17.7355030381
  - # 21
    frequency:   17.9149878006
  - # 22
    frequency:   38.7937443904
  - # 23
    frequency:   44.4617369546
  - # 24
    frequency:   69.2019716511

- q-position: [    0.0505051,    0.0000000,    0.0000000 ]
  distance:    0.0172954
  band:
  - # 1
    frequency:   -0.8927809042
  - # 2
    frequency:   -0.7484990866
  - # 3
    frequency:    0.2689154473
  - # 4
    frequency:    0.7506842646
  - # 5
    frequency:    1.2533162195
  - # 6
    frequency:    3.6963224647
  - # 7
    frequency:    3.7697338917
  - # 8
    frequency:    5.4041311610
  - # 9
    frequency:    5.5265195545
  - # 10
    frequency:    5.8185391468
  - # 11
    frequency:    6.7905170982
  - # 12
    frequency:    6.7945273738
  - # 13
    frequency:    7.7332093506
  - # 14
    frequency:    9.4082857578
  - # 15
    frequency:    9.4287226963
  - # 16
    frequency:   10.7180782096
  - # 17
    frequency:   12.7075385965
  - # 18
    frequency:   12.8641951431
  - # 19
    frequency:   17.6362270521
  - # 20
    frequency:   17.7363616363
  - # 21
    frequency:   17.9197186675
  - # 22
    frequency:   38.7927427540
  - # 23
    frequency:   44.4473117490
  - # 24
    frequency:   69.1744858970

- q-position: [    0.0555556,    0.0000000,    0.0000000 ]
  distance:    0.0190250
  band:
  - # 1
    frequency:   -0.8809243458
  - # 2
    frequency:   -0.7032750915
  - # 3
    frequency:    0.3236998977
  - # 4
    frequency:    0.8264567649
  - # 5
    frequency:    1.3729305287
  - # 6
    frequency:    3.7001268374
  - # 7
    frequency:    3.7870661053
  - # 8
    frequency:    5.3920712904
  - # 9
    frequency:    5.5322519296
  - # 10
    frequency:    5.8351363010
  - # 11
    frequency:    6.7931227996
  - # 12
    frequency:    6.7975605515
  - # 13
    frequency:    7.7425530130
  - # 14
    frequency:    9.4003980152
  - # 15
    frequency:    9.4250515807
  - # 16
    frequency:   10.7005388693
  - # 17
    frequency:   12.7079089178
  - # 18
    frequency:   12.8963801150
  - # 19
    frequency:   17.6156309380
  - # 20
    frequency:   17.7373029379
  - # 21
    frequency:   17.9251464580
  - # 22
    frequency:   38.7916474746
  - # 23
    frequency:   44.4314374365
  - # 24
    frequency:   69.1444200639

- q-position: [    0.0606061,    0.0000000,    0.0000000 ]
  distance:    0.0207545
  band:
  - # 1
    frequency:   -0.8683879885
  - # 2
    frequency:   -0.6513913701
  - # 3
    frequency:    0.3763050100
  - # 4
    frequency:    0.9019667886
  - # 5
    frequency:    1.4919183449
  - # 6
    frequency:    3.7043181778
  - # 7
    frequency:    3.8053795767
  - # 8
    frequency:    5.3804612411
  - # 9
    frequency:    5.5384518074
  - # 10
    frequency:    5.8517747703
  - # 11
    frequency:    6.7959113547
  - # 12
    frequency:    6.8006960850
  - # 13
    frequency:    7.7527565959
  - # 14
    frequency:    9.3914096640
  - # 15
    frequency:    9.4206510688
  - # 16
    frequency:   10.6814110257
  - # 17
    frequency:   12.7083172953
  - # 18
    frequency:   12.9312089568
  - # 19
    frequency:   17.5931405366
  - # 20
    frequency:   17.7383247679
  - # 21
    frequency:   17.9312532586
  - # 22
    frequency:   38.7904619644
  - # 23
    frequency:   44.4141344807
  - # 24
    frequency:   69.1118639168

- q-position: [    0.0656566,    0.0000000,    0.0000000 ]
  distance:    0.0224841
  band:
  - # 1
    frequency:   -0.8551688675
  - # 2
    frequency:   -0.5911234410
  - # 3
    frequency:    0.4277602693
  - # 4
    frequency:    0.9770935245
  - # 5
    frequency:    1.6100409877
  - # 6
    frequency:    3.7089053128
  - # 7
    frequency:    3.8245235507
  - # 8
    frequency:    5.3694283019
  - # 9
    frequency:    5.5450988891
  - # 10
    frequency:    5.8683412209
  - # 11
    frequency:    6.7988659150
  - # 12
    frequency:    6.8039073120
  - # 13
    frequency:    7.7638031936
  - # 14
    frequency:    9.3812359715
  - # 15
    frequency:    9.4154277037
  - # 16
    frequency:   10.6607247964
  - # 17
    frequency:   12.7087645770
  - # 18
    frequency:   12.9685708359
  - # 19
    frequency:   17.5688411719
  - # 20
    frequency:   17.7394248027
  - # 21
    frequency:   17.9380132707
  - # 22
    frequency:   38.7891899011
  - # 23
    frequency:   44.3954251343
  - # 24
    frequency:   69.0769138349

- q-position: [    0.0707071,    0.0000000,    0.0000000 ]
  distance:    0.0242136
  band:
  - # 1
    frequency:   -0.8412482256
  - # 2
    frequency:   -0.5196143467
  - # 3
    frequency:    0.4786493309
  - # 4
    frequency:    1.0517225857
  - # 5
    frequency:    1.7270896157
  - # 6
    frequency:    3.7138987529
  - # 7
    frequency:    3.8443461193
  - # 8
    frequency:    5.3590897013
  - # 9
    frequency:    5.5521715492
  - # 10
    frequency:    5.8847320261
  - # 11
    frequency:    6.8019685490
  - # 12
    frequency:    6.8071745249
  - # 13
    frequency:    7.7756712670
  - # 14
    frequency:    9.3697894685
  - # 15
    frequency:    9.4092841591
  - # 16
    frequency:   10.6385163434
  - # 17
    frequency:   12.7092516521
  - # 18
    frequency:   13.0083469413
  - # 19
    frequency:   17.5428271631
  - # 20
    frequency:   17.7406005844
  - # 21
    frequency:   17.9453956328
  - # 22
    frequency:   38.7878352124
  - # 23
    frequency:   44.3753333967
  - # 24
    frequency:   69.0396723204

- q-position: [    0.0757576,    0.0000000,    0.0000000 ]
  distance:    0.0259431
  band:
  - # 1
    frequency:   -0.8265948161
  - # 2
    frequency:   -0.4314116069
  - # 3
    frequency:    0.5293362922
  - # 4
    frequency:    1.1257467636
  - # 5
    frequency:    1.8428757157
  - # 6
    frequency:    3.7193109188
  - # 7
    frequency:    3.8646964647
  - # 8
    frequency:    5.3495557917
  - # 9
    frequency:    5.5596469245
  - # 10
    frequency:    5.9008493682
  - # 11
    frequency:    6.8052003165
  - # 12
    frequency:    6.8104865895
  - # 13
    frequency:    7.7883341684
  - # 14
    frequency:    9.3569811818
  - # 15
    frequency:    9.4021202229
  - # 16
    frequency:   10.6148286644
  - # 17
    frequency:   12.7097794095
  - # 18
    frequency:   13.0504108633
  - # 19
    frequency:   17.5151995413
  - # 20
    frequency:   17.7418495362
  - # 21
    frequency:   17.9533664339
  - # 22
    frequency:   38.7864020587
  - # 23
    frequency:   44.3538849672
  - # 24
    frequency:   69.0002474784

- q-position: [    0.0808081,    0.0000000,    0.0000000 ]
  distance:    0.0276727
  band:
  - # 1
    frequency:   -0.8111674266
  - # 2
    frequency:   -0.3129056964
  - # 3
    frequency:    0.5800658806
  - # 4
    frequency:    1.1990657593
  - # 5
    frequency:    1.9572233552
  - # 6
    frequency:    3.7251563834
  - # 7
    frequency:    3.8854271755
  - # 8
    frequency:    5.3409319943
  - # 9
    frequency:    5.5675010003
  - # 10
    frequency:    5.9165984371
  - # 11
    frequency:    6.8085413428
  - # 12
    frequency:    6.8138424327
  - # 13
    frequency:    7.8017597094
  - # 14
    frequency:    9.3427220360
  - # 15
    frequency:    9.3938338266
  - # 16
    frequency:   10.5897123633
  - # 17
    frequency:   12.7103486847
  - # 18
    frequency:   13.0946290046
  - # 19
    frequency:   17.4860644332
  - # 20
    frequency:   17.7431689779
  - # 21
    frequency:   17.9618900540
  - # 22
    frequency:   38.7848948149
  - # 23
    frequency:   44.3311071961
  - # 24
    frequency:   68.9587524733

- q-position: [    0.0858586,    0.0000000,    0.0000000 ]
  distance:    0.0294022
  band:
  - # 1
    frequency:   -0.7949165343
  - # 2
    frequency:   -0.0746076680
  - # 3
    frequency:    0.6310151565
  - # 4
    frequency:    1.2715853094
  - # 5
    frequency:    2.0699629109
  - # 6
    frequency:    3.7314521263
  - # 7
    frequency:    3.9063966703
  - # 8
    frequency:    5.3333197532
  - # 9
    frequency:    5.5757086941
  - # 10
    frequency:    5.9318854874
  - # 11
    frequency:    6.8119708890
  - # 12
    frequency:    6.8172523463
  - # 13
    frequency:    7.8159097611
  - # 14
    frequency:    9.3269244663
  - # 15
    frequency:    9.3843221142
  - # 16
    frequency:   10.5632263567
  - # 17
    frequency:   12.7109601949
  - # 18
    frequency:   13.1408610234
  - # 19
    frequency:   17.4555319431
  - # 20
    frequency:   17.7445561422
  - # 21
    frequency:   17.9709300060
  - # 22
    frequency:   38.7833180514
  - # 23
    frequency:   44.3070290311
  - # 24
    frequency:   68.9153049636

- q-position: [    0.0909091,    0.0000000,    0.0000000 ]
  distance:    0.0311318
  band:
  - # 1
    frequency:   -0.7777851169
  - # 2
    frequency:    0.3011089452
  - # 3
    frequency:    0.6823233873
  - # 4
    frequency:    1.3432160171
  - # 5
    frequency:    2.1809259067
  - # 6
    frequency:    3.7382177981
  - # 7
    frequency:    3.9274717748
  - # 8
    frequency:    5.3268166486
  - # 9
    frequency:    5.5842439328
  - # 10
    frequency:    5.9466166318
  - # 11
    frequency:    6.8154674187
  - # 12
    frequency:    6.8207390460
  - # 13
    frequency:    7.8307398679
  - # 14
    frequency:    9.3095042952
  - # 15
    frequency:    9.3734825437
  - # 16
    frequency:   10.5354384651
  - # 17
    frequency:   12.7116144655
  - # 18
    frequency:   13.1889603114
  - # 19
    frequency:   17.4237153772
  - # 20
    frequency:   17.7460081909
  - # 21
    frequency:   17.9804494372
  - # 22
    frequency:   38.7816765134
  - # 23
    frequency:   44.2816809624
  - # 24
    frequency:   68.8700265207

- q-position: [    0.0959596,    0.0000000,    0.0000000 ]
  distance:    0.0328613
  band:
  - # 1
    frequency:   -0.7597086749
  - # 2
    frequency:    0.4364245599
  - # 3
    frequency:    0.7341102199
  - # 4
    frequency:    1.4138720942
  - # 5
    frequency:    2.2899406188
  - # 6
    frequency:    3.7454759896
  - # 7
    frequency:    3.9485304955
  - # 8
    frequency:    5.3215157467
  - # 9
    frequency:    5.5930797232
  - # 10
    frequency:    5.9606973446
  - # 11
    frequency:    6.8190086583
  - # 12
    frequency:    6.8243384194
  - # 13
    frequency:    7.8461988437
  - # 14
    frequency:    9.2903829387
  - # 15
    frequency:    9.3612140113
  - # 16
    frequency:   10.5064258296
  - # 17
    frequency:   12.7123117476
  - # 18
    frequency:   13.2387745040
  - # 19
    frequency:   17.3907306931
  - # 20
    frequency:   17.7475222314
  - # 21
    frequency:   17.9904114127
  - # 22
    frequency:   38.7799751000
  - # 23
    frequency:   44.2550949632
  - # 24
    frequency:   68.8230420336

- q-position: [    0.1010101,    0.0000000,    0.0000000 ]
  distance:    0.0345908
  band:
  - # 1
    frequency:   -0.7406145106
  - # 2
    frequency:    0.5416906031
  - # 3
    frequency:    0.7864854035
  - # 4
    frequency:    1.4834701363
  - # 5
    frequency:    2.3968281698
  - # 6
    frequency:    3.7532525004
  - # 7
    frequency:    3.9694650289
  - # 8
    frequency:    5.3175042115
  - # 9
    frequency:    5.6021882100
  - # 10
    frequency:    5.9740327237
  - # 11
    frequency:    6.8225716510
  - # 12
    frequency:    6.8280998848
  - # 13
    frequency:    7.8622283041
  - # 14
    frequency:    9.2694900177
  - # 15
    frequency:    9.3474179924
  - # 16
    frequency:   10.4762750910
  - # 17
    frequency:   12.7130519310
  - # 18
    frequency:   13.2901460239
  - # 19
    frequency:   17.3566960906
  - # 20
    frequency:   17.7490953336
  - # 21
    frequency:   18.0007790679
  - # 22
    frequency:   38.7782188419
  - # 23
    frequency:   44.2273044291
  - # 24
    frequency:   68.7744791047

- q-position: [    0.1060606,    0.0000000,    0.0000000 ]
  distance:    0.0363204
  band:
  - # 1
    frequency:   -0.7204202566
  - # 2
    frequency:    0.6317182499
  - # 3
    frequency:    0.8395496409
  - # 4
    frequency:    1.5519279978
  - # 5
    frequency:    2.5013989019
  - # 6
    frequency:    3.7615765991
  - # 7
    frequency:    3.9901850289
  - # 8
    frequency:    5.3148611664
  - # 9
    frequency:    5.6115407229
  - # 10
    frequency:    5.9865286318
  - # 11
    frequency:    6.8261328015
  - # 12
    frequency:    6.8320862765
  - # 13
    frequency:    7.8787620781
  - # 14
    frequency:    9.2467664642
  - # 15
    frequency:    9.3319996903
  - # 16
    frequency:   10.4450822701
  - # 17
    frequency:   12.7138344549
  - # 18
    frequency:   13.3429126522
  - # 19
    frequency:   17.3217316894
  - # 20
    frequency:   17.7507245457
  - # 21
    frequency:   18.0115156893
  - # 22
    frequency:   38.7764128790
  - # 23
    frequency:   44.1983441133
  - # 24
    frequency:   68.7244674402

- q-position: [    0.1111111,    0.0000000,    0.0000000 ]
  distance:    0.0380499
  band:
  - # 1
    frequency:   -0.6990315768
  - # 2
    frequency:    0.7119251454
  - # 3
    frequency:    0.8933843822
  - # 4
    frequency:    1.6191637990
  - # 5
    frequency:    2.6034488827
  - # 6
    frequency:    3.7704812644
  - # 7
    frequency:    4.0106211264
  - # 8
    frequency:    5.3136547661
  - # 9
    frequency:    5.6211078064
  - # 10
    frequency:    5.9980938877
  - # 11
    frequency:    6.8296679118
  - # 12
    frequency:    6.8363731678
  - # 13
    frequency:    7.8957254211
  - # 14
    frequency:    9.2221682142
  - # 15
    frequency:    9.3148691845
  - # 16
    frequency:   10.4129522909
  - # 17
    frequency:   12.7146582210
  - # 18
    frequency:   13.3969081230
  - # 19
    frequency:   17.2859592610
  - # 20
    frequency:   17.7524069104
  - # 21
    frequency:   18.0225847586
  - # 22
    frequency:   38.7745624362
  - # 23
    frequency:   44.1682500610
  - # 24
    frequency:   68.6731382390

- q-position: [    0.1161616,    0.0000000,    0.0000000 ]
  distance:    0.0397795
  band:
  - # 1
    frequency:   -0.6763388537
  - # 2
    frequency:    0.7849702555
  - # 3
    frequency:    0.9480298863
  - # 4
    frequency:    1.6850950773
  - # 5
    frequency:    2.7027564729
  - # 6
    frequency:    3.7800033935
  - # 7
    frequency:    4.0307286496
  - # 8
    frequency:    5.3139384105
  - # 9
    frequency:    5.6308592310
  - # 10
    frequency:    6.0086437294
  - # 11
    frequency:    6.8331522047
  - # 12
    frequency:    6.8410475457
  - # 13
    frequency:    7.9130339368
  - # 14
    frequency:    9.1956705851
  - # 15
    frequency:    9.2959425712
  - # 16
    frequency:   10.3799981053
  - # 17
    frequency:   12.7155215119
  - # 18
    frequency:   13.4519627356
  - # 19
    frequency:   17.2495019948
  - # 20
    frequency:   17.7541394809
  - # 21
    frequency:   18.0339499847
  - # 22
    frequency:   38.7726728003
  - # 23
    frequency:   44.1370595405
  - # 24
    frequency:   68.6206235840

- q-position: [    0.1212121,    0.0000000,    0.0000000 ]
  distance:    0.0415090
  band:
  - # 1
    frequency:   -0.6522125249
  - # 2
    frequency:    0.8524055008
  - # 3
    frequency:    1.0034574902
  - # 4
    frequency:    1.7496380892
  - # 5
    frequency:    2.7990789567
  - # 6
    frequency:    3.7901839638
  - # 7
    frequency:    4.0504914277
  - # 8
    frequency:    5.3157460108
  - # 9
    frequency:    5.6407639821
  - # 10
    frequency:    6.0181047986
  - # 11
    frequency:    6.8365603366
  - # 12
    frequency:    6.8462057738
  - # 13
    frequency:    7.9305920895
  - # 14
    frequency:    9.1672734343
  - # 15
    frequency:    9.2751430889
  - # 16
    frequency:   10.3463393996
  - # 17
    frequency:   12.7164219211
  - # 18
    frequency:   13.5079039747
  - # 19
    frequency:   17.2124842897
  - # 20
    frequency:   17.7559193355
  - # 21
    frequency:   18.0455753350
  - # 22
    frequency:   38.7707492949
  - # 23
    frequency:   44.1048109729
  - # 24
    frequency:   68.5670558398

- q-position: [    0.1262626,    0.0000000,    0.0000000 ]
  distance:    0.0432386
  band:
  - # 1
    frequency:   -0.6264964906
  - # 2
    frequency:    0.9152765905
  - # 3
    frequency:    1.0595510365
  - # 4
    frequency:    1.8127072661
  - # 5
    frequency:    2.8921493494
  - # 6
    frequency:    3.8010681242
  - # 7
    frequency:    4.0699254562
  - # 8
    frequency:    5.3190861908
  - # 9
    frequency:    5.6507902234
  - # 10
    frequency:    6.0264219047
  - # 11
    frequency:    6.8398663955
  - # 12
    frequency:    6.8519508193
  - # 13
    frequency:    7.9482911614
  - # 14
    frequency:    9.1370071881
  - # 15
    frequency:    9.2524022236
  - # 16
    frequency:   10.3121008911
  - # 17
    frequency:   12.7173562966
  - # 18
    frequency:   13.5645571329
  - # 19
    frequency:   17.1750315649
  - # 20
    frequency:   17.7577435923
  - # 21
    frequency:   18.0574250737
  - # 22
    frequency:   38.7687972565
  - # 23
    frequency:   44.0715438602
  - # 24
    frequency:   68.5125670607

- q-position: [    0.1313131,    0.0000000,    0.0000000 ]
  distance:    0.0449681
  band:
  - # 1
    frequency:   -0.5989986152
  - # 2
    frequency:    0.9743727043
  - # 3
    frequency:    1.1161132988
  - # 4
    frequency:    1.8742148313
  - # 5
    frequency:    2.9816736456
  - # 6
    frequency:    3.8127051969
  - # 7
    frequency:    4.0890820563
  - # 8
    frequency:    5.3239352798
  - # 9
    frequency:    5.6609052307
  - # 10
    frequency:    6.0335668075
  - # 11
    frequency:    6.8430438857
  - # 12
    frequency:    6.8583887816
  - # 13
    frequency:    7.9660064787
  - # 14
    frequency:    9.1049398268
  - # 15
    frequency:    9.2276607864
  - # 16
    frequency:   10.2774102644
  - # 17
    frequency:   12.7183207042
  - # 18
    frequency:   13.6217459246
  - # 19
    frequency:   17.1372700897
  - # 20
    frequency:   17.7596094228
  - # 21
    frequency:   18.0694638097
  - # 22
    frequency:   38.7668220094
  - # 23
    frequency:   44.0372987121
  - # 24
    frequency:   68.4572884124

- q-position: [    0.1363636,    0.0000000,    0.0000000 ]
  distance:    0.0466976
  band:
  - # 1
    frequency:   -0.5694766298
  - # 2
    frequency:    1.0303220782
  - # 3
    frequency:    1.1728988387
  - # 4
    frequency:    1.9340705903
  - # 5
    frequency:    3.0673289933
  - # 6
    frequency:    3.8251485593
  - # 7