nqpoint: 300    
npath: 3      
segment_nqpoint:
- 100
- 100
- 100
labels:
- [ 'G', 'M' ]
- [ 'M', 'K' ]
- [ 'K', 'G' ]
reciprocal_lattice:
- [   0.28762564,   0.16606074,   0.00000000 ] # a*
- [   0.00000000,   0.33212149,   0.00000000 ] # b*
- [   0.00000000,   0.00000000,   0.03464814 ] # c*
natom: 9      
lattice:
- [     3.476741456041697,     0.000000000000000,     0.000000000000000 ] # a
- [    -1.738370728020849,     3.010946423310881,     0.000000000000000 ] # b
- [     0.000000000000000,     0.000000000000000,    28.861575426521426 ] # c
points:
- symbol: C # 1
  coordinates: [  0.000000000000000,  0.000000000000000,  0.513425718136920 ]
  mass: 12.010700
- symbol: C # 2
  coordinates: [  0.333332985432215,  0.666666983183674,  0.646433393567589 ]
  mass: 12.010700
- symbol: C # 3
  coordinates: [  0.666666984744047,  0.333332985985145,  0.353090275743308 ]
  mass: 12.010700
- symbol: N # 4
  coordinates: [  0.333332985432215,  0.666666983183674,  0.603168226487766 ]
  mass: 14.006700
- symbol: N # 5
  coordinates: [  0.666666984744047,  0.333332985985145,  0.311833289312743 ]
  mass: 14.006700
- symbol: O # 6
  coordinates: [  0.333332985432215,  0.666666983183674,  0.688166710687257 ]
  mass: 15.999400
- symbol: S # 7
  coordinates: [  0.666666984744047,  0.333332985985145,  0.411347704376549 ]
  mass: 32.065000
- symbol: Zr # 8
  coordinates: [  0.333332985432215,  0.666666983183674,  0.470192046005387 ]
  mass: 91.224000
- symbol: Zr # 9
  coordinates: [  0.666666984744047,  0.333332985985145,  0.553608991496261 ]
  mass: 91.224000

phonon:
- q-position: [    0.0000000,    0.0000000,    0.0000000 ]
  distance:    0.0000000
  band:
  - # 1
    frequency:   -1.1506204856
  - # 2
    frequency:   -1.1506204855
  - # 3
    frequency:   -1.0061251787
  - # 4
    frequency:   -1.0061251787
  - # 5
    frequency:   -0.0000182898
  - # 6
    frequency:   -0.0000002233
  - # 7
    frequency:    0.0000162456
  - # 8
    frequency:    4.1259136621
  - # 9
    frequency:    4.1259136621
  - # 10
    frequency:    5.0627842412
  - # 11
    frequency:    5.7309438973
  - # 12
    frequency:    5.7309438973
  - # 13
    frequency:    6.7680781947
  - # 14
    frequency:    6.7680781948
  - # 15
    frequency:    7.7853132614
  - # 16
    frequency:    9.1844629790
  - # 17
    frequency:   10.7004375376
  - # 18
    frequency:   10.7004375377
  - # 19
    frequency:   14.9321236027
  - # 20
    frequency:   16.1826818571
  - # 21
    frequency:   16.1826818572
  - # 22
    frequency:   17.4375187781
  - # 23
    frequency:   17.4375187781
  - # 24
    frequency:   20.1163139212
  - # 25
    frequency:   38.3565996782
  - # 26
    frequency:   64.8195769944
  - # 27
    frequency:   68.7502364846

- q-position: [    0.0050505,    0.0000000,    0.0000000 ]
  distance:    0.0016774
  band:
  - # 1
    frequency:   -1.1500381621
  - # 2
    frequency:   -1.1483824034
  - # 3
    frequency:   -1.0055288839
  - # 4
    frequency:   -1.0044748560
  - # 5
    frequency:    0.0020170881
  - # 6
    frequency:    0.0585171161
  - # 7
    frequency:    0.0992527068
  - # 8
    frequency:    4.1260326598
  - # 9
    frequency:    4.1268051313
  - # 10
    frequency:    5.0622063200
  - # 11
    frequency:    5.7309092850
  - # 12
    frequency:    5.7317224327
  - # 13
    frequency:    6.7681655630
  - # 14
    frequency:    6.7685102383
  - # 15
    frequency:    7.7849016918
  - # 16
    frequency:    9.1838094861
  - # 17
    frequency:   10.7004848153
  - # 18
    frequency:   10.7006161060
  - # 19
    frequency:   14.9318542185
  - # 20
    frequency:   16.1825219710
  - # 21
    frequency:   16.1830258632
  - # 22
    frequency:   17.4375256115
  - # 23
    frequency:   17.4377476435
  - # 24
    frequency:   20.1162681539
  - # 25
    frequency:   38.3565854859
  - # 26
    frequency:   64.8195144451
  - # 27
    frequency:   68.7490909132

- q-position: [    0.0101010,    0.0000000,    0.0000000 ]
  distance:    0.0033548
  band:
  - # 1
    frequency:   -1.1482921169
  - # 2
    frequency:   -1.1417089294
  - # 3
    frequency:   -1.0037369363
  - # 4
    frequency:   -0.9994756734
  - # 5
    frequency:    0.0080456325
  - # 6
    frequency:    0.1170157925
  - # 7
    frequency:    0.1986401546
  - # 8
    frequency:    4.1263895413
  - # 9
    frequency:    4.1294728312
  - # 10
    frequency:    5.0604828531
  - # 11
    frequency:    5.7308060278
  - # 12
    frequency:    5.7340512059
  - # 13
    frequency:    6.7684273515
  - # 14
    frequency:    6.7698030580
  - # 15
    frequency:    7.7836685854
  - # 16
    frequency:    9.1818501806
  - # 17
    frequency:   10.7006264581
  - # 18
    frequency:   10.7011515111
  - # 19
    frequency:   14.9310470619
  - # 20
    frequency:   16.1820434185
  - # 21
    frequency:   16.1840549532
  - # 22
    frequency:   17.4375461472
  - # 23
    frequency:   17.4384336094
  - # 24
    frequency:   20.1161308925
  - # 25
    frequency:   38.3565429497
  - # 26
    frequency:   64.8193268886
  - # 27
    frequency:   68.7456566271

- q-position: [    0.0151515,    0.0000000,    0.0000000 ]
  distance:    0.0050321
  band:
  - # 1
    frequency:   -1.1453851669
  - # 2
    frequency:   -1.1307275999
  - # 3
    frequency:   -1.0007401285
  - # 4
    frequency:   -0.9909737184
  - # 5
    frequency:    0.0180933911
  - # 6
    frequency:    0.1754781150
  - # 7
    frequency:    0.2982830844
  - # 8
    frequency:    4.1269839725
  - # 9
    frequency:    4.1338967674
  - # 10
    frequency:    5.0576443286
  - # 11
    frequency:    5.7306358597
  - # 12
    frequency:    5.7379100734
  - # 13
    frequency:    6.7688626132
  - # 14
    frequency:    6.7719467747
  - # 15
    frequency:    7.7816187511
  - # 16
    frequency:    9.1785885741
  - # 17
    frequency:   10.7008618967
  - # 18
    frequency:   10.7020428539
  - # 19
    frequency:   14.9297051122
  - # 20
    frequency:   16.1812495114
  - # 21
    frequency:   16.1857603716
  - # 22
    frequency:   17.4375804916
  - # 23
    frequency:   17.4395747891
  - # 24
    frequency:   20.1159022578
  - # 25
    frequency:   38.3564721919
  - # 26
    frequency:   64.8190145986
  - # 27
    frequency:   68.7399409035

- q-position: [    0.0202020,    0.0000000,    0.0000000 ]
  distance:    0.0067095
  band:
  - # 1
    frequency:   -1.1413221406
  - # 2
    frequency:   -1.1156680962
  - # 3
    frequency:   -0.9965230534
  - # 4
    frequency:   -0.9786821798
  - # 5
    frequency:    0.0321639668
  - # 6
    frequency:    0.2338871729
  - # 7
    frequency:    0.3982762690
  - # 8
    frequency:    4.1278153981
  - # 9
    frequency:    4.1400440384
  - # 10
    frequency:    5.0537402775
  - # 11
    frequency:    5.7304016543
  - # 12
    frequency:    5.7432666004
  - # 13
    frequency:    6.7694697780
  - # 14
    frequency:    6.7749251035
  - # 15
    frequency:    7.7787602110
  - # 16
    frequency:    9.1740304958
  - # 17
    frequency:   10.7011901868
  - # 18
    frequency:   10.7032886392
  - # 19
    frequency:   14.9278333059
  - # 20
    frequency:   16.1801457500
  - # 21
    frequency:   16.1881276221
  - # 22
    frequency:   17.4376288218
  - # 23
    frequency:   17.4411680507
  - # 24
    frequency:   20.1155824511
  - # 25
    frequency:   38.3563734156
  - # 26
    frequency:   64.8185780306
  - # 27
    frequency:   68.7319558478

- q-position: [    0.0252525,    0.0000000,    0.0000000 ]
  distance:    0.0083869
  band:
  - # 1
    frequency:   -1.1361100638
  - # 2
    frequency:   -1.0968848064
  - # 3
    frequency:   -0.9910639992
  - # 4
    frequency:   -0.9621400246
  - # 5
    frequency:    0.0502695043
  - # 6
    frequency:    0.2922274726
  - # 7
    frequency:    0.4986801150
  - # 8
    frequency:    4.1288830450
  - # 9
    frequency:    4.1478694466
  - # 10
    frequency:    5.0488375231
  - # 11
    frequency:    5.7301074008
  - # 12
    frequency:    5.7500776010
  - # 13
    frequency:    6.7702466637
  - # 14
    frequency:    6.7787156148
  - # 15
    frequency:    7.7751042100
  - # 16
    frequency:    9.1681840565
  - # 17
    frequency:   10.7016100155
  - # 18
    frequency:   10.7048867804
  - # 19
    frequency:   14.9254384931
  - # 20
    frequency:   16.1787397943
  - # 21
    frequency:   16.1911366097
  - # 22
    frequency:   17.4376913850
  - # 23
    frequency:   17.4432090364
  - # 24
    frequency:   20.1151717528
  - # 25
    frequency:   38.3562469045
  - # 26
    frequency:   64.8180178212
  - # 27
    frequency:   68.7217183585

- q-position: [    0.0303030,    0.0000000,    0.0000000 ]
  distance:    0.0100643
  band:
  - # 1
    frequency:   -1.1297583871
  - # 2
    frequency:   -1.0748739034
  - # 3
    frequency:   -0.9843347814
  - # 4
    frequency:   -0.9406701316
  - # 5
    frequency:    0.0724392522
  - # 6
    frequency:    0.3504852517
  - # 7
    frequency:    0.5995166182
  - # 8
    frequency:    4.1301859259
  - # 9
    frequency:    4.1573163092
  - # 10
    frequency:    5.0430180374
  - # 11
    frequency:    5.7297581706
  - # 12
    frequency:    5.7582910065
  - # 13
    frequency:    6.7711904926
  - # 14
    frequency:    6.7832900847
  - # 15
    frequency:    7.7706652304
  - # 16
    frequency:    9.1610596012
  - # 17
    frequency:   10.7021197106
  - # 18
    frequency:   10.7068346060
  - # 19
    frequency:   14.9225293793
  - # 20
    frequency:   16.1770414233
  - # 21
    frequency:   16.1947618363
  - # 22
    frequency:   17.4377684983
  - # 23
    frequency:   17.4456921884
  - # 24
    frequency:   20.1146705213
  - # 25
    frequency:   38.3560930216
  - # 26
    frequency:   64.8173347860
  - # 27
    frequency:   68.7092500783

- q-position: [    0.0353535,    0.0000000,    0.0000000 ]
  distance:    0.0117417
  band:
  - # 1
    frequency:   -1.1222792251
  - # 2
    frequency:   -1.0502538316
  - # 3
    frequency:   -0.9763004976
  - # 4
    frequency:   -0.9133684722
  - # 5
    frequency:    0.0987331149
  - # 6
    frequency:    0.4086486862
  - # 7
    frequency:    0.7007696006
  - # 8
    frequency:    4.1317228457
  - # 9
    frequency:    4.1683174282
  - # 10
    frequency:    5.0363766341
  - # 11
    frequency:    5.7293600737
  - # 12
    frequency:    5.7678478479
  - # 13
    frequency:    6.7722979118
  - # 14
    frequency:    6.7886149209
  - # 15
    frequency:    7.7654610083
  - # 16
    frequency:    9.1526696490
  - # 17
    frequency:   10.7027172523
  - # 18
    frequency:   10.7091288684
  - # 19
    frequency:   14.9191164529
  - # 20
    frequency:   16.1750624837
  - # 21
    frequency:   16.1989726443
  - # 22
    frequency:   17.4378605476
  - # 23
    frequency:   17.4486107821
  - # 24
    frequency:   20.1140791921
  - # 25
    frequency:   38.3559122082
  - # 26
    frequency:   64.8165299183
  - # 27
    frequency:   68.6945773318

- q-position: [    0.0404040,    0.0000000,    0.0000000 ]
  distance:    0.0134190
  band:
  - # 1
    frequency:   -1.1136875664
  - # 2
    frequency:   -1.0236684095
  - # 3
    frequency:   -0.9669191984
  - # 4
    frequency:   -0.8791647623
  - # 5
    frequency:    0.1292631425
  - # 6
    frequency:    0.4667079893
  - # 7
    frequency:    0.8023884709
  - # 8
    frequency:    4.1334924088
  - # 9
    frequency:    4.1807961765
  - # 10
    frequency:    5.0290187040
  - # 11
    frequency:    5.7289202078
  - # 12
    frequency:    5.7786841628
  - # 13
    frequency:    6.7735650183
  - # 14
    frequency:    6.7946516468
  - # 15
    frequency:    7.7595125544
  - # 16
    frequency:    9.1430288237
  - # 17
    frequency:   10.7034002872
  - # 18
    frequency:   10.7117657547
  - # 19
    frequency:   14.9152119011
  - # 20
    frequency:   16.1728168270
  - # 21
    frequency:   16.2037335052
  - # 22
    frequency:   17.4379679865
  - # 23
    frequency:   17.4519569652
  - # 24
    frequency:   20.1133982753
  - # 25
    frequency:   38.3557049825
  - # 26
    frequency:   64.8156043868
  - # 27
    frequency:   68.6777310490

- q-position: [    0.0454545,    0.0000000,    0.0000000 ]
  distance:    0.0150964
  band:
  - # 1
    frequency:   -1.1040014051
  - # 2
    frequency:   -0.9956152725
  - # 3
    frequency:   -0.9561414696
  - # 4
    frequency:   -0.8369505190
  - # 5
    frequency:    0.1642280477
  - # 6
    frequency:    0.5246554119
  - # 7
    frequency:    0.9042943226
  - # 8
    frequency:    4.1354930290
  - # 9
    frequency:    4.1946676484
  - # 10
    frequency:    5.0210581574
  - # 11
    frequency:    5.7284465978
  - # 12
    frequency:    5.7907326862
  - # 13
    frequency:    6.7749873871
  - # 14
    frequency:    6.8013574288
  - # 15
    frequency:    7.7528441754
  - # 16
    frequency:    9.1321537759
  - # 17
    frequency:   10.7041661443
  - # 18
    frequency:   10.7147408997
  - # 19
    frequency:   14.9108295160
  - # 20
    frequency:   16.1703202360
  - # 21
    frequency:   16.2090043474
  - # 22
    frequency:   17.4380913354
  - # 23
    frequency:   17.4557218027
  - # 24
    frequency:   20.1126283539
  - # 25
    frequency:   38.3554719378
  - # 26
    frequency:   64.8145595329
  - # 27
    frequency:   68.6587466762

- q-position: [    0.0505051,    0.0000000,    0.0000000 ]
  distance:    0.0167738
  band:
  - # 1
    frequency:   -1.0932417403
  - # 2
    frequency:   -0.9662949262
  - # 3
    frequency:   -0.9439099291
  - # 4
    frequency:   -0.7856775474
  - # 5
    frequency:    0.2039691683
  - # 6
    frequency:    0.5824851602
  - # 7
    frequency:    1.0063870695
  - # 8
    frequency:    4.1377229419
  - # 9
    frequency:    4.2098398319
  - # 10
    frequency:    5.0126156761
  - # 11
    frequency:    5.7279481275
  - # 12
    frequency:    5.8039242385
  - # 13
    frequency:    6.7765601045
  - # 14
    frequency:    6.8086856282
  - # 15
    frequency:    7.7454834975
  - # 16
    frequency:    9.1200630987
  - # 17
    frequency:   10.7050118540
  - # 18
    frequency:   10.7180494011
  - # 19
    frequency:   14.9059845934
  - # 20
    frequency:   16.1675903411
  - # 21
    frequency:   16.2147409168
  - # 22
    frequency:   17.4382311797
  - # 23
    frequency:   17.4598953272
  - # 24
    frequency:   20.1117700814
  - # 25
    frequency:   38.3552137407
  - # 26
    frequency:   64.8133968675
  - # 27
    frequency:   68.6376640732

- q-position: [    0.0555556,    0.0000000,    0.0000000 ]
  distance:    0.0184512
  band:
  - # 1
    frequency:   -1.0814323873
  - # 2
    frequency:   -0.9355875330
  - # 3
    frequency:   -0.9301586380
  - # 4
    frequency:   -0.7243197967
  - # 5
    frequency:    0.2490599632
  - # 6
    frequency:    0.6401932504
  - # 7
    frequency:    1.1085524514
  - # 8
    frequency:    4.1401802202
  - # 9
    frequency:    4.2262147565
  - # 10
    frequency:    5.0038173228
  - # 11
    frequency:    5.7274344639
  - # 12
    frequency:    5.8181887820
  - # 13
    frequency:    6.7782778038
  - # 14
    frequency:    6.8165863647
  - # 15
    frequency:    7.7374614884
  - # 16
    frequency:    9.1067772390
  - # 17
    frequency:   10.7059341677
  - # 18
    frequency:   10.7216858366
  - # 19
    frequency:   14.9006938253
  - # 20
    frequency:   16.1646465261
  - # 21
    frequency:   16.2208951650
  - # 22
    frequency:   17.4383881680
  - # 23
    frequency:   17.4644665932
  - # 24
    frequency:   20.1108241791
  - # 25
    frequency:   38.3549311290
  - # 26
    frequency:   64.8121180682
  - # 27
    frequency:   68.6145273984

- q-position: [    0.0606061,    0.0000000,    0.0000000 ]
  distance:    0.0201286
  band:
  - # 1
    frequency:   -1.0685995499
  - # 2
    frequency:   -0.9148124076
  - # 3
    frequency:   -0.9031424716
  - # 4
    frequency:   -0.6517186317
  - # 5
    frequency:    0.3004376436
  - # 6
    frequency:    0.6977773193
  - # 7
    frequency:    1.2106680662
  - # 8
    frequency:    4.1428627919
  - # 9
    frequency:    4.2436895827
  - # 10
    frequency:    4.9947935121
  - # 11
    frequency:    5.7269159743
  - # 12
    frequency:    5.8334561577
  - # 13
    frequency:    6.7801347047
  - # 14
    frequency:    6.8250070779
  - # 15
    frequency:    7.7288124786
  - # 16
    frequency:    9.0923184068
  - # 17
    frequency:   10.7069295803
  - # 18
    frequency:   10.7256442837
  - # 19
    frequency:   14.8949751903
  - # 20
    frequency:   16.1615098246
  - # 21
    frequency:   16.2274156591
  - # 22
    frequency:   17.4385630101
  - # 23
    frequency:   17.4694237357
  - # 24
    frequency:   20.1097914333
  - # 25
    frequency:   38.3546249092
  - # 26
    frequency:   64.8107249751
  - # 27
    frequency:   68.5893849808

- q-position: [    0.0656566,    0.0000000,    0.0000000 ]
  distance:    0.0218060
  band:
  - # 1
    frequency:   -1.0547711219
  - # 2
    frequency:   -0.8977859551
  - # 3
    frequency:   -0.8684799098
  - # 4
    frequency:   -0.5664076679
  - # 5
    frequency:    0.3595401761
  - # 6
    frequency:    0.7552364090
  - # 7
    frequency:    1.3126079641
  - # 8
    frequency:    4.1457684619
  - # 9
    frequency:    4.2621576065
  - # 10
    frequency:    4.9856783093
  - # 11
    frequency:    5.7264036376
  - # 12
    frequency:    5.8496565435
  - # 13
    frequency:    6.7821246550
  - # 14
    frequency:    6.8338930761
  - # 15
    frequency:    7.7195741768
  - # 16
    frequency:    9.0767104837
  - # 17
    frequency:   10.7079943538
  - # 18
    frequency:   10.7299183415
  - # 19
    frequency:   14.8888478414
  - # 20
    frequency:   16.1582028066
  - # 21
    frequency:   16.2342480064
  - # 22
    frequency:   17.4387564742
  - # 23
    frequency:   17.4747540320
  - # 24
    frequency:   20.1086726920
  - # 25
    frequency:   38.3542959538
  - # 26
    frequency:   64.8092195870
  - # 27
    frequency:   68.5622891800

- q-position: [    0.0707071,    0.0000000,    0.0000000 ]
  distance:    0.0234833
  band:
  - # 1
    frequency:   -1.0399757102
  - # 2
    frequency:   -0.8789827975
  - # 3
    frequency:   -0.8310402271
  - # 4
    frequency:   -0.4662768752
  - # 5
    frequency:    0.4282204191
  - # 6
    frequency:    0.8125707397
  - # 7
    frequency:    1.4142456944
  - # 8
    frequency:    4.1488949382
  - # 9
    frequency:    4.2815091622
  - # 10
    frequency:    4.9766090086
  - # 11
    frequency:    5.7259089490
  - # 12
    frequency:    5.8667206877
  - # 13
    frequency:    6.7842411759
  - # 14
    frequency:    6.8431880676
  - # 15
    frequency:    7.7097876794
  - # 16
    frequency:    9.0599789333
  - # 17
    frequency:   10.7091245417
  - # 18
    frequency:   10.7345011542
  - # 19
    frequency:   14.8823319943
  - # 20
    frequency:   16.1547494576
  - # 21
    frequency:   16.2413352892
  - # 22
    frequency:   17.4389693843
  - # 23
    frequency:   17.4804439655
  - # 24
    frequency:   20.1074688617
  - # 25
    frequency:   38.3539451988
  - # 26
    frequency:   64.8076040567
  - # 27
    frequency:   68.5332962354

- q-position: [    0.0757576,    0.0000000,    0.0000000 ]
  distance:    0.0251607
  band:
  - # 1
    frequency:   -1.0242414130
  - # 2
    frequency:   -0.8582936893
  - # 3
    frequency:   -0.7901761957
  - # 4
    frequency:   -0.3463686584
  - # 5
    frequency:    0.5078268842
  - # 6
    frequency:    0.8697814829
  - # 7
    frequency:    1.5154559456
  - # 8
    frequency:    4.1522398608
  - # 9
    frequency:    4.3016324232
  - # 10
    frequency:    4.9677259244
  - # 11
    frequency:    5.7254438209
  - # 12
    frequency:    5.8845799751
  - # 13
    frequency:    6.7864775085
  - # 14
    frequency:    6.8528346684
  - # 15
    frequency:    7.6994974675
  - # 16
    frequency:    9.0421507150
  - # 17
    frequency:   10.7103160154
  - # 18
    frequency:   10.7393854367
  - # 19
    frequency:   14.8754488165
  - # 20
    frequency:   16.1511750485
  - # 21
    frequency:   16.2486185034
  - # 22
    frequency:   17.4392026170
  - # 23
    frequency:   17.4864792920
  - # 24
    frequency:   20.1061809038
  - # 25
    frequency:   38.3535736408
  - # 26
    frequency:   64.8058806868
  - # 27
    frequency:   68.5024661028

- q-position: [    0.0808081,    0.0000000,    0.0000000 ]
  distance:    0.0268381
  band:
  - # 1
    frequency:   -1.0075944276
  - # 2
    frequency:   -0.8355942893
  - # 3
    frequency:   -0.7450993566
  - # 4
    frequency:   -0.1801908768
  - # 5
    frequency:    0.5972640935
  - # 6
    frequency:    0.9268705425
  - # 7
    frequency:    1.6161150579
  - # 8
    frequency:    4.1558008356
  - # 9
    frequency:    4.3224141154
  - # 10
    frequency:    4.9591723241
  - # 11
    frequency:    5.7250204786
  - # 12
    frequency:    5.9031663804
  - # 13
    frequency:    6.7888266623
  - # 14
    frequency:    6.8627748892
  - # 15
    frequency:    7.6887513886
  - # 16
    frequency:    9.0232542028
  - # 17
    frequency:   10.7115644904
  - # 18
    frequency:   10.7445635024
  - # 19
    frequency:   14.8682203195
  - # 20
    frequency:   16.1475059983
  - # 21
    frequency:   16.2560369973
  - # 22
    frequency:   17.4394570974
  - # 23
    frequency:   17.4928451070
  - # 24
    frequency:   20.1048098312
  - # 25
    frequency:   38.3531823333
  - # 26
    frequency:   64.8040519242
  - # 27
    frequency:   68.4698622814

- q-position: [    0.0858586,    0.0000000,    0.0000000 ]
  distance:    0.0285155
  band:
  - # 1
    frequency:   -0.9900575927
  - # 2
    frequency:   -0.8107415834
  - # 3
    frequency:   -0.6947785806
  - # 4
    frequency:    0.2132965054
  - # 5
    frequency:    0.6924112663
  - # 6
    frequency:    0.9838403487
  - # 7
    frequency:    1.7161007251
  - # 8
    frequency:    4.1595754718
  - # 9
    frequency:    4.3437401780
  - # 10
    frequency:    4.9510944186
  - # 11
    frequency:    5.7246513537
  - # 12
    frequency:    5.9224123530
  - # 13
    frequency:    6.7912814652
  - # 14
    frequency:    6.8729506027
  - # 15
    frequency:    7.6776006159
  - # 16
    frequency:    9.0033191104
  - # 17
    frequency:   10.7128655534
  - # 18
    frequency:   10.7500272914
  - # 19
    frequency:   14.8606692528
  - # 20
    frequency:   16.1437697308
  - # 21
    frequency:   16.2635289042
  - # 22
    frequency:   17.4397337955
  - # 23
    frequency:   17.4995259144
  - # 24
    frequency:   20.1033567043
  - # 25
    frequency:   38.3527723837
  - # 26
    frequency:   64.8021203550
  - # 27
    frequency:   68.4355516303

- q-position: [    0.0909091,    0.0000000,    0.0000000 ]
  distance:    0.0301929
  band:
  - # 1
    frequency:   -0.9716489916
  - # 2
    frequency:   -0.7835683711
  - # 3
    frequency:   -0.6377594792
  - # 4
    frequency:    0.3433653630
  - # 5
    frequency:    0.7886594439
  - # 6
    frequency:    1.0406936686
  - # 7
    frequency:    1.8152911778
  - # 8
    frequency:    4.1635614238
  - # 9
    frequency:    4.3654964328
  - # 10
    frequency:    4.9436413150
  - # 11
    frequency:    5.7243489744
  - # 12
    frequency:    5.9422506711
  - # 13
    frequency:    6.7938346144
  - # 14
    frequency:    6.8833039978
  - # 15
    frequency:    7.6660995771
  - # 16
    frequency:    8.9823764242
  - # 17
    frequency:   10.7142146898
  - # 18
    frequency:   10.7557684006
  - # 19
    frequency:   14.8528190025
  - # 20
    frequency:   16.1399945243
  - # 21
    frequency:   16.2710315667
  - # 22
    frequency:   17.4400337214
  - # 23
    frequency:   17.5065056950
  - # 24
    frequency:   20.1018226276
  - # 25
    frequency:   38.3523449501
  - # 26
    frequency:   64.8000886989
  - # 27
    frequency:   68.3996041747

- q-position: [    0.0959596,    0.0000000,    0.0000000 ]
  distance:    0.0318702
  band:
  - # 1
    frequency:   -0.9523807230
  - # 2
    frequency:   -0.7538747936
  - # 3
    frequency:   -0.5718093071
  - # 4
    frequency:    0.4348849036
  - # 5
    frequency:    0.8831274609
  - # 6
    frequency:    1.0974334340
  - # 7
    frequency:    1.9135640845
  - # 8
    frequency:    4.1677564361
  - # 9
    frequency:    4.3875693527
  - # 10
    frequency:    4.9369648108
  - # 11
    frequency:    5.7241258544
  - # 12
    frequency:    5.9626142922
  - # 13
    frequency:    6.7964787275
  - # 14
    frequency:    6.8937780299
  - # 15
    frequency:    7.6543058443
  - # 16
    frequency:    8.9604583449
  - # 17
    frequency:   10.7156073104
  - # 18
    frequency:   10.7617781147
  - # 19
    frequency:   14.8446934929
  - # 20
    frequency:   16.1362093572
  - # 21
    frequency:   16.2784819480
  - # 22
    frequency:   17.4403579206
  - # 23
    frequency:   17.5137679753
  - # 24
    frequency:   20.1002087459
  - # 25
    frequency:   38.3519012367
  - # 26
    frequency:   64.7979598034
  - # 27
    frequency:   68.3620929041

- q-position: [    0.1010101,    0.0000000,    0.0000000 ]
  distance:    0.0335476
  band:
  - # 1
    frequency:   -0.9322579119
  - # 2
    frequency:   -0.7214153143
  - # 3
    frequency:   -0.4930928240
  - # 4
    frequency:    0.5122303691
  - # 5
    frequency:    0.9746266456
  - # 6
    frequency:    1.1540625864
  - # 7
    frequency:    2.0107953477
  - # 8
    frequency:    4.1721583924
  - # 9
    frequency:    4.4098470582
  - # 10
    frequency:    4.9312188811
  - # 11
    frequency:    5.7239943820
  - # 12
    frequency:    5.9834362197
  - # 13
    frequency:    6.7992063942
  - # 14
    frequency:    6.9043168774
  - # 15
    frequency:    7.6422799728
  - # 16
    frequency:    8.9375982389
  - # 17
    frequency:   10.7170387784
  - # 18
    frequency:   10.7680474373
  - # 19
    frequency:   14.8363170921
  - # 20
    frequency:   16.1324437484
  - # 21
    frequency:   16.2858170280
  - # 22
    frequency:   17.4407074688
  - # 23
    frequency:   17.5212958958
  - # 24
    frequency:   20.0985162406
  - # 25
    frequency:   38.3514424910
  - # 26
    frequency:   64.7957366376
  - # 27
    frequency:   68.3230935612

- q-position: [    0.1060606,    0.0000000,    0.0000000 ]
  distance:    0.0352250
  band:
  - # 1
    frequency:   -0.9112779719
  - # 2
    frequency:   -0.6858785111
  - # 3
    frequency:   -0.3937126174
  - # 4
    frequency:    0.5828553528
  - # 5
    frequency:    1.0628852380
  - # 6
    frequency:    1.2105839397
  - # 7
    frequency:    2.1068579168
  - # 8
    frequency:    4.1767653667
  - # 9
    frequency:    4.4322207096
  - # 10
    frequency:    4.9265586731
  - # 11
    frequency:    5.7239667085
  - # 12
    frequency:    6.0046494015
  - # 13
    frequency:    6.8020102269
  - # 14
    frequency:    6.9148664178
  - # 15
    frequency:    7.6300852754
  - # 16
    frequency:    8.9138305998
  - # 17
    frequency:   10.7185044350
  - # 18
    frequency:   10.7745671221
  - # 19
    frequency:   14.8277145213
  - # 20
    frequency:   16.1287275951
  - # 21
    frequency:   16.2929741814
  - # 22
    frequency:   17.4410834657
  - # 23
    frequency:   17.5290722785
  - # 24
    frequency:   20.0967463267
  - # 25
    frequency:   38.3509699991
  - # 26
    frequency:   64.7934222861
  - # 27
    frequency:   68.2826844231

- q-position: [    0.1111111,    0.0000000,    0.0000000 ]
  distance:    0.0369024
  band:
  - # 1
    frequency:   -0.8894300700
  - # 2
    frequency:   -0.6468549220
  - # 3
    frequency:   -0.2497020802
  - # 4
    frequency:    0.6499591910
  - # 5
    frequency:    1.1480095205
  - # 6
    frequency:    1.2670000569
  - # 7
    frequency:    2.2016207078
  - # 8
    frequency:    4.1815756766
  - # 9
    frequency:    4.4545864964
  - # 10
    frequency:    4.9231387851
  - # 11
    frequency:    5.7240546390
  - # 12
    frequency:    6.0261866701
  - # 13
    frequency:    6.8048829115
  - # 14
    frequency:    6.9253747353
  - # 15
    frequency:    7.6177875169
  - # 16
    frequency:    8.8891910204
  - # 17
    frequency:   10.7199996241
  - # 18
    frequency:   10.7813277042
  - # 19
    frequency:   14.8189107675
  - # 20
    frequency:   16.1250910081
  - # 21
    frequency:   16.2998915360
  - # 22
    frequency:   17.4414870296
  - # 23
    frequency:   17.5370796939
  - # 24
    frequency:   20.0949002493
  - # 25
    frequency:   38.3504850820
  - # 26
    frequency:   64.7910199423
  - # 27
    frequency:   68.2409460762

- q-position: [    0.1161616,    0.0000000,    0.0000000 ]
  distance:    0.0385798
  band:
  - # 1
    frequency:   -0.8666946897
  - # 2
    frequency:   -0.6037836804
  - # 3
    frequency:    0.1870852873
  - # 4
    frequency:    0.7151456128
  - # 5
    frequency:    1.2302279543
  - # 6
    frequency:    1.3233131430
  - # 7
    frequency:    2.2949476895
  - # 8
    frequency:    4.1865879386
  - # 9
    frequency:    4.4768484411
  - # 10
    frequency:    4.9211105919
  - # 11
    frequency:    5.7242695254
  - # 12
    frequency:    6.0479807325
  - # 13
    frequency:    6.8078172557
  - # 14
    frequency:    6.9357926758
  - # 15
    frequency:    7.6054545121
  - # 16
    frequency:    8.8637161763
  - # 17
    frequency:   10.7215197162
  - # 18
    frequency:   10.7883195306
  - # 19
    frequency:   14.8099309991
  - # 20
    frequency:   16.1215641455
  - # 21
    frequency:   16.3065083101
  - # 22
    frequency:   17.4419192907
  - # 23
    frequency:   17.5453005253
  - # 24
    frequency:   20.0929792809
  - # 25
    frequency:   38.3499890912
  - # 26
    frequency:   64.7885329020
  - # 27
    frequency:   68.1979611836

- q-position: [    0.1212121,    0.0000000,    0.0000000 ]
  distance:    0.0402571
  band:
  - # 1
    frequency:   -0.8430431565
  - # 2
    frequency:   -0.5558582764
  - # 3
    frequency:    0.3703028949
  - # 4
    frequency:    0.7793199170
  - # 5
    frequency:    1.3097868785
  - # 6
    frequency:    1.3795249486
  - # 7
    frequency:    2.3866971926
  - # 8
    frequency:    4.1918011226
  - # 9
    frequency:    4.4989221961
  - # 10
    frequency:    4.9206184062