nqpoint: 300    
npath: 3      
segment_nqpoint:
- 100
- 100
- 100
labels:
- [ 'G', 'M' ]
- [ 'M', 'K' ]
- [ 'K', 'G' ]
reciprocal_lattice:
- [   0.30183415,   0.17426403,   0.00000000 ] # a*
- [   0.00000000,   0.34852806,   0.00000000 ] # b*
- [   0.00000000,   0.00000000,   0.04401819 ] # c*
natom: 5      
lattice:
- [     3.313077692348859,     0.000000000000000,     0.000000000000000 ] # a
- [    -1.656538846174430,     2.869209446284053,     0.000000000000000 ] # b
- [     0.000000000000000,     0.000000000000000,    22.717881953322248 ] # c
points:
- symbol: C # 1
  coordinates: [  0.000000000000000,  0.000000000000000,  0.495224298692262 ]
  mass: 12.010700
- symbol: F # 2
  coordinates: [  0.333332985432215,  0.666666983183674,  0.603836307517927 ]
  mass: 18.998403
- symbol: H # 3
  coordinates: [  0.666666984744048,  0.333332985985145,  0.396163692482073 ]
  mass: 1.007940
- symbol: Hf # 4
  coordinates: [  0.333332985432215,  0.666666983183674,  0.439260056813026 ]
  mass: 178.490000
- symbol: Hf # 5
  coordinates: [  0.666666984744048,  0.333332985985145,  0.545918341107937 ]
  mass: 178.490000

phonon:
- q-position: [    0.0000000,    0.0000000,    0.0000000 ]
  distance:    0.0000000
  band:
  - # 1
    frequency:   -0.0000063696
  - # 2
    frequency:    0.0000001699
  - # 3
    frequency:    0.0000056348
  - # 4
    frequency:    4.1277221809
  - # 5
    frequency:    4.1277221809
  - # 6
    frequency:    5.5298274156
  - # 7
    frequency:    6.2032002500
  - # 8
    frequency:    6.2032002500
  - # 9
    frequency:   11.2593326787
  - # 10
    frequency:   17.3972232107
  - # 11
    frequency:   18.6474315273
  - # 12
    frequency:   18.6474315273
  - # 13
    frequency:   27.8742049210
  - # 14
    frequency:   33.6014167338
  - # 15
    frequency:   33.6014167338

- q-position: [    0.0050505,    0.0000000,    0.0000000 ]
  distance:    0.0017602
  band:
  - # 1
    frequency:    0.0008558303
  - # 2
    frequency:    0.0013945372
  - # 3
    frequency:    0.0772812711
  - # 4
    frequency:    4.1273009044
  - # 5
    frequency:    4.1278638573
  - # 6
    frequency:    5.5295617598
  - # 7
    frequency:    6.2031279096
  - # 8
    frequency:    6.2032064053
  - # 9
    frequency:   11.2587338973
  - # 10
    frequency:   17.3969949206
  - # 11
    frequency:   18.6469703640
  - # 12
    frequency:   18.6472474338
  - # 13
    frequency:   27.8732448377
  - # 14
    frequency:   33.5979214176
  - # 15
    frequency:   33.5992239742

- q-position: [    0.0101010,    0.0000000,    0.0000000 ]
  distance:    0.0035205
  band:
  - # 1
    frequency:    0.0034320687
  - # 2
    frequency:    0.0053788163
  - # 3
    frequency:    0.1545871993
  - # 4
    frequency:    4.1260398924
  - # 5
    frequency:    4.1282897360
  - # 6
    frequency:    5.5287662895
  - # 7
    frequency:    6.2029110518
  - # 8
    frequency:    6.2032260243
  - # 9
    frequency:   11.2569390590
  - # 10
    frequency:   17.3963100069
  - # 11
    frequency:   18.6455884136
  - # 12
    frequency:   18.6466958928
  - # 13
    frequency:   27.8703676822
  - # 14
    frequency:   33.5874434589
  - # 15
    frequency:   33.5926517615

- q-position: [    0.0151515,    0.0000000,    0.0000000 ]
  distance:    0.0052807
  band:
  - # 1
    frequency:    0.0077333189
  - # 2
    frequency:    0.0120119828
  - # 3
    frequency:    0.2319417794
  - # 4
    frequency:    4.1239475729
  - # 5
    frequency:    4.1290023286
  - # 6
    frequency:    5.5274455027
  - # 7
    frequency:    6.2025501693
  - # 8
    frequency:    6.2032624859
  - # 9
    frequency:   11.2539526719
  - # 10
    frequency:   17.3951683411
  - # 11
    frequency:   18.6432902945
  - # 12
    frequency:   18.6457791290
  - # 13
    frequency:   27.8655827413
  - # 14
    frequency:   33.5700068173
  - # 15
    frequency:   33.5817182790

- q-position: [    0.0202020,    0.0000000,    0.0000000 ]
  distance:    0.0070410
  band:
  - # 1
    frequency:    0.0137705276
  - # 2
    frequency:    0.0212865987
  - # 3
    frequency:    0.3093676911
  - # 4
    frequency:    4.1210379128
  - # 5
    frequency:    4.1300057021
  - # 6
    frequency:    5.5256069123
  - # 7
    frequency:    6.2020460897
  - # 8
    frequency:    6.2033211602
  - # 9
    frequency:   11.2497822183
  - # 10
    frequency:   17.3935697144
  - # 11
    frequency:   18.6400837047
  - # 12
    frequency:   18.6445008697
  - # 13
    frequency:   27.8589055070
  - # 14
    frequency:   33.5456513919
  - # 15
    frequency:   33.5664537830

- q-position: [    0.0252525,    0.0000000,    0.0000000 ]
  distance:    0.0088012
  band:
  - # 1
    frequency:    0.0215583402
  - # 2
    frequency:    0.0331911497
  - # 3
    frequency:    0.3868856604
  - # 4
    frequency:    4.1173302998
  - # 5
    frequency:    4.1313053041
  - # 6
    frequency:    5.5232610632
  - # 7
    frequency:    6.2013999851
  - # 8
    frequency:    6.2034090301
  - # 9
    frequency:   11.2444381090
  - # 10
    frequency:   17.3915138464
  - # 11
    frequency:   18.6359794232
  - # 12
    frequency:   18.6428663738
  - # 13
    frequency:   27.8503576961
  - # 14
    frequency:   33.5144329708
  - # 15
    frequency:   33.5469005278

- q-position: [    0.0303030,    0.0000000,    0.0000000 ]
  distance:    0.0105615
  band:
  - # 1
    frequency:    0.0311144578
  - # 2
    frequency:    0.0477106462
  - # 3
    frequency:    0.4645138449
  - # 4
    frequency:    4.1128493802
  - # 5
    frequency:    4.1329077285
  - # 6
    frequency:    5.5204215405
  - # 7
    frequency:    6.2006133825
  - # 8
    frequency:    6.2035341902
  - # 9
    frequency:   11.2379336198
  - # 10
    frequency:   17.3890003966
  - # 11
    frequency:   18.6309913111
  - # 12
    frequency:   18.6408824692
  - # 13
    frequency:   27.8399672745
  - # 14
    frequency:   33.4764231600
  - # 15
    frequency:   33.5231126622

- q-position: [    0.0353535,    0.0000000,    0.0000000 ]
  distance:    0.0123217
  band:
  - # 1
    frequency:    0.0424588522
  - # 2
    frequency:    0.0648266344
  - # 3
    frequency:    0.5422672493
  - # 4
    frequency:    4.1076248561
  - # 5
    frequency:    4.1348204289
  - # 6
    frequency:    5.5171049558
  - # 7
    frequency:    6.1996881749
  - # 8
    frequency:    6.2037052480
  - # 9
    frequency:   11.2302848116
  - # 10
    frequency:   17.3860289811
  - # 11
    frequency:   18.6251363125
  - # 12
    frequency:   18.6385575978
  - # 13
    frequency:   27.8277684839
  - # 14
    frequency:   33.4317092919
  - # 15
    frequency:   33.4951560947

- q-position: [    0.0404040,    0.0000000,    0.0000000 ]
  distance:    0.0140819
  band:
  - # 1
    frequency:    0.0556128678
  - # 2
    frequency:    0.0845171484
  - # 3
    frequency:    0.6201571786
  - # 4
    frequency:    4.1016912435
  - # 5
    frequency:    4.1370513913
  - # 6
    frequency:    5.5133308966
  - # 7
    frequency:    6.1986266315
  - # 8
    frequency:    6.2039306581
  - # 9
    frequency:   11.2215104361
  - # 10
    frequency:   17.3825991921
  - # 11
    frequency:   18.6184344562
  - # 12
    frequency:   18.6359018642
  - # 13
    frequency:   27.8138018674
  - # 14
    frequency:   33.3803943129
  - # 15
    frequency:   33.4631083295

- q-position: [    0.0454545,    0.0000000,    0.0000000 ]
  distance:    0.0158422
  band:
  - # 1
    frequency:    0.0705982446
  - # 2
    frequency:    0.1067566459
  - # 3
    frequency:    0.6981907344
  - # 4
    frequency:    4.0950875983
  - # 5
    frequency:    4.1396087785
  - # 6
    frequency:    5.5091218255
  - # 7
    frequency:    6.1974314023
  - # 8
    frequency:    6.2042180214
  - # 9
    frequency:   11.2116318272
  - # 10
    frequency:   17.3787106237
  - # 11
    frequency:   18.6109088558
  - # 12
    frequency:   18.6329270865
  - # 13
    frequency:   27.7981142888
  - # 14
    frequency:   33.3225966492
  - # 15
    frequency:   33.4270582715

- q-position: [    0.0505051,    0.0000000,    0.0000000 ]
  distance:    0.0176024
  band:
  - # 1
    frequency:    0.0874360957
  - # 2
    frequency:    0.1315159378
  - # 3
    frequency:    0.7763703604
  - # 4
    frequency:    4.0878572110
  - # 5
    frequency:    4.1425005584
  - # 6
    frequency:    5.5045029173
  - # 7
    frequency:    6.1961055199
  - # 8
    frequency:    6.2045733820
  - # 9
    frequency:   11.2006727805
  - # 10
    frequency:   17.3743629016
  - # 11
    frequency:   18.6025857089
  - # 12
    frequency:   18.6296468442
  - # 13
    frequency:   27.7807589437
  - # 14
    frequency:   33.2584500514
  - # 15
    frequency:   33.3871060010

- q-position: [    0.0555556,    0.0000000,    0.0000000 ]
  distance:    0.0193627
  band:
  - # 1
    frequency:    0.1061458737
  - # 2
    frequency:    0.1587621129
  - # 3
    frequency:    0.8546934415
  - # 4
    frequency:    4.0800472762
  - # 5
    frequency:    4.1457341320
  - # 6
    frequency:    5.4995018245
  - # 7
    frequency:    6.1946523916
  - # 8
    frequency:    6.2050005539
  - # 9
    frequency:   11.1886594219
  - # 10
    frequency:   17.3695557191
  - # 11
    frequency:   18.5934942949
  - # 12
    frequency:   18.6260765206
  - # 13
    frequency:   27.7617953539
  - # 14
    frequency:   33.1881034162
  - # 15
    frequency:   33.3433625175

- q-position: [    0.0606061,    0.0000000,    0.0000000 ]
  distance:    0.0211229
  band:
  - # 1
    frequency:    0.1267443592
  - # 2
    frequency:    0.1884584629
  - # 3
    frequency:    0.9331519604
  - # 4
    frequency:    4.0717085391
  - # 5
    frequency:    4.1493159728
  - # 6
    frequency:    5.4941483696
  - # 7
    frequency:    6.1930757856
  - # 8
    frequency:    6.2055005052
  - # 9
    frequency:   11.1756200676
  - # 10
    frequency:   17.3642888794
  - # 11
    frequency:   18.5836669708
  - # 12
    frequency:   18.6222333351
  - # 13
    frequency:   27.7412893428
  - # 14
    frequency:   33.1117205857
  - # 15
    frequency:   33.2959494525

- q-position: [    0.0656566,    0.0000000,    0.0000000 ]
  distance:    0.0228832
  band:
  - # 1
    frequency:    0.1492447014
  - # 2
    frequency:    0.2205644072
  - # 3
    frequency:    1.0117322146
  - # 4
    frequency:    4.0628949240
  - # 5
    frequency:    4.1532512917
  - # 6
    frequency:    5.4884741641
  - # 7
    frequency:    6.1913798063
  - # 8
    frequency:    6.2060708232
  - # 9
    frequency:   11.1615850762
  - # 10
    frequency:   17.3585623441
  - # 11
    frequency:   18.5731391638
  - # 12
    frequency:   18.6181363623
  - # 13
    frequency:   27.7193129851
  - # 14
    frequency:   33.0294801223
  - # 15
    frequency:   33.2449987514

- q-position: [    0.0707071,    0.0000000,    0.0000000 ]
  distance:    0.0246434
  band:
  - # 1
    frequency:    0.1736555392
  - # 2
    frequency:    0.2550354214
  - # 3
    frequency:    1.0904145954
  - # 4
    frequency:    4.0536631458
  - # 5
    frequency:    4.1575437403
  - # 6
    frequency:    5.4825121633
  - # 7
    frequency:    6.1895688620
  - # 8
    frequency:    6.2067052796
  - # 9
    frequency:   11.1465866946
  - # 10
    frequency:   17.3523762889
  - # 11
    frequency:   18.5619493603
  - # 12
    frequency:   18.6138065334
  - # 13
    frequency:   27.6959445251
  - # 14
    frequency:   32.9415750590
  - # 15
    frequency:   33.1906523228

- q-position: [    0.0757576,    0.0000000,    0.0000000 ]
  distance:    0.0264036
  band:
  - # 1
    frequency:    0.1999802237
  - # 2
    frequency:    0.2918229696
  - # 3
    frequency:    1.1691734293
  - # 4
    frequency:    4.0440723093
  - # 5
    frequency:    4.1621951616
  - # 6
    frequency:    5.4762961677
  - # 7
    frequency:    6.1876476225
  - # 8
    frequency:    6.2073935096
  - # 9
    frequency:   11.1306588990
  - # 10
    frequency:   17.3457311665
  - # 11
    frequency:   18.5501390902
  - # 12
    frequency:   18.6092666165
  - # 13
    frequency:   27.6712682594
  - # 14
    frequency:   32.8482126242
  - # 15
    frequency:   33.1330616581

- q-position: [    0.0808081,    0.0000000,    0.0000000 ]
  distance:    0.0281639
  band:
  - # 1
    frequency:    0.2282161621
  - # 2
    frequency:    0.3308744446
  - # 3
    frequency:    1.2479768813
  - # 4
    frequency:    4.0341834959
  - # 5
    frequency:    4.1672053985
  - # 6
    frequency:    5.4698602901
  - # 7
    frequency:    6.1856209698
  - # 8
    frequency:    6.2081208124
  - # 9
    frequency:   11.1138372328
  - # 10
    frequency:   17.3386277775
  - # 11
    frequency:   18.5377529060
  - # 12
    frequency:   18.6045411720
  - # 13
    frequency:   27.6453743781
  - # 14
    frequency:   32.7496139392
  - # 15
    frequency:   33.0723874173

- q-position: [    0.0858586,    0.0000000,    0.0000000 ]
  distance:    0.0299241
  band:
  - # 1
    frequency:    0.2583542942
  - # 2
    frequency:    0.3721331151
  - # 3
    frequency:    1.3267869182
  - # 4
    frequency:    4.0240593415
  - # 5
    frequency:    4.1725721659
  - # 6
    frequency:    5.4632384057
  - # 7
    frequency:    6.1834939422
  - # 8
    frequency:    6.2088680766
  - # 9
    frequency:   11.0961586403
  - # 10
    frequency:   17.3310673479
  - # 11
    frequency:   18.5248383547
  - # 12
    frequency:   18.5996564815
  - # 13
    frequency:   27.6183587598
  - # 14
    frequency:   32.6460136881
  - # 15
    frequency:   33.0087989845

- q-position: [    0.0909091,    0.0000000,    0.0000000 ]
  distance:    0.0316844
  band:
  - # 1
    frequency:    0.2903787106
  - # 2
    frequency:    0.4155380834
  - # 3
    frequency:    1.4055593288
  - # 4
    frequency:    4.0137636051
  - # 5
    frequency:    4.1782909909
  - # 6
    frequency:    5.4564636087
  - # 7
    frequency:    6.1812716745
  - # 8
    frequency:    6.2096118319
  - # 9
    frequency:   11.0776612999
  - # 10
    frequency:   17.3230516145
  - # 11
    frequency:   18.5114459426
  - # 12
    frequency:   18.5946404459
  - # 13
    frequency:   27.5903227169
  - # 14
    frequency:   32.5376597570
  - # 15
    frequency:   32.9424739912

- q-position: [    0.0959596,    0.0000000,    0.0000000 ]
  distance:    0.0334446
  band:
  - # 1
    frequency:    0.3242664152
  - # 2
    frequency:    0.4610242538
  - # 3
    frequency:    1.4842437963
  - # 4
    frequency:    4.0033607314
  - # 5
    frequency:    4.1843552239
  - # 6
    frequency:    5.4495676953
  - # 7
    frequency:    6.1789593365
  - # 8
    frequency:    6.2103244232
  - # 9
    frequency:   11.0583844554
  - # 10
    frequency:   17.3145829168
  - # 11
    frequency:   18.4976290896
  - # 12
    frequency:   18.5895224518
  - # 13
    frequency:   27.5613726877
  - # 14
    frequency:   32.4248128430
  - # 15
    frequency:   32.8735978074

- q-position: [    0.1010101,    0.0000000,    0.0000000 ]
  distance:    0.0352049
  band:
  - # 1
    frequency:    0.3599872305
  - # 2
    frequency:    0.5085223146
  - # 3
    frequency:    1.5627840183
  - # 4
    frequency:    3.9929154055
  - # 5
    frequency:    4.1907561208
  - # 6
    frequency:    5.4425806946
  - # 7
    frequency:    6.1765620717
  - # 8
    frequency:    6.2109743021
  - # 9
    frequency:   11.0383682461
  - # 10
    frequency:   17.3056642947
  - # 11
    frequency:   18.4834440746
  - # 12
    frequency:   18.5843332052
  - # 13
    frequency:   27.5316198717
  - # 14
    frequency:   32.3077460295
  - # 15
    frequency:   32.8023630021

- q-position: [    0.1060606,    0.0000000,    0.0000000 ]
  distance:    0.0369651
  band:
  - # 1
    frequency:    0.3975038407
  - # 2
    frequency:    0.5579587329
  - # 3
    frequency:    1.6411178686
  - # 4
    frequency:    3.9824921041
  - # 5
    frequency:    4.1974829944
  - # 6
    frequency:    5.4355304631
  - # 7
    frequency:    6.1740849411
  - # 8
    frequency:    6.2115264310
  - # 9
    frequency:   11.0176535378
  - # 10
    frequency:   17.2962995907
  - # 11
    frequency:   18.4689499679
  - # 12
    frequency:   18.5791045314
  - # 13
    frequency:   27.5011798070
  - # 14
    frequency:   32.1867443275
  - # 15
    frequency:   32.7289687723

- q-position: [    0.1111111,    0.0000000,    0.0000000 ]
  distance:    0.0387253
  band:
  - # 1
    frequency:    0.4367719622
  - # 2
    frequency:    0.6092557670
  - # 3
    frequency:    1.7191775925
  - # 4
    frequency:    3.9721546421
  - # 5
    frequency:    4.2045234321
  - # 6
    frequency:    5.4284423578
  - # 7
    frequency:    6.1715328728
  - # 8
    frequency:    6.2119427919
  - # 9
    frequency:   10.9962817529
  - # 10
    frequency:   17.2864935553
  - # 11
    frequency:   18.4542085505
  - # 12
    frequency:   18.5738691427
  - # 13
    frequency:   27.4701718885
  - # 14
    frequency:   32.0621041805
  - # 15
    frequency:   32.6536203414

- q-position: [    0.1161616,    0.0000000,    0.0000000 ]
  distance:    0.0404856
  band:
  - # 1
    frequency:    0.4777406323
  - # 2
    frequency:    0.6623314944
  - # 3
    frequency:    1.7968900306
  - # 4
    frequency:    3.9619657173
  - # 5
    frequency:    4.2118635752
  - # 6
    frequency:    5.4213389971
  - # 7
    frequency:    6.1689106208
  - # 8
    frequency:    6.2121829938
  - # 9
    frequency:   10.9742947021
  - # 10
    frequency:   17.2762519535
  - # 11
    frequency:   18.4392842185
  - # 12
    frequency:   18.5686603737
  - # 13
    frequency:   27.4387188263
  - # 14
    frequency:   31.9341329309
  - # 15
    frequency:   32.5765283280

- q-position: [    0.1212121,    0.0000000,    0.0000000 ]
  distance:    0.0422458
  band:
  - # 1
    frequency:    0.5203526000
  - # 2
    frequency:    0.7170998591
  - # 3
    frequency:    1.8741768635
  - # 4
    frequency:    3.9519864561
  - # 5
    frequency:    4.2194884558
  - # 6
    frequency:    5.4142401141
  - # 7
    frequency:    6.1662227357
  - # 8
    frequency:    6.2122049690
  - # 9
    frequency:   10.9517344169
  - # 10
    frequency:   17.2655816693
  - # 11
    frequency:   18.4242438713
  - # 12
    frequency:   18.5635118882
  - # 13
    frequency:   27.4069460453
  - # 14
    frequency:   31.8031482477
  - # 15
    frequency:   32.4979080855

- q-position: [    0.1262626,    0.0000000,    0.0000000 ]
  distance:    0.0440061
  band:
  - # 1
    frequency:    0.5645448062
  - # 2
    frequency:    0.7734707401
  - # 3
    frequency:    1.9509548702
  - # 4
    frequency:    3.9422759610
  - # 5
    frequency:    4.2273823844
  - # 6
    frequency:    5.4071625034
  - # 7
    frequency:    6.1634735499
  - # 8
    frequency:    6.2119657529
  - # 9
    frequency:   10.9286429834
  - # 10
    frequency:   17.2544908067
  - # 11
    frequency:   18.4091567821
  - # 12
    frequency:   18.5584573608
  - # 13
    frequency:   27.3749810268
  - # 14
    frequency:   31.6694775136
  - # 15
    frequency:   32.4179790137

- q-position: [    0.1313131,    0.0000000,    0.0000000 ]
  distance:    0.0457663
  band:
  - # 1
    frequency:    0.6102489351
  - # 2
    frequency:    0.8313500411
  - # 3
    frequency:    2.0271361960
  - # 4
    frequency:    3.9328908650
  - # 5
    frequency:    4.2355293817
  - # 6
    frequency:    5.4001200573
  - # 7
    frequency:    6.1606671768
  - # 8
    frequency:    6.2114223349
  - # 9
    frequency:   10.9050623794
  - # 10
    frequency:   17.2429887825
  - # 11
    frequency:   18.3940944488
  - # 12
    frequency:   18.5535301368
  - # 13
    frequency:   27.3429525940
  - # 14
    frequency:   31.5334571699
  - # 15
    frequency:   32.3369638444

- q-position: [    0.1363636,    0.0000000,    0.0000000 ]
  distance:    0.0475266
  band:
  - # 1
    frequency:    0.6573920241
  - # 2
    frequency:    0.8906398051
  - # 3
    frequency:    2.1026286249
  - # 4
    frequency:    3.9238848958
  - # 5
    frequency:    4.2439136510
  - # 6
    frequency:    5.3931238846
  - # 7
    frequency:    6.1578075273
  - # 8
    frequency:    6.2105325713
  - # 9
    frequency:   10.8810343145
  - # 10
    frequency:   17.2310864092
  - # 11
    frequency:   18.3791304244
  - # 12
    frequency:   18.5487628771
  - # 13
    frequency:   27.3109901436
  - # 14
    frequency:   31.3954320212
  - # 15
    frequency:   32.2550879013

- q-position: [    0.1414141,    0.0000000,    0.0000000 ]
  distance:    0.0492868
  band:
  - # 1
    frequency:    0.7058971137
  - # 2
    frequency:    0.9512383541
  - # 3
    frequency:    2.1773358553
  - # 4
    frequency:    3.9153084533
  - # 5
    frequency:    4.2525200807
  - # 6
    frequency:    5.3861825007
  - # 7
    frequency:    6.1548983430
  - # 8
    frequency:    6.2092561477
  - # 9
    frequency:   10.8566000735
  - # 10
    frequency:   17.2187959631
  - # 11
    frequency:   18.3643401265
  - # 12
    frequency:   18.5441871942
  - # 13
    frequency:   27.2792228257
  - # 14
    frequency:   31.2557544986
  - # 15
    frequency:   32.1725783372

- q-position: [    0.1464646,    0.0000000,    0.0000000 ]
  distance:    0.0510470
  band:
  - # 1
    frequency:    0.7556839253
  - # 2
    frequency:    1.0130404571
  - # 3
    frequency:    2.2511577787
  - # 4
    frequency:    3.9072082068
  - # 5
    frequency:    4.2613347736
  - # 6
    frequency:    5.3793020768
  - # 7
    frequency:    6.1519432460
  - # 8
    frequency:    6.2075555755
  - # 9
    frequency:   10.8318003667
  - # 10
    frequency:   17.2061312344
  - # 11
    frequency:   18.3498006232
  - # 12
    frequency:   18.5398332865
  - # 13
    frequency:   27.2477786736
  - # 14
    frequency:   31.1147838849
  - # 15
    frequency:   32.0896633503

- q-position: [    0.1515152,    0.0000000,    0.0000000 ]
  distance:    0.0528073
  band:
  - # 1
    frequency:    0.8066695524
  - # 2
    frequency:    1.0759375271
  - # 3
    frequency:    2.3239907666
  - # 4
    frequency:    3.8996267140
  - # 5
    frequency:    4.2703455916
  - # 6
    frequency:    5.3724867334
  - # 7
    frequency:    6.1489458044
  - # 8
    frequency:    6.2053972053
  - # 9
    frequency:   10.8066751858
  - # 10
    frequency:   17.1931075574
  - # 11
    frequency:   18.3355903953
  - # 12
    frequency:   18.5357295792
  - # 13
    frequency:   27.2167836852
  - # 14
    frequency:   30.9728855047
  - # 15
    frequency:   32.0065713812

- q-position: [    0.1565657,    0.0000000,    0.0000000 ]
  distance:    0.0545675
  band:
  - # 1
    frequency:    0.8587691537
  - # 2
    frequency:    1.1398178495
  - # 3
    frequency:    2.3957279731
  - # 4
    frequency:    3.8926020698
  - # 5
    frequency:    4.2795427088
  - # 6
    frequency:    5.3657388614
  - # 7
    frequency:    6.1459096125
  - # 8
    frequency:    6.2027522388
  - # 9
    frequency:   10.7812636683
  - # 10
    frequency:   17.1797418159
  - # 11
    frequency:   18.3217890756
  - # 12
    frequency:   18.5319023802
  - # 13
    frequency:   27.1863608556
  - # 14
    frequency:   30.8304298852
  - # 15
    frequency:   31.9235302948

- q-position: [    0.1616162,    0.0000000,    0.0000000 ]
  distance:    0.0563278
  band:
  - # 1
    frequency:    0.9118966368
  - # 2
    frequency:    1.2045668426
  - # 3
    frequency:    2.4662596658
  - # 4
    frequency:    3.8861675870
  - # 5
    frequency:    4.2889191588
  - # 6
    frequency:    5.3590594564
  - # 7
    frequency:    6.1428383833
  - # 8
    frequency:    6.1995977163
  - # 9
    frequency:   10.7556039715
  - # 10
    frequency:   17.1660524224
  - # 11
    frequency:   18.3084771619
  - # 12
    frequency:   18.5283755606
  - # 13
    frequency:   27.1566291587
  - # 14
    frequency:   30.6877918958
  - # 15
    frequency:   31.8407665489

- q-position: [    0.1666667,    0.0000000,    0.0000000 ]
  distance:    0.0580880
  band:
  - # 1
    frequency:    0.9659653243
  - # 2
    frequency:    1.2700673521
  - # 3
    frequency:    2.5354736050
  - # 4
    frequency:    3.8803515152
  - # 5
    frequency:    4.2984713603
  - # 6
    frequency:    5.3524484484
  - # 7
    frequency:    6.1397360513
  - # 8
    frequency:    6.1959174556
  - # 9
    frequency:   10.7297331574
  - # 10
    frequency:   17.1520592700
  - # 11
    frequency:   18.2957357068
  - # 12
    frequency:   18.5251702681
  - # 13
    frequency:   27.1277024762
  - # 14
    frequency:   30.5453498771
  - # 15
    frequency:   31.7585043534

- q-position: [    0.1717172,    0.0000000,    0.0000000 ]
  distance:    0.0598483
  band:
  - # 1
    frequency:    1.0208885952
  - # 2
    frequency:    1.3361999803
  - # 3
    frequency:    2.6032554940
  - # 4
    frequency:    3.8751768016
  - # 5
    frequency:    4.3081996014
  - # 6
    frequency:    5.3459050129
  - # 7
    frequency:    6.1366068819
  - # 8
    frequency:    6.1917029178
  - # 9
    frequency:   10.7036870905
  - # 10
    frequency:   17.1377836554
  - # 11
    frequency:   18.2836459823
  - # 12
    frequency:   18.5223046825
  - # 13
    frequency:   27.0996884640
  - # 14
    frequency:   30.4034847739
  - # 15
    frequency:   31.6769648238

- q-position: [    0.1767677,    0.0000000,    0.0000000 ]
  distance:    0.0616085
  band:
  - # 1
    frequency:    1.0765804944
  - # 2
    frequency:    1.4028434501
  - # 3
    frequency:    2.6694895345
  - # 4
    frequency:    3.8706608980
  - # 5
    frequency:    4.3181084539
  - # 6
    frequency:    5.3394278481
  - # 7
    frequency:    6.1334555841
  - # 8
    frequency:    6.1869539730
  - # 9
    frequency:   10.6775003493
  - # 10
    frequency:   17.1232481735
  - # 11
    frequency:   18.2722891209
  - # 12
    frequency:   18.5197938221
  - # 13
    frequency:   27.0726873492
  - # 14
    frequency:   30.2625792899
  - # 15
    frequency:   31.5963651322

- q-position: [    0.1818182,    0.0000000,    0.0000000 ]
  distance:    0.0633687
  band:
  - # 1
    frequency:    1.1329563067
  - # 2
    frequency:    1.4698750046
  - # 3
    frequency:    2.7340591236
  - # 4
    frequency:    3.8668156165
  - # 5
    frequency:    4.3282070846
  - # 6
    frequency:    5.3330154059
  - # 7
    frequency:    6.1302874242
  - # 8
    frequency:    6.1816795391
  - # 9
    frequency:   10.6512061530
  - # 10
    frequency:   17.1084765854
  - # 11
    frequency:   18.2617457340
  - # 12
    frequency:   18.5176494077
  - # 13
    frequency:   27.0467906428
  - # 14
    frequency:   30.1230170883
  - # 15
    frequency:   31.5169176613

- q-position: [    0.1868687,    0.0000000,    0.0000000 ]
  distance:    0.0651290
  band:
  - # 1
    frequency:    1.1899330910
  - # 2
    frequency:    1.5371708414
  - # 3
    frequency:    2.7968477385
  - # 4
    frequency:    3.8636470371
  - # 5
    frequency:    4.3385094214
  - # 6
    frequency:    5.3266660672
  - # 7
    frequency:    6.1271083337
  - # 8
    frequency:    6.1758980697
  - # 9
    frequency:   10.6248363042
  - # 10
    frequency:   17.0934936611
  - # 11
    frequency:   18.2520955084
  - # 12
    frequency:   18.5158797910
  - # 13
    frequency:   27.0220797506
  - # 14
    frequency:   29.9851820621
  - # 15
    frequency:   31.4388291645

- q-position: [    0.1919192,    0.0000000,    0.0000000 ]
  distance:    0.0668892
  band:
  - # 1
    frequency:    1.2474301730
  - # 2
    frequency:    1.6046065808
  - # 3
    frequency:    2.8577400577
  - # 4
    frequency:    3.8611554689
  - # 5
    frequency:    4.3490341254
  - # 6
    frequency:    5.3203782506
  - # 7
    frequency:    6.1239250099
  - # 8
    frequency:    6.1696378655
  - # 9
    frequency:   10.5984211472
  - # 10
    frequency:   17.0783250019
  - # 11
    frequency:   18.2434167841
  - # 12
    frequency:   18.5144899517
  - # 13
    frequency:   26.9986244641
  - # 14
    frequency:   29.8494577087
  - # 15
    frequency:   31.3622999377

- q-position: [    0.1969697,    0.0000000,    0.0000000 ]
  distance:    0.0686495
  band:
  - # 1
    frequency:    1.3053695939
  - # 2
    frequency:    1.6720577660
  - # 3
    frequency:    2.9166233706
  - # 4
    frequency:    3.8593354662
  - # 5
    frequency:    4.3598043146
  - # 6
    frequency:    5.3141504517
  - # 7
    frequency:    6.1207450042
  - # 8
    frequency:    6.1629371921
  - # 9
    frequency:   10.5719895435
  - # 10
    frequency:   17.0629968453
  - # 11
    frequency:   18.2357861135
  - # 12
    frequency:   18.5134815672
  - # 13
    frequency:   26.9764813060
  - # 14
    frequency:   29.7162266410
  - # 15
    frequency:   31.2875230075

- q-position: [    0.2020202,    0.0000000,    0.0000000 ]
  distance:    0.0704097
  band:
  - # 1
    frequency:    1.3636765141
  - # 2
    frequency:    1.7394003932
  - # 3
    frequency:    2.9733893226
  - # 4
    frequency:    3.8581758993
  - # 5
    frequency:    4.3708469821
  - # 6
    frequency:    5.3079812100
  - # 7
    frequency:    6.1175767924
  - # 8
    frequency:    6.1558441858
  - # 9
    frequency:   10.5455688625
  - # 10
    frequency:   17.0475358588
  - # 11
    frequency:   18.2292778066
  - # 12
    frequency:   18.5128531536
  - # 13
    frequency:   26.9556917095
  - # 14
    frequency:   29.5858702725
  - # 15
    frequency:   31.2146833409

- q-position: [    0.2070707,    0.0000000,    0.0000000 ]
  distance:    0.0721700
  band:
  - # 1
    frequency:    1.4222795706
  - # 2
    frequency:    1.8065114691
  - # 3
    frequency:    3.0279360344
  - # 4
    frequency:    3.8576600811
  - # 5
    frequency:    4.3821920596
  - # 6
    frequency:    5.3018690041
  - # 7
    frequency:    6.1144298256
  - # 8
    frequency:    6.1484165381
  - # 9
    frequency:   10.5191849875
  - # 10
    frequency:   17.0319689272
  - # 11
    frequency:   18.2239634639
  - # 12
    frequency:   18.5126002785
  - # 13
    frequency:   26.9362800094
  - # 14
    frequency:   29.4587687102
  - # 15
    frequency:   31.1439570809

- q-position: [    0.2121212,    0.0000000,    0.0000000 ]
  distance:    0.0739302
  band:
  - # 1
    frequency:    1.4811111881