nqpoint: 300    
npath: 3      
segment_nqpoint:
- 100
- 100
- 100
labels:
- [ 'G', 'M' ]
- [ 'M', 'K' ]
- [ 'K', 'G' ]
reciprocal_lattice:
- [   0.29587882,   0.17082572,   0.00000000 ] # a*
- [   0.00000000,   0.34165143,   0.00000000 ] # b*
- [   0.00000000,   0.00000000,   0.03725326 ] # c*
natom: 8      
lattice:
- [     3.379762029459192,     0.000000000000000,     0.000000000000000 ] # a
- [    -1.689881014729596,     2.926959776244806,     0.000000000000000 ] # b
- [     0.000000000000000,     0.000000000000000,    26.843289898039970 ] # c
points:
- symbol: C # 1
  coordinates: [  0.333332985432215,  0.666666983183674,  0.606866142927694 ]
  mass: 12.010700
- symbol: H # 2
  coordinates: [  0.666666984744047,  0.333332985985145,  0.335279320611784 ]
  mass: 1.007940
- symbol: N # 3
  coordinates: [  0.000000000000000,  0.000000000000000,  0.464039393709064 ]
  mass: 14.006700
- symbol: N # 4
  coordinates: [  0.333332985432215,  0.666666983183674,  0.560129701259841 ]
  mass: 14.006700
- symbol: O # 5
  coordinates: [  0.666666984744047,  0.333332985985145,  0.372103292032687 ]
  mass: 15.999400
- symbol: S # 6
  coordinates: [  0.333332985432215,  0.666666983183674,  0.664720679388216 ]
  mass: 32.065000
- symbol: Zr # 7
  coordinates: [  0.333332985432215,  0.666666983183674,  0.421338141770941 ]
  mass: 91.224000
- symbol: Zr # 8
  coordinates: [  0.666666984744047,  0.333332985985145,  0.508502819022983 ]
  mass: 91.224000

phonon:
- q-position: [    0.0000000,    0.0000000,    0.0000000 ]
  distance:    0.0000000
  band:
  - # 1
    frequency:   -0.6083456678
  - # 2
    frequency:   -0.6083456676
  - # 3
    frequency:   -0.0000209163
  - # 4
    frequency:   -0.0000002432
  - # 5
    frequency:    0.0000156188
  - # 6
    frequency:    3.0327517374
  - # 7
    frequency:    3.0327517375
  - # 8
    frequency:    4.0985690713
  - # 9
    frequency:    6.7206636997
  - # 10
    frequency:    6.7206636997
  - # 11
    frequency:    7.1130544558
  - # 12
    frequency:    7.5503586286
  - # 13
    frequency:    7.5503586286
  - # 14
    frequency:   11.7737915040
  - # 15
    frequency:   13.2763148372
  - # 16
    frequency:   13.2763148373
  - # 17
    frequency:   13.8448789801
  - # 18
    frequency:   15.4337121230
  - # 19
    frequency:   15.4337121230
  - # 20
    frequency:   15.9154062141
  - # 21
    frequency:   15.9154062141
  - # 22
    frequency:   26.8816803581
  - # 23
    frequency:   55.9253991929
  - # 24
    frequency:  110.5701879053

- q-position: [    0.0050505,    0.0000000,    0.0000000 ]
  distance:    0.0017255
  band:
  - # 1
    frequency:   -0.6206155429
  - # 2
    frequency:   -0.6178527950
  - # 3
    frequency:    0.0008006879
  - # 4
    frequency:    0.0752423213
  - # 5
    frequency:    0.1352812160
  - # 6
    frequency:    3.0315873384
  - # 7
    frequency:    3.0316217900
  - # 8
    frequency:    4.1018994856
  - # 9
    frequency:    6.7210013357
  - # 10
    frequency:    6.7210194534
  - # 11
    frequency:    7.1127513826
  - # 12
    frequency:    7.5506179912
  - # 13
    frequency:    7.5513464186
  - # 14
    frequency:   11.7733599551
  - # 15
    frequency:   13.2762099758
  - # 16
    frequency:   13.2764723300
  - # 17
    frequency:   13.8445475280
  - # 18
    frequency:   15.4306040112
  - # 19
    frequency:   15.4320752975
  - # 20
    frequency:   15.9158063512
  - # 21
    frequency:   15.9168945522
  - # 22
    frequency:   26.8814395866
  - # 23
    frequency:   55.9249749933
  - # 24
    frequency:  110.5682140317

- q-position: [    0.0101010,    0.0000000,    0.0000000 ]
  distance:    0.0034510
  band:
  - # 1
    frequency:   -0.6508444007
  - # 2
    frequency:   -0.6458800036
  - # 3
    frequency:    0.0038365228
  - # 4
    frequency:    0.1531796023
  - # 5
    frequency:    0.2576387512
  - # 6
    frequency:    3.0280949615
  - # 7
    frequency:    3.0283040826
  - # 8
    frequency:    4.1117838059
  - # 9
    frequency:    6.7220152900
  - # 10
    frequency:    6.7220849393
  - # 11
    frequency:    7.1118463240
  - # 12
    frequency:    7.5513950199
  - # 13
    frequency:    7.5542978308
  - # 14
    frequency:   11.7720646816
  - # 15
    frequency:   13.2758972953
  - # 16
    frequency:   13.2769404281
  - # 17
    frequency:   13.8435530003
  - # 18
    frequency:   15.4213366372
  - # 19
    frequency:   15.4272278172
  - # 20
    frequency:   15.9169616591
  - # 21
    frequency:   15.9212948435
  - # 22
    frequency:   26.8807179950
  - # 23
    frequency:   55.9237030460
  - # 24
    frequency:  110.5622988070

- q-position: [    0.0151515,    0.0000000,    0.0000000 ]
  distance:    0.0051765
  band:
  - # 1
    frequency:   -0.6905356783
  - # 2
    frequency:   -0.6885245152
  - # 3
    frequency:    0.0093184939
  - # 4
    frequency:    0.2345059187
  - # 5
    frequency:    0.3644678260
  - # 6
    frequency:    3.0222772407
  - # 7
    frequency:    3.0230045603
  - # 8
    frequency:    4.1279144652
  - # 9
    frequency:    6.7237086367
  - # 10
    frequency:    6.7238546847
  - # 11
    frequency:    7.1103516102
  - # 12
    frequency:    7.5526865386
  - # 13
    frequency:    7.5591774319
  - # 14
    frequency:   11.7699038312
  - # 15
    frequency:   13.2753824714
  - # 16
    frequency:   13.2777058369
  - # 17
    frequency:   13.8418949950
  - # 18
    frequency:   15.4060711387
  - # 19
    frequency:   15.4193472426
  - # 20
    frequency:   15.9187466074
  - # 21
    frequency:   15.9284243806
  - # 22
    frequency:   26.8795177491
  - # 23
    frequency:   55.9215853047
  - # 24
    frequency:  110.5524613985

- q-position: [    0.0202020,    0.0000000,    0.0000000 ]
  distance:    0.0069020
  band:
  - # 1
    frequency:   -0.7484126412
  - # 2
    frequency:   -0.7274614450
  - # 3
    frequency:    0.0174830095
  - # 4
    frequency:    0.3183065463
  - # 5
    frequency:    0.4584691439
  - # 6
    frequency:    3.0141391434
  - # 7
    frequency:    3.0160349933
  - # 8
    frequency:    4.1498190833
  - # 9
    frequency:    6.7260862843
  - # 10
    frequency:    6.7263190785
  - # 11
    frequency:    7.1082873307
  - # 12
    frequency:    7.5544872601
  - # 13
    frequency:    7.5659275772
  - # 14
    frequency:   11.7668744110
  - # 15
    frequency:   13.2746748465
  - # 16
    frequency:   13.2787458799
  - # 17
    frequency:   13.8395732149
  - # 18
    frequency:   15.3850476689
  - # 19
    frequency:   15.4086959801
  - # 20
    frequency:   15.9209805030
  - # 21
    frequency:   15.9380122912
  - # 22
    frequency:   26.8778424466
  - # 23
    frequency:   55.9186250209
  - # 24
    frequency:  110.5387336808

- q-position: [    0.0252525,    0.0000000,    0.0000000 ]
  distance:    0.0086276
  band:
  - # 1
    frequency:   -0.8154872779
  - # 2
    frequency:   -0.7650186302
  - # 3
    frequency:    0.0283909872
  - # 4
    frequency:    0.4033889774
  - # 5
    frequency:    0.5427113671
  - # 6
    frequency:    3.0036888406
  - # 7
    frequency:    3.0077758582
  - # 8
    frequency:    4.1769094834
  - # 9
    frequency:    6.7291546621
  - # 10
    frequency:    6.7294636417
  - # 11
    frequency:    7.1056808124
  - # 12
    frequency:    7.5567897942
  - # 13
    frequency:    7.5744703430
  - # 14
    frequency:   11.7629724285
  - # 15
    frequency:   13.2737872573
  - # 16
    frequency:   13.2800277047
  - # 17
    frequency:   13.8365880208
  - # 18
    frequency:   15.3585543310
  - # 19
    frequency:   15.3955839538
  - # 20
    frequency:   15.9234587493
  - # 21
    frequency:   15.9497370294
  - # 22
    frequency:   26.8756971002
  - # 23
    frequency:   55.9148267375
  - # 24
    frequency:  110.5211601292

- q-position: [    0.0303030,    0.0000000,    0.0000000 ]
  distance:    0.0103531
  band:
  - # 1
    frequency:   -0.8880716118
  - # 2
    frequency:   -0.8002204031
  - # 3
    frequency:    0.0420146008
  - # 4
    frequency:    0.4889124453
  - # 5
    frequency:    0.6194941211
  - # 6
    frequency:    2.9909389324
  - # 7
    frequency:    2.9986394494
  - # 8
    frequency:    4.2085330139
  - # 9
    frequency:    6.7329212983
  - # 10
    frequency:    6.7332680126
  - # 11
    frequency:    7.1025661764
  - # 12
    frequency:    7.5595846620
  - # 13
    frequency:    7.5847099175
  - # 14
    frequency:   11.7581930880
  - # 15
    frequency:   13.2727358015
  - # 16
    frequency:   13.2815071395
  - # 17
    frequency:   13.8329411952
  - # 18
    frequency:   15.3268995456
  - # 19
    frequency:   15.3803342736
  - # 20
    frequency:   15.9259807886
  - # 21
    frequency:   15.9632609303
  - # 22
    frequency:   26.8730881131
  - # 23
    frequency:   55.9101962795
  - # 24
    frequency:  110.4997976709

- q-position: [    0.0353535,    0.0000000,    0.0000000 ]
  distance:    0.0120786
  band:
  - # 1
    frequency:   -0.9632051056
  - # 2
    frequency:   -0.8327821327
  - # 3
    frequency:    0.0582975103
  - # 4
    frequency:    0.5744035892
  - # 5
    frequency:    0.6904114383
  - # 6
    frequency:    2.9759080388
  - # 7
    frequency:    2.9890399995
  - # 8
    frequency:    4.2440177038
  - # 9
    frequency:    6.7373943058
  - # 10
    frequency:    6.7377046477
  - # 11
    frequency:    7.0989841699
  - # 12
    frequency:    7.5628603148
  - # 13
    frequency:    7.5965352328
  - # 14
    frequency:   11.7525310433
  - # 15
    frequency:   13.2715395497
  - # 16
    frequency:   13.2831271670
  - # 17
    frequency:   13.8286369043
  - # 18
    frequency:   15.2903931294
  - # 19
    frequency:   15.3632580586
  - # 20
    frequency:   15.9283694930
  - # 21
    frequency:   15.9782556609
  - # 22
    frequency:   26.8700232492
  - # 23
    frequency:   55.9047407424
  - # 24
    frequency:  110.4747154940

- q-position: [    0.0404040,    0.0000000,    0.0000000 ]
  distance:    0.0138041
  band:
  - # 1
    frequency:   -1.0386479572
  - # 2
    frequency:   -0.8627050718
  - # 3
    frequency:    0.0771797027
  - # 4
    frequency:    0.6596187240
  - # 5
    frequency:    0.7565628784
  - # 6
    frequency:    2.9586227683
  - # 7
    frequency:    2.9793736250
  - # 8
    frequency:    4.2827068490
  - # 9
    frequency:    6.7425817955
  - # 10
    frequency:    6.7427372351
  - # 11
    frequency:    7.0949824366
  - # 12
    frequency:    7.5666031599
  - # 13
    frequency:    7.6098226568
  - # 14
    frequency:   11.7459807033
  - # 15
    frequency:   13.2702202119
  - # 16
    frequency:   13.2848159738
  - # 17
    frequency:   13.8236828423
  - # 18
    frequency:   15.2493369269
  - # 19
    frequency:   15.3446396322
  - # 20
    frequency:   15.9304812165
  - # 21
    frequency:   15.9944173425
  - # 22
    frequency:   26.8665115956
  - # 23
    frequency:   55.8984684776
  - # 24
    frequency:  110.4459948150

- q-position: [    0.0454545,    0.0000000,    0.0000000 ]
  distance:    0.0155296
  band:
  - # 1
    frequency:   -1.1127410946
  - # 2
    frequency:   -0.8901102427
  - # 3
    frequency:    0.0986043098
  - # 4
    frequency:    0.7444347207
  - # 5
    frequency:    0.8187166759
  - # 6
    frequency:    2.9391200866
  - # 7
    frequency:    2.9700075984
  - # 8
    frequency:    4.3239822720
  - # 9
    frequency:    6.7483188084
  - # 10
    frequency:    6.7484912392
  - # 11
    frequency:    7.0906163354
  - # 12
    frequency:    7.5707975950
  - # 13
    frequency:    7.6244386165
  - # 14
    frequency:   11.7385365900
  - # 15
    frequency:   13.2688017670
  - # 16
    frequency:   13.2864845265
  - # 17
    frequency:   13.8180915359
  - # 18
    frequency:   15.2040231691
  - # 19
    frequency:   15.3247302448
  - # 20
    frequency:   15.9322084045
  - # 21
    frequency:   16.0114731815
  - # 22
    frequency:   26.8625635206
  - # 23
    frequency:   55.8913890756
  - # 24
    frequency:  110.4137286039

- q-position: [    0.0505051,    0.0000000,    0.0000000 ]
  distance:    0.0172551
  band:
  - # 1
    frequency:   -1.1842605568
  - # 2
    frequency:   -0.9151693870
  - # 3
    frequency:    0.1225179544
  - # 4
    frequency:    0.8287872470
  - # 5
    frequency:    0.8774169774
  - # 6
    frequency:    2.9174501100
  - # 7
    frequency:    2.9612766461
  - # 8
    frequency:    4.3672777359
  - # 9
    frequency:    6.7543895435
  - # 10
    frequency:    6.7551288068
  - # 11
    frequency:    7.0859503658
  - # 12
    frequency:    7.5754260510
  - # 13
    frequency:    7.6402420831
  - # 14
    frequency:   11.7301937457
  - # 15
    frequency:   13.2673100674
  - # 16
    frequency:   13.2880236212
  - # 17
    frequency:   13.8118817728
  - # 18
    frequency:   15.1547379783
  - # 19
    frequency:   15.3037475143
  - # 20
    frequency:   15.9334774253
  - # 21
    frequency:   16.0291824059
  - # 22
    frequency:   26.8581906253
  - # 23
    frequency:   55.8835133462
  - # 24
    frequency:  110.3780212693

- q-position: [    0.0555556,    0.0000000,    0.0000000 ]
  distance:    0.0189806
  band:
  - # 1
    frequency:   -1.2523014414
  - # 2
    frequency:   -0.9380764506
  - # 3
    frequency:    0.1488693991
  - # 4
    frequency:    0.9126396761
  - # 5
    frequency:    0.9330522615
  - # 6
    frequency:    2.8936793597
  - # 7
    frequency:    2.9534835500
  - # 8
    frequency:    4.4120848723
  - # 9
    frequency:    6.7608742269
  - # 10
    frequency:    6.7624987005
  - # 11
    frequency:    7.0810602052
  - # 12
    frequency:    7.5804690479
  - # 13
    frequency:    7.6570868934
  - # 14
    frequency:   11.7209481851
  - # 15
    frequency:   13.2657724262
  - # 16
    frequency:   13.2893003613
  - # 17
    frequency:   13.8050800972
  - # 18
    frequency:   15.1017678051
  - # 19
    frequency:   15.2818780708
  - # 20
    frequency:   15.9342439422
  - # 21
    frequency:   16.0473340137
  - # 22
    frequency:   26.8534056904
  - # 23
    frequency:   55.8748532968
  - # 24
    frequency:  110.3389883023

- q-position: [    0.0606061,    0.0000000,    0.0000000 ]
  distance:    0.0207061
  band:
  - # 1
    frequency:   -1.3161925566
  - # 2
    frequency:   -0.9590367372
  - # 3
    frequency:    0.1776080545
  - # 4
    frequency:    0.9858991553
  - # 5
    frequency:    0.9959682030
  - # 6
    frequency:    2.8678945188
  - # 7
    frequency:    2.9469017326
  - # 8
    frequency:    4.4579539700
  - # 9
    frequency:    6.7676794063
  - # 10
    frequency:    6.7706025122
  - # 11
    frequency:    7.0760353087
  - # 12
    frequency:    7.5859052630
  - # 13
    frequency:    7.6748239086
  - # 14
    frequency:   11.7107973868
  - # 15
    frequency:   13.2642172006
  - # 16
    frequency:   13.2901540414
  - # 17
    frequency:   13.7977222746
  - # 18
    frequency:   15.0454073133
  - # 19
    frequency:   15.2592816194
  - # 20
    frequency:   15.9344874264
  - # 21
    frequency:   16.0657431076
  - # 22
    frequency:   26.8482226185
  - # 23
    frequency:   55.8654221077
  - # 24
    frequency:  110.2967558806

- q-position: [    0.0656566,    0.0000000,    0.0000000 ]
  distance:    0.0224317
  band:
  - # 1
    frequency:   -1.3754349003
  - # 2
    frequency:   -0.9782641027
  - # 3
    frequency:    0.2086827220
  - # 4
    frequency:    1.0361508050
  - # 5
    frequency:    1.0787549343
  - # 6
    frequency:    2.8402067369
  - # 7
    frequency:    2.9417782061
  - # 8
    frequency:    4.5044915501
  - # 9
    frequency:    6.7746903086
  - # 10
    frequency:    6.7794386247
  - # 11
    frequency:    7.0709819400
  - # 12
    frequency:    7.5917116139
  - # 13
    frequency:    7.6933030277
  - # 14
    frequency:   11.6997408178
  - # 15
    frequency:   13.2626733794
  - # 16
    frequency:   13.2903914684
  - # 17
    frequency:   13.7898545635
  - # 18
    frequency:   14.9859679024
  - # 19
    frequency:   15.2360953311
  - # 20
    frequency:   15.9342057573
  - # 21
    frequency:   16.0842468983
  - # 22
    frequency:   26.8426563721
  - # 23
    frequency:   55.8552341053
  - # 24
    frequency:  110.2514604336

- q-position: [    0.0707071,    0.0000000,    0.0000000 ]
  distance:    0.0241572
  band:
  - # 1
    frequency:   -1.4296571326
  - # 2
    frequency:   -0.9959819532
  - # 3
    frequency:    0.2420405861
  - # 4
    frequency:    1.0839354079
  - # 5
    frequency:    1.1609847932
  - # 6
    frequency:    2.8107565219
  - # 7
    frequency:    2.9383359598
  - # 8
    frequency:    4.5513561414
  - # 9
    frequency:    6.7817677561
  - # 10
    frequency:    6.7890016773
  - # 11
    frequency:    7.0660263483
  - # 12
    frequency:    7.5978633594
  - # 13
    frequency:    7.7123750706
  - # 14
    frequency:   11.6877804822
  - # 15
    frequency:   13.2611701836
  - # 16
    frequency:   13.2897818482
  - # 17
    frequency:   13.7815345244
  - # 18
    frequency:   14.9237865377
  - # 19
    frequency:   15.2124379833
  - # 20
    frequency:   15.9334103804
  - # 21
    frequency:   16.1027009435
  - # 22
    frequency:   26.8367229078
  - # 23
    frequency:   55.8443047328
  - # 24
    frequency:  110.2032481692

- q-position: [    0.0757576,    0.0000000,    0.0000000 ]
  distance:    0.0258827
  band:
  - # 1
    frequency:   -1.4785829106
  - # 2
    frequency:   -1.0124260916
  - # 3
    frequency:    0.2776263901
  - # 4
    frequency:    1.1293283499
  - # 5
    frequency:    1.2426442229
  - # 6
    frequency:    2.7797192412
  - # 7
    frequency:    2.9367753884
  - # 8
    frequency:    4.5982532137
  - # 9
    frequency:    6.7887455895
  - # 10
    frequency:    6.7992821116
  - # 11
    frequency:    7.0613175366
  - # 12
    frequency:    7.6043342178
  - # 13
    frequency:    7.7318935462
  - # 14
    frequency:   11.6749214841
  - # 15
    frequency:   13.2597366890
  - # 16
    frequency:   13.2880515299
  - # 17
    frequency:   13.7728309454
  - # 18
    frequency:   14.8592348438
  - # 19
    frequency:   15.1884135944
  - # 20
    frequency:   15.9321222037
  - # 21
    frequency:   16.1209758736
  - # 22
    frequency:   26.8304391079
  - # 23
    frequency:   55.8326505185
  - # 24
    frequency:  110.1522745634

- q-position: [    0.0808081,    0.0000000,    0.0000000 ]
  distance:    0.0276082
  band:
  - # 1
    frequency:   -1.5220065191
  - # 2
    frequency:   -1.0278484349
  - # 3
    frequency:    0.3153817360
  - # 4
    frequency:    1.1723601499
  - # 5
    frequency:    1.3237207202
  - # 6
    frequency:    2.7473112011
  - # 7
    frequency:    2.9372747210
  - # 8
    frequency:    4.6449298789
  - # 9
    frequency:    6.7954295511
  - # 10
    frequency:    6.8102658102
  - # 11
    frequency:    7.0570286309
  - # 12
    frequency:    7.6110965061
  - # 13
    frequency:    7.7517163100
  - # 14
    frequency:   11.6611725930
  - # 15
    frequency:   13.2584014770
  - # 16
    frequency:   13.2848791355
  - # 17
    frequency:   13.7638222600
  - # 18
    frequency:   14.7927285400
  - # 19
    frequency:   15.1641144764
  - # 20
    frequency:   15.9303682525
  - # 21
    frequency:   16.1389546704
  - # 22
    frequency:   26.8238227083
  - # 23
    frequency:   55.8202890418
  - # 24
    frequency:  110.0987038134

- q-position: [    0.0858586,    0.0000000,    0.0000000 ]
  distance:    0.0293337
  band:
  - # 1
    frequency:   -1.5597743669
  - # 2
    frequency:   -1.0425210251
  - # 3
    frequency:    0.3552444749
  - # 4
    frequency:    1.2130217176
  - # 5
    frequency:    1.4042027323
  - # 6
    frequency:    2.7137961831
  - # 7
    frequency:    2.9399896207
  - # 8
    frequency:    4.6911697251
  - # 9
    frequency:    6.8015991755
  - # 10
    frequency:    6.8219338365
  - # 11
    frequency:    7.0533552694
  - # 12
    frequency:    7.6181213002
  - # 13
    frequency:    7.7717071133
  - # 14
    frequency:   11.6465468000
  - # 15
    frequency:   13.2571923194
  - # 16
    frequency:   13.2798919207
  - # 17
    frequency:   13.7545926119
  - # 18
    frequency:   14.7247372853
  - # 19
    frequency:   15.1396237237
  - # 20
    frequency:   15.9281790260
  - # 21
    frequency:   16.1565304775
  - # 22
    frequency:   26.8168922259
  - # 23
    frequency:   55.8072388972
  - # 24
    frequency:  110.0427082567

- q-position: [    0.0909091,    0.0000000,    0.0000000 ]
  distance:    0.0310592
  band:
  - # 1
    frequency:   -1.5917706698
  - # 2
    frequency:   -1.0567398740
  - # 3
    frequency:    0.3971481794
  - # 4
    frequency:    1.2512681117
  - # 5
    frequency:    1.4840796935
  - # 6
    frequency:    2.6794921445
  - # 7
    frequency:    2.9450522166
  - # 8
    frequency:    4.7367879879
  - # 9
    frequency:    6.8070147949
  - # 10
    frequency:    6.8342622779
  - # 11
    frequency:    7.0505088836
  - # 12
    frequency:    7.6253786166
  - # 13
    frequency:    7.7917370384
  - # 14
    frequency:   11.6310618512
  - # 15
    frequency:   13.2561359000
  - # 16
    frequency:   13.2726645628
  - # 17
    frequency:   13.7452245538
  - # 18
    frequency:   14.6557948414
  - # 19
    frequency:   15.1150171961
  - # 20
    frequency:   15.9255864680
  - # 21
    frequency:   16.1736048782
  - # 22
    frequency:   26.8096668827
  - # 23
    frequency:   55.7935196559
  - # 24
    frequency:  109.9844677556

- q-position: [    0.0959596,    0.0000000,    0.0000000 ]
  distance:    0.0327847
  band:
  - # 1
    frequency:   -1.6179061346
  - # 2
    frequency:   -1.0708281442
  - # 3
    frequency:    0.4410217134
  - # 4
    frequency:    1.2870219072
  - # 5
    frequency:    1.5633420929
  - # 6
    frequency:    2.6447775232
  - # 7
    frequency:    2.9525698628
  - # 8
    frequency:    4.7816271574
  - # 9
    frequency:    6.8114317714
  - # 10
    frequency:    6.8472221918
  - # 11
    frequency:    7.0487027393
  - # 12
    frequency:    7.6328376171
  - # 13
    frequency:    7.8116858119
  - # 14
    frequency:   11.6147407445
  - # 15
    frequency:   13.2552575776
  - # 16
    frequency:   13.2627218784
  - # 17
    frequency:   13.7357874074
  - # 18
    frequency:   14.5865091285
  - # 19
    frequency:   15.0903650657
  - # 20
    frequency:   15.9226224570
  - # 21
    frequency:   16.1900865713
  - # 22
    frequency:   26.8021665301
  - # 23
    frequency:   55.7791518254
  - # 24
    frequency:  109.9241690515

- q-position: [    0.1010101,    0.0000000,    0.0000000 ]
  distance:    0.0345102
  band:
  - # 1
    frequency:   -1.6381087790
  - # 2
    frequency:   -1.0851380338
  - # 3
    frequency:    0.4867889271
  - # 4
    frequency:    1.3201774060
  - # 5
    frequency:    1.6419815197
  - # 6
    frequency:    2.6100961807
  - # 7
    frequency:    2.9626238979
  - # 8
    frequency:    4.8255530625
  - # 9
    frequency:    6.8146227161
  - # 10
    frequency:    6.8607796508
  - # 11
    frequency:    7.0481299640
  - # 12
    frequency:    7.6404668348
  - # 13
    frequency:    7.8314429853
  - # 14
    frequency:   11.5976121781
  - # 15
    frequency:   13.2495470953
  - # 16
    frequency:   13.2545811889
  - # 17
    frequency:   13.7263207594
  - # 18
    frequency:   14.5175711668
  - # 19
    frequency:   15.0657329963
  - # 20
    frequency:   15.9193177286
  - # 21
    frequency:   16.2058903704
  - # 22
    frequency:   26.7944115719
  - # 23
    frequency:   55.7641568070
  - # 24
    frequency:  109.8620050880

- q-position: [    0.1060606,    0.0000000,    0.0000000 ]
  distance:    0.0362358
  band:
  - # 1
    frequency:   -1.6523162338
  - # 2
    frequency:   -1.1000505426
  - # 3
    frequency:    0.5343685162
  - # 4
    frequency:    1.3506071904
  - # 5
    frequency:    1.7199906618
  - # 6
    frequency:    2.5759594713
  - # 7
    frequency:    2.9752686364
  - # 8
    frequency:    4.8684514333
  - # 9
    frequency:    6.8164052178
  - # 10
    frequency:    6.8748958763
  - # 11
    frequency:    7.0489360276
  - # 12
    frequency:    7.6482344222
  - # 13
    frequency:    7.8509089729
  - # 14
    frequency:   11.5797109386
  - # 15
    frequency:   13.2325971244
  - # 16
    frequency:   13.2541288943
  - # 17
    frequency:   13.7168136447
  - # 18
    frequency:   14.4497609947
  - # 19
    frequency:   15.0411830183
  - # 20
    frequency:   15.9157011490
  - # 21
    frequency:   16.2209364681
  - # 22
    frequency:   26.7864228877
  - # 23
    frequency:   55.7485568514
  - # 24
    frequency:  109.7981743070

- q-position: [    0.1111111,    0.0000000,    0.0000000 ]
  distance:    0.0379613
  band:
  - # 1
    frequency:   -1.6604690049
  - # 2
    frequency:   -1.1159720947
  - # 3
    frequency:    0.5836740883
  - # 4
    frequency:    1.3781728362
  - # 5
    frequency:    1.7973632454
  - # 6
    frequency:    2.5429432850
  - # 7
    frequency:    2.9905307695
  - # 8
    frequency:    4.9102249263
  - # 9
    frequency:    6.8166684116
  - # 10
    frequency:    6.8895274519
  - # 11
    frequency:    7.0511923398
  - # 12
    frequency:    7.6561084173
  - # 13
    frequency:    7.8699959341
  - # 14
    frequency:   11.5610782187
  - # 15
    frequency:   13.2113257586
  - # 16
    frequency:   13.2539210621
  - # 17
    frequency:   13.7071817376
  - # 18
    frequency:   14.3839473827
  - # 19
    frequency:   15.0167741516
  - # 20
    frequency:   15.9117992739
  - # 21
    frequency:   16.2351499103
  - # 22
    frequency:   26.7782217555
  - # 23
    frequency:   55.7323750127
  - # 24
    frequency:  109.7328799185

- q-position: [    0.1161616,    0.0000000,    0.0000000 ]
  distance:    0.0396868
  band:
  - # 1
    frequency:   -1.6625042606
  - # 2
    frequency:   -1.1333268505
  - # 3
    frequency:    0.6346144782
  - # 4
    frequency:    1.4027417601
  - # 5
    frequency:    1.8740939090
  - # 6
    frequency:    2.5116773678
  - # 7
    frequency:    3.0084092916
  - # 8
    frequency:    4.9507905865
  - # 9
    frequency:    6.8153895141
  - # 10
    frequency:    6.9046266026
  - # 11
    frequency:    7.0548798301
  - # 12
    frequency:    7.6640570286
  - # 13
    frequency:    7.8886284883
  - # 14
    frequency:   11.5417618585
  - # 15
    frequency:   13.1852149483
  - # 16
    frequency:   13.2539761913
  - # 17
    frequency:   13.6972472042
  - # 18
    frequency:   14.3210765994
  - # 19
    frequency:   14.9925628216
  - # 20
    frequency:   15.9076361323
  - # 21
    frequency:   16.2484602381
  - # 22
    frequency:   26.7698297763
  - # 23
    frequency:   55.7156351003
  - # 24
    frequency:  109.6663291478

- q-position: [    0.1212121,    0.0000000,    0.0000000 ]
  distance:    0.0414123
  band:
  - # 1
    frequency:   -1.6583497436
  - # 2
    frequency:   -1.1525435728
  - # 3
    frequency:    0.6870943500
  - # 4
    frequency:    1.4242118169
  - # 5
    frequency:    1.9501780140
  - # 6
    frequency:    2.4828241388
  - # 7
    frequency:    3.0288760131
  - # 8
    frequency:    4.9900777181
  - # 9
    frequency:    6.8126341311
  - # 10
    frequency:    6.9201415275
  - # 11
    frequency:    7.0598887061
  - # 12
    frequency:    7.6720489322
  - # 13
    frequency:    7.9067442513
  - # 14
    frequency:   11.5218165060
  - # 15
    frequency:   13.1538132874
  - # 16
    frequency:   13.2543108682
  - # 17
    frequency:   13.6867283943
  - # 18
    frequency:   14.2621439595
  - # 19
    frequency:   14.9686031065
  - # 20
    frequency:   15.9032331862
  - # 21
    frequency:   16.2608012636
  - # 22
    frequency:   26.7612687984
  - # 23
    frequency:   55.6983616291
  - # 24
    frequency:  109.5987324613

- q-position: [    0.1262626,    0.0000000,    0.0000000 ]
  distance:    0.0431378
  band:
  - # 1
    frequency:   -1.6479174076
  - # 2
    frequency:   -1.1740362634
  - # 3
    frequency:    0.7410151166
  - # 4
    frequency:    1.4425438644
  - # 5
    frequency:    2.0256113912
  - # 6
    frequency:    2.4570451863
  - # 7
    frequency:    3.0518766655
  - # 8
    frequency:    5.0280261330
  - # 9
    frequency:    6.8085409195
  - # 10
    frequency:    6.9360167717
  - # 11
    frequency:    7.0660338091
  - # 12
    frequency:    7.6800535798
  - # 13
    frequency:    7.9242941776
  - # 14
    frequency:   11.5013036964
  - # 15
    frequency:   13.1167793579
  - # 16
    frequency:   13.2549397540
  - # 17
    frequency:   13.6752486292
  - # 18
    frequency:   14.2081412813
  - # 19
    frequency:   14.9449468460
  - # 20
    frequency:   15.8986094264
  - # 21
    frequency:   16.2721109506
  - # 22
    frequency:   26.7525608440
  - # 23
    frequency:   55.6805797684
  - # 24
    frequency:  109.5303027753

- q-position: [    0.1313131,    0.0000000,    0.0000000 ]
  distance:    0.0448633
  band:
  - # 1
    frequency:   -1.6310963317
  - # 2
    frequency:   -1.1981785991
  - # 3
    frequency:    0.7962761957
  - # 4
    frequency:    1.4577996818
  - # 5
    frequency:    2.1003900314
  - # 6
    frequency:    2.4349561813
  - # 7
    frequency:    3.0773325606
  - # 8
    frequency:    5.0645847498
  - # 9
    frequency:    6.8032973488
  - # 10
    frequency:    6.9521936246
  - # 11
    frequency:    7.0730788285
  - # 12
    frequency:    7.6880415108
  - # 13
    frequency:    7.9412426988
  - # 14
    frequency:   11.4802918536
  - # 15
    frequency:   13.0739252696
  - # 16
    frequency:   13.2558755981
  - # 17
    frequency:   13.6623734687
  - # 18
    frequency:   14.1599755491
  - # 19
    frequency:   14.9216436384
  - # 20
    frequency:   15.8937815675
  - # 21
    frequency:   16.2823313800
  - # 22
    frequency:   26.7437280363
  - # 23
    frequency:   55.6623152895
  - # 24
    frequency:  109.4612546491

- q-position: [    0.1363636,    0.0000000,    0.0000000 ]
  distance:    0.0465888
  band:
  - # 1
    frequency:   -1.6077443510
  - # 2
    frequency:   -1.2252735357
  - # 3
    frequency:    0.8527766117
  - # 4
    frequency:    1.4701785796
  - # 5
    frequency:    2.1745097275
  - # 6
    frequency:    2.4170750878
  - # 7