nqpoint: 300    
npath: 3      
segment_nqpoint:
- 100
- 100
- 100
labels:
- [ 'G', 'M' ]
- [ 'M', 'K' ]
- [ 'K', 'G' ]
reciprocal_lattice:
- [   0.29888670,   0.17256232,   0.00000000 ] # a*
- [   0.00000000,   0.34512464,   0.00000000 ] # b*
- [   0.00000000,   0.00000000,   0.03533741 ] # c*
natom: 9      
lattice:
- [     3.345749371512496,     0.000000000000000,     0.000000000000000 ] # a
- [    -1.672874685756248,     2.897503950417654,     0.000000000000000 ] # b
- [     0.000000000000000,     0.000000000000000,    28.298617991685497 ] # c
points:
- symbol: C # 1
  coordinates: [  0.333332985432215,  0.666666983183674,  0.627225990561552 ]
  mass: 12.010700
- symbol: C # 2
  coordinates: [  0.666666984744047,  0.333332985985145,  0.359991706657194 ]
  mass: 12.010700
- symbol: Hf # 3
  coordinates: [  0.333332985432215,  0.666666983183674,  0.455523082606650 ]
  mass: 178.490000
- symbol: Hf # 4
  coordinates: [  0.666666984744047,  0.333332985985145,  0.535598559718887 ]
  mass: 178.490000
- symbol: N # 5
  coordinates: [  0.000000000000000,  0.000000000000000,  0.494102591463316 ]
  mass: 14.006700
- symbol: N # 6
  coordinates: [  0.333332985432215,  0.666666983183674,  0.582490095742867 ]
  mass: 14.006700
- symbol: N # 7
  coordinates: [  0.666666984744047,  0.333332985985145,  0.318036732487937 ]
  mass: 14.006700
- symbol: O # 8
  coordinates: [  0.666666984744047,  0.333332985985145,  0.407336150682913 ]
  mass: 15.999400
- symbol: S # 9
  coordinates: [  0.333332985432215,  0.666666983183674,  0.681963267512063 ]
  mass: 32.065000

phonon:
- q-position: [    0.0000000,    0.0000000,    0.0000000 ]
  distance:    0.0000000
  band:
  - # 1
    frequency:   -0.8325833616
  - # 2
    frequency:   -0.8325833615
  - # 3
    frequency:   -0.0000139566
  - # 4
    frequency:   -0.0000003869
  - # 5
    frequency:    0.0000096026
  - # 6
    frequency:    1.4383055326
  - # 7
    frequency:    1.4383055326
  - # 8
    frequency:    3.2963321297
  - # 9
    frequency:    3.2963321297
  - # 10
    frequency:    4.8519537135
  - # 11
    frequency:    6.2349257947
  - # 12
    frequency:    6.2349257947
  - # 13
    frequency:    6.8385603702
  - # 14
    frequency:    7.6204402901
  - # 15
    frequency:    7.6204402902
  - # 16
    frequency:    7.7495830038
  - # 17
    frequency:   13.0099323077
  - # 18
    frequency:   13.0099323077
  - # 19
    frequency:   13.6013217476
  - # 20
    frequency:   13.6013217477
  - # 21
    frequency:   14.4550129970
  - # 22
    frequency:   16.5736085916
  - # 23
    frequency:   16.5736085916
  - # 24
    frequency:   26.8102289267
  - # 25
    frequency:   31.3778589618
  - # 26
    frequency:   54.5785884311
  - # 27
    frequency:   67.9756440147

- q-position: [    0.0050505,    0.0000000,    0.0000000 ]
  distance:    0.0017431
  band:
  - # 1
    frequency:   -0.8317275248
  - # 2
    frequency:   -0.8291949197
  - # 3
    frequency:    0.0017749571
  - # 4
    frequency:    0.0341377030
  - # 5
    frequency:    0.0790561346
  - # 6
    frequency:    1.4392094979
  - # 7
    frequency:    1.4407665268
  - # 8
    frequency:    3.2960692952
  - # 9
    frequency:    3.2963337415
  - # 10
    frequency:    4.8519219097
  - # 11
    frequency:    6.2349484941
  - # 12
    frequency:    6.2350739642
  - # 13
    frequency:    6.8380019684
  - # 14
    frequency:    7.6205595299
  - # 15
    frequency:    7.6212319145
  - # 16
    frequency:    7.7492293602
  - # 17
    frequency:   13.0098550980
  - # 18
    frequency:   13.0101258480
  - # 19
    frequency:   13.6013591091
  - # 20
    frequency:   13.6013869548
  - # 21
    frequency:   14.4547968559
  - # 22
    frequency:   16.5734816820
  - # 23
    frequency:   16.5738212693
  - # 24
    frequency:   26.8098827667
  - # 25
    frequency:   31.3774652598
  - # 26
    frequency:   54.5781083707
  - # 27
    frequency:   67.9754119428

- q-position: [    0.0101010,    0.0000000,    0.0000000 ]
  distance:    0.0034861
  band:
  - # 1
    frequency:   -0.8291601901
  - # 2
    frequency:   -0.8189544751
  - # 3
    frequency:    0.0071005076
  - # 4
    frequency:    0.0683078316
  - # 5
    frequency:    0.1580588424
  - # 6
    frequency:    1.4419145430
  - # 7
    frequency:    1.4481158770
  - # 8
    frequency:    3.2952832176
  - # 9
    frequency:    3.2963402604
  - # 10
    frequency:    4.8518262482
  - # 11
    frequency:    6.2350165570
  - # 12
    frequency:    6.2355172671
  - # 13
    frequency:    6.8363360830
  - # 14
    frequency:    7.6209167224
  - # 15
    frequency:    7.6235898975
  - # 16
    frequency:    7.7481734191
  - # 17
    frequency:   13.0096244536
  - # 18
    frequency:   13.0107064010
  - # 19
    frequency:   13.6014712386
  - # 20
    frequency:   13.6015824069
  - # 21
    frequency:   14.4541494657
  - # 22
    frequency:   16.5730993469
  - # 23
    frequency:   16.5744573307
  - # 24
    frequency:   26.8088453459
  - # 25
    frequency:   31.3762851082
  - # 26
    frequency:   54.5766691609
  - # 27
    frequency:   67.9747162182

- q-position: [    0.0151515,    0.0000000,    0.0000000 ]
  distance:    0.0052292
  band:
  - # 1
    frequency:   -0.8248818496
  - # 2
    frequency:   -0.8016283287
  - # 3
    frequency:    0.0159847115
  - # 4
    frequency:    0.1025419081
  - # 5
    frequency:    0.2369549538
  - # 6
    frequency:    1.4464003370
  - # 7
    frequency:    1.4602549132
  - # 8
    frequency:    3.2939811590
  - # 9
    frequency:    3.2963566809
  - # 10
    frequency:    4.8516659933
  - # 11
    frequency:    6.2351298794
  - # 12
    frequency:    6.2362521028
  - # 13
    frequency:    6.8335900600
  - # 14
    frequency:    7.6215102903
  - # 15
    frequency:    7.6274632251
  - # 16
    frequency:    7.7464311581
  - # 17
    frequency:   13.0092433104
  - # 18
    frequency:   13.0116737345
  - # 19
    frequency:   13.6016582700
  - # 20
    frequency:   13.6019076003
  - # 21
    frequency:   14.4530739110
  - # 22
    frequency:   16.5724567908
  - # 23
    frequency:   16.5755108805
  - # 24
    frequency:   26.8071198374
  - # 25
    frequency:   31.3743213674
  - # 26
    frequency:   54.5742737143
  - # 27
    frequency:   67.9735583129

- q-position: [    0.0202020,    0.0000000,    0.0000000 ]
  distance:    0.0069722
  band:
  - # 1
    frequency:   -0.8188932055
  - # 2
    frequency:   -0.7767971406
  - # 3
    frequency:    0.0284622647
  - # 4
    frequency:    0.1368697136
  - # 5
    frequency:    0.3156918055
  - # 6
    frequency:    1.4526337188
  - # 7
    frequency:    1.4770262465
  - # 8
    frequency:    3.2921751690
  - # 9
    frequency:    3.2963911433
  - # 10
    frequency:    4.8514399667
  - # 11
    frequency:    6.2352882920
  - # 12
    frequency:    6.2372725206
  - # 13
    frequency:    6.8298075107
  - # 14
    frequency:    7.6223376140
  - # 15
    frequency:    7.6327651633
  - # 16
    frequency:    7.7440330486
  - # 17
    frequency:   13.0087164985
  - # 18
    frequency:   13.0130273704
  - # 19
    frequency:   13.6019204191
  - # 20
    frequency:   13.6023617135
  - # 21
    frequency:   14.4515752857
  - # 22
    frequency:   16.5715460983
  - # 23
    frequency:   16.5769721612
  - # 24
    frequency:   26.8047115151
  - # 25
    frequency:   31.3715787950
  - # 26
    frequency:   54.5709268758
  - # 27
    frequency:   67.9719406750

- q-position: [    0.0252525,    0.0000000,    0.0000000 ]
  distance:    0.0087153
  band:
  - # 1
    frequency:   -0.8111949834
  - # 2
    frequency:   -0.7438032713
  - # 3
    frequency:    0.0446332698
  - # 4
    frequency:    0.1713185796
  - # 5
    frequency:    0.3942174573
  - # 6
    frequency:    1.4605697273
  - # 7
    frequency:    1.4982231915
  - # 8
    frequency:    3.2898820036
  - # 9
    frequency:    3.2964546658
  - # 10
    frequency:    4.8511466188
  - # 11
    frequency:    6.2354915656
  - # 12
    frequency:    6.2385702947
  - # 13
    frequency:    6.8250456335
  - # 14
    frequency:    7.6233950463
  - # 15
    frequency:    7.6393683539
  - # 16
    frequency:    7.7410318855
  - # 17
    frequency:   13.0080506500
  - # 18
    frequency:   13.0147664489
  - # 19
    frequency:   13.6022579744
  - # 20
    frequency:   13.6029436316
  - # 21
    frequency:   14.4496606243
  - # 22
    frequency:   16.5703563492
  - # 23
    frequency:   16.5788276530
  - # 24
    frequency:   26.8016277327
  - # 25
    frequency:   31.3680640316
  - # 26
    frequency:   54.5666354093
  - # 27
    frequency:   67.9698667208

- q-position: [    0.0303030,    0.0000000,    0.0000000 ]
  distance:    0.0104583
  band:
  - # 1
    frequency:   -0.8017876505
  - # 2
    frequency:   -0.7016582285
  - # 3
    frequency:    0.0647378868
  - # 4
    frequency:    0.2059128517
  - # 5
    frequency:    0.4724808741
  - # 6
    frequency:    1.4701529419
  - # 7
    frequency:    1.5236009566
  - # 8
    frequency:    3.2871230085
  - # 9
    frequency:    3.2965607865
  - # 10
    frequency:    4.8507841233
  - # 11
    frequency:    6.2357394199
  - # 12
    frequency:    6.2401350253
  - # 13
    frequency:    6.8193719377
  - # 14
    frequency:    7.6246779329
  - # 15
    frequency:    7.6470915941
  - # 16
    frequency:    7.7375196210
  - # 17
    frequency:   13.0072540732
  - # 18
    frequency:   13.0168895429
  - # 19
    frequency:   13.6026712833
  - # 20
    frequency:   13.6036519807
  - # 21
    frequency:   14.4473388079
  - # 22
    frequency:   16.5688737752
  - # 23
    frequency:   16.5810602108
  - # 24
    frequency:   26.7978778932
  - # 25
    frequency:   31.3637855805
  - # 26
    frequency:   54.5614079788
  - # 27
    frequency:   67.9673408238

- q-position: [    0.0353535,    0.0000000,    0.0000000 ]
  distance:    0.0122014
  band:
  - # 1
    frequency:   -0.7906710108
  - # 2
    frequency:   -0.6488840270
  - # 3
    frequency:    0.0893107486
  - # 4
    frequency:    0.2406735474
  - # 5
    frequency:    0.5504320632
  - # 6
    frequency:    1.4813190434
  - # 7
    frequency:    1.5528882439
  - # 8
    frequency:    3.2839239667
  - # 9
    frequency:    3.2967251289
  - # 10
    frequency:    4.8503504943
  - # 11
    frequency:    6.2360315326
  - # 12
    frequency:    6.2419542641
  - # 13
    frequency:    6.8128607249
  - # 14
    frequency:    7.6261806396
  - # 15
    frequency:    7.6556660090
  - # 16
    frequency:    7.7336651331
  - # 17
    frequency:   13.0063365954
  - # 18
    frequency:   13.0193944254
  - # 19
    frequency:   13.6031607354
  - # 20
    frequency:   13.6044851686
  - # 21
    frequency:   14.4446204501
  - # 22
    frequency:   16.5670819586
  - # 23
    frequency:   16.5836492346
  - # 24
    frequency:   26.7934734106
  - # 25
    frequency:   31.3587537823
  - # 26
    frequency:   54.5552551238
  - # 27
    frequency:   67.9643683009

- q-position: [    0.0404040,    0.0000000,    0.0000000 ]
  distance:    0.0139444
  band:
  - # 1
    frequency:   -0.7778436374
  - # 2
    frequency:   -0.5832504223
  - # 3
    frequency:    0.1195392460
  - # 4
    frequency:    0.2756182114
  - # 5
    frequency:    0.6280221654
  - # 6
    frequency:    1.4939965012
  - # 7
    frequency:    1.5857981379
  - # 8
    frequency:    3.2803149061
  - # 9
    frequency:    3.2969649101
  - # 10
    frequency:    4.8498437193
  - # 11
    frequency:    6.2363675514
  - # 12
    frequency:    6.2440136615
  - # 13
    frequency:    6.8055896483
  - # 14
    frequency:    7.6278965866
  - # 15
    frequency:    7.6646492282
  - # 16
    frequency:    7.7298039885
  - # 17
    frequency:   13.0053093800
  - # 18
    frequency:   13.0222777950
  - # 19
    frequency:   13.6037267431
  - # 20
    frequency:   13.6054414314
  - # 21
    frequency:   14.4415177638
  - # 22
    frequency:   16.5649620669
  - # 23
    frequency:   16.5865708707
  - # 24
    frequency:   26.7884276641
  - # 25
    frequency:   31.3529807829
  - # 26
    frequency:   54.5481892301
  - # 27
    frequency:   67.9609553954

- q-position: [    0.0454545,    0.0000000,    0.0000000 ]
  distance:    0.0156875
  band:
  - # 1
    frequency:   -0.7633020786
  - # 2
    frequency:   -0.5014300524
  - # 3
    frequency:    0.1582032387
  - # 4
    frequency:    0.3107609418
  - # 5
    frequency:    0.7052034992
  - # 6
    frequency:    1.5081082911
  - # 7
    frequency:    1.6220375438
  - # 8
    frequency:    3.2763298662
  - # 9
    frequency:    3.2972984087
  - # 10
    frequency:    4.8492619057
  - # 11
    frequency:    6.2367471067
  - # 12
    frequency:    6.2462971302
  - # 13
    frequency:    6.7976366033
  - # 14
    frequency:    7.6298182904
  - # 15
    frequency:    7.6732148266
  - # 16
    frequency:    7.7266526761
  - # 17
    frequency:   13.0041847205
  - # 18
    frequency:   13.0255349653
  - # 19
    frequency:   13.6043697205
  - # 20
    frequency:   13.6065188836
  - # 21
    frequency:   14.4380444155
  - # 22
    frequency:   16.5624931215
  - # 23
    frequency:   16.5897982377
  - # 24
    frequency:   26.7827559429
  - # 25
    frequency:   31.3464804973
  - # 26
    frequency:   54.5402244951
  - # 27
    frequency:   67.9571092568

- q-position: [    0.0505051,    0.0000000,    0.0000000 ]
  distance:    0.0174305
  band:
  - # 1
    frequency:   -0.7470397423
  - # 2
    frequency:   -0.3993657376
  - # 3
    frequency:    0.2122664084
  - # 4
    frequency:    0.3461125455
  - # 5
    frequency:    0.7819295641
  - # 6
    frequency:    1.5235735593
  - # 7
    frequency:    1.6613148169
  - # 8
    frequency:    3.2720066214
  - # 9
    frequency:    3.2977444158
  - # 10
    frequency:    4.8486034339
  - # 11
    frequency:    6.2371698247
  - # 12
    frequency:    6.2487870236
  - # 13
    frequency:    6.7890771087
  - # 14
    frequency:    7.6319374135
  - # 15
    frequency:    7.6797738394
  - # 16
    frequency:    7.7256903308
  - # 17
    frequency:   13.0029758179
  - # 18
    frequency:   13.0291595241
  - # 19
    frequency:   13.6050900598
  - # 20
    frequency:   13.6077155680
  - # 21
    frequency:   14.4342153706
  - # 22
    frequency:   16.5596522942
  - # 23
    frequency:   16.5933016749
  - # 24
    frequency:   26.7764753848
  - # 25
    frequency:   31.3392685669
  - # 26
    frequency:   54.5313768884
  - # 27
    frequency:   67.9528379187

- q-position: [    0.0555556,    0.0000000,    0.0000000 ]
  distance:    0.0191736
  band:
  - # 1
    frequency:   -0.7290453181
  - # 2
    frequency:   -0.2789617991
  - # 3
    frequency:    0.2966423287
  - # 4
    frequency:    0.3816807615
  - # 5
    frequency:    0.8581550084
  - # 6
    frequency:    1.5403091619
  - # 7
    frequency:    1.7033455441
  - # 8
    frequency:    3.2673863580
  - # 9
    frequency:    3.2983216846
  - # 10
    frequency:    4.8478671131
  - # 11
    frequency:    6.2376353425
  - # 12
    frequency:    6.2514643236
  - # 13
    frequency:    6.7799822562
  - # 14
    frequency:    7.6342448235
  - # 15
    frequency:    7.6821715694
  - # 16
    frequency:    7.7289646391
  - # 17
    frequency:   13.0016965454
  - # 18
    frequency:   13.0331429706
  - # 19
    frequency:   13.6058881073
  - # 20
    frequency:   13.6090295061
  - # 21
    frequency:   14.4300467339
  - # 22
    frequency:   16.5564152298
  - # 23
    frequency:   16.5970490057
  - # 24
    frequency:   26.7696049069
  - # 25
    frequency:   31.3313623121
  - # 26
    frequency:   54.5216641068
  - # 27
    frequency:   67.9481502725

- q-position: [    0.0606061,    0.0000000,    0.0000000 ]
  distance:    0.0209166
  band:
  - # 1
    frequency:   -0.7093005328
  - # 2
    frequency:   -0.1582779686
  - # 3
    frequency:    0.4154969581
  - # 4
    frequency:    0.4174704843
  - # 5
    frequency:    0.9338355713
  - # 6
    frequency:    1.5582310277
  - # 7
    frequency:    1.7478566409
  - # 8
    frequency:    3.2625133055
  - # 9
    frequency:    3.2990483995
  - # 10
    frequency:    4.8470523339
  - # 11
    frequency:    6.2381433221
  - # 12
    frequency:    6.2543088352
  - # 13
    frequency:    6.7704172316
  - # 14
    frequency:    7.6367306596
  - # 15
    frequency:    7.6797788964
  - # 16
    frequency:    7.7370027019
  - # 17
    frequency:   13.0003612070
  - # 18
    frequency:   13.0374743379
  - # 19
    frequency:   13.6067641383
  - # 20
    frequency:   13.6104587419
  - # 21
    frequency:   14.4255555927
  - # 22
    frequency:   16.5527563866
  - # 23
    frequency:   16.6010058136
  - # 24
    frequency:   26.7621651288
  - # 25
    frequency:   31.3227806791
  - # 26
    frequency:   54.5111055256
  - # 27
    frequency:   67.9430560401

- q-position: [    0.0656566,    0.0000000,    0.0000000 ]
  distance:    0.0226597
  band:
  - # 1
    frequency:   -0.6877769388
  - # 2
    frequency:    0.0745859108
  - # 3
    frequency:    0.4534839182
  - # 4
    frequency:    0.5407044177
  - # 5
    frequency:    1.0089280120
  - # 6
    frequency:    1.5772553111
  - # 7
    frequency:    1.7945890357
  - # 8
    frequency:    3.2574343201
  - # 9
    frequency:    3.2999416780
  - # 10
    frequency:    4.8461592117
  - # 11
    frequency:    6.2386934643
  - # 12
    frequency:    6.2572993851
  - # 13
    frequency:    6.7604403641
  - # 14
    frequency:    7.6393844100
  - # 15
    frequency:    7.6739909181
  - # 16
    frequency:    7.7483140542
  - # 17
    frequency:   12.9989842947
  - # 18
    frequency:   13.0421398101
  - # 19
    frequency:   13.6077183319
  - # 20
    frequency:   13.6120013801
  - # 21
    frequency:   14.4207598644
  - # 22
    frequency:   16.5486493926
  - # 23
    frequency:   16.6051357236
  - # 24
    frequency:   26.7541782904
  - # 25
    frequency:   31.3135441823
  - # 26
    frequency:   54.4997221448
  - # 27
    frequency:   67.9375657425

- q-position: [    0.0707071,    0.0000000,    0.0000000 ]
  distance:    0.0244028
  band:
  - # 1
    frequency:   -0.6644313012
  - # 2
    frequency:    0.1705328525
  - # 3
    frequency:    0.4897206084
  - # 4
    frequency:    0.6574383831
  - # 5
    frequency:    1.0833900393
  - # 6
    frequency:    1.5972993179
  - # 7
    frequency:    1.8432992423
  - # 8
    frequency:    3.2521984228
  - # 9
    frequency:    3.3010171199
  - # 10
    frequency:    4.8451887183
  - # 11
    frequency:    6.2392855227
  - # 12
    frequency:    6.2604140195
  - # 13
    frequency:    6.7501026329
  - # 14
    frequency:    7.6421949975
  - # 15
    frequency:    7.6661609677
  - # 16
    frequency:    7.7614578545
  - # 17
    frequency:   12.9975802495
  - # 18
    frequency:   13.0471223425
  - # 19
    frequency:   13.6087507463
  - # 20
    frequency:   13.6136556136
  - # 21
    frequency:   14.4156781549
  - # 22
    frequency:   16.5440674110
  - # 23
    frequency:   16.6094006860
  - # 24
    frequency:   26.7456681625
  - # 25
    frequency:   31.3036748416
  - # 26
    frequency:   54.4875365307
  - # 27
    frequency:   67.9316906673

- q-position: [    0.0757576,    0.0000000,    0.0000000 ]
  distance:    0.0261458
  band:
  - # 1
    frequency:   -0.6391989331
  - # 2
    frequency:    0.2278345322
  - # 3
    frequency:    0.5261773125
  - # 4
    frequency:    0.7654515000
  - # 5
    frequency:    1.1571802558
  - # 6
    frequency:    1.6182822061
  - # 7
    frequency:    1.8937601029
  - # 8
    frequency:    3.2468562933
  - # 9
    frequency:    3.3022884121
  - # 10
    frequency:    4.8441427946
  - # 11
    frequency:    6.2399193159
  - # 12
    frequency:    6.2636302017
  - # 13
    frequency:    6.7394475467
  - # 14
    frequency:    7.6451508748
  - # 15
    frequency:    7.6570080612
  - # 16
    frequency:    7.7756362621
  - # 17
    frequency:   12.9961632324
  - # 18
    frequency:   13.0524012950
  - # 19
    frequency:   13.6098612942
  - # 20
    frequency:   13.6154197380
  - # 21
    frequency:   14.4103296324
  - # 22
    frequency:   16.5389835103
  - # 23
    frequency:   16.6137612576
  - # 24
    frequency:   26.7366599522
  - # 25
    frequency:   31.2931961143
  - # 26
    frequency:   54.4745727539
  - # 27
    frequency:   67.9254428334

- q-position: [    0.0808081,    0.0000000,    0.0000000 ]
  distance:    0.0278889
  band:
  - # 1
    frequency:   -0.6119839910
  - # 2
    frequency:    0.2765343375
  - # 3
    frequency:    0.5628477100
  - # 4
    frequency:    0.8666447040
  - # 5
    frequency:    1.2302581371
  - # 6
    frequency:    1.6401254727
  - # 7
    frequency:    1.9457609422
  - # 8
    frequency:    3.2414597255
  - # 9
    frequency:    3.3037669949
  - # 10
    frequency:    4.8430244414
  - # 11
    frequency:    6.2405947387
  - # 12
    frequency:    6.2669250038
  - # 13
    frequency:    6.7285113152
  - # 14
    frequency:    7.6468862694
  - # 15
    frequency:    7.6482401293
  - # 16
    frequency:    7.7904255762
  - # 17
    frequency:   12.9947469086
  - # 18
    frequency:   13.0579520883
  - # 19
    frequency:   13.6110497193
  - # 20
    frequency:   13.6172921504
  - # 21
    frequency:   14.4047339193
  - # 22
    frequency:   16.5333710345
  - # 23
    frequency:   16.6181768758
  - # 24
    frequency:   26.7271802031
  - # 25
    frequency:   31.2821328234
  - # 26
    frequency:   54.4608563227
  - # 27
    frequency:   67.9188349531

- q-position: [    0.0858586,    0.0000000,    0.0000000 ]
  distance:    0.0296319
  band:
  - # 1
    frequency:   -0.5826451408
  - # 2
    frequency:    0.3223729829
  - # 3
    frequency:    0.5997219820
  - # 4
    frequency:    0.9625897405
  - # 5
    frequency:    1.3025840652
  - # 6
    frequency:    1.6627532501
  - # 7
    frequency:    1.9991073246
  - # 8
    frequency:    3.2360610496
  - # 9
    frequency:    3.3054617935
  - # 10
    frequency:    4.8418377849
  - # 11
    frequency:    6.2413117715
  - # 12
    frequency:    6.2702752948
  - # 13
    frequency:    6.7173232373
  - # 14
    frequency:    7.6359854446
  - # 15
    frequency:    7.6514505957
  - # 16
    frequency:    7.8055757681
  - # 17
    frequency:   12.9933442497
  - # 18
    frequency:   13.0637458926
  - # 19
    frequency:   13.6123155734
  - # 20
    frequency:   13.6192713296
  - # 21
    frequency:   14.3989110052
  - # 22
    frequency:   16.5272039683
  - # 23
    frequency:   16.6226061237
  - # 24
    frequency:   26.7172566907
  - # 25
    frequency:   31.2705110806
  - # 26
    frequency:   54.4464141133
  - # 27
    frequency:   67.9118803930

- q-position: [    0.0909091,    0.0000000,    0.0000000 ]
  distance:    0.0313750
  band:
  - # 1
    frequency:   -0.5509738939
  - # 2
    frequency:    0.3673747083
  - # 3
    frequency:    0.6367863286
  - # 4
    frequency:    1.0543920566
  - # 5
    frequency:    1.3741194404
  - # 6
    frequency:    1.6860924394
  - # 7
    frequency:    2.0536205578
  - # 8
    frequency:    3.2307125283
  - # 9
    frequency:    3.3073790126
  - # 10
    frequency:    4.8405881137
  - # 11
    frequency:    6.2420704873
  - # 12
    frequency:    6.2736579205
  - # 13
    frequency:    6.7059062428
  - # 14
    frequency:    7.6244207310
  - # 15
    frequency:    7.6547699772
  - # 16
    frequency:    7.8209210328
  - # 17
    frequency:   12.9919673577
  - # 18
    frequency:   13.0697493579
  - # 19
    frequency:   13.6136581954
  - # 20
    frequency:   13.6213557963
  - # 21
    frequency:   14.3928811838
  - # 22
    frequency:   16.5204572928
  - # 23
    frequency:   16.6270069817
  - # 24
    frequency:   26.7069183140
  - # 25
    frequency:   31.2583582061
  - # 26
    frequency:   54.4312742962
  - # 27
    frequency:   67.9045931327

- q-position: [    0.0959596,    0.0000000,    0.0000000 ]
  distance:    0.0331180
  band:
  - # 1
    frequency:   -0.5166606743
  - # 2
    frequency:    0.4124218165
  - # 3
    frequency:    0.6740225142
  - # 4
    frequency:    1.1428171447
  - # 5
    frequency:    1.4448269000
  - # 6
    frequency:    1.7100727144
  - # 7
    frequency:    2.1091370461
  - # 8
    frequency:    3.2254657394
  - # 9
    frequency:    3.3095219935
  - # 10
    frequency:    4.8392818837
  - # 11
    frequency:    6.2428710570
  - # 12
    frequency:    6.2770498763
  - # 13
    frequency:    6.6942775351
  - # 14
    frequency:    7.6122710566
  - # 15
    frequency:    7.6581859735
  - # 16
    frequency:    7.8363412022
  - # 17
    frequency:   12.9906273136
  - # 18
    frequency:   13.0759243961
  - # 19
    frequency:   13.6150766911
  - # 20
    frequency:   13.6235440499
  - # 21
    frequency:   14.3866650155
  - # 22
    frequency:   16.5131073281
  - # 23
    frequency:   16.6313370640
  - # 24
    frequency:   26.6961949832
  - # 25
    frequency:   31.2457026433
  - # 26
    frequency:   54.4154662588
  - # 27
    frequency:   67.8969877219

- q-position: [    0.1010101,    0.0000000,    0.0000000 ]
  distance:    0.0348611
  band:
  - # 1
    frequency:   -0.4792388271
  - # 2
    frequency:    0.4579416344
  - # 3
    frequency:    0.7114075432
  - # 4
    frequency:    1.2284002802
  - # 5
    frequency:    1.5146706757
  - # 6
    frequency:    1.7346264275
  - # 7
    frequency:    2.1655075619
  - # 8
    frequency:    3.2203709529
  - # 9
    frequency:    3.3118911273
  - # 10
    frequency:    4.8379266909
  - # 11
    frequency:    6.2437137515
  - # 12
    frequency:    6.2804284714
  - # 13
    frequency:    6.6824492938
  - # 14
    frequency:    7.5995965758
  - # 15
    frequency:    7.6616864150
  - # 16
    frequency:    7.8517440843
  - # 17
    frequency:   12.9893340524
  - # 18
    frequency:   13.0822280225
  - # 19
    frequency:   13.6165699148
  - # 20
    frequency:   13.6258344826
  - # 21
    frequency:   14.3802833134
  - # 22
    frequency:   16.5051320575
  - # 23
    frequency:   16.6355538392
  - # 24
    frequency:   26.6851175050
  - # 25
    frequency:   31.2325738708
  - # 26
    frequency:   54.3990205259
  - # 27
    frequency:   67.8890792362

- q-position: [    0.1060606,    0.0000000,    0.0000000 ]
  distance:    0.0366041
  band:
  - # 1
    frequency:   -0.4379852281
  - # 2
    frequency:    0.5041497675
  - # 3
    frequency:    0.7489135508
  - # 4
    frequency:    1.3115197057
  - # 5
    frequency:    1.5836171279
  - # 6
    frequency:    1.7596884513
  - # 7
    frequency:    2.2225964792
  - # 8
    frequency:    3.2154765187
  - # 9
    frequency:    3.3144838185
  - # 10
    frequency:    4.8365312097
  - # 11
    frequency:    6.2445989407
  - # 12
    frequency:    6.2837714830
  - # 13
    frequency:    6.6704294052
  - # 14
    frequency:    7.5864471022
  - # 15
    frequency:    7.6652594013
  - # 16
    frequency:    7.8670567145
  - # 17
    frequency:   12.9880962661
  - # 18
    frequency:   13.0886122648
  - # 19
    frequency:   13.6181364526
  - # 20
    frequency:   13.6282252695
  - # 21
    frequency:   14.3737571547
  - # 22
    frequency:   16.4965114308
  - # 23
    frequency:   16.6396148325
  - # 24
    frequency:   26.6737174650
  - # 25
    frequency:   31.2190023104
  - # 26
    frequency:   54.3819686763
  - # 27
    frequency:   67.8808832308

- q-position: [    0.1111111,    0.0000000,    0.0000000 ]
  distance:    0.0383472
  band:
  - # 1
    frequency:   -0.3917251229
  - # 2
    frequency:    0.5511521018
  - # 3
    frequency:    0.7865079662
  - # 4
    frequency:    1.3924435047
  - # 5
    frequency:    1.6516354967
  - # 6
    frequency:    1.7851959831
  - # 7
    frequency:    2.2802809906
  - # 8
    frequency:    3.2108282759
  - # 9
    frequency:    3.3172944945
  - # 10
    frequency:    4.8351050957
  - # 11
    frequency:    6.2455270909
  - # 12
    frequency:    6.2870573005
  - # 13
    frequency:    6.6582221980
  - # 14
    frequency:    7.5728664275
  - # 15
    frequency:    7.6688934427
  - # 16
    frequency:    7.8822206415
  - # 17
    frequency:   12.9869213363
  - # 18
    frequency:   13.0950241465
  - # 19
    frequency:   13.6197746073
  - # 20
    frequency:   13.6307142361
  - # 21
    frequency:   14.3671079127
  - # 22
    frequency:   16.4872276424
  - # 23
    frequency:   16.6434778096
  - # 24
    frequency:   26.6620271091
  - # 25
    frequency:   31.2050192320
  - # 26
    frequency:   54.3643432576
  - # 27
    frequency:   67.8724156946

- q-position: [    0.1161616,    0.0000000,    0.0000000 ]
  distance:    0.0400902
  band:
  - # 1
    frequency:   -0.3383900727
  - # 2
    frequency:    0.5989929110
  - # 3
    frequency:    0.8241539603
  - # 4
    frequency:    1.4713597012
  - # 5
    frequency:    1.7186989155
  - # 6
    frequency:    1.8110883390
  - # 7
    frequency:    2.3384503172
  - # 8
    frequency:    3.2064689997
  - # 9
    frequency:    3.3203146541
  - # 10
    frequency:    4.8336588553
  - # 11
    frequency:    6.2464987572
  - # 12
    frequency:    6.2902650574
  - # 13
    frequency:    6.6458291653
  - # 14
    frequency:    7.5588946357
  - # 15
    frequency:    7.6725776029
  - # 16
    frequency:    7.8971891526
  - # 17
    frequency:   12.9858152947
  - # 18
    frequency:   13.1014057480
  - # 19
    frequency:   13.6214823857
  - # 20
    frequency:   13.6332987066
  - # 21
    frequency:   14.3603573068
  - # 22
    frequency:   16.4772653808
  - # 23
    frequency:   16.6471009434
  - # 24
    frequency:   26.6500792234
  - # 25
    frequency:   31.1906566557
  - # 26
    frequency:   54.3461776982
  - # 27
    frequency:   67.8636930013

- q-position: [    0.1212121,    0.0000000,    0.0000000 ]
  distance:    0.0418333
  band:
  - # 1
    frequency:   -0.2737706580
  - # 2
    frequency:    0.6476796574
  - # 3
    frequency:    0.8618111431
  - # 4
    frequency:    1.5483957750
  - # 5
    frequency:    1.7847857269
  - # 6
    frequency:    1.8373067573
  - # 7
    frequency:    2.3970049082
  - # 8
    frequency:    3.2024378980
  - # 9
    frequency:    3.3235329525
  - # 10