nqpoint: 300    
npath: 3      
segment_nqpoint:
- 100
- 100
- 100
labels:
- [ 'G', 'M' ]
- [ 'M', 'K' ]
- [ 'K', 'G' ]
reciprocal_lattice:
- [   0.30569456,   0.17649283,   0.00000000 ] # a*
- [   0.00000000,   0.35298567,   0.00000000 ] # b*
- [   0.00000000,   0.00000000,   0.03522597 ] # c*
natom: 9      
lattice:
- [     3.271239146984469,     0.000000000000000,     0.000000000000000 ] # a
- [    -1.635619573492234,     2.832976203137016,     0.000000000000000 ] # b
- [     0.000000000000000,     0.000000000000000,    28.388145506719674 ] # c
points:
- symbol: C # 1
  coordinates: [  0.000000000000000,  0.000000000000000,  0.512265869910196 ]
  mass: 12.010700
- symbol: C # 2
  coordinates: [  0.333332985432215,  0.666666983183674,  0.640555755960085 ]
  mass: 12.010700
- symbol: C # 3
  coordinates: [  0.666666984744047,  0.333332985985145,  0.358986814775521 ]
  mass: 12.010700
- symbol: N # 4
  coordinates: [  0.333332985432215,  0.666666983183674,  0.596596975642650 ]
  mass: 14.006700
- symbol: N # 5
  coordinates: [  0.666666984744047,  0.333332985985145,  0.317033742055099 ]
  mass: 14.006700
- symbol: O # 6
  coordinates: [  0.333332985432215,  0.666666983183674,  0.682966257944901 ]
  mass: 15.999400
- symbol: S # 7
  coordinates: [  0.666666984744047,  0.333332985985145,  0.418045227462726 ]
  mass: 32.065000
- symbol: Ti # 8
  coordinates: [  0.333332985432215,  0.666666983183674,  0.473127609456420 ]
  mass: 47.867000
- symbol: Ti # 9
  coordinates: [  0.666666984744047,  0.333332985985145,  0.549840608932396 ]
  mass: 47.867000

phonon:
- q-position: [    0.0000000,    0.0000000,    0.0000000 ]
  distance:    0.0000000
  band:
  - # 1
    frequency:   -1.0869153548
  - # 2
    frequency:   -1.0869153548
  - # 3
    frequency:   -0.0000014257
  - # 4
    frequency:   -0.0000004016
  - # 5
    frequency:    0.0000013456
  - # 6
    frequency:    1.1118740583
  - # 7
    frequency:    1.1118740583
  - # 8
    frequency:    4.6400774768
  - # 9
    frequency:    4.6400774768
  - # 10
    frequency:    5.5697744877
  - # 11
    frequency:    6.5312114948
  - # 12
    frequency:    6.5312114948
  - # 13
    frequency:    8.2902720165
  - # 14
    frequency:    8.2902720165
  - # 15
    frequency:    9.0833870019
  - # 16
    frequency:   11.0991998598
  - # 17
    frequency:   11.0991998598
  - # 18
    frequency:   12.1186543227
  - # 19
    frequency:   16.4330377499
  - # 20
    frequency:   17.2351234422
  - # 21
    frequency:   17.2351234422
  - # 22
    frequency:   17.4587989378
  - # 23
    frequency:   17.4587989378
  - # 24
    frequency:   20.3780613134
  - # 25
    frequency:   38.4860875546
  - # 26
    frequency:   64.7470569956
  - # 27
    frequency:   69.0518985788

- q-position: [    0.0050505,    0.0000000,    0.0000000 ]
  distance:    0.0017828
  band:
  - # 1
    frequency:   -1.0861028742
  - # 2
    frequency:   -1.0842924758
  - # 3
    frequency:   -0.0802074483
  - # 4
    frequency:    0.0777353375
  - # 5
    frequency:    0.1427112405
  - # 6
    frequency:    1.1127778186
  - # 7
    frequency:    1.1153252655
  - # 8
    frequency:    4.6406465252
  - # 9
    frequency:    4.6417995765
  - # 10
    frequency:    5.5690743328
  - # 11
    frequency:    6.5312216986
  - # 12
    frequency:    6.5325174303
  - # 13
    frequency:    8.2904584962
  - # 14
    frequency:    8.2905172445
  - # 15
    frequency:    9.0833271878
  - # 16
    frequency:   11.0994066430
  - # 17
    frequency:   11.0996343612
  - # 18
    frequency:   12.1178371475
  - # 19
    frequency:   16.4327974525
  - # 20
    frequency:   17.2355112430
  - # 21
    frequency:   17.2360114819
  - # 22
    frequency:   17.4588503974
  - # 23
    frequency:   17.4591890714
  - # 24
    frequency:   20.3780064465
  - # 25
    frequency:   38.4860626998
  - # 26
    frequency:   64.7469643383
  - # 27
    frequency:   69.0503494909

- q-position: [    0.0101010,    0.0000000,    0.0000000 ]
  distance:    0.0035655
  band:
  - # 1
    frequency:   -1.0836821966
  - # 2
    frequency:   -1.0764746860
  - # 3
    frequency:   -0.0904676586
  - # 4
    frequency:    0.1554994190
  - # 5
    frequency:    0.2531352670
  - # 6
    frequency:    1.1154950756
  - # 7
    frequency:    1.1256450807
  - # 8
    frequency:    4.6423509510
  - # 9
    frequency:    4.6469511846
  - # 10
    frequency:    5.5669900539
  - # 11
    frequency:    6.5312524947
  - # 12
    frequency:    6.5364201700
  - # 13
    frequency:    8.2910167975
  - # 14
    frequency:    8.2912494673
  - # 15
    frequency:    9.0831497756
  - # 16
    frequency:   11.1000263177
  - # 17
    frequency:   11.1009361200
  - # 18
    frequency:   12.1153874540
  - # 19
    frequency:   16.4320781655
  - # 20
    frequency:   17.2366720864
  - # 21
    frequency:   17.2386688306
  - # 22
    frequency:   17.4590047387
  - # 23
    frequency:   17.4603580726
  - # 24
    frequency:   20.3778417990
  - # 25
    frequency:   38.4859881885
  - # 26
    frequency:   64.7466865571
  - # 27
    frequency:   69.0457069638

- q-position: [    0.0151515,    0.0000000,    0.0000000 ]
  distance:    0.0053483
  band:
  - # 1
    frequency:   -1.0797016674
  - # 2
    frequency:   -1.0636000621
  - # 3
    frequency:   -0.0921031124
  - # 4
    frequency:    0.2333044585
  - # 5
    frequency:    0.3671242194
  - # 6
    frequency:    1.1200448331
  - # 7
    frequency:    1.1427445068
  - # 8
    frequency:    4.6451826285
  - # 9
    frequency:    4.6554885414
  - # 10
    frequency:    5.5635693828
  - # 11
    frequency:    6.5313044339
  - # 12
    frequency:    6.5428753864
  - # 13
    frequency:    8.2919435161
  - # 14
    frequency:    8.2924583589
  - # 15
    frequency:    9.0828608338
  - # 16
    frequency:   11.1010568610
  - # 17
    frequency:   11.1030999072
  - # 18
    frequency:   12.1113107367
  - # 19
    frequency:   16.4308846474
  - # 20
    frequency:   17.2385983141
  - # 21
    frequency:   17.2430752280
  - # 22
    frequency:   17.4592618536
  - # 23
    frequency:   17.4623017956
  - # 24
    frequency:   20.3775672316
  - # 25
    frequency:   38.4858641808
  - # 26
    frequency:   64.7462242242
  - # 27
    frequency:   69.0379851828

- q-position: [    0.0202020,    0.0000000,    0.0000000 ]
  distance:    0.0071310
  band:
  - # 1
    frequency:   -1.0742356877
  - # 2
    frequency:   -1.0458542342
  - # 3
    frequency:   -0.0879022738
  - # 4
    frequency:    0.3111302882
  - # 5
    frequency:    0.4830836475
  - # 6
    frequency:    1.1264625116
  - # 7
    frequency:    1.1665162155
  - # 8
    frequency:    4.6491281248
  - # 9
    frequency:    4.6673397301
  - # 10
    frequency:    5.5588892513
  - # 11
    frequency:    6.5313784216
  - # 12
    frequency:    6.5518119849
  - # 13
    frequency:    8.2932330053
  - # 14
    frequency:    8.2941269017
  - # 15
    frequency:    9.0824704022
  - # 16
    frequency:   11.1024949086
  - # 17
    frequency:   11.1061170302
  - # 18
    frequency:   12.1056161493
  - # 19
    frequency:   16.4292246450
  - # 20
    frequency:   17.2412772244
  - # 21
    frequency:   17.2491970720
  - # 22
    frequency:   17.4596215752
  - # 23
    frequency:   17.4650135110
  - # 24
    frequency:   20.3771825165
  - # 25
    frequency:   38.4856909441
  - # 26
    frequency:   64.7455782904
  - # 27
    frequency:   69.0272077101

- q-position: [    0.0252525,    0.0000000,    0.0000000 ]
  distance:    0.0089138
  band:
  - # 1
    frequency:   -1.0673764974
  - # 2
    frequency:   -1.0234156576
  - # 3
    frequency:   -0.0745537009
  - # 4
    frequency:    0.3889094532
  - # 5
    frequency:    0.5998250983
  - # 6
    frequency:    1.1348061658
  - # 7
    frequency:    1.1968957096
  - # 8
    frequency:    4.6541688617
  - # 9
    frequency:    4.6824061036
  - # 10
    frequency:    5.5530522953
  - # 11
    frequency:    6.5314756991
  - # 12
    frequency:    6.5631358643
  - # 13
    frequency:    8.2948774183
  - # 14
    frequency:    8.2962316723
  - # 15
    frequency:    9.0819923789
  - # 16
    frequency:   11.1043357660
  - # 17
    frequency:   11.1099753661
  - # 18
    frequency:   12.0983165000
  - # 19
    frequency:   16.4271086320
  - # 20
    frequency:   17.2446911655
  - # 21
    frequency:   17.2569876475
  - # 22
    frequency:   17.4600836991
  - # 23
    frequency:   17.4684841763
  - # 24
    frequency:   20.3766873435
  - # 25
    frequency:   38.4854688530
  - # 26
    frequency:   64.7447500818
  - # 27
    frequency:   69.0134073639

- q-position: [    0.0303030,    0.0000000,    0.0000000 ]
  distance:    0.0106965
  band:
  - # 1
    frequency:   -1.0592245701
  - # 2
    frequency:   -0.9963990611
  - # 3
    frequency:   -0.0368039165
  - # 4
    frequency:    0.4665127135
  - # 5
    frequency:    0.7163545045
  - # 6
    frequency:    1.1451664969
  - # 7
    frequency:    1.2339491953
  - # 8
    frequency:    4.6602813379
  - # 9
    frequency:    4.7005640945
  - # 10
    frequency:    5.5461827297
  - # 11
    frequency:    6.5315978178
  - # 12
    frequency:    6.5767344579
  - # 13
    frequency:    8.2968667649
  - # 14
    frequency:    8.2987432392
  - # 15
    frequency:    9.0814443595
  - # 16
    frequency:   11.1065734234
  - # 17
    frequency:   11.1146594052
  - # 18
    frequency:   12.0894282454
  - # 19
    frequency:   16.4245494736
  - # 20
    frequency:   17.2488176617
  - # 21
    frequency:   17.2663874129
  - # 22
    frequency:   17.4606480131
  - # 23
    frequency:   17.4727028182
  - # 24
    frequency:   20.3760813287
  - # 25
    frequency:   38.4851983906
  - # 26
    frequency:   64.7437412948
  - # 27
    frequency:   68.9966260521

- q-position: [    0.0353535,    0.0000000,    0.0000000 ]
  distance:    0.0124793
  band:
  - # 1
    frequency:   -1.0498790713
  - # 2
    frequency:   -0.9648079323
  - # 3
    frequency:    0.0751652342
  - # 4
    frequency:    0.5437332808
  - # 5
    frequency:    0.8315390168
  - # 6
    frequency:    1.1576822129
  - # 7
    frequency:    1.2779928214
  - # 8
    frequency:    4.6674374079
  - # 9
    frequency:    4.7216672336
  - # 10
    frequency:    5.5384221661
  - # 11
    frequency:    6.5317466069
  - # 12
    frequency:    6.5924815332
  - # 13
    frequency:    8.2991889853
  - # 14
    frequency:    8.3016266688
  - # 15
    frequency:    9.0808474245
  - # 16
    frequency:   11.1092005762
  - # 17
    frequency:   11.1201503045
  - # 18
    frequency:   12.0789714871
  - # 19
    frequency:   16.4215620382
  - # 20
    frequency:   17.2536295732
  - # 21
    frequency:   17.2773243123
  - # 22
    frequency:   17.4613143375
  - # 23
    frequency:   17.4776570306
  - # 24
    frequency:   20.3753640249
  - # 25
    frequency:   38.4848801491
  - # 26
    frequency:   64.7425539897
  - # 27
    frequency:   68.9769145584

- q-position: [    0.0404040,    0.0000000,    0.0000000 ]
  distance:    0.0142620
  band:
  - # 1
    frequency:   -1.0394296694
  - # 2
    frequency:   -0.9284995966
  - # 3
    frequency:    0.1277460548
  - # 4
    frequency:    0.6202668535
  - # 5
    frequency:    0.9439018515
  - # 6
    frequency:    1.1725629884
  - # 7
    frequency:    1.3297370978
  - # 8
    frequency:    4.6756046118
  - # 9
    frequency:    4.7455481654
  - # 10
    frequency:    5.5299259044
  - # 11
    frequency:    6.5319241345
  - # 12
    frequency:    6.6102417935
  - # 13
    frequency:    8.3018300371
  - # 14
    frequency:    8.3048421340
  - # 15
    frequency:    9.0802258724
  - # 16
    frequency:   11.1122086497
  - # 17
    frequency:   11.1264259458
  - # 18
    frequency:   12.0669699715
  - # 19
    frequency:   16.4181627846
  - # 20
    frequency:   17.2590952842
  - # 21
    frequency:   17.2897140774
  - # 22
    frequency:   17.4620825762
  - # 23
    frequency:   17.4833335951
  - # 24
    frequency:   20.3745349346
  - # 25
    frequency:   38.4845148305
  - # 26
    frequency:   64.7411905826
  - # 27
    frequency:   68.9543322852

- q-position: [    0.0454545,    0.0000000,    0.0000000 ]
  distance:    0.0160448
  band:
  - # 1
    frequency:   -1.0279505599
  - # 2
    frequency:   -0.8871574607
  - # 3
    frequency:    0.1777492816
  - # 4
    frequency:    0.6956836518
  - # 5
    frequency:    1.0515162999
  - # 6
    frequency:    1.1901227228
  - # 7
    frequency:    1.3903891610
  - # 8
    frequency:    4.6847465489
  - # 9
    frequency:    4.7720204154
  - # 10
    frequency:    5.5208601442
  - # 11
    frequency:    6.5321326632
  - # 12
    frequency:    6.6298749499
  - # 13
    frequency:    8.3047739978
  - # 14
    frequency:    8.3083456226
  - # 15
    frequency:    9.0796068959
  - # 16
    frequency:   11.1155878282
  - # 17
    frequency:   11.1334609962
  - # 18
    frequency:   12.0534510979
  - # 19
    frequency:   16.4143693464
  - # 20
    frequency:   17.2651789160
  - # 21
    frequency:   17.3034604796
  - # 22
    frequency:   17.4629527809
  - # 23
    frequency:   17.4897192361
  - # 24
    frequency:   20.3735935238
  - # 25
    frequency:   38.4841032480
  - # 26
    frequency:   64.7396538366
  - # 27
    frequency:   68.9289469525

- q-position: [    0.0505051,    0.0000000,    0.0000000 ]
  distance:    0.0178276
  band:
  - # 1
    frequency:   -1.0154969998
  - # 2
    frequency:   -0.8402571631
  - # 3
    frequency:    0.2290922168
  - # 4
    frequency:    0.7693896738
  - # 5
    frequency:    1.1521799175
  - # 6
    frequency:    1.2108246373
  - # 7
    frequency:    1.4614874995
  - # 8
    frequency:    4.6948232910
  - # 9
    frequency:    4.8008796198
  - # 10
    frequency:    5.5114004746
  - # 11
    frequency:    6.5323746014
  - # 12
    frequency:    6.6512390710
  - # 13
    frequency:    8.3080031802
  - # 14
    frequency:    8.3120897374
  - # 15
    frequency:    9.0790201961
  - # 16
    frequency:   11.1193270902
  - # 17
    frequency:   11.1412269629
  - # 18
    frequency:   12.0384459392
  - # 19
    frequency:   16.4102001342
  - # 20
    frequency:   17.2718405605
  - # 21
    frequency:   17.3184554924
  - # 22
    frequency:   17.4639252302
  - # 23
    frequency:   17.4968015258
  - # 24
    frequency:   20.3725392384
  - # 25
    frequency:   38.4836463264
  - # 26
    frequency:   64.7379468515
  - # 27
    frequency:   68.9008342558

- q-position: [    0.0555556,    0.0000000,    0.0000000 ]
  distance:    0.0196103
  band:
  - # 1
    frequency:   -1.0021041393
  - # 2
    frequency:   -0.7870054651
  - # 3
    frequency:    0.2829243387
  - # 4
    frequency:    0.8405812284
  - # 5
    frequency:    1.2353330566
  - # 6
    frequency:    1.2441708004
  - # 7
    frequency:    1.5441519590
  - # 8
    frequency:    4.7057918248
  - # 9
    frequency:    4.8319038684
  - # 10
    frequency:    5.5017319487
  - # 11
    frequency:    6.5326524492
  - # 12
    frequency:    6.6741931516
  - # 13
    frequency:    8.3114982589
  - # 14
    frequency:    8.3160245809
  - # 15
    frequency:    9.0784975363
  - # 16
    frequency:   11.1234142477
  - # 17
    frequency:   11.1496922370
  - # 18
    frequency:   12.0219892838
  - # 19
    frequency:   16.4056739718
  - # 20
    frequency:   17.2790365281
  - # 21
    frequency:   17.3345793249
  - # 22
    frequency:   17.4650005258
  - # 23
    frequency:   17.5045699561
  - # 24
    frequency:   20.3713715204
  - # 25
    frequency:   38.4831451037
  - # 26
    frequency:   64.7360730519
  - # 27
    frequency:   68.8700774851

- q-position: [    0.0606061,    0.0000000,    0.0000000 ]
  distance:    0.0213931
  band:
  - # 1
    frequency:   -0.9877875922
  - # 2
    frequency:   -0.7262151963
  - # 3
    frequency:    0.3396943299
  - # 4
    frequency:    0.9082176656
  - # 5
    frequency:    1.2645461772
  - # 6
    frequency:    1.3273060329
  - # 7
    frequency:    1.6380257947
  - # 8
    frequency:    4.7176065188
  - # 9
    frequency:    4.8648527067
  - # 10
    frequency:    5.4920510880
  - # 11
    frequency:    6.5329687425
  - # 12
    frequency:    6.6985989348
  - # 13
    frequency:    8.3152384094
  - # 14
    frequency:    8.3200987148
  - # 15
    frequency:    9.0780722317
  - # 16
    frequency:   11.1278359914
  - # 17
    frequency:   11.1588221121
  - # 18
    frequency:   12.0041197070
  - # 19
    frequency:   16.4008097760
  - # 20
    frequency:   17.2867196041
  - # 21
    frequency:   17.3517002957
  - # 22
    frequency:   17.4661797097
  - # 23
    frequency:   17.5130171918
  - # 24
    frequency:   20.3700898254
  - # 25
    frequency:   38.4826007311
  - # 26
    frequency:   64.7340361748
  - # 27
    frequency:   68.8367671073

- q-position: [    0.0656566,    0.0000000,    0.0000000 ]
  distance:    0.0231758
  band:
  - # 1
    frequency:   -0.9725450630
  - # 2
    frequency:   -0.6560359941
  - # 3
    frequency:    0.3995782134
  - # 4
    frequency:    0.9710789559
  - # 5
    frequency:    1.2995427803
  - # 6
    frequency:    1.4031087858
  - # 7
    frequency:    1.7411044351
  - # 8
    frequency:    4.7302196052
  - # 9
    frequency:    4.8994641741
  - # 10
    frequency:    5.4825702905
  - # 11
    frequency:    6.5333259942
  - # 12
    frequency:    6.7243220855
  - # 13
    frequency:    8.3192014555
  - # 14
    frequency:    8.3242601826
  - # 15
    frequency:    9.0777785801
  - # 16
    frequency:   11.1325779412
  - # 17
    frequency:   11.1685787655
  - # 18
    frequency:   11.9848796889
  - # 19
    frequency:   16.3956262862
  - # 20
    frequency:   17.2948393054
  - # 21
    frequency:   17.3696745384
  - # 22
    frequency:   17.4674644051
  - # 23
    frequency:   17.5221405009
  - # 24
    frequency:   20.3686936407
  - # 25
    frequency:   38.4820144742
  - # 26
    frequency:   64.7318402557
  - # 27
    frequency:   68.8010003140

- q-position: [    0.0707071,    0.0000000,    0.0000000 ]
  distance:    0.0249586
  band:
  - # 1
    frequency:   -0.9563583956
  - # 2
    frequency:   -0.5733208717
  - # 3
    frequency:    0.4626055050
  - # 4
    frequency:    1.0280068467
  - # 5
    frequency:    1.3413440857
  - # 6
    frequency:    1.4737953346
  - # 7
    frequency:    1.8507417056
  - # 8
    frequency:    4.7435816701
  - # 9
    frequency:    4.9354489720
  - # 10
    frequency:    5.4735254024
  - # 11
    frequency:    6.5337266341
  - # 12
    frequency:    6.7512328405
  - # 13
    frequency:    8.3233640259
  - # 14
    frequency:    8.3284575799
  - # 15
    frequency:    9.0776512377
  - # 16
    frequency:   11.1376247024
  - # 17
    frequency:   11.1789211772
  - # 18
    frequency:   11.9643157982
  - # 19
    frequency:   16.3901418451
  - # 20
    frequency:   17.3033421305
  - # 21
    frequency:   17.3883455834
  - # 22
    frequency:   17.4688569860
  - # 23
    frequency:   17.5319433102
  - # 24
    frequency:   20.3671825033
  - # 25
    frequency:   38.4813877130
  - # 26
    frequency:   64.7294896140
  - # 27
    frequency:   68.7628805387

- q-position: [    0.0757576,    0.0000000,    0.0000000 ]
  distance:    0.0267413
  band:
  - # 1
    frequency:   -0.9391955477
  - # 2
    frequency:   -0.4718565320
  - # 3
    frequency:    0.5286897546
  - # 4
    frequency:    1.0783336139
  - # 5
    frequency:    1.3904868686
  - # 6
    frequency:    1.5412920998
  - # 7
    frequency:    1.9646250425
  - # 8
    frequency:    4.7576421435
  - # 9
    frequency:    4.9724804324
  - # 10
    frequency:    5.4651876534
  - # 11
    frequency:    6.5341729496
  - # 12
    frequency:    6.7792062644
  - # 13
    frequency:    8.3277017176
  - # 14
    frequency:    8.3326411537
  - # 15
    frequency:    9.0777245505
  - # 16
    frequency:   11.1429599270
  - # 17
    frequency:   11.1898049585
  - # 18
    frequency:   11.9424789722
  - # 19
    frequency:   16.3843742286
  - # 20
    frequency:   17.3121717930
  - # 21
    frequency:   17.4075439635
  - # 22
    frequency:   17.4703607799
  - # 23
    frequency:   17.5424367291
  - # 24
    frequency:   20.3655560170
  - # 25
    frequency:   38.4807219418
  - # 26
    frequency:   64.7269888369
  - # 27
    frequency:   68.7225169451

- q-position: [    0.0808081,    0.0000000,    0.0000000 ]
  distance:    0.0285241
  band:
  - # 1
    frequency:   -0.9210121610
  - # 2
    frequency:   -0.3353608579
  - # 3
    frequency:    0.5976190911
  - # 4
    frequency:    1.1222313178
  - # 5
    frequency:    1.4466751706
  - # 6
    frequency:    1.6069280666
  - # 7
    frequency:    2.0810753492
  - # 8
    frequency:    4.7723497842
  - # 9
    frequency:    5.0101783755
  - # 10
    frequency:    5.4578817691
  - # 11
    frequency:    6.5346670271
  - # 12
    frequency:    6.8081222305
  - # 13
    frequency:    8.3321892644
  - # 14
    frequency:    8.3367639094
  - # 15
    frequency:    9.0780318545
  - # 16
    frequency:   11.1485663814
  - # 17
    frequency:   11.2011820408
  - # 18
    frequency:   11.9194249392
  - # 19
    frequency:   16.3783405228
  - # 20
    frequency:   17.3212694308
  - # 21
    frequency:   17.4270871980
  - # 22
    frequency:   17.4719803079
  - # 23
    frequency:   17.5536406858
  - # 24
    frequency:   20.3638138696
  - # 25
    frequency:   38.4800187689
  - # 26
    frequency:   64.7243427637
  - # 27
    frequency:   68.6800238912

- q-position: [    0.0858586,    0.0000000,    0.0000000 ]
  distance:    0.0303069
  band:
  - # 1
    frequency:   -0.9017525324
  - # 2
    frequency:    0.0426876723
  - # 3
    frequency:    0.6690366942
  - # 4
    frequency:    1.1606369318
  - # 5
    frequency:    1.5088554881
  - # 6
    frequency:    1.6715238188
  - # 7
    frequency:    2.1989507606
  - # 8
    frequency:    4.7876531508
  - # 9
    frequency:    5.0480844155
  - # 10
    frequency:    5.4520126374
  - # 11
    frequency:    6.5352106955
  - # 12
    frequency:    6.8378652269
  - # 13
    frequency:    8.3368007103
  - # 14
    frequency:    8.3407826971
  - # 15
    frequency:    9.0786047638
  - # 16
    frequency:   11.1544260191
  - # 17
    frequency:   11.2130001593
  - # 18
    frequency:   11.8952148498
  - # 19
    frequency:   16.3720570402
  - # 20
    frequency:   17.3305737838
  - # 21
    frequency:   17.4467808347
  - # 22
    frequency:   17.4737215651
  - # 23
    frequency:   17.5655839907
  - # 24
    frequency:   20.3619558487
  - # 25
    frequency:   38.4792799159
  - # 26
    frequency:   64.7215564677
  - # 27
    frequency:   68.6355203708

- q-position: [    0.0909091,    0.0000000,    0.0000000 ]
  distance:    0.0320896
  band:
  - # 1
    frequency:   -0.8813498799
  - # 2
    frequency:    0.3471412819
  - # 3
    frequency:    0.7424409423
  - # 4
    frequency:    1.1948206206
  - # 5
    frequency:    1.5756483898
  - # 6
    frequency:    1.7355573815
  - # 7
    frequency:    2.3174742926
  - # 8
    frequency:    4.8035010539
  - # 9
    frequency:    5.0856266633
  - # 10
    frequency:    5.4481025471
  - # 11
    frequency:    6.5358054742
  - # 12
    frequency:    6.8683240706
  - # 13
    frequency:    8.3415095841
  - # 14
    frequency:    8.3446592484
  - # 15
    frequency:    9.0794724695
  - # 16
    frequency:   11.1605200591
  - # 17
    frequency:   11.2252020243
  - # 18
    frequency:   11.8699162218
  - # 19
    frequency:   16.3655392724
  - # 20
    frequency:   17.3400213356
  - # 21
    frequency:   17.4664216748
  - # 22
    frequency:   17.4755923416
  - # 23
    frequency:   17.5783022001
  - # 24
    frequency:   20.3599818563
  - # 25
    frequency:   38.4785072158
  - # 26
    frequency:   64.7186352390
  - # 27
    frequency:   68.5891294375

- q-position: [    0.0959596,    0.0000000,    0.0000000 ]
  distance:    0.0338724
  band:
  - # 1
    frequency:   -0.8597258329
  - # 2
    frequency:    0.4942074164
  - # 3
    frequency:    0.8172283380
  - # 4
    frequency:    1.2259801610
  - # 5
    frequency:    1.6457537403
  - # 6
    frequency:    1.7992945897
  - # 7
    frequency:    2.4360976531
  - # 8
    frequency:    4.8198429848
  - # 9
    frequency:    5.1220759383
  - # 10
    frequency:    5.4468368825
  - # 11
    frequency:    6.5364525252
  - # 12
    frequency:    6.8993915898
  - # 13
    frequency:    8.3462890760
  - # 14
    frequency:    8.3483611297
  - # 15
    frequency:    9.0806610751
  - # 16
    frequency:   11.1668290701
  - # 17
    frequency:   11.2377240162
  - # 18
    frequency:   11.8436043606
  - # 19
    frequency:   16.3588018713
  - # 20
    frequency:   17.3495464231
  - # 21
    frequency:   17.4776025751
  - # 22
    frequency:   17.4858046542
  - # 23
    frequency:   17.5918318043
  - # 24
    frequency:   20.3578919221
  - # 25
    frequency:   38.4777026111
  - # 26
    frequency:   64.7155845656
  - # 27
    frequency:   68.5409776140

- q-position: [    0.1010101,    0.0000000,    0.0000000 ]
  distance:    0.0356551
  band:
  - # 1
    frequency:   -0.8367890692
  - # 2
    frequency:    0.6115452146
  - # 3
    frequency:    0.8927758548
  - # 4
    frequency:    1.2550597931
  - # 5
    frequency:    1.7181313668
  - # 6
    frequency:    1.8628734376
  - # 7
    frequency:    2.5544116696
  - # 8
    frequency:    4.8366295148
  - # 9
    frequency:    5.1565104428
  - # 10
    frequency:    5.4491013370
  - # 11
    frequency:    6.5371526112
  - # 12
    frequency:    6.9309643210
  - # 13
    frequency:    8.3511122134
  - # 14
    frequency:    8.3518625762
  - # 15
    frequency:    9.0821929963
  - # 16
    frequency:   11.1733330595
  - # 17
    frequency:   11.2504941411
  - # 18
    frequency:   11.8163645185
  - # 19
    frequency:   16.3518586543
  - # 20
    frequency:   17.3590813309
  - # 21
    frequency:   17.4797647149
  - # 22
    frequency:   17.5047346007
  - # 23
    frequency:   17.6061995168
  - # 24
    frequency:   20.3556862145
  - # 25
    frequency:   38.4768681512
  - # 26
    frequency:   64.7124101150
  - # 27
    frequency:   68.4911942909

- q-position: [    0.1060606,    0.0000000,    0.0000000 ]
  distance:    0.0374379
  band:
  - # 1
    frequency:   -0.8124329668
  - # 2
    frequency:    0.7147553537
  - # 3
    frequency:    0.9685297592
  - # 4
    frequency:    1.2827385282
  - # 5
    frequency:    1.7920122231
  - # 6
    frequency:    1.9263553846
  - # 7
    frequency:    2.6720902350
  - # 8
    frequency:    4.8538126625
  - # 9
    frequency:    5.1878407347
  - # 10
    frequency:    5.4559588418
  - # 11
    frequency:    6.5379060603
  - # 12
    frequency:    6.9629422543
  - # 13
    frequency:    8.3551451726
  - # 14
    frequency:    8.3559520343
  - # 15
    frequency:    9.0840864546
  - # 16
    frequency:   11.1800115672
  - # 17
    frequency:   11.2634288141
  - # 18
    frequency:   11.7882952235
  - # 19
    frequency:   16.3447226283
  - # 20
    frequency:   17.3685564116
  - # 21
    frequency:   17.4820940518
  - # 22
    frequency:   17.5230424671
  - # 23
    frequency:   17.6214070611
  - # 24
    frequency:   20.3533650507
  - # 25
    frequency:   38.4760059887
  - # 26
    frequency:   64.7091177147
  - # 27
    frequency:   68.4399111180

- q-position: [    0.1111111,    0.0000000,    0.0000000 ]
  distance:    0.0392206
  band:
  - # 1
    frequency:   -0.7865320411
  - # 2
    frequency:    0.8099544981
  - # 3
    frequency:    1.0440649437
  - # 4
    frequency:    1.3094832639
  - # 5
    frequency:    1.8668447470
  - # 6
    frequency:    1.9897561148
  - # 7
    frequency:    2.7888551510
  - # 8
    frequency:    4.8713462252
  - # 9
    frequency:    5.2149880242
  - # 10
    frequency:    5.4684732231
  - # 11
    frequency:    6.5387127389
  - # 12
    frequency:    6.9952286488
  - # 13
    frequency:    8.3581983472
  - # 14
    frequency:    8.3607817581
  - # 15
    frequency:    9.0863550874
  - # 16
    frequency:   11.1868437640
  - # 17
    frequency:   11.2764277413
  - # 18
    frequency:   11.7595135037
  - # 19
    frequency:   16.3374060274
  - # 20
    frequency:   17.3779003111
  - # 21
    frequency:   17.4846089305
  - # 22
    frequency:   17.5406025132
  - # 23
    frequency:   17.6374149806
  - # 24
    frequency:   20.3509289043
  - # 25
    frequency:   38.4751183757
  - # 26
    frequency:   64.7057133326
  - # 27
    frequency:   68.3872613926

- q-position: [    0.1161616,    0.0000000,    0.0000000 ]
  distance:    0.0410034
  band:
  - # 1
    frequency:   -0.7589367714
  - # 2
    frequency:    0.9002335530
  - # 3
    frequency:    1.1191027245
  - # 4
    frequency:    1.3356084635
  - # 5
    frequency:    1.9422346828
  - # 6
    frequency:    2.0530640562
  - # 7
    frequency:    2.9044534532
  - # 8
    frequency:    4.8891860726
  - # 9
    frequency:    5.2372605077
  - # 10
    frequency:    5.4873349157
  - # 11
    frequency:    6.5395720326
  - # 12
    frequency:    7.0277299338
  - # 13
    frequency:    8.3610196512
  - # 14
    frequency:    8.3655749512
  - # 15
    frequency:    9.0890076981
  - # 16
    frequency:   11.1938085546
  - # 17
    frequency:   11.2893656406
  - # 18
    frequency:   11.7301632672
  - # 19
    frequency:   16.3299203611
  - # 20
    frequency:   17.3870404322
  - # 21
    frequency:   17.4873307067
  - # 22
    frequency:   17.5573439961
  - # 23
    frequency:   17.6541319043
  - # 24
    frequency:   20.3483784114
  - # 25
    frequency:   38.4742076581
  - # 26
    frequency:   64.7022030579
  - # 27
    frequency:   68.3333794492

- q-position: [    0.1212121,    0.0000000,    0.0000000 ]
  distance:    0.0427861
  band:
  - # 1
    frequency:   -0.7294661546
  - # 2
    frequency:    0.9873258237
  - # 3
    frequency:    1.1934986687
  - # 4
    frequency:    1.3613237133
  - # 5
    frequency:    2.0178970644
  - # 6
    frequency:    2.1162516505
  - # 7
    frequency:    3.0186421434
  - # 8
    frequency:    4.9072904010
  - # 9
    frequency:    5.2547319368
  - # 10
    frequency:    5.5124845673