nqpoint: 300    
npath: 3      
segment_nqpoint:
- 100
- 100
- 100
labels:
- [ 'G', 'M' ]
- [ 'M', 'K' ]
- [ 'K', 'G' ]
reciprocal_lattice:
- [   0.30569456,   0.17649283,   0.00000000 ] # a*
- [   0.00000000,   0.35298567,   0.00000000 ] # b*
- [   0.00000000,   0.00000000,   0.03522597 ] # c*
natom: 9      
lattice:
- [     3.271239146984469,     0.000000000000000,     0.000000000000000 ] # a
- [    -1.635619573492234,     2.832976203137016,     0.000000000000000 ] # b
- [     0.000000000000000,     0.000000000000000,    28.388145506719674 ] # c
points:
- symbol: C # 1
  coordinates: [  0.000000000000000,  0.000000000000000,  0.512265869910196 ]
  mass: 12.010700
- symbol: C # 2
  coordinates: [  0.333332985432215,  0.666666983183674,  0.640555755960085 ]
  mass: 12.010700
- symbol: C # 3
  coordinates: [  0.666666984744047,  0.333332985985145,  0.358986814775521 ]
  mass: 12.010700
- symbol: N # 4
  coordinates: [  0.333332985432215,  0.666666983183674,  0.596596975642650 ]
  mass: 14.006700
- symbol: N # 5
  coordinates: [  0.666666984744047,  0.333332985985145,  0.317033742055099 ]
  mass: 14.006700
- symbol: O # 6
  coordinates: [  0.333332985432215,  0.666666983183674,  0.682966257944901 ]
  mass: 15.999400
- symbol: S # 7
  coordinates: [  0.666666984744047,  0.333332985985145,  0.418045227462726 ]
  mass: 32.065000
- symbol: Ti # 8
  coordinates: [  0.333332985432215,  0.666666983183674,  0.473127609456420 ]
  mass: 47.867000
- symbol: Ti # 9
  coordinates: [  0.666666984744047,  0.333332985985145,  0.549840608932396 ]
  mass: 47.867000

phonon:
- q-position: [    0.0000000,    0.0000000,    0.0000000 ]
  distance:    0.0000000
  band:
  - # 1
    frequency:   -0.6962780534
  - # 2
    frequency:   -0.6962780533
  - # 3
    frequency:   -0.0000160882
  - # 4
    frequency:   -0.0000003785
  - # 5
    frequency:    0.0000152453
  - # 6
    frequency:    1.4089340653
  - # 7
    frequency:    1.4089340653
  - # 8
    frequency:    4.7094636510
  - # 9
    frequency:    4.7094636511
  - # 10
    frequency:    5.5541583455
  - # 11
    frequency:    6.5171657466
  - # 12
    frequency:    6.5171657466
  - # 13
    frequency:    8.2919229987
  - # 14
    frequency:    8.2919229987
  - # 15
    frequency:    9.0927349188
  - # 16
    frequency:   11.1182509453
  - # 17
    frequency:   11.1182509453
  - # 18
    frequency:   12.1029682490
  - # 19
    frequency:   16.5089648034
  - # 20
    frequency:   17.4336000633
  - # 21
    frequency:   17.4336000634
  - # 22
    frequency:   17.6407045926
  - # 23
    frequency:   17.6407045926
  - # 24
    frequency:   20.4004640022
  - # 25
    frequency:   38.4852692656
  - # 26
    frequency:   64.7442712573
  - # 27
    frequency:   68.9160654747

- q-position: [    0.0050505,    0.0000000,    0.0000000 ]
  distance:    0.0017828
  band:
  - # 1
    frequency:   -0.6957888800
  - # 2
    frequency:   -0.6930505012
  - # 3
    frequency:    0.0027455263
  - # 4
    frequency:    0.0788046274
  - # 5
    frequency:    0.1235027793
  - # 6
    frequency:    1.4096059858
  - # 7
    frequency:    1.4116815079
  - # 8
    frequency:    4.7099450484
  - # 9
    frequency:    4.7109827997
  - # 10
    frequency:    5.5534163177
  - # 11
    frequency:    6.5172158280
  - # 12
    frequency:    6.5185496371
  - # 13
    frequency:    8.2921193634
  - # 14
    frequency:    8.2922536463
  - # 15
    frequency:    9.0926321451
  - # 16
    frequency:   11.1184316006
  - # 17
    frequency:   11.1185965405
  - # 18
    frequency:   12.1021709663
  - # 19
    frequency:   16.5085673972
  - # 20
    frequency:   17.4336201328
  - # 21
    frequency:   17.4340975477
  - # 22
    frequency:   17.6406272393
  - # 23
    frequency:   17.6411455039
  - # 24
    frequency:   20.4003718078
  - # 25
    frequency:   38.4852430904
  - # 26
    frequency:   64.7441849531
  - # 27
    frequency:   68.9148330947

- q-position: [    0.0101010,    0.0000000,    0.0000000 ]
  distance:    0.0035655
  band:
  - # 1
    frequency:   -0.6943334286
  - # 2
    frequency:   -0.6834612205
  - # 3
    frequency:    0.0109676525
  - # 4
    frequency:    0.1575733212
  - # 5
    frequency:    0.2472343302
  - # 6
    frequency:    1.4116273188
  - # 7
    frequency:    1.4199182402
  - # 8
    frequency:    4.7113877670
  - # 9
    frequency:    4.7155265145
  - # 10
    frequency:    5.5512096870
  - # 11
    frequency:    6.5173660137
  - # 12
    frequency:    6.5226838718
  - # 13
    frequency:    8.2927071202
  - # 14
    frequency:    8.2932420864
  - # 15
    frequency:    9.0923258586
  - # 16
    frequency:   11.1189730661
  - # 17
    frequency:   11.1196322881
  - # 18
    frequency:   12.0997809122
  - # 19
    frequency:   16.5073778916
  - # 20
    frequency:   17.4336804679
  - # 21
    frequency:   17.4355851686
  - # 22
    frequency:   17.6403961185
  - # 23
    frequency:   17.6424671641
  - # 24
    frequency:   20.4000954233
  - # 25
    frequency:   38.4851646426
  - # 26
    frequency:   64.7439261881
  - # 27
    frequency:   68.9111385096

- q-position: [    0.0151515,    0.0000000,    0.0000000 ]
  distance:    0.0053483
  band:
  - # 1
    frequency:   -0.6919435032
  - # 2
    frequency:   -0.6677004823
  - # 3
    frequency:    0.0246115996
  - # 4
    frequency:    0.2362536557
  - # 5
    frequency:    0.3712164658
  - # 6
    frequency:    1.4150151956
  - # 7
    frequency:    1.4336335423
  - # 8
    frequency:    4.7137873965
  - # 9
    frequency:    4.7230537957
  - # 10
    frequency:    5.5475958149
  - # 11
    frequency:    6.5176161267
  - # 12
    frequency:    6.5295172336
  - # 13
    frequency:    8.2936822689
  - # 14
    frequency:    8.2948778393
  - # 15
    frequency:    9.0918221621
  - # 16
    frequency:   11.1198738420
  - # 17
    frequency:   11.1213550719
  - # 18
    frequency:   12.0958034691
  - # 19
    frequency:   16.5054043534
  - # 20
    frequency:   17.4337814512
  - # 21
    frequency:   17.4380485733
  - # 22
    frequency:   17.6400140371
  - # 23
    frequency:   17.6446663028
  - # 24
    frequency:   20.3996354436
  - # 25
    frequency:   38.4850341549
  - # 26
    frequency:   64.7434954052
  - # 27
    frequency:   68.9049893772

- q-position: [    0.0202020,    0.0000000,    0.0000000 ]
  distance:    0.0071310
  band:
  - # 1
    frequency:   -0.6886598213
  - # 2
    frequency:   -0.6458597380
  - # 3
    frequency:    0.0436028731
  - # 4
    frequency:    0.3147655514
  - # 5
    frequency:    0.4951845990
  - # 6
    frequency:    1.4197995878
  - # 7
    frequency:    1.4528296739
  - # 8
    frequency:    4.7171366188
  - # 9
    frequency:    4.7334969307
  - # 10
    frequency:    5.5426671592
  - # 11
    frequency:    6.5179658649
  - # 12
    frequency:    6.5389678378
  - # 13
    frequency:    8.2950381810
  - # 14
    frequency:    8.2971435353
  - # 15
    frequency:    9.0911312227
  - # 16
    frequency:   11.1211314332
  - # 17
    frequency:   11.1237596889
  - # 18
    frequency:   12.0902476089
  - # 19
    frequency:   16.5026599933
  - # 20
    frequency:   17.4339237261
  - # 21
    frequency:   17.4414643108
  - # 22
    frequency:   17.6394856411
  - # 23
    frequency:   17.6477373059
  - # 24
    frequency:   20.3989928580
  - # 25
    frequency:   38.4848520142
  - # 26
    frequency:   64.7428933411
  - # 27
    frequency:   68.8963984364

- q-position: [    0.0252525,    0.0000000,    0.0000000 ]
  distance:    0.0089138
  band:
  - # 1
    frequency:   -0.6845200300
  - # 2
    frequency:   -0.6177609509
  - # 3
    frequency:    0.0678674324
  - # 4
    frequency:    0.3929972079
  - # 5
    frequency:    0.6186337672
  - # 6
    frequency:    1.4260255540
  - # 7
    frequency:    1.4775518841
  - # 8
    frequency:    4.7214252560
  - # 9
    frequency:    4.7467623373
  - # 10
    frequency:    5.5365471388
  - # 11
    frequency:    6.5184147913
  - # 12
    frequency:    6.5509277984
  - # 13
    frequency:    8.2967656579
  - # 14
    frequency:    8.3000150602
  - # 15
    frequency:    9.0902672623
  - # 16
    frequency:   11.1227423563
  - # 17
    frequency:   11.1268388344
  - # 18
    frequency:   12.0831258972
  - # 19
    frequency:   16.4991628306
  - # 20
    frequency:   17.4341082065
  - # 21
    frequency:   17.4458005169
  - # 22
    frequency:   17.6388173667
  - # 23
    frequency:   17.6516719730
  - # 24
    frequency:   20.3981690454
  - # 25
    frequency:   38.4846187605
  - # 26
    frequency:   64.7421210244
  - # 27
    frequency:   68.8853834707

- q-position: [    0.0303030,    0.0000000,    0.0000000 ]
  distance:    0.0106965
  band:
  - # 1
    frequency:   -0.6795500066
  - # 2
    frequency:   -0.5828591430
  - # 3
    frequency:    0.0973645272
  - # 4
    frequency:    0.4708058430
  - # 5
    frequency:    0.7408941810
  - # 6
    frequency:    1.4337566232
  - # 7
    frequency:    1.5079303248
  - # 8
    frequency:    4.7266403371
  - # 9
    frequency:    4.7627315719
  - # 10
    frequency:    5.5293853665
  - # 11
    frequency:    6.5189623203
  - # 12
    frequency:    6.5652688082
  - # 13
    frequency:    8.2988530106
  - # 14
    frequency:    8.3034617601
  - # 15
    frequency:    9.0892485384
  - # 16
    frequency:   11.1247021498
  - # 17
    frequency:   11.1305830793
  - # 18
    frequency:   12.0744544998
  - # 19
    frequency:   16.4949352591
  - # 20
    frequency:   17.4343360891
  - # 21
    frequency:   17.4510178331
  - # 22
    frequency:   17.6380173739
  - # 23
    frequency:   17.6564591840
  - # 24
    frequency:   20.3971657696
  - # 25
    frequency:   38.4843350846
  - # 26
    frequency:   64.7411797732
  - # 27
    frequency:   68.8719672584

- q-position: [    0.0353535,    0.0000000,    0.0000000 ]
  distance:    0.0124793
  band:
  - # 1
    frequency:   -0.6737599440
  - # 2
    frequency:   -0.5401650904
  - # 3
    frequency:    0.1321365289
  - # 4
    frequency:    0.5480192633
  - # 5
    frequency:    0.8611618391
  - # 6
    frequency:    1.4430795526
  - # 7
    frequency:    1.5442332737
  - # 8
    frequency:    4.7327661824
  - # 9
    frequency:    4.7812623352
  - # 10
    frequency:    5.5213529941
  - # 11
    frequency:    6.5196077017
  - # 12
    frequency:    6.5818479671
  - # 13
    frequency:    8.3012861605
  - # 14
    frequency:    8.3074467074
  - # 15
    frequency:    9.0880973103
  - # 16
    frequency:   11.1270053866
  - # 17
    frequency:   11.1349808380
  - # 18
    frequency:   12.0642531975
  - # 19
    frequency:   16.4900035381
  - # 20
    frequency:   17.4346088686
  - # 21
    frequency:   17.4570705211
  - # 22
    frequency:   17.6370954614
  - # 23
    frequency:   17.6620844830
  - # 24
    frequency:   20.3959851714
  - # 25
    frequency:   38.4840018259
  - # 26
    frequency:   64.7400711910
  - # 27
    frequency:   68.8561775069

- q-position: [    0.0404040,    0.0000000,    0.0000000 ]
  distance:    0.0142620
  band:
  - # 1
    frequency:   -0.6671442382
  - # 2
    frequency:   -0.4880904864
  - # 3
    frequency:    0.1723879913
  - # 4
    frequency:    0.6244350500
  - # 5
    frequency:    0.9784754225
  - # 6
    frequency:    1.4541107482
  - # 7
    frequency:    1.5869269177
  - # 8
    frequency:    4.7397845039
  - # 9
    frequency:    4.8021892576
  - # 10
    frequency:    5.5126388581
  - # 11
    frequency:    6.5203500020
  - # 12
    frequency:    6.6005132865
  - # 13
    frequency:    8.3040487599
  - # 14
    frequency:    8.3119270302
  - # 15
    frequency:    9.0868397813
  - # 16
    frequency:   11.1296456902
  - # 17
    frequency:   11.1400183221
  - # 18
    frequency:   12.0525454096
  - # 19
    frequency:   16.4843972412
  - # 20
    frequency:   17.4349283560
  - # 21
    frequency:   17.4639077261
  - # 22
    frequency:   17.6360629646
  - # 23
    frequency:   17.6685295950
  - # 24
    frequency:   20.3946297598
  - # 25
    frequency:   38.4836199695
  - # 26
    frequency:   64.7387971631
  - # 27
    frequency:   68.8380467749

- q-position: [    0.0454545,    0.0000000,    0.0000000 ]
  distance:    0.0160448
  band:
  - # 1
    frequency:   -0.6596833092
  - # 2
    frequency:   -0.4240592881
  - # 3
    frequency:    0.2186110487
  - # 4
    frequency:    0.6998158545
  - # 5
    frequency:    1.0916754056
  - # 6
    frequency:    1.4670046176
  - # 7
    frequency:    1.6367232236
  - # 8
    frequency:    4.7476745222
  - # 9
    frequency:    4.8253241998
  - # 10
    frequency:    5.5034469876
  - # 11
    frequency:    6.5211880840
  - # 12
    frequency:    6.6211084737
  - # 13
    frequency:    8.3071223318
  - # 14
    frequency:    8.3168543098
  - # 15
    frequency:    9.0855060093
  - # 16
    frequency:   11.1326157541
  - # 17
    frequency:   11.1456794783
  - # 18
    frequency:   12.0393582344
  - # 19
    frequency:   16.4781486905
  - # 20
    frequency:   17.4352966978
  - # 21
    frequency:   17.4714748376
  - # 22
    frequency:   17.6349326389
  - # 23
    frequency:   17.6757718960
  - # 24
    frequency:   20.3931024021
  - # 25
    frequency:   38.4831906427
  - # 26
    frequency:   64.7373598513
  - # 27
    frequency:   68.8176123793

- q-position: [    0.0505051,    0.0000000,    0.0000000 ]
  distance:    0.0178276
  band:
  - # 1
    frequency:   -0.6513457978
  - # 2
    frequency:   -0.3433710018
  - # 3
    frequency:    0.2717444293
  - # 4
    frequency:    0.7738807663
  - # 5
    frequency:    1.1994121094
  - # 6
    frequency:    1.4819639403
  - # 7
    frequency:    1.6945668625
  - # 8
    frequency:    4.7564130962
  - # 9
    frequency:    4.8504557403
  - # 10
    frequency:    5.4939959217
  - # 11
    frequency:    6.5221205859
  - # 12
    frequency:    6.6434767845
  - # 13
    frequency:    8.3104864249
  - # 14
    frequency:    8.3221750495
  - # 15
    frequency:    9.0841297734
  - # 16
    frequency:   11.1359073639
  - # 17
    frequency:   11.1519459009
  - # 18
    frequency:   12.0247225111
  - # 19
    frequency:   16.4712924018
  - # 20
    frequency:   17.4357163976
  - # 21
    frequency:   17.4797148890
  - # 22
    frequency:   17.6337185280
  - # 23
    frequency:   17.6837838675
  - # 24
    frequency:   20.3914063107
  - # 25
    frequency:   38.4827151112
  - # 26
    frequency:   64.7357616882
  - # 27
    frequency:   68.7949162895

- q-position: [    0.0555556,    0.0000000,    0.0000000 ]
  distance:    0.0196103
  band:
  - # 1
    frequency:   -0.6420902657
  - # 2
    frequency:   -0.2339861212
  - # 3
    frequency:    0.3331405274
  - # 4
    frequency:    0.8462938172
  - # 5
    frequency:    1.3002988334
  - # 6
    frequency:    1.4992517678
  - # 7
    frequency:    1.7614744233
  - # 8
    frequency:    4.7659748667
  - # 9
    frequency:    4.8773474436
  - # 10
    frequency:    5.4845202047
  - # 11
    frequency:    6.5231459012
  - # 12
    frequency:    6.6674639008
  - # 13
    frequency:    8.3141187848
  - # 14
    frequency:    8.3278312217
  - # 15
    frequency:    9.0827483836
  - # 16
    frequency:   11.1395114238
  - # 17
    frequency:   11.1587967133
  - # 18
    frequency:   12.0086729148
  - # 19
    frequency:   16.4638645615
  - # 20
    frequency:   17.4361903359
  - # 21
    frequency:   17.4885699364
  - # 22
    frequency:   17.6324358202
  - # 23
    frequency:   17.6925325708
  - # 24
    frequency:   20.3895450301
  - # 25
    frequency:   38.4821947743
  - # 26
    frequency:   64.7340053710
  - # 27
    frequency:   68.7700050079

- q-position: [    0.0606061,    0.0000000,    0.0000000 ]
  distance:    0.0213931
  band:
  - # 1
    frequency:   -0.6318660676
  - # 2
    frequency:    0.0823255996
  - # 3
    frequency:    0.4035566022
  - # 4
    frequency:    0.9166520281
  - # 5
    frequency:    1.3932759891
  - # 6
    frequency:    1.5192030544
  - # 7
    frequency:    1.8381633356
  - # 8
    frequency:    4.7763324098
  - # 9
    frequency:    4.9057344139
  - # 10
    frequency:    5.4752744258
  - # 11
    frequency:    6.5242621582
  - # 12
    frequency:    6.6929199006
  - # 13
    frequency:    8.3179955375
  - # 14
    frequency:    8.3337609009
  - # 15
    frequency:    9.0814024201
  - # 16
    frequency:   11.1434179857
  - # 17
    frequency:   11.1662084037
  - # 18
    frequency:   11.9912480969
  - # 19
    frequency:   16.4559025496
  - # 20
    frequency:   17.4367217903
  - # 21
    frequency:   17.4979823561
  - # 22
    frequency:   17.6311006949
  - # 23
    frequency:   17.7019791844
  - # 24
    frequency:   20.3875224203
  - # 25
    frequency:   38.4816311605
  - # 26
    frequency:   64.7320938545
  - # 27
    frequency:   68.7429294378

- q-position: [    0.0656566,    0.0000000,    0.0000000 ]
  distance:    0.0231758
  band:
  - # 1
    frequency:   -0.6206133510
  - # 2
    frequency:    0.2558899201
  - # 3
    frequency:    0.4810746372
  - # 4
    frequency:    0.9844777869
  - # 5
    frequency:    1.4780614280
  - # 6
    frequency:    1.5422316605
  - # 7
    frequency:    1.9245959459
  - # 8
    frequency:    4.7874564005
  - # 9
    frequency:    4.9353175432
  - # 10
    frequency:    5.4665402123
  - # 11
    frequency:    6.5254672027
  - # 12
    frequency:    6.7197004606
  - # 13
    frequency:    8.3220913843
  - # 14
    frequency:    8.3398989896
  - # 15
    frequency:    9.0801353870
  - # 16
    frequency:   11.1476162830
  - # 17
    frequency:   11.1741545986
  - # 18
    frequency:   11.9724908890
  - # 19
    frequency:   16.4474445173
  - # 20
    frequency:   17.4373144518
  - # 21
    frequency:   17.5078960059
  - # 22
    frequency:   17.6297301613
  - # 23
    frequency:   17.7120786486
  - # 24
    frequency:   20.3853426404
  - # 25
    frequency:   38.4810259223
  - # 26
    frequency:   64.7300303429
  - # 27
    frequency:   68.7137447387

- q-position: [    0.0707071,    0.0000000,    0.0000000 ]
  distance:    0.0249586
  band:
  - # 1
    frequency:   -0.6082622276
  - # 2
    frequency:    0.3515143143
  - # 3
    frequency:    0.5614510564
  - # 4
    frequency:    1.0492241497
  - # 5
    frequency:    1.5553369765
  - # 6
    frequency:    1.5688243870
  - # 7
    frequency:    2.0197885167
  - # 8
    frequency:    4.7993157831
  - # 9
    frequency:    4.9657548437
  - # 10
    frequency:    5.4586366029
  - # 11
    frequency:    6.5267585828
  - # 12
    frequency:    6.7476674524
  - # 13
    frequency:    8.3263798047
  - # 14
    frequency:    8.3461780447
  - # 15
    frequency:    9.0789932658
  - # 16
    frequency:   11.1520947674
  - # 17
    frequency:   11.1826057484
  - # 18
    frequency:   11.9524485972
  - # 19
    frequency:   16.4385290239
  - # 20
    frequency:   17.4379724376
  - # 21
    frequency:   17.5182572023
  - # 22
    frequency:   17.6283418922
  - # 23
    frequency:   17.7227794565
  - # 24
    frequency:   20.3830101286
  - # 25
    frequency:   38.4803808298
  - # 26
    frequency:   64.7278182821
  - # 27
    frequency:   68.6825101695

- q-position: [    0.0757576,    0.0000000,    0.0000000 ]
  distance:    0.0267413
  band:
  - # 1
    frequency:   -0.5947311299
  - # 2
    frequency:    0.4297520761
  - # 3
    frequency:    0.6412969115
  - # 4
    frequency:    1.1103056280
  - # 5
    frequency:    1.5995095931
  - # 6
    frequency:    1.6264696994
  - # 7
    frequency:    2.1220862742
  - # 8
    frequency:    4.8118779481
  - # 9
    frequency:    4.9966494891
  - # 10
    frequency:    5.4519340127
  - # 11
    frequency:    6.5281335367
  - # 12
    frequency:    6.7766890938
  - # 13
    frequency:    8.3308332673
  - # 14
    frequency:    8.3525292105
  - # 15
    frequency:    9.0780239557
  - # 16
    frequency:   11.1568411493
  - # 17
    frequency:   11.1915286894
  - # 18
    frequency:   11.9311734232
  - # 19
    frequency:   16.4291947309
  - # 20
    frequency:   17.4387002966
  - # 21
    frequency:   17.5290154786
  - # 22
    frequency:   17.6269540561
  - # 23
    frequency:   17.7340236243
  - # 24
    frequency:   20.3805295821
  - # 25
    frequency:   38.4796977656
  - # 26
    frequency:   64.7254613505
  - # 27
    frequency:   68.6492889199

- q-position: [    0.0808081,    0.0000000,    0.0000000 ]
  distance:    0.0285241
  band:
  - # 1
    frequency:   -0.5799242776
  - # 2
    frequency:    0.5018148334
  - # 3
    frequency:    0.7191699032
  - # 4
    frequency:    1.1671663040
  - # 5
    frequency:    1.6347885926
  - # 6
    frequency:    1.6930102093
  - # 7
    frequency:    2.2296618979
  - # 8
    frequency:    4.8251089122
  - # 9
    frequency:    5.0275351438
  - # 10
    frequency:    5.4468710860
  - # 11
    frequency:    6.5295889854
  - # 12
    frequency:    6.8066397973
  - # 13
    frequency:    8.3354234444
  - # 14
    frequency:    8.3588832624
  - # 15
    frequency:    9.0772765930
  - # 16
    frequency:   11.1618424433
  - # 17
    frequency:   11.2008860284
  - # 18
    frequency:   11.9087230648
  - # 19
    frequency:   16.4194801503
  - # 20
    frequency:   17.4395030074
  - # 21
    frequency:   17.5401241061
  - # 22
    frequency:   17.6255851510
  - # 23
    frequency:   17.7457468605
  - # 24
    frequency:   20.3779059340
  - # 25
    frequency:   38.4789787175
  - # 26
    frequency:   64.7229634493
  - # 27
    frequency:   68.6141479310

- q-position: [    0.0858586,    0.0000000,    0.0000000 ]
  distance:    0.0303069
  band:
  - # 1
    frequency:   -0.5637280499
  - # 2
    frequency:    0.5717840560
  - # 3
    frequency:    0.7947708825
  - # 4
    frequency:    1.2193836398
  - # 5
    frequency:    1.6750314632
  - # 6
    frequency:    1.7563237496
  - # 7
    frequency:    2.3408815248
  - # 8
    frequency:    4.8389735018
  - # 9
    frequency:    5.0578617292
  - # 10
    frequency:    5.4439711992
  - # 11
    frequency:    6.5311215294
  - # 12
    frequency:    6.8373998317
  - # 13
    frequency:    8.3401214294
  - # 14
    frequency:    8.3651717556
  - # 15
    frequency:    9.0768007429
  - # 16
    frequency:   11.1670850156
  - # 17
    frequency:   11.2106352711
  - # 18
    frequency:   11.8851615768
  - # 19
    frequency:   16.4094234407
  - # 20
    frequency:   17.4403859650
  - # 21
    frequency:   17.5515403771
  - # 22
    frequency:   17.6242538429
  - # 23
    frequency:   17.7578789359
  - # 24
    frequency:   20.3751443293
  - # 25
    frequency:   38.4782257722
  - # 26
    frequency:   64.7203286928
  - # 27
    frequency:   68.5771577046

- q-position: [    0.0909091,    0.0000000,    0.0000000 ]
  distance:    0.0320896
  band:
  - # 1
    frequency:   -0.5460058695
  - # 2
    frequency:    0.6413876556
  - # 3
    frequency:    0.8682302647
  - # 4
    frequency:    1.2667781621
  - # 5
    frequency:    1.7203670701
  - # 6
    frequency:    1.8174563023
  - # 7
    frequency:    2.4544358770
  - # 8
    frequency:    4.8534355363
  - # 9
    frequency:    5.0869903295
  - # 10
    frequency:    5.4438498661
  - # 11
    frequency:    6.5327274506
  - # 12
    frequency:    6.8688548872
  - # 13
    frequency:    8.3448979552
  - # 14
    frequency:    8.3713282715
  - # 15
    frequency:    9.0766454713
  - # 16
    frequency:   11.1725546367
  - # 17
    frequency:   11.2207275785
  - # 18
    frequency:   11.8605606079
  - # 19
    frequency:   16.3990622444
  - # 20
    frequency:   17.4413549544
  - # 21
    frequency:   17.5632256660
  - # 22
    frequency:   17.6229788141
  - # 23
    frequency:   17.7703442426
  - # 24
    frequency:   20.3722500994
  - # 25
    frequency:   38.4774411080
  - # 26
    frequency:   64.7175613978
  - # 27
    frequency:   68.5383921033

- q-position: [    0.0959596,    0.0000000,    0.0000000 ]
  distance:    0.0338724
  band:
  - # 1
    frequency:   -0.5265909166
  - # 2
    frequency:    0.7114075582
  - # 3
    frequency:    0.9397930767
  - # 4
    frequency:    1.3094759089
  - # 5
    frequency:    1.7706203963
  - # 6
    frequency:    1.8771493678
  - # 7
    frequency:    2.5693227659
  - # 8
    frequency:    4.8684580107
  - # 9
    frequency:    5.1142148974
  - # 10
    frequency:    5.4471953718
  - # 11
    frequency:    6.5344027194
  - # 12
    frequency:    6.9008956112
  - # 13
    frequency:    8.3497236109
  - # 14
    frequency:    8.3772897391
  - # 15
    frequency:    9.0768583099
  - # 16
    frequency:   11.1782365363
  - # 17
    frequency:   11.2311059677
  - # 18
    frequency:   11.8350011954
  - # 19
    frequency:   16.3884335571
  - # 20
    frequency:   17.4424161095
  - # 21
    frequency:   17.5751452990
  - # 22
    frequency:   17.6217786222
  - # 23
    frequency:   17.7830625158
  - # 24
    frequency:   20.3692287348
  - # 25
    frequency:   38.4766269878
  - # 26
    frequency:   64.7146660725
  - # 27
    frequency:   68.4979281405

- q-position: [    0.1010101,    0.0000000,    0.0000000 ]
  distance:    0.0356551
  band:
  - # 1
    frequency:   -0.5052755013
  - # 2
    frequency:    0.7821986602
  - # 3
    frequency:    1.0097090886
  - # 4
    frequency:    1.3478845942
  - # 5
    frequency:    1.8253362052
  - # 6
    frequency:    1.9359059268
  - # 7
    frequency:    2.6847783863
  - # 8
    frequency:    4.8840032770
  - # 9
    frequency:    5.1388356697
  - # 10
    frequency:    5.4546977368
  - # 11
    frequency:    6.5361430076
  - # 12
    frequency:    6.9334171613
  - # 13
    frequency:    8.3545690554
  - # 14
    frequency:    8.3829977995
  - # 15
    frequency:    9.0774841410
  - # 16
    frequency:   11.1841154624
  - # 17
    frequency:   11.2417026821
  - # 18
    frequency:   11.8085763947
  - # 19
    frequency:   16.3775736242
  - # 20
    frequency:   17.4435758537
  - # 21
    frequency:   17.5872682725
  - # 22
    frequency:   17.6206715767
  - # 23
    frequency:   17.7959496820
  - # 24
    frequency:   20.3660858565
  - # 25
    frequency:   38.4757857507
  - # 26
    frequency:   64.7116474051
  - # 27
    frequency:   68.4558457618

- q-position: [    0.1060606,    0.0000000,    0.0000000 ]
  distance:    0.0374379
  band:
  - # 1
    frequency:   -0.4817950370
  - # 2
    frequency:    0.8539045833
  - # 3
    frequency:    1.0782015897
  - # 4
    frequency:    1.3825953970
  - # 5
    frequency:    1.8838771128
  - # 6
    frequency:    1.9940576510
  - # 7
    frequency:    2.8002072680
  - # 8
    frequency:    4.9000332211
  - # 9
    frequency:    5.1602978522
  - # 10
    frequency:    5.4669124844
  - # 11
    frequency:    6.5379437061
  - # 12
    frequency:    6.9663188092
  - # 13
    frequency:    8.3594052259
  - # 14
    frequency:    8.3884001677
  - # 15
    frequency:    9.0785640430
  - # 16
    frequency:   11.1901757432
  - # 17
    frequency:   11.2524352887
  - # 18
    frequency:   11.7813951845
  - # 19
    frequency:   16.3665178564
  - # 20
    frequency:   17.4448408216
  - # 21
    frequency:   17.5995668643
  - # 22
    frequency:   17.6196756342
  - # 23
    frequency:   17.8089187928
  - # 24
    frequency:   20.3628271868
  - # 25
    frequency:   38.4749198049
  - # 26
    frequency:   64.7085102521
  - # 27
    frequency:   68.4122276178

- q-position: [    0.1111111,    0.0000000,    0.0000000 ]
  distance:    0.0392206
  band:
  - # 1
    frequency:   -0.4558028224
  - # 2
    frequency:    0.9265555297
  - # 3
    frequency:    1.1454636022
  - # 4
    frequency:    1.4142626546
  - # 5
    frequency:    1.9455437781
  - # 6
    frequency:    2.0518178897
  - # 7
    frequency:    2.9151263040
  - # 8
    frequency:    4.9165094360
  - # 9
    frequency:    5.1783610111
  - # 10
    frequency:    5.4840938177
  - # 11
    frequency:    6.5397999491
  - # 12
    frequency:    6.9995036149
  - # 13
    frequency:    8.3642035408
  - # 14
    frequency:    8.3934519349
  - # 15
    frequency:    9.0801341468
  - # 16
    frequency:   11.1964013509
  - # 17
    frequency:   11.2632008038
  - # 18
    frequency:   11.7535883444
  - # 19
    frequency:   16.3553007578
  - # 20
    frequency:   17.4462177603
  - # 21
    frequency:   17.6120161801
  - # 22
    frequency:   17.6188083150
  - # 23
    frequency:   17.8218810043
  - # 24
    frequency:   20.3594585189
  - # 25
    frequency:   38.4740316191
  - # 26
    frequency:   64.7052596259
  - # 27
    frequency:   68.3671588304

- q-position: [    0.1161616,    0.0000000,    0.0000000 ]
  distance:    0.0410034
  band:
  - # 1
    frequency:   -0.4268281960
  - # 2
    frequency:    1.0001153208
  - # 3
    frequency:    1.2116631548
  - # 4
    frequency:    1.4435094410
  - # 5
    frequency:    2.0096692215
  - # 6
    frequency:    2.1093195627
  - # 7
    frequency:    3.0291236828
  - # 8
    frequency:    4.9333933895
  - # 9
    frequency:    5.1932062150
  - # 10
    frequency:    5.5060902019
  - # 11
    frequency:    6.5417066422
  - # 12
    frequency:    7.0328781870
  - # 13
    frequency:    8.3689360930
  - # 14
    frequency:    8.3981167433
  - # 15
    frequency:    9.0822245653
  - # 16
    frequency:   11.2027759692
  - # 17
    frequency:   11.2738667225
  - # 18
    frequency:   11.7253174315
  - # 19
    frequency:   16.3439558644
  - # 20
    frequency:   17.4477134080
  - # 21
    frequency:   17.6180866450
  - # 22
    frequency:   17.6245936735
  - # 23
    frequency:   17.8347465663
  - # 24
    frequency:   20.3559856858
  - # 25
    frequency:   38.4731237142
  - # 26
    frequency:   64.7019006827
  - # 27
    frequency:   68.3207267512

- q-position: [    0.1212121,    0.0000000,    0.0000000 ]
  distance:    0.0427861
  band:
  - # 1
    frequency:   -0.3942022243
  - # 2
    frequency:    1.0745042239
  - # 3
    frequency:    1.2769515016
  - # 4
    frequency:    1.4708761339
  - # 5
    frequency:    2.0756701600
  - # 6
    frequency:    2.1666411871
  - # 7
    frequency:    3.1418294764
  - # 8
    frequency:    4.9506465869
  - # 9
    frequency:    5.2054020322
  - # 10
    frequency:    5.5323812781