nqpoint: 300    
npath: 3      
segment_nqpoint:
- 100
- 100
- 100
labels:
- [ 'G', 'M' ]
- [ 'M', 'K' ]
- [ 'K', 'G' ]
reciprocal_lattice:
- [   0.32487472,   0.18756651,   0.00000000 ] # a*
- [   0.00000000,   0.37513301,   0.00000000 ] # b*
- [   0.00000000,   0.00000000,   0.04214246 ] # c*
natom: 6      
lattice:
- [     3.078109638916497,     0.000000000000000,     0.000000000000000 ] # a
- [    -1.539054819458249,     2.665721142932330,     0.000000000000000 ] # b
- [     0.000000000000000,     0.000000000000000,    23.729036201326398 ] # c
points:
- symbol: H # 1
  coordinates: [  0.666666984744047,  0.333332985985145,  0.379282155568414 ]
  mass: 1.007940
- symbol: N # 2
  coordinates: [  0.000000000000000,  0.000000000000000,  0.466454649671057 ]
  mass: 14.006700
- symbol: N # 3
  coordinates: [  0.333332985432215,  0.666666983183674,  0.566082946104980 ]
  mass: 14.006700
- symbol: O # 4
  coordinates: [  0.333332985432215,  0.666666983183674,  0.620717844431586 ]
  mass: 15.999400
- symbol: Ti # 5
  coordinates: [  0.333332985432215,  0.666666983183674,  0.419822062535342 ]
  mass: 47.867000
- symbol: Ti # 6
  coordinates: [  0.666666984744047,  0.333332985985145,  0.517092628436832 ]
  mass: 47.867000

phonon:
- q-position: [    0.0000000,    0.0000000,    0.0000000 ]
  distance:    0.0000000
  band:
  - # 1
    frequency:   -3.9305394599
  - # 2
    frequency:   -3.9305394599
  - # 3
    frequency:   -0.0000131371
  - # 4
    frequency:   -0.0000002022
  - # 5
    frequency:    0.0000120443
  - # 6
    frequency:    5.2808809667
  - # 7
    frequency:    5.2808809667
  - # 8
    frequency:    6.8806646613
  - # 9
    frequency:    6.8806646613
  - # 10
    frequency:    7.9000327774
  - # 11
    frequency:    9.7308807833
  - # 12
    frequency:   14.6065741159
  - # 13
    frequency:   14.6065741159
  - # 14
    frequency:   15.9797418540
  - # 15
    frequency:   29.0518508419
  - # 16
    frequency:   29.0518508419
  - # 17
    frequency:   29.7917736538
  - # 18
    frequency:   42.7256183808

- q-position: [    0.0050505,    0.0000000,    0.0000000 ]
  distance:    0.0018946
  band:
  - # 1
    frequency:   -3.9337069867
  - # 2
    frequency:   -3.9299411885
  - # 3
    frequency:    0.0022185026
  - # 4
    frequency:    0.0875846549
  - # 5
    frequency:    0.1477016003
  - # 6
    frequency:    5.2816394858
  - # 7
    frequency:    5.2823242486
  - # 8
    frequency:    6.8754355254
  - # 9
    frequency:    6.8794693494
  - # 10
    frequency:    7.9006782230
  - # 11
    frequency:    9.7318862647
  - # 12
    frequency:   14.6070869966
  - # 13
    frequency:   14.6071726020
  - # 14
    frequency:   15.9792174975
  - # 15
    frequency:   29.0521544490
  - # 16
    frequency:   29.0522623694
  - # 17
    frequency:   29.7918609397
  - # 18
    frequency:   42.7249323693

- q-position: [    0.0101010,    0.0000000,    0.0000000 ]
  distance:    0.0037892
  band:
  - # 1
    frequency:   -3.9432165240
  - # 2
    frequency:   -3.9281586603
  - # 3
    frequency:    0.0088593935
  - # 4
    frequency:    0.1752161227
  - # 5
    frequency:    0.2953085802
  - # 6
    frequency:    5.2839111338
  - # 7
    frequency:    5.2866420975
  - # 8
    frequency:    6.8598661109
  - # 9
    frequency:    6.8758892165
  - # 10
    frequency:    7.9025654513
  - # 11
    frequency:    9.7348651811
  - # 12
    frequency:   14.6086239014
  - # 13
    frequency:   14.6089664980
  - # 14
    frequency:   15.9776453043
  - # 15
    frequency:   29.0530639734
  - # 16
    frequency:   29.0534942968
  - # 17
    frequency:   29.7921241089
  - # 18
    frequency:   42.7228751434

- q-position: [    0.0151515,    0.0000000,    0.0000000 ]
  distance:    0.0056838
  band:
  - # 1
    frequency:   -3.9590884046
  - # 2
    frequency:   -3.9252285114
  - # 3
    frequency:    0.0198766305
  - # 4
    frequency:    0.2629378149
  - # 5
    frequency:    0.4427253074
  - # 6
    frequency:    5.2876841520
  - # 7
    frequency:    5.2937986188
  - # 8
    frequency:    6.8342985384
  - # 9
    frequency:    6.8699417240
  - # 10
    frequency:    7.9055569707
  - # 11
    frequency:    9.7397072839
  - # 12
    frequency:   14.6111796536
  - # 13
    frequency:   14.6119511202
  - # 14
    frequency:   15.9750279119
  - # 15
    frequency:   29.0545755293
  - # 16
    frequency:   29.0555386318
  - # 17
    frequency:   29.7925671225
  - # 18
    frequency:   42.7194491280

- q-position: [    0.0202020,    0.0000000,    0.0000000 ]
  distance:    0.0075784
  band:
  - # 1
    frequency:   -3.9813547238
  - # 2
    frequency:   -3.9212110580
  - # 3
    frequency:    0.0351946316
  - # 4
    frequency:    0.3507863758
  - # 5
    frequency:    0.5898541656
  - # 6
    frequency:    5.2929388410
  - # 7
    frequency:    5.3037342680
  - # 8
    frequency:    6.7992674253
  - # 9
    frequency:    6.8616561544
  - # 10
    frequency:    7.9094527822
  - # 11
    frequency:    9.7462362953
  - # 12
    frequency:   14.6147457409
  - # 13
    frequency:   14.6161186748
  - # 14
    frequency:   15.9713697396
  - # 15
    frequency:   29.0566826551
  - # 16
    frequency:   29.0583819635
  - # 17
    frequency:   29.7931966742
  - # 18
    frequency:   42.7146583624

- q-position: [    0.0252525,    0.0000000,    0.0000000 ]
  distance:    0.0094731
  band:
  - # 1
    frequency:   -4.0100566618
  - # 2
    frequency:   -3.9161891761
  - # 3
    frequency:    0.0547091180
  - # 4
    frequency:    0.4387884006
  - # 5
    frequency:    0.7365946434
  - # 6
    frequency:    5.2996474060
  - # 7
    frequency:    5.3163661212
  - # 8
    frequency:    6.7554581449
  - # 9
    frequency:    6.8510738826
  - # 10
    frequency:    7.9140235264
  - # 11
    frequency:    9.7542200907
  - # 12
    frequency:   14.6193104823
  - # 13
    frequency:   14.6214582765
  - # 14
    frequency:   15.9666770233
  - # 15
    frequency:   29.0593763367
  - # 16
    frequency:   29.0620053306
  - # 17
    frequency:   29.7940223240
  - # 18
    frequency:   42.7085084969

- q-position: [    0.0303030,    0.0000000,    0.0000000 ]
  distance:    0.0113677
  band:
  - # 1
    frequency:   -4.0452407561
  - # 2
    frequency:   -3.9102667290
  - # 3
    frequency:    0.0782885526
  - # 4
    frequency:    0.5269572851
  - # 5
    frequency:    0.8828425017
  - # 6
    frequency:    5.3077737364
  - # 7
    frequency:    5.3315879324
  - # 8
    frequency:    6.7036655655
  - # 9
    frequency:    6.8382487637
  - # 10
    frequency:    7.9190416023
  - # 11
    frequency:    9.7633831473
  - # 12
    frequency:   14.6248592512
  - # 13
    frequency:   14.6279559745
  - # 14
    frequency:   15.9609578603
  - # 15
    frequency:   29.0626450389
  - # 16
    frequency:   29.0663840430
  - # 17
    frequency:   29.7950566813
  - # 18
    frequency:   42.7010067879

- q-position: [    0.0353535,    0.0000000,    0.0000000 ]
  distance:    0.0132623
  band:
  - # 1
    frequency:   -4.0869541528
  - # 2
    frequency:   -3.9035665424
  - # 3
    frequency:    0.1057758639
  - # 4
    frequency:    0.6152902694
  - # 5
    frequency:    1.0284890151
  - # 6
    frequency:    5.3172731131
  - # 7
    frequency:    5.3492695935
  - # 8
    frequency:    6.6447608509
  - # 9
    frequency:    6.8232476408
  - # 10
    frequency:    7.9243041660
  - # 11
    frequency:    9.7734199263
  - # 12
    frequency:   14.6313747438
  - # 13
    frequency:   14.6355947869
  - # 14
    frequency:   15.9542222618
  - # 15
    frequency:   29.0664747456
  - # 16
    frequency:   29.0714874644
  - # 17
    frequency:   29.7963156281
  - # 18
    frequency:   42.6921620915

- q-position: [    0.0404040,    0.0000000,    0.0000000 ]
  distance:    0.0151569
  band:
  - # 1
    frequency:   -4.1352388838
  - # 2
    frequency:   -3.8962279420
  - # 3
    frequency:    0.1369903786
  - # 4
    frequency:    0.7037657495
  - # 5
    frequency:    1.1734202654
  - # 6
    frequency:    5.3280918379
  - # 7
    frequency:    5.3692553743
  - # 8
    frequency:    6.5796697152
  - # 9
    frequency:    6.8061509834
  - # 10
    frequency:    7.9296461668
  - # 11
    frequency:    9.7840079787
  - # 12
    frequency:   14.6388372809
  - # 13
    frequency:   14.6443547426
  - # 14
    frequency:   15.9464822091
  - # 15
    frequency:   29.0708490093
  - # 16
    frequency:   29.0772787650
  - # 17
    frequency:   29.7978185767
  - # 18
    frequency:   42.6819848556

- q-position: [    0.0454545,    0.0000000,    0.0000000 ]
  distance:    0.0170515
  band:
  - # 1
    frequency:   -4.1901252510
  - # 2
    frequency:   -3.8884038804
  - # 3
    frequency:    0.1717298897
  - # 4
    frequency:    0.7923409370
  - # 5
    frequency:    1.3175164575
  - # 6
    frequency:    5.3401667721
  - # 7
    frequency:    5.3913598989
  - # 8
    frequency:    6.5093624884
  - # 9
    frequency:    6.7870536667
  - # 10
    frequency:    7.9349447096
  - # 11
    frequency:    9.7948198439
  - # 12
    frequency:   14.6472251304
  - # 13
    frequency:   14.6542129320
  - # 14
    frequency:   15.9377517102
  - # 15
    frequency:   29.0757490083
  - # 16
    frequency:   29.0837146593
  - # 17
    frequency:   29.7995887466
  - # 18
    frequency:   42.6704871103

- q-position: [    0.0505051,    0.0000000,    0.0000000 ]
  distance:    0.0189461
  band:
  - # 1
    frequency:   -4.2516244533
  - # 2
    frequency:   -3.8802577026
  - # 3
    frequency:    0.2097727901
  - # 4
    frequency:    0.8809499581
  - # 5
    frequency:    1.4606512165
  - # 6
    frequency:    5.3534247708
  - # 7
    frequency:    5.4153600233
  - # 8
    frequency:    6.4348554080
  - # 9
    frequency:    6.7660659067
  - # 10
    frequency:    7.9401174004
  - # 11
    frequency:    9.8055331617
  - # 12
    frequency:   14.6565148369
  - # 13
    frequency:   14.6651435662
  - # 14
    frequency:   15.9280468531
  - # 15
    frequency:   29.0811536124
  - # 16
    frequency:   29.0907451438
  - # 17
    frequency:   29.8016534473
  - # 18
    frequency:   42.6576824569

- q-position: [    0.0555556,    0.0000000,    0.0000000 ]
  distance:    0.0208407
  band:
  - # 1
    frequency:   -4.3197206627
  - # 2
    frequency:   -3.8719596250
  - # 3
    frequency:    0.2508802167
  - # 4
    frequency:    0.9695024759
  - # 5
    frequency:    1.6026908259
  - # 6
    frequency:    5.3677819929
  - # 7
    frequency:    5.4409791691
  - # 8
    frequency:    6.3572237942
  - # 9
    frequency:    6.7433143684
  - # 10
    frequency:    7.9451173550
  - # 11
    frequency:    9.8158387463
  - # 12
    frequency:   14.6666815462
  - # 13
    frequency:   14.6771180446
  - # 14
    frequency:   15.9173858512
  - # 15
    frequency:   29.0870394566
  - # 16
    frequency:   29.0983132593
  - # 17
    frequency:   29.8040443433
  - # 18
    frequency:   42.6435860544

- q-position: [    0.0606061,    0.0000000,    0.0000000 ]
  distance:    0.0227353
  band:
  - # 1
    frequency:   -4.3943628521
  - # 2
    frequency:   -3.8636830246
  - # 3
    frequency:    0.2947981588
  - # 4
    frequency:    1.0578829165
  - # 5
    frequency:    1.7434933686
  - # 6
    frequency:    5.3831430607
  - # 7
    frequency:    5.4678572792
  - # 8
    frequency:    6.2776315511
  - # 9
    frequency:    6.7189434686
  - # 10
    frequency:    7.9499269232
  - # 11
    frequency:    9.8254466394
  - # 12
    frequency:   14.6776993130
  - # 13
    frequency:   14.6901050316
  - # 14
    frequency:   15.9057890788
  - # 15
    frequency:   29.0933810222
  - # 16
    frequency:   29.1063549032
  - # 17
    frequency:   29.8067976777
  - # 18
    frequency:   42.6282146045

- q-position: [    0.0656566,    0.0000000,    0.0000000 ]
  distance:    0.0246299
  band:
  - # 1
    frequency:   -4.4754567754
  - # 2
    frequency:   -3.8556006629
  - # 3
    frequency:    0.3412595030
  - # 4
    frequency:    1.1459503571
  - # 5
    frequency:    1.8829077362
  - # 6
    frequency:    5.3994000405
  - # 7
    frequency:    5.4954920182
  - # 8
    frequency:    6.1973896087
  - # 9
    frequency:    6.6931168956
  - # 10
    frequency:    7.9545514314
  - # 11
    frequency:    9.8340903385
  - # 12
    frequency:   14.6895413813
  - # 13
    frequency:   14.7040705417
  - # 14
    frequency:   15.8932790933
  - # 15
    frequency:   29.1001507255
  - # 16
    frequency:   29.1147987281
  - # 17
    frequency:   29.8099544196
  - # 18
    frequency:   42.6115863345

- q-position: [    0.0707071,    0.0000000,    0.0000000 ]
  distance:    0.0265246
  band:
  - # 1
    frequency:   -4.5628575952
  - # 2
    frequency:   -3.8478809812
  - # 3
    frequency:    0.3899859988
  - # 4
    frequency:    1.2335391122
  - # 5
    frequency:    2.0207724799
  - # 6
    frequency:    5.4164312078
  - # 7
    frequency:    5.5231195168
  - # 8
    frequency:    6.1180738826
  - # 9
    frequency:    6.6660193709
  - # 10
    frequency:    7.9590136238
  - # 11
    frequency:    9.8415294915
  - # 12
    frequency:   14.7021804306
  - # 13
    frequency:   14.7189780335
  - # 14
    frequency:   15.8798806436
  - # 15
    frequency:   29.1073190134
  - # 16
    frequency:   29.1235661653
  - # 17
    frequency:   29.8135602966
  - # 18
    frequency:   42.5937209780

- q-position: [    0.0757576,    0.0000000,    0.0000000 ]
  distance:    0.0284192
  band:
  - # 1
    frequency:   -4.6563637247
  - # 2
    frequency:   -3.8406846148
  - # 3
    frequency:    0.4406901408
  - # 4
    frequency:    1.3204600194
  - # 5
    frequency:    2.1569144885
  - # 6
    frequency:    5.4340995622
  - # 7
    frequency:    5.5494633500
  - # 8
    frequency:    6.0417734745
  - # 9
    frequency:    6.6378586710
  - # 10
    frequency:    7.9633490574
  - # 11
    frequency:    9.8475513786
  - # 12
    frequency:   14.7155887806
  - # 13
    frequency:   14.7347885116
  - # 14
    frequency:   15.8656206632
  - # 15
    frequency:   29.1148544657
  - # 16
    frequency:   29.1325716200
  - # 17
    frequency:   29.8176656685
  - # 18
    frequency:   42.5746397532

- q-position: [    0.0808081,    0.0000000,    0.0000000 ]
  distance:    0.0303138
  band:
  - # 1
    frequency:   -4.7557124667
  - # 2
    frequency:   -3.8341612670
  - # 3
    frequency:    0.4930769780
  - # 4
    frequency:    1.4065023956
  - # 5
    frequency:    2.2911474885
  - # 6
    frequency:    5.4522510643
  - # 7
    frequency:    5.5722043520
  - # 8
    frequency:    5.9716163636
  - # 9
    frequency:    6.6088679188
  - # 10
    frequency:    7.9676024583
  - # 11
    frequency:    9.8519714904
  - # 12
    frequency:   14.7297385502
  - # 13
    frequency:   14.7514606373
  - # 14
    frequency:   15.8505282515
  - # 15
    frequency:   29.1227239041
  - # 16
    frequency:   29.1417228884
  - # 17
    frequency:   29.8223251914
  - # 18
    frequency:   42.5543653388

- q-position: [    0.0858586,    0.0000000,    0.0000000 ]
  distance:    0.0322084
  band:
  - # 1
    frequency:   -4.8605779843
  - # 2
    frequency:   -3.8284470692
  - # 3
    frequency:    0.5468458691
  - # 4
    frequency:    1.4914366014
  - # 5
    frequency:    2.4232703886
  - # 6
    frequency:    5.4707125857
  - # 7
    frequency:    5.5870169888
  - # 8
    frequency:    5.9127270688
  - # 9
    frequency:    6.5793081231
  - # 10
    frequency:    7.9718249235
  - # 11
    frequency:    9.8546334661
  - # 12
    frequency:   14.7446017695
  - # 13
    frequency:   14.7689508463
  - # 14
    frequency:   15.8346346427
  - # 15
    frequency:   29.1308925069
  - # 16
    frequency:   29.1509218467
  - # 17
    frequency:   29.8275972236
  - # 18
    frequency:   42.5329218476

- q-position: [    0.0909091,    0.0000000,    0.0000000 ]
  distance:    0.0341030
  band:
  - # 1
    frequency:   -4.9705720086
  - # 2
    frequency:   -3.8236625229
  - # 3
    frequency:    0.6016922136
  - # 4
    frequency:    1.5750171281
  - # 5
    frequency:    2.5530655237
  - # 6
    frequency:    5.4892896130
  - # 7
    frequency:    5.5870139298
  - # 8
    frequency:    5.8727750893
  - # 9
    frequency:    6.5494708920
  - # 10
    frequency:    7.9760718046
  - # 11
    frequency:    9.8554086094
  - # 12
    frequency:   14.7601504401
  - # 13
    frequency:   14.7872134738
  - # 14
    frequency:   15.8179731707
  - # 15
    frequency:   29.1393239296
  - # 16
    frequency:   29.1600654584
  - # 17
    frequency:   29.8335429286
  - # 18
    frequency:   42.5103347972

- q-position: [    0.0959596,    0.0000000,    0.0000000 ]
  distance:    0.0359976
  band:
  - # 1
    frequency:   -5.0852474861
  - # 2
    frequency:   -3.8199110841
  - # 3
    frequency:    0.6573091959
  - # 4
    frequency:    1.6569861094
  - # 5
    frequency:    2.6802969089
  - # 6
    frequency:    5.5077638361
  - # 7
    frequency:    5.5666610249
  - # 8
    frequency:    5.8580525073
  - # 9
    frequency:    6.5196811476
  - # 10
    frequency:    7.9804011088
  - # 11
    frequency:    9.8541951446
  - # 12
    frequency:   14.7763565450
  - # 13
    frequency:   14.8062008870
  - # 14
    frequency:   15.8005792337
  - # 15
    frequency:   29.1479804313
  - # 16
    frequency:   29.1690471306
  - # 17
    frequency:   29.8402250421
  - # 18
    frequency:   42.4866310785

- q-position: [    0.1010101,    0.0000000,    0.0000000 ]
  distance:    0.0378922
  band:
  - # 1
    frequency:   -5.2041051063
  - # 2
    frequency:   -3.8172784114
  - # 3
    frequency:    0.7133895895
  - # 4
    frequency:    1.7370771569
  - # 5
    frequency:    2.8047087050
  - # 6
    frequency:    5.5258909084
  - # 7
    frequency:    5.5290765181
  - # 8
    frequency:    5.8661675120
  - # 9
    frequency:    6.4902995028
  - # 10
    frequency:    7.9848722688
  - # 11
    frequency:    9.8509173330
  - # 12
    frequency:   14.7931920040
  - # 13
    frequency:   14.8258636227
  - # 14
    frequency:   15.7824902699
  - # 15
    frequency:   29.1568230059
  - # 16
    frequency:   29.1777584314
  - # 17
    frequency:   29.8477062942
  - # 18
    frequency:   42.4618389207

- q-position: [    0.1060606,    0.0000000,    0.0000000 ]
  distance:    0.0397868
  band:
  - # 1
    frequency:   -5.3266023827
  - # 2
    frequency:   -3.8158322552
  - # 3
    frequency:    0.7696276729
  - # 4
    frequency:    1.8150194324
  - # 5
    frequency:    2.9260242273
  - # 6
    frequency:    5.4830150798
  - # 7
    frequency:    5.5433989196
  - # 8
    frequency:    5.8890536958
  - # 9
    frequency:    6.4617237025
  - # 10
    frequency:    7.9895451579
  - # 11
    frequency:    9.8455245267
  - # 12
    frequency:   14.8106285714
  - # 13
    frequency:   14.8461505324
  - # 14
    frequency:   15.7637457544
  - # 15
    frequency:   29.1658115178
  - # 16
    frequency:   29.1860911446
  - # 17
    frequency:   29.8560475078
  - # 18
    frequency:   42.4359878548

- q-position: [    0.1111111,    0.0000000,    0.0000000 ]
  distance:    0.0416814
  band:
  - # 1
    frequency:   -5.4521647079
  - # 2
    frequency:   -3.8156229352
  - # 3
    frequency:    0.8257213103
  - # 4
    frequency:    1.8905418890
  - # 5
    frequency:    3.0439460160
  - # 6
    frequency:    5.4355056258
  - # 7
    frequency:    5.5599884928
  - # 8
    frequency:    5.9203262647
  - # 9
    frequency:    6.4343881507
  - # 10
    frequency:    7.9944792525
  - # 11
    frequency:    9.8379902119
  - # 12
    frequency:   14.8286376685
  - # 13
    frequency:   14.8670089313
  - # 14
    frequency:   15.7443872355
  - # 15
    frequency:   29.1749048435
  - # 16
    frequency:   29.1939396003
  - # 17
    frequency:   29.8653054365
  - # 18
    frequency:   42.4091086728

- q-position: [    0.1161616,    0.0000000,    0.0000000 ]
  distance:    0.0435761
  band:
  - # 1
    frequency:   -5.5801976332
  - # 2
    frequency:   -3.8166843218
  - # 3
    frequency:    0.8813742521
  - # 4
    frequency:    1.9633776422
  - # 5
    frequency:    3.1581577386
  - # 6
    frequency:    5.3906535337
  - # 7
    frequency:    5.5753358853
  - # 8
    frequency:    5.9564741955
  - # 9
    frequency:    6.4087600784
  - # 10
    frequency:    7.9997328665
  - # 11
    frequency:    9.8283110678
  - # 12
    frequency:   14.8471901390
  - # 13
    frequency:   14.8883847537
  - # 14
    frequency:   15.7244584285
  - # 15
    frequency:   29.1840610153
  - # 16
    frequency:   29.2012031739
  - # 17
    frequency:   29.8755304462
  - # 18
    frequency:   42.3812333851

- q-position: [    0.1212121,    0.0000000,    0.0000000 ]
  distance:    0.0454707
  band:
  - # 1
    frequency:   -5.7100995432
  - # 2
    frequency:   -3.8190352229
  - # 3
    frequency:    0.9362987009
  - # 4
    frequency:    2.0332684592
  - # 5
    frequency:    3.2683289828
  - # 6
    frequency:    5.3508151685
  - # 7
    frequency:    5.5891009345
  - # 8
    frequency:    5.9956795196
  - # 9
    frequency:    6.3853304386
  - # 10
    frequency:    8.0053624036
  - # 11
    frequency:    9.8165060556
  - # 12
    frequency:   14.8662559069
  - # 13
    frequency:   14.9102227131
  - # 14
    frequency:   15.7040053969
  - # 15
    frequency:   29.1932373711
  - # 16
    frequency:   29.2077888066
  - # 17
    frequency:   29.8867641895
  - # 18
    frequency:   42.3523951752

- q-position: [    0.1262626,    0.0000000,    0.0000000 ]
  distance:    0.0473653
  band:
  - # 1
    frequency:   -5.8412739268
  - # 2
    frequency:   -3.8226810690
  - # 3
    frequency:    0.9902181725
  - # 4
    frequency:    2.0999693775
  - # 5
    frequency:    3.3741242675
  - # 6
    frequency:    5.3174477549
  - # 7
    frequency:    5.6009418667
  - # 8
    frequency:    6.0369592592
  - # 9
    frequency:    6.3645974513
  - # 10
    frequency:    8.0114215854
  - # 11
    frequency:    9.8026155390
  - # 12
    frequency:   14.8858035068
  - # 13
    frequency:   14.9324664666
  - # 14
    frequency:   15.6830768584
  - # 15
    frequency:   29.2023907065
  - # 16
    frequency:   29.2136133737
  - # 17
    frequency:   29.8990374426
  - # 18
    frequency:   42.3226283509

- q-position: [    0.1313131,    0.0000000,    0.0000000 ]
  distance:    0.0492599
  band:
  - # 1
    frequency:   -5.9731405617
  - # 2
    frequency:   -3.8276157920
  - # 3
    frequency:    1.0428706638
  - # 4
    frequency:    2.1632534757
  - # 5
    frequency:    3.4752177049
  - # 6
    frequency:    5.2915166155
  - # 7
    frequency:    5.6105383924
  - # 8
    frequency:    6.0797462500
  - # 9
    frequency:    6.3470413224
  - # 10
    frequency:    8.0179606344
  - # 11
    frequency:    9.7867004364
  - # 12
    frequency:   14.9057994381
  - # 13
    frequency:   14.9550587849
  - # 14
    frequency:   15.6617246684
  - # 15
    frequency:   29.2114774303
  - # 16
    frequency:   29.2186057179
  - # 17
    frequency:   29.9123682877
  - # 18
    frequency:   42.2919682934

- q-position: [    0.1363636,    0.0000000,    0.0000000 ]
  distance:    0.0511545
  band:
  - # 1
    frequency:   -6.1051451138
  - # 2
    frequency:   -3.8338238006
  - # 3
    frequency:    1.0940121029
  - # 4
    frequency:    2.2229168191
  - # 5
    frequency:    3.5713144300
  - # 6
    frequency:    5.2736733843
  - # 7
    frequency:    5.6176226189
  - # 8
    frequency:    6.1236936701
  - # 9
    frequency:    6.3330905830
  - # 10
    frequency:    8.0250253939
  - # 11
    frequency:    9.7688413992
  - # 12
    frequency:   14.9262072708
  - # 13
    frequency:   14.9779417268
  - # 14
    frequency:   15.6400045600
  - # 15
    frequency:   29.2204537235
  - # 16
    frequency:   29.2227081901
  - # 17
    frequency:   29.9267607976
  - # 18
    frequency:   42.2604514039

- q-position: [    0.1414141,    0.0000000,    0.0000000 ]
  distance:    0.0530491
  band:
  - # 1
    frequency:   -6.2367668560
  - # 2
    frequency:   -3.8412819699
  - # 3
    frequency:    1.1434200229
  - # 4
    frequency:    2.2787835811
  - # 5
    frequency:    3.6621788791
  - # 6
    frequency:    5.2643272784
  - # 7
    frequency:    5.6220139858
  - # 8
    frequency:    6.1685806191
  - # 9
    frequency:    6.3230838496
  - # 10
    frequency:    8.0326563845
  - # 11
    frequency:    9.7491380137
  - # 12
    frequency:   14.9469863884
  - # 13
    frequency:   15.0010568181
  - # 14
    frequency:   15.6179772541
  - # 15
    frequency:   29.2258775796
  - # 16
    frequency:   29.2292757007
  - # 17
    frequency:   29.9422043361
  - # 18
    frequency:   42.2281150475

- q-position: [    0.1464646,    0.0000000,    0.0000000 ]
  distance:    0.0549437
  band:
  - # 1
    frequency:   -6.3675244111
  - # 2
    frequency:   -3.8499615753
  - # 3
    frequency:    1.1908973585
  - # 4
    frequency:    2.3307113046
  - # 5
    frequency:    3.7476679948
  - # 6
    frequency:    5.2636657282
  - # 7
    frequency:    5.6236506768
  - # 8
    frequency:    6.2142639001
  - # 9
    frequency:    6.3172346080
  - # 10
    frequency:    8.0408878007
  - # 11
    frequency:    9.7277080230
  - # 12
    frequency:   14.9680901953
  - # 13
    frequency:   15.0243452361
  - # 14
    frequency:   15.5957101185
  - # 15
    frequency:   29.2280853854
  - # 16
    frequency:   29.2378995736
  - # 17
    frequency:   29.9586735237
  - # 18
    frequency:   42.1949974947

- q-position: [    0.1515152,    0.0000000,    0.0000000 ]
  distance:    0.0568383
  band:
  - # 1
    frequency:   -6.4969795844
  - # 2
    frequency:   -3.8598301196
  - # 3
    frequency:    1.2362762217
  - # 4
    frequency:    2.3785962165
  - # 5
    frequency:    3.8277646687
  - # 6
    frequency:    5.2716528498
  - # 7
    frequency:    5.6226080290
  - # 8
    frequency:    6.2606518399
  - # 9
    frequency:    6.3156086076
  - # 10
    frequency:    8.0497464601
  - # 11
    frequency:    9.7046865695
  - # 12
    frequency:   14.9894635076
  - # 13
    frequency:   15.0477479989
  - # 14
    frequency:   15.5732796520
  - # 15
    frequency:   29.2293174485
  - # 16
    frequency:   29.2462818165
  - # 17
    frequency:   29.9761288457
  - # 18
    frequency:   42.1611378608

- q-position: [    0.1565657,    0.0000000,    0.0000000 ]
  distance:    0.0587329
  band:
  - # 1
    frequency:   -6.6247394765
  - # 2
    frequency:   -3.8708530128
  - # 3
    frequency:    1.2794214818
  - # 4
    frequency:    2.4223784433
  - # 5
    frequency:    3.9026040980
  - # 6
    frequency:    5.2880239117
  - # 7
    frequency:    5.6190966183
  - # 8
    frequency:    6.3076890605
  - # 9
    frequency:    6.3181213556
  - # 10
    frequency:    8.0592507264
  - # 11
    frequency:    9.6802254585
  - # 12
    frequency:   15.0110386805
  - # 13
    frequency:   15.0712061595
  - # 14
    frequency:   15.5507752433
  - # 15
    frequency:   29.2295730263
  - # 16
    frequency:   29.2543793338
  - # 17
    frequency:   29.9945178181
  - # 18
    frequency:   42.1265760436

- q-position: [    0.1616162,    0.0000000,    0.0000000 ]
  distance:    0.0606276
  band:
  - # 1
    frequency:   -6.7504571340
  - # 2
    frequency:   -3.8829950798
  - # 3
    frequency:    1.3202339506
  - # 4
    frequency:    2.4620469090
  - # 5
    frequency:    3.9724848478
  - # 6
    frequency:    5.3122892486
  - # 7
    frequency:    5.6134389169
  - # 8
    frequency:    6.3245570429
  - # 9
    frequency:    6.3553468292
  - # 10
    frequency:    8.0694094306
  - # 11
    frequency:    9.6544924465
  - # 12
    frequency:   15.0327297347
  - # 13
    frequency:   15.0946610051
  - # 14
    frequency:   15.5283049389
  - # 15
    frequency:   29.2288634407
  - # 16
    frequency:   29.2621496275
  - # 17
    frequency:   30.0137765809
  - # 18
    frequency:   42.0913526587

- q-position: [    0.1666667,    0.0000000,    0.0000000 ]
  distance:    0.0625222
  band:
  - # 1
    frequency:   -6.8738310276
  - # 2
    frequency:   -3.8962218772
  - # 3
    frequency:    1.3586529760
  - # 4
    frequency:    2.4976436420
  - # 5
    frequency:    4.0378586929
  - # 6
    frequency:    5.3437562740
  - # 7
    frequency:    5.6060305687
  - # 8
    frequency:    6.3346031278
  - # 9
    frequency:    6.4036162297
  - # 10
    frequency:    8.0802208207
  - # 11
    frequency:    9.6276705558
  - # 12
    frequency:   15.0544232464
  - # 13
    frequency:   15.1180542611
  - # 14
    frequency:   15.5060044515
  - # 15
    frequency:   29.2272104477
  - # 16
    frequency:   29.2695509668
  - # 17
    frequency:   30.0338317656
  - # 18
    frequency:   42.0555089739

- q-position: [    0.1717172,    0.0000000,    0.0000000 ]
  distance:    0.0644168
  band:
  - # 1
    frequency:   -6.9946036438
  - # 2
    frequency:   -3.9105008100
  - # 3
    frequency:    1.3946582637
  - # 4
    frequency:    2.5292671734
  - # 5
    frequency:    4.0992987231
  - # 6
    frequency:    5.3815716372
  - # 7
    frequency:    5.5972964211
  - # 8
    frequency:    6.3478907378
  - # 9
    frequency:    6.4525026660
  - # 10
    frequency:    8.0916715758
  - # 11
    frequency:    9.5999574177
  - # 12
    frequency:   15.0759639224
  - # 13
    frequency:   15.1413282997
  - # 14
    frequency:   15.4840514891
  - # 15
    frequency:   29.2246444789
  - # 16
    frequency:   29.2765425565
  - # 17
    frequency:   30.0546024867
  - # 18
    frequency:   42.0190868417

- q-position: [    0.1767677,    0.0000000,    0.0000000 ]
  distance:    0.0663114
  band:
  - # 1
    frequency:   -7.1125594504
  - # 2
    frequency:   -3.9258020441
  - # 3
    frequency:    1.4282707934
  - # 4
    frequency:    2.5570747024
  - # 5
    frequency:    4.1574515676
  - # 6
    frequency:    5.4247785607
  - # 7
    frequency:    5.5876508588
  - # 8
    frequency:    6.3640316406
  - # 9
    frequency:    6.5020208771
  - # 10
    frequency:    8.1037359220
  - # 11
    frequency:    9.5715646401
  - # 12
    frequency:   15.0971313733
  - # 13
    frequency:   15.1644263519
  - # 14