nqpoint: 300    
npath: 3      
segment_nqpoint:
- 100
- 100
- 100
labels:
- [ 'G', 'M' ]
- [ 'M', 'K' ]
- [ 'K', 'G' ]
reciprocal_lattice:
- [   0.32487472,   0.18756651,   0.00000000 ] # a*
- [   0.00000000,   0.37513301,   0.00000000 ] # b*
- [   0.00000000,   0.00000000,   0.04214246 ] # c*
natom: 6      
lattice:
- [     3.078109638916497,     0.000000000000000,     0.000000000000000 ] # a
- [    -1.539054819458249,     2.665721142932330,     0.000000000000000 ] # b
- [     0.000000000000000,     0.000000000000000,    23.729036201326398 ] # c
points:
- symbol: H # 1
  coordinates: [  0.666666984744047,  0.333332985985145,  0.379282155568414 ]
  mass: 1.007940
- symbol: N # 2
  coordinates: [  0.000000000000000,  0.000000000000000,  0.466454649671057 ]
  mass: 14.006700
- symbol: N # 3
  coordinates: [  0.333332985432215,  0.666666983183674,  0.566082946104980 ]
  mass: 14.006700
- symbol: O # 4
  coordinates: [  0.333332985432215,  0.666666983183674,  0.620717844431586 ]
  mass: 15.999400
- symbol: Ti # 5
  coordinates: [  0.333332985432215,  0.666666983183674,  0.419822062535342 ]
  mass: 47.867000
- symbol: Ti # 6
  coordinates: [  0.666666984744047,  0.333332985985145,  0.517092628436832 ]
  mass: 47.867000

phonon:
- q-position: [    0.0000000,    0.0000000,    0.0000000 ]
  distance:    0.0000000
  band:
  - # 1
    frequency:   -2.2889937244
  - # 2
    frequency:   -2.2889937243
  - # 3
    frequency:   -0.0000015804
  - # 4
    frequency:   -0.0000006956
  - # 5
    frequency:    0.0000015828
  - # 6
    frequency:    5.1211665374
  - # 7
    frequency:    5.1211665374
  - # 8
    frequency:    7.9558220829
  - # 9
    frequency:    8.0964475364
  - # 10
    frequency:    8.0964475364
  - # 11
    frequency:    9.7993977500
  - # 12
    frequency:   14.5629941774
  - # 13
    frequency:   14.5629941774
  - # 14
    frequency:   16.0354536938
  - # 15
    frequency:   29.2986348215
  - # 16
    frequency:   29.2986348215
  - # 17
    frequency:   29.9947049302
  - # 18
    frequency:   42.7414759496

- q-position: [    0.0050505,    0.0000000,    0.0000000 ]
  distance:    0.0018946
  band:
  - # 1
    frequency:   -2.2950579396
  - # 2
    frequency:   -2.2909386964
  - # 3
    frequency:   -0.1927439026
  - # 4
    frequency:    0.0861251086
  - # 5
    frequency:    0.2279138630
  - # 6
    frequency:    5.1216667313
  - # 7
    frequency:    5.1219754910
  - # 8
    frequency:    7.9525087239
  - # 9
    frequency:    8.0894760663
  - # 10
    frequency:    8.0931094059
  - # 11
    frequency:    9.8018780026
  - # 12
    frequency:   14.5631382575
  - # 13
    frequency:   14.5639043666
  - # 14
    frequency:   16.0347838443
  - # 15
    frequency:   29.2988361672
  - # 16
    frequency:   29.2991447215
  - # 17
    frequency:   29.9940709324
  - # 18
    frequency:   42.7407420200

- q-position: [    0.0101010,    0.0000000,    0.0000000 ]
  distance:    0.0037892
  band:
  - # 1
    frequency:   -2.3132660854
  - # 2
    frequency:   -2.2967705586
  - # 3
    frequency:   -0.2576187985
  - # 4
    frequency:    0.1721737886
  - # 5
    frequency:    0.3540711365
  - # 6
    frequency:    5.1231670857
  - # 7
    frequency:    5.1244008244
  - # 8
    frequency:    7.9404828763
  - # 9
    frequency:    8.0709536338
  - # 10
    frequency:    8.0831086528
  - # 11
    frequency:    9.8090767383
  - # 12
    frequency:   14.5635739793
  - # 13
    frequency:   14.5666322007
  - # 14
    frequency:   16.0327758141
  - # 15
    frequency:   29.2994386975
  - # 16
    frequency:   29.3006711448
  - # 17
    frequency:   29.9921744466
  - # 18
    frequency:   42.7385413721

- q-position: [    0.0151515,    0.0000000,    0.0000000 ]
  distance:    0.0056838
  band:
  - # 1
    frequency:   -2.3436726791
  - # 2
    frequency:   -2.3064800008
  - # 3
    frequency:   -0.3055485892
  - # 4
    frequency:    0.2580687081
  - # 5
    frequency:    0.4748350837
  - # 6
    frequency:    5.1256668690
  - # 7
    frequency:    5.1284377695
  - # 8
    frequency:    7.9130988814
  - # 9
    frequency:    8.0483949934
  - # 10
    frequency:    8.0664863370
  - # 11
    frequency:    9.8203197167
  - # 12
    frequency:   14.5643116974
  - # 13
    frequency:   14.5711694277
  - # 14
    frequency:   16.0294341885
  - # 15
    frequency:   29.3004378986
  - # 16
    frequency:   29.3032041631
  - # 17
    frequency:   29.9890320619
  - # 18
    frequency:   42.7348774263

- q-position: [    0.0202020,    0.0000000,    0.0000000 ]
  distance:    0.0075784
  band:
  - # 1
    frequency:   -2.3863927038
  - # 2
    frequency:   -2.3200510268
  - # 3
    frequency:   -0.3496083728
  - # 4
    frequency:    0.3437307735
  - # 5
    frequency:    0.5963313117
  - # 6
    frequency:    5.1291646987
  - # 7
    frequency:    5.1340777484
  - # 8
    frequency:    7.8626336518
  - # 9
    frequency:    8.0308294172
  - # 10
    frequency:    8.0433113707
  - # 11
    frequency:    9.8346331609
  - # 12
    frequency:   14.5653683732
  - # 13
    frequency:   14.5775021284
  - # 14
    frequency:   16.0247667064
  - # 15
    frequency:   29.3018262690
  - # 16
    frequency:   29.3067268997
  - # 17
    frequency:   29.9846716521
  - # 18
    frequency:   42.7297558737

- q-position: [    0.0252525,    0.0000000,    0.0000000 ]
  distance:    0.0094731
  band:
  - # 1
    frequency:   -2.4416294228
  - # 2
    frequency:   -2.3374602856
  - # 3
    frequency:   -0.3945810493
  - # 4
    frequency:    0.4290783520
  - # 5
    frequency:    0.7195062591
  - # 6
    frequency:    5.1336582989
  - # 7
    frequency:    5.1413073762
  - # 8
    frequency:    7.7883375951
  - # 9
    frequency:    8.0136812163
  - # 10
    frequency:    8.0205997122
  - # 11
    frequency:    9.8509052183
  - # 12
    frequency:   14.5667671427
  - # 13
    frequency:   14.5856104848
  - # 14
    frequency:   16.0187843962
  - # 15
    frequency:   29.3035933533
  - # 16
    frequency:   29.3112150181
  - # 17
    frequency:   29.9791327337
  - # 18
    frequency:   42.7231846618

- q-position: [    0.0303030,    0.0000000,    0.0000000 ]
  distance:    0.0113677
  band:
  - # 1
    frequency:   -2.5096989210
  - # 2
    frequency:   -2.3586762275
  - # 3
    frequency:   -0.4421328247
  - # 4
    frequency:    0.5140265952
  - # 5
    frequency:    0.8441869629
  - # 6
    frequency:    5.1391441676
  - # 7
    frequency:    5.1501069581
  - # 8
    frequency:    7.6944852052
  - # 9
    frequency:    7.9777228228
  - # 10
    frequency:    8.0151860124
  - # 11
    frequency:    9.8680272820
  - # 12
    frequency:   14.5685367372
  - # 13
    frequency:   14.5954684866
  - # 14
    frequency:   16.0115017467
  - # 15
    frequency:   29.3057257877
  - # 16
    frequency:   29.3166359696
  - # 17
    frequency:   29.9724670063
  - # 18
    frequency:   42.7151739751

- q-position: [    0.0353535,    0.0000000,    0.0000000 ]
  distance:    0.0132623
  band:
  - # 1
    frequency:   -2.5910413746
  - # 2
    frequency:   -2.3836581526
  - # 3
    frequency:   -0.4924525993
  - # 4
    frequency:    0.5984868683
  - # 5
    frequency:    0.9699882989
  - # 6
    frequency:    5.1456171571
  - # 7
    frequency:    5.1604483524
  - # 8
    frequency:    7.5851200681
  - # 9
    frequency:    7.9355937653
  - # 10
    frequency:    8.0123841683
  - # 11
    frequency:    9.8849900907
  - # 12
    frequency:   14.5707107772
  - # 13
    frequency:   14.6070436054
  - # 14
    frequency:   16.0029368980
  - # 15
    frequency:   29.3082073600
  - # 16
    frequency:   29.3229479619
  - # 17
    frequency:   29.9647391191
  - # 18
    frequency:   42.7057362088

- q-position: [    0.0404040,    0.0000000,    0.0000000 ]
  distance:    0.0151569
  band:
  - # 1
    frequency:   -2.6862105708
  - # 2
    frequency:   -2.4123552189
  - # 3
    frequency:   -0.5449672272
  - # 4
    frequency:    0.6823662712
  - # 5
    frequency:    1.0965376216
  - # 6
    frequency:    5.1530699717
  - # 7
    frequency:    5.1722920034
  - # 8
    frequency:    7.4632939175
  - # 9
    frequency:    7.8874835440
  - # 10
    frequency:    8.0110394418
  - # 11
    frequency:    9.9009332120
  - # 12
    frequency:   14.5733269681
  - # 13
    frequency:   14.6202964685
  - # 14
    frequency:   15.9931118331
  - # 15
    frequency:   29.3110190824
  - # 16
    frequency:   29.3300985955
  - # 17
    frequency:   29.9560277205
  - # 18
    frequency:   42.6948859382

- q-position: [    0.0454545,    0.0000000,    0.0000000 ]
  distance:    0.0170515
  band:
  - # 1
    frequency:   -2.7958361222
  - # 2
    frequency:   -2.4447054636
  - # 3
    frequency:   -0.5987053264
  - # 4
    frequency:    0.7655672334
  - # 5
    frequency:    1.2235182740
  - # 6
    frequency:    5.1614925845
  - # 7
    frequency:    5.1855828418
  - # 8
    frequency:    7.3315413598
  - # 9
    frequency:    7.8336149969
  - # 10
    frequency:    8.0105807087
  - # 11
    frequency:    9.9151592217
  - # 12
    frequency:   14.5764262243
  - # 13
    frequency:   14.6351805641
  - # 14
    frequency:   15.9820525518
  - # 15
    frequency:   29.3141392784
  - # 16
    frequency:   29.3380230972
  - # 17
    frequency:   29.9464268665
  - # 18
    frequency:   42.6826398806

- q-position: [    0.0505051,    0.0000000,    0.0000000 ]
  distance:    0.0189461
  band:
  - # 1
    frequency:   -2.9205568056
  - # 2
    frequency:   -2.4806348723
  - # 3
    frequency:   -0.6525064517
  - # 4
    frequency:    0.8479871573
  - # 5
    frequency:    1.3506658888
  - # 6
    frequency:    5.1708715718
  - # 7
    frequency:    5.2002445903
  - # 8
    frequency:    7.1922151443
  - # 9
    frequency:    7.7742457790
  - # 10
    frequency:    8.0107135282
  - # 11
    frequency:    9.9271263702
  - # 12
    frequency:   14.5800517515
  - # 13
    frequency:   14.6516420119
  - # 14
    frequency:   15.9697892100
  - # 15
    frequency:   29.3175436821
  - # 16
    frequency:   29.3466420659
  - # 17
    frequency:   29.9360478809
  - # 18
    frequency:   42.6690168529

- q-position: [    0.0555556,    0.0000000,    0.0000000 ]
  distance:    0.0208407
  band:
  - # 1
    frequency:   -3.0609282953
  - # 2
    frequency:   -2.5200565162
  - # 3
    frequency:   -0.7051557359
  - # 4
    frequency:    0.9295180897
  - # 5
    frequency:    1.4777551254
  - # 6
    frequency:    5.1811893563
  - # 7
    frequency:    5.2161717614
  - # 8
    frequency:    7.0476609736
  - # 9
    frequency:    7.7096698634
  - # 10
    frequency:    8.0112778181
  - # 11
    frequency:    9.9364308075
  - # 12
    frequency:   14.5842481144
  - # 13
    frequency:   14.6696194241
  - # 14
    frequency:   15.9563562106
  - # 15
    frequency:   29.3212055526
  - # 16
    frequency:   29.3558586300
  - # 17
    frequency:   29.9250217723
  - # 18
    frequency:   42.6540377226

- q-position: [    0.0606061,    0.0000000,    0.0000000 ]
  distance:    0.0227353
  band:
  - # 1
    frequency:   -3.2173137944
  - # 2
    frequency:   -2.5628697580
  - # 3
    frequency:   -0.7554773888
  - # 4
    frequency:    1.0100464092
  - # 5
    frequency:    1.6045868581
  - # 6
    frequency:    5.1924233436
  - # 7
    frequency:    5.2332182460
  - # 8
    frequency:    6.9003067291
  - # 9
    frequency:    7.6402190249
  - # 10
    frequency:    8.0121829670
  - # 11
    frequency:    9.9427855247
  - # 12
    frequency:   14.5890603168
  - # 13
    frequency:   14.6890438813
  - # 14
    frequency:   15.9417922332
  - # 15
    frequency:   29.3250958006
  - # 16
    frequency:   29.3655549176
  - # 17
    frequency:   29.9135023151
  - # 18
    frequency:   42.6377253532

- q-position: [    0.0656566,    0.0000000,    0.0000000 ]
  distance:    0.0246299
  band:
  - # 1
    frequency:   -3.3897708667
  - # 2
    frequency:   -2.6089595184
  - # 3
    frequency:   -0.8023995913
  - # 4
    frequency:    1.0894525224
  - # 5
    frequency:    1.7309778760
  - # 6
    frequency:    5.2045449233
  - # 7
    frequency:    5.2511808006
  - # 8
    frequency:    6.7527006739
  - # 9
    frequency:    7.5662642725
  - # 10
    frequency:    8.0133768621
  - # 11
    frequency:    9.9459999378
  - # 12
    frequency:   14.5945329160
  - # 13
    frequency:   14.7098390376
  - # 14
    frequency:   15.9261401983
  - # 15
    frequency:   29.3291831294
  - # 16
    frequency:   29.3755877706
  - # 17
    frequency:   29.9016698693
  - # 18
    frequency:   42.6201045434

- q-position: [    0.0707071,    0.0000000,    0.0000000 ]
  distance:    0.0265246
  band:
  - # 1
    frequency:   -3.5779510788
  - # 2
    frequency:   -2.6581955859
  - # 3
    frequency:   -0.8449945959
  - # 4
    frequency:    1.1676105764
  - # 5
    frequency:    1.8567530047
  - # 6
    frequency:    5.2175182925
  - # 7
    frequency:    5.2697748915
  - # 8
    frequency:    6.6075125403
  - # 9
    frequency:    7.4882172098
  - # 10
    frequency:    8.0148302732
  - # 11
    frequency:    9.9459618929
  - # 12
    frequency:   14.6007091910
  - # 13
    frequency:   14.7319213635
  - # 14
    frequency:   15.9094471625
  - # 15
    frequency:   29.3334341887
  - # 16
    frequency:   29.3857837305
  - # 17
    frequency:   29.8897359196
  - # 18
    frequency:   42.6012019618

- q-position: [    0.0757576,    0.0000000,    0.0000000 ]
  distance:    0.0284192
  band:
  - # 1
    frequency:   -3.7810298740
  - # 2
    frequency:   -2.7104319549
  - # 3
    frequency:   -0.8824957416
  - # 4
    frequency:    1.2443881998
  - # 5
    frequency:    1.9817391323
  - # 6
    frequency:    5.2312990383
  - # 7
    frequency:    5.2885993315
  - # 8
    frequency:    6.4675070904
  - # 9
    frequency:    7.4065313158
  - # 10
    frequency:    8.0165285798
  - # 11
    frequency:    9.9426226385
  - # 12
    frequency:   14.6076303808
  - # 13
    frequency:   14.7552005274
  - # 14
    frequency:   15.8917641489
  - # 15
    frequency:   29.3378137419
  - # 16
    frequency:   29.3959335458
  - # 17
    frequency:   29.8779480902
  - # 18
    frequency:   42.5810460747

- q-position: [    0.0808081,    0.0000000,    0.0000000 ]
  distance:    0.0303138
  band:
  - # 1
    frequency:   -3.9976816441
  - # 2
    frequency:   -2.7655061788
  - # 3
    frequency:   -0.9142942633
  - # 4
    frequency:    1.3196462966
  - # 5
    frequency:    2.1057606447
  - # 6
    frequency:    5.2458323902
  - # 7
    frequency:    5.3070855562
  - # 8
    frequency:    6.3355032272
  - # 9
    frequency:    7.3217031573
  - # 10
    frequency:    8.0184672047
  - # 11
    frequency:    9.9359846831
  - # 12
    frequency:   14.6153350022
  - # 13
    frequency:   14.7795799090
  - # 14
    frequency:   15.8731459169
  - # 15
    frequency:   29.3422848462
  - # 16
    frequency:   29.4057868800
  - # 17
    frequency:   29.8665949621
  - # 18
    frequency:   42.5596670696

- q-position: [    0.0858586,    0.0000000,    0.0000000 ]
  distance:    0.0322084
  band:
  - # 1
    frequency:   -4.2261087598
  - # 2
    frequency:   -2.8232387376
  - # 3
    frequency:   -0.9399206534
  - # 4
    frequency:    1.3932389261
  - # 5
    frequency:    2.2286359121
  - # 6
    frequency:    5.2610510221
  - # 7
    frequency:    5.3244296780
  - # 8
    frequency:    6.2143356769
  - # 9
    frequency:    7.2342735725
  - # 10
    frequency:    8.0206490141
  - # 11
    frequency:    9.9260921877
  - # 12
    frequency:   14.6238582549
  - # 13
    frequency:   14.8049572345
  - # 14
    frequency:   15.8536506852
  - # 15
    frequency:   29.3468090445
  - # 16
    frequency:   29.4150486437
  - # 17
    frequency:   29.8560092767
  - # 18
    frequency:   42.5370967729

- q-position: [    0.0909091,    0.0000000,    0.0000000 ]
  distance:    0.0341030
  band:
  - # 1
    frequency:   -4.4641237777
  - # 2
    frequency:   -2.8834324345
  - # 3
    frequency:   -0.9590162882
  - # 4
    frequency:    1.4650133069
  - # 5
    frequency:    2.3501745965
  - # 6
    frequency:    5.2768722415
  - # 7
    frequency:    5.3395179807
  - # 8
    frequency:    6.1068289247
  - # 9
    frequency:    7.1448289004
  - # 10
    frequency:    8.0230828012
  - # 11
    frequency:    9.9130234597
  - # 12
    frequency:   14.6332315152
  - # 13
    frequency:   14.8312253159
  - # 14
    frequency:   15.8333398178
  - # 15
    frequency:   29.3513465704
  - # 16
    frequency:   29.4233794512
  - # 17
    frequency:   29.8465670312
  - # 18
    frequency:   42.5133685632

- q-position: [    0.0959596,    0.0000000,    0.0000000 ]
  distance:    0.0359976
  band:
  - # 1
    frequency:   -4.7092731418
  - # 2
    frequency:   -2.9458718539
  - # 3
    frequency:   -0.9713005509
  - # 4
    frequency:    1.5348099994
  - # 5
    frequency:    2.4701756700
  - # 6
    frequency:    5.2931943520
  - # 7
    frequency:    5.3508960572
  - # 8
    frequency:    6.0157538932
  - # 9
    frequency:    7.0540023776
  - # 10
    frequency:    8.0257823832
  - # 11
    frequency:    9.8968851298
  - # 12
    frequency:   14.6434819164
  - # 13
    frequency:   14.8582728756
  - # 14
    frequency:   15.8122774918
  - # 15
    frequency:   29.3558565627
  - # 16
    frequency:   29.4304038804
  - # 17
    frequency:   29.8386787909
  - # 18
    frequency:   42.4885172798

- q-position: [    0.1010101,    0.0000000,    0.0000000 ]
  distance:    0.0378922
  band:
  - # 1
    frequency:   -4.9589819717
  - # 2
    frequency:   -3.0103229397
  - # 3
    frequency:   -0.9765371127
  - # 4
    frequency:    1.6024633245
  - # 5
    frequency:    2.5884261324
  - # 6
    frequency:    5.3098919205
  - # 7
    frequency:    5.3569152451
  - # 8
    frequency:    5.9436483019
  - # 9
    frequency:    6.9624758830
  - # 10
    frequency:    8.0287660485
  - # 11
    frequency:    9.8778076397
  - # 12
    frequency:   14.6546320087
  - # 13
    frequency:   14.8859854353
  - # 14
    frequency:   15.7905303619
  - # 15
    frequency:   29.3602972914
  - # 16
    frequency:   29.4357306844
  - # 17
    frequency:   29.8327690758
  - # 18
    frequency:   42.4625791275

- q-position: [    0.1060606,    0.0000000,    0.0000000 ]
  distance:    0.0397868
  band:
  - # 1
    frequency:   -5.2106963844
  - # 2
    frequency:   -3.0765327679
  - # 3
    frequency:   -0.9745009897
  - # 4
    frequency:    1.6678020939
  - # 5
    frequency:    2.7047005124
  - # 6
    frequency:    5.3268096198
  - # 7
    frequency:    5.3562560394
  - # 8
    frequency:    5.8923049365
  - # 9
    frequency:    6.8709822748
  - # 10
    frequency:    8.0320561952
  - # 11
    frequency:    9.8559417349
  - # 12
    frequency:   14.6666994862
  - # 13
    frequency:   14.9142462466
  - # 14
    frequency:   15.7681672432
  - # 15
    frequency:   29.3646263928
  - # 16
    frequency:   29.4389873585
  - # 17
    frequency:   29.8292414222
  - # 18
    frequency:   42.4355915769

- q-position: [    0.1111111,    0.0000000,    0.0000000 ]
  distance:    0.0416814
  band:
  - # 1
    frequency:   -5.4620033380
  - # 2
    frequency:   -3.1442296168
  - # 3
    frequency:   -0.9649459275
  - # 4
    frequency:    1.7306507313
  - # 5
    frequency:    2.8187613288
  - # 6
    frequency:    5.3437542844
  - # 7
    frequency:    5.3488051209
  - # 8
    frequency:    5.8619440967
  - # 9
    frequency:    6.7803086112
  - # 10
    frequency:    8.0356790627
  - # 11
    frequency:    9.8314557117
  - # 12
    frequency:   14.6796969660
  - # 13
    frequency:   14.9429372423
  - # 14
    frequency:   15.7452588316
  - # 15
    frequency:   29.3688011121
  - # 16
    frequency:   29.4398661470
  - # 17
    frequency:   29.8284320368
  - # 18
    frequency:   42.4075932625

- q-position: [    0.1161616,    0.0000000,    0.0000000 ]
  distance:    0.0435761
  band:
  - # 1
    frequency:   -5.7107162340
  - # 2
    frequency:   -3.2131234442
  - # 3
    frequency:   -0.9475696120
  - # 4
    frequency:    1.7908308818
  - # 5
    frequency:    2.9303607748
  - # 6
    frequency:    5.3362286757
  - # 7
    frequency:    5.3604848581
  - # 8
    frequency:    5.8507132593
  - # 9
    frequency:    6.6913005246
  - # 10
    frequency:    8.0396644888
  - # 11
    frequency:    9.8045332264
  - # 12
    frequency:   14.6936317955
  - # 13
    frequency:   14.9719399882
  - # 14
    frequency:   15.7218774864
  - # 15
    frequency:   29.3727785540
  - # 16
    frequency:   29.4381707027
  - # 17
    frequency:   29.8305628352
  - # 18
    frequency:   42.3786238773

- q-position: [    0.1212121,    0.0000000,    0.0000000 ]
  distance:    0.0454707
  band:
  - # 1
    frequency:   -5.9549237987
  - # 2
    frequency:   -3.2829068917
  - # 3
    frequency:   -0.9219717646
  - # 4
    frequency:    1.8481636051
  - # 5
    frequency:    3.0392439623
  - # 6
    frequency:    5.3214996169
  - # 7
    frequency:    5.3767001510
  - # 8
    frequency:    5.8552403354
  - # 9
    frequency:    6.6048678128
  - # 10
    frequency:    8.0440456426
  - # 11
    frequency:    9.7753715173
  - # 12
    frequency:   14.7085058607
  - # 13
    frequency:   15.0011366165
  - # 14
    frequency:   15.6980970994
  - # 15
    frequency:   29.3765159373
  - # 16
    frequency:   29.4338473082
  - # 17
    frequency:   29.8357099566
  - # 18
    frequency:   42.3487240657

- q-position: [    0.1262626,    0.0000000,    0.0000000 ]
  distance:    0.0473653
  band:
  - # 1
    frequency:   -6.1930069054
  - # 2
    frequency:   -3.3532569294
  - # 3
    frequency:   -0.8875962844
  - # 4
    frequency:    1.9024722551
  - # 5
    frequency:    3.1451541069
  - # 6
    frequency:    5.3077576474
  - # 7
    frequency:    5.3920249935
  - # 8
    frequency:    5.8718482975
  - # 9
    frequency:    6.5219906761
  - # 10
    frequency:    8.0488586917
  - # 11
    frequency:    9.7441799294
  - # 12
    frequency:   14.7243153580
  - # 13
    frequency:   15.0304107260
  - # 14
    frequency:   15.6739930853
  - # 15
    frequency:   29.3799708549
  - # 16
    frequency:   29.4269880402
  - # 17
    frequency:   29.8438003759
  - # 18
    frequency:   42.3179353147

- q-position: [    0.1313131,    0.0000000,    0.0000000 ]
  distance:    0.0492599
  band:
  - # 1
    frequency:   -6.4236316569
  - # 2
    frequency:   -3.4238372309
  - # 3
    frequency:   -0.8436408257
  - # 4
    frequency:    1.9535861347
  - # 5
    frequency:    3.2478400062
  - # 6
    frequency:    5.2974895788
  - # 7
    frequency:    5.4059968961
  - # 8
    frequency:    5.8974353208
  - # 9
    frequency:    6.4437245567
  - # 10
    frequency:    8.0541423723
  - # 11
    frequency:    9.7111786624
  - # 12
    frequency:   14.7410504842
  - # 13
    frequency:   15.0596482343
  - # 14
    frequency:   15.6496425295
  - # 15
    frequency:   29.3831015346
  - # 16
    frequency:   29.4178053592
  - # 17
    frequency:   29.8546371317
  - # 18
    frequency:   42.2862998442

- q-position: [    0.1363636,    0.0000000,    0.0000000 ]
  distance:    0.0511545
  band:
  - # 1
    frequency:   -6.6457275955
  - # 2
    frequency:   -3.4943013372
  - # 3
    frequency:   -0.7888993243
  - # 4
    frequency:    2.0013449909
  - # 5
    frequency:    3.3470660334
  - # 6
    frequency:    5.2923317401
  - # 7
    frequency:    5.4180583091
  - # 8
    frequency:    5.9297150142
  - # 9
    frequency:    6.3711986101
  - # 10
    frequency:    8.0599374270
  - # 11
    frequency:    9.6765976894
  - # 12
    frequency:   14.7586949819
  - # 13
    frequency:   15.0887381729
  - # 14
    frequency:   15.6251245485
  - # 15
    frequency:   29.3858671014
  - # 16
    frequency:   29.4065897865
  - # 17
    frequency:   29.8679415097
  - # 18
    frequency:   42.2538604973

- q-position: [    0.1414141,    0.0000000,    0.0000000 ]
  distance:    0.0530491
  band:
  - # 1
    frequency:   -6.8584585437
  - # 2
    frequency:   -3.5642966179
  - # 3
    frequency:   -0.7214563656
  - # 4
    frequency:    2.0456043718
  - # 5
    frequency:    3.4426245734
  - # 6
    frequency:    5.2932111389
  - # 7
    frequency:    5.4275644558
  - # 8
    frequency:    5.9671002233
  - # 9
    frequency:    6.3055980194
  - # 10
    frequency:    8.0662858829
  - # 11
    frequency:    9.6406758113
  - # 12
    frequency:   14.7772254571
  - # 13
    frequency:   15.1175734146
  - # 14
    frequency:   15.6005209340
  - # 15
    frequency:   29.3882278369
  - # 16
    frequency:   29.3936661335
  - # 17
    frequency:   29.8833967141
  - # 18
    frequency:   42.2206606306

- q-position: [    0.1464646,    0.0000000,    0.0000000 ]
  distance:    0.0549437
  band:
  - # 1
    frequency:   -7.0611914833
  - # 2
    frequency:   -3.6334689832
  - # 3
    frequency:   -0.6380098214
  - # 4
    frequency:    2.0862418003
  - # 5
    frequency:    3.5343503650
  - # 6
    frequency:    5.3005517354
  - # 7
    frequency:    5.4338225564
  - # 8
    frequency:    6.0085065959
  - # 9
    frequency:    6.2481145923
  - # 10
    frequency:    8.0732301396
  - # 11
    frequency:    9.6036598308
  - # 12
    frequency:   14.7966103564
  - # 13
    frequency:   15.1460513313
  - # 14
    frequency:   15.5759171844
  - # 15
    frequency:   29.3793590405
  - # 16
    frequency:   29.3901454365
  - # 17
    frequency:   29.9006822741
  - # 18
    frequency:   42.1867440056

- q-position: [    0.1515152,    0.0000000,    0.0000000 ]
  distance:    0.0568383
  band:
  - # 1
    frequency:   -7.2534668552
  - # 2
    frequency:   -3.7014682386
  - # 3
    frequency:   -0.5320480414
  - # 4
    frequency:    2.1231636288
  - # 5
    frequency:    3.6221355944
  - # 6
    frequency:    5.3144384580
  - # 7
    frequency:    5.4361801631
  - # 8
    frequency:    6.0531871883
  - # 9
    frequency:    6.1998482491
  - # 10
    frequency:    8.0808118390
  - # 11
    frequency:    9.5658038422
  - # 12
    frequency:   14.8168084374
  - # 13
    frequency:   15.1740743740
  - # 14
    frequency:   15.5514040756
  - # 15
    frequency:   29.3639712516
  - # 16
    frequency:   29.3915832600
  - # 17
    frequency:   29.9194957526
  - # 18
    frequency:   42.1521546824

- q-position: [    0.1565657,    0.0000000,    0.0000000 ]
  distance:    0.0587329
  band:
  - # 1
    frequency:   -7.4349720603
  - # 2
    frequency:   -3.7679539205
  - # 3
    frequency:   -0.3869187796
  - # 4
    frequency:    2.1563123309
  - # 5
    frequency:    3.7059439539
  - # 6
    frequency:    5.3347250234
  - # 7
    frequency:    5.4341678378
  - # 8
    frequency:    6.1006165658
  - # 9
    frequency:    6.1616545726
  - # 10
    frequency:    8.0890704901
  - # 11
    frequency:    9.5273686422
  - # 12
    frequency:   14.8377664963
  - # 13
    frequency:   15.2015505776
  - # 14
    frequency:   15.5270799999
  - # 15
    frequency:   29.3477729631
  - # 16
    frequency:   29.3925065747
  - # 17
    frequency:   29.9395634230
  - # 18
    frequency:   42.1169369150

- q-position: [    0.1616162,    0.0000000,    0.0000000 ]
  distance:    0.0606276
  band:
  - # 1
    frequency:   -7.6055188458
  - # 2
    frequency:   -3.8326014034
  - # 3
    frequency:   -0.0905072228
  - # 4
    frequency:    2.1856738664
  - # 5
    frequency:    3.7858214387
  - # 6
    frequency:    5.3611000071
  - # 7
    frequency:    5.4276659988
  - # 8
    frequency:    6.1339690588
  - # 9
    frequency:    6.1504145244
  - # 10
    frequency:    8.0980418251
  - # 11
    frequency:    9.4886212740
  - # 12
    frequency:   14.8594159916
  - # 13
    frequency:   15.2283939879
  - # 14
    frequency:   15.5030544180
  - # 15
    frequency:   29.3309987427
  - # 16
    frequency:   29.3928827894
  - # 17
    frequency:   29.9606434126
  - # 18
    frequency:   42.0811350500

- q-position: [    0.1666667,    0.0000000,    0.0000000 ]
  distance:    0.0625222
  band:
  - # 1
    frequency:   -7.7650245909
  - # 2
    frequency:   -3.8951080450
  - # 3
    frequency:    0.3743771594
  - # 4
    frequency:    2.2112846484
  - # 5
    frequency:    3.8619016543
  - # 6
    frequency:    5.3931281516
  - # 7
    frequency:    5.4170227029
  - # 8
    frequency:    6.1166818069
  - # 9
    frequency:    6.2022965148
  - # 10
    frequency:    8.1077558685
  - # 11
    frequency:    9.4498347236
  - # 12
    frequency:   14.8816680240
  - # 13
    frequency:   15.2545250137
  - # 14
    frequency:   15.4794529594
  - # 15
    frequency:   29.3138487479
  - # 16
    frequency:   29.3926816755
  - # 17
    frequency:   29.9825245834
  - # 18
    frequency:   42.0447934287

- q-position: [    0.1717172,    0.0000000,    0.0000000 ]
  distance:    0.0644168
  band:
  - # 1
    frequency:   -7.9134971462
  - # 2
    frequency:   -3.9551991218
  - # 3
    frequency:    0.5422090522
  - # 4
    frequency:    2.2332375592
  - # 5
    frequency:    3.9344040147
  - # 6
    frequency:    5.4030458144
  - # 7
    frequency:    5.4302796866
  - # 8
    frequency:    6.1091397055
  - # 9
    frequency:    6.2560409844
  - # 10
    frequency:    8.1182347070
  - # 11
    frequency:    9.4112877814
  - # 12
    frequency:   14.9044058358
  - # 13
    frequency:   15.2798707063
  - # 14
    frequency:   15.4564249953
  - # 15
    frequency:   29.2964919348
  - # 16
    frequency:   29.3918755752
  - # 17
    frequency:   30.0050234566
  - # 18
    frequency:   42.0079562938

- q-position: [    0.1767677,    0.0000000,    0.0000000 ]
  distance:    0.0663114
  band:
  - # 1
    frequency:   -8.0510227300
  - # 2
    frequency:   -4.0126333241
  - # 3
    frequency:    0.6722652556
  - # 4
    frequency:    2.2516864397
  - # 5
    frequency:    4.0036243648
  - # 6
    frequency:    5.3868576721
  - # 7
    frequency:    5.4719555149
  - # 8
    frequency:    6.1102884632
  - # 9
    frequency:    6.3114672306
  - # 10
    frequency:    8.1294899643
  - # 11
    frequency:    9.3732650839
  - # 12
    frequency:   14.9274735596
  - # 13
    frequency:   15.3043649690
  - # 14