nqpoint: 300    
npath: 3      
segment_nqpoint:
- 100
- 100
- 100
labels:
- [ 'G', 'M' ]
- [ 'M', 'K' ]
- [ 'K', 'G' ]
reciprocal_lattice:
- [   0.28895911,   0.16683062,   0.00000000 ] # a*
- [   0.00000000,   0.33366124,   0.00000000 ] # b*
- [   0.00000000,   0.00000000,   0.03778733 ] # c*
natom: 7      
lattice:
- [     3.460697284874242,     0.000000000000000,     0.000000000000000 ] # a
- [    -1.730348642437120,     2.997051763501233,     0.000000000000000 ] # b
- [     0.000000000000000,     0.000000000000000,    26.463896307531702 ] # c
points:
- symbol: C # 1
  coordinates: [  0.333332985432215,  0.666666983183674,  0.614935320160365 ]
  mass: 12.010700
- symbol: Cl # 2
  coordinates: [  0.666666984744047,  0.333332985985145,  0.340085975829590 ]
  mass: 35.453000
- symbol: Hf # 3
  coordinates: [  0.333332985432215,  0.666666983183674,  0.406168610507313 ]
  mass: 178.490000
- symbol: Hf # 4
  coordinates: [  0.666666984744047,  0.333332985985145,  0.490295601546444 ]
  mass: 178.490000
- symbol: N # 5
  coordinates: [  0.000000000000000,  0.000000000000000,  0.444617388117161 ]
  mass: 14.006700
- symbol: N # 6
  coordinates: [  0.333332985432215,  0.666666983183674,  0.659914024170410 ]
  mass: 14.006700
- symbol: S # 7
  coordinates: [  0.333332985432215,  0.666666983183674,  0.551001946236866 ]
  mass: 32.065000

phonon:
- q-position: [    0.0000000,    0.0000000,    0.0000000 ]
  distance:    0.0000000
  band:
  - # 1
    frequency:   -0.0000127595
  - # 2
    frequency:    0.0000003409
  - # 3
    frequency:    0.0000099985
  - # 4
    frequency:    1.2603682061
  - # 5
    frequency:    1.2603682062
  - # 6
    frequency:    2.8361839772
  - # 7
    frequency:    2.8361839772
  - # 8
    frequency:    4.3982195180
  - # 9
    frequency:    5.2348360086
  - # 10
    frequency:    5.2348360086
  - # 11
    frequency:    6.6979287640
  - # 12
    frequency:    6.9095251995
  - # 13
    frequency:    6.9095251995
  - # 14
    frequency:    8.0956992663
  - # 15
    frequency:   10.8579530336
  - # 16
    frequency:   10.8579530336
  - # 17
    frequency:   11.9008314217
  - # 18
    frequency:   14.8907900478
  - # 19
    frequency:   14.8907900479
  - # 20
    frequency:   19.3547980971
  - # 21
    frequency:   64.7892123488

- q-position: [    0.0050505,    0.0000000,    0.0000000 ]
  distance:    0.0016852
  band:
  - # 1
    frequency:   -0.0405444160
  - # 2
    frequency:    0.0013400303
  - # 3
    frequency:    0.0402376155
  - # 4
    frequency:    1.2611427456
  - # 5
    frequency:    1.2620150578
  - # 6
    frequency:    2.8362738086
  - # 7
    frequency:    2.8364424011
  - # 8
    frequency:    4.3981121177
  - # 9
    frequency:    5.2347545030
  - # 10
    frequency:    5.2353451858
  - # 11
    frequency:    6.6977269664
  - # 12
    frequency:    6.9094120951
  - # 13
    frequency:    6.9096573326
  - # 14
    frequency:    8.0952048489
  - # 15
    frequency:   10.8579022830
  - # 16
    frequency:   10.8579337006
  - # 17
    frequency:   11.9009846889
  - # 18
    frequency:   14.8907018466
  - # 19
    frequency:   14.8910145705
  - # 20
    frequency:   19.3546894567
  - # 21
    frequency:   64.7891264403

- q-position: [    0.0101010,    0.0000000,    0.0000000 ]
  distance:    0.0033703
  band:
  - # 1
    frequency:   -0.0807475912
  - # 2
    frequency:    0.0053580335
  - # 3
    frequency:    0.0803768960
  - # 4
    frequency:    1.2634627257
  - # 5
    frequency:    1.2669278165
  - # 6
    frequency:    2.8365451619
  - # 7
    frequency:    2.8372152195
  - # 8
    frequency:    4.3977914106
  - # 9
    frequency:    5.2345104884
  - # 10
    frequency:    5.2368707003
  - # 11
    frequency:    6.6971218582
  - # 12
    frequency:    6.9090736569
  - # 13
    frequency:    6.9100533275
  - # 14
    frequency:    8.0937227001
  - # 15
    frequency:   10.8577503462
  - # 16
    frequency:   10.8578760312
  - # 17
    frequency:   11.9014429198
  - # 18
    frequency:   14.8904368229
  - # 19
    frequency:   14.8916865509
  - # 20
    frequency:   19.3543637512
  - # 21
    frequency:   64.7888688911

- q-position: [    0.0151515,    0.0000000,    0.0000000 ]
  distance:    0.0050555
  band:
  - # 1
    frequency:   -0.1202809944
  - # 2
    frequency:    0.0120495141
  - # 3
    frequency:    0.1203206058
  - # 4
    frequency:    1.2673172137
  - # 5
    frequency:    1.2750257475
  - # 6
    frequency:    2.8370035578
  - # 7
    frequency:    2.8384950915
  - # 8
    frequency:    4.3972618646
  - # 9
    frequency:    5.2341054706
  - # 10
    frequency:    5.2394065181
  - # 11
    frequency:    6.6961143047
  - # 12
    frequency:    6.9085125058
  - # 13
    frequency:    6.9107119735
  - # 14
    frequency:    8.0912561256
  - # 15
    frequency:   10.8574981638
  - # 16
    frequency:   10.8577810065
  - # 17
    frequency:   11.9022014224
  - # 18
    frequency:   14.8899937203
  - # 19
    frequency:   14.8928012342
  - # 20
    frequency:   19.3538216267
  - # 21
    frequency:   64.7884402302

- q-position: [    0.0202020,    0.0000000,    0.0000000 ]
  distance:    0.0067406
  band:
  - # 1
    frequency:   -0.1588392798
  - # 2
    frequency:    0.0214063744
  - # 3
    frequency:    0.1599737029
  - # 4
    frequency:    1.2726879276
  - # 5
    frequency:    1.2861825496
  - # 6
    frequency:    2.8376580129
  - # 7
    frequency:    2.8402698467
  - # 8
    frequency:    4.3965308812
  - # 9
    frequency:    5.2335419565
  - # 10
    frequency:    5.2429426423
  - # 11
    frequency:    6.6947057818
  - # 12
    frequency:    6.9077329936
  - # 13
    frequency:    6.9116312621
  - # 14
    frequency:    8.0878106202
  - # 15
    frequency:   10.8571472905
  - # 16
    frequency:   10.8576502376
  - # 17
    frequency:   11.9032524446
  - # 18
    frequency:   14.8893704553
  - # 19
    frequency:   14.8943507183
  - # 20
    frequency:   19.3530641603
  - # 21
    frequency:   64.7878413376

- q-position: [    0.0252525,    0.0000000,    0.0000000 ]
  distance:    0.0084258
  band:
  - # 1
    frequency:   -0.1961469763
  - # 2
    frequency:    0.0334167092
  - # 3
    frequency:    0.1992444308
  - # 4
    frequency:    1.2795491526
  - # 5
    frequency:    1.3002368965
  - # 6
    frequency:    2.8385207741
  - # 7
    frequency:    2.8425225801
  - # 8
    frequency:    4.3956087197
  - # 9
    frequency:    5.2328234506
  - # 10
    frequency:    5.2474652076
  - # 11
    frequency:    6.6928984254
  - # 12
    frequency:    6.9067411784
  - # 13
    frequency:    6.9128084022
  - # 14
    frequency:    8.0833938451
  - # 15
    frequency:   10.8566998757
  - # 16
    frequency:   10.8574859310
  - # 17
    frequency:   11.9045852759
  - # 18
    frequency:   14.8885641340
  - # 19
    frequency:   14.8963239896
  - # 20
    frequency:   19.3520928591
  - # 21
    frequency:   64.7870734411

- q-position: [    0.0303030,    0.0000000,    0.0000000 ]
  distance:    0.0101109
  band:
  - # 1
    frequency:   -0.2319608076
  - # 2
    frequency:    0.0480643477
  - # 3
    frequency:    0.2380453958
  - # 4
    frequency:    1.2878676383
  - # 5
    frequency:    1.3170041859
  - # 6
    frequency:    2.8396069691
  - # 7
    frequency:    2.8452317859
  - # 8
    frequency:    4.3945083778
  - # 9
    frequency:    5.2319544491
  - # 10
    frequency:    5.2529566194
  - # 11
    frequency:    6.6906950926
  - # 12
    frequency:    6.9055447905
  - # 13
    frequency:    6.9142398450
  - # 14
    frequency:    8.0780155972
  - # 15
    frequency:   10.8561586365
  - # 16
    frequency:   10.8572908406
  - # 17
    frequency:   11.9061863863
  - # 18
    frequency:   14.8875710735
  - # 19
    frequency:   14.8987069713
  - # 20
    frequency:   19.3509096601
  - # 21
    frequency:   64.7861381133

- q-position: [    0.0353535,    0.0000000,    0.0000000 ]
  distance:    0.0117961
  band:
  - # 1
    frequency:   -0.2660680380
  - # 2
    frequency:    0.0653284013
  - # 3
    frequency:    0.2762946157
  - # 4
    frequency:    1.2976024912
  - # 5
    frequency:    1.3362877141
  - # 6
    frequency:    2.8409341933
  - # 7
    frequency:    2.8483715271
  - # 8
    frequency:    4.3932454167
  - # 9
    frequency:    5.2309404322
  - # 10
    frequency:    5.2593957430
  - # 11
    frequency:    6.6880994337
  - # 12
    frequency:    6.9041531875
  - # 13
    frequency:    6.9159213206
  - # 14
    frequency:    8.0716877707
  - # 15
    frequency:   10.8555268238
  - # 16
    frequency:   10.8570682090
  - # 17
    frequency:   11.9080396023
  - # 18
    frequency:   14.8863868296
  - # 19
    frequency:   14.9014825848
  - # 20
    frequency:   19.3495169292
  - # 21
    frequency:   64.7850372663

- q-position: [    0.0404040,    0.0000000,    0.0000000 ]
  distance:    0.0134813
  band:
  - # 1
    frequency:   -0.2982818506
  - # 2
    frequency:    0.0851828857
  - # 3
    frequency:    0.3139165191
  - # 4
    frequency:    1.3087050842
  - # 5
    frequency:    1.3578880540
  - # 6
    frequency:    2.8425220539
  - # 7
    frequency:    2.8519116418
  - # 8
    frequency:    4.3918377227
  - # 9
    frequency:    5.2297878537
  - # 10
    frequency:    5.2667581470
  - # 11
    frequency:    6.6851159682
  - # 12
    frequency:    6.9025773001
  - # 13
    frequency:    6.9178478881
  - # 14
    frequency:    8.0644243110
  - # 15
    frequency:   10.8548081814
  - # 16
    frequency:   10.8568216988
  - # 17
    frequency:   11.9101263165
  - # 18
    frequency:   14.8850062292
  - # 19
    frequency:   14.9046308246
  - # 20
    frequency:   19.3479174604
  - # 21
    frequency:   64.7837731461

- q-position: [    0.0454545,    0.0000000,    0.0000000 ]
  distance:    0.0151664
  band:
  - # 1
    frequency:   -0.3284349677
  - # 2
    frequency:    0.1075964734
  - # 3
    frequency:    0.3508428666
  - # 4
    frequency:    1.3211190092
  - # 5
    frequency:    1.3816100822
  - # 6
    frequency:    2.8443916952
  - # 7
    frequency:    2.8558179842
  - # 8
    frequency:    4.3903051973
  - # 9
    frequency:    5.2285041287
  - # 10
    frequency:    5.2750164010
  - # 11
    frequency:    6.6817501605
  - # 12
    frequency:    6.9008295668
  - # 13
    frequency:    6.9200140000
  - # 14
    frequency:    8.0562411622
  - # 15
    frequency:   10.8540068996
  - # 16
    frequency:   10.8565553173
  - # 17
    frequency:   11.9124257276
  - # 18
    frequency:   14.8834234068
  - # 19
    frequency:   14.9081288455
  - # 20
    frequency:   19.3461144741
  - # 21
    frequency:   64.7823483258

- q-position: [    0.0505051,    0.0000000,    0.0000000 ]
  distance:    0.0168516
  band:
  - # 1
    frequency:   -0.3563725867
  - # 2
    frequency:    0.1325324100
  - # 3
    frequency:    0.3870135613
  - # 4
    frequency:    1.3347801010
  - # 5
    frequency:    1.4072676525
  - # 6
    frequency:    2.8465653264
  - # 7
    frequency:    2.8600526986
  - # 8
    frequency:    4.3886693736
  - # 9
    frequency:    5.2270976165
  - # 10
    frequency:    5.2841404266
  - # 11
    frequency:    6.6780084947
  - # 12
    frequency:    6.8989238585
  - # 13
    frequency:    6.9224135816
  - # 14
    frequency:    8.0471562093
  - # 15
    frequency:   10.8531275623
  - # 16
    frequency:   10.8562733340
  - # 17
    frequency:   11.9149151081
  - # 18
    frequency:   14.8816318449
  - # 19
    frequency:   14.9119510610
  - # 20
    frequency:   19.3441116163
  - # 21
    frequency:   64.7807656975

- q-position: [    0.0555556,    0.0000000,    0.0000000 ]
  distance:    0.0185367
  band:
  - # 1
    frequency:   -0.3819453960
  - # 2
    frequency:    0.1599486015
  - # 3
    frequency:    0.4223773108
  - # 4
    frequency:    1.3496165666
  - # 5
    frequency:    1.4346862500
  - # 6
    frequency:    2.8490657693
  - # 7
    frequency:    2.8645745262
  - # 8
    frequency:    4.3869529624
  - # 9
    frequency:    5.2255776018
  - # 10
    frequency:    5.2940978946
  - # 11
    frequency:    6.6738985433
  - # 12
    frequency:    6.8968753931
  - # 13
    frequency:    6.9250401238
  - # 14
    frequency:    8.0371892145
  - # 15
    frequency:   10.8521750895
  - # 16
    frequency:   10.8559801963
  - # 17
    frequency:   11.9175700952
  - # 18
    frequency:   14.8796244168
  - # 19
    frequency:   14.9160692533
  - # 20
    frequency:   19.3419129555
  - # 21
    frequency:   64.7790284640

- q-position: [    0.0606061,    0.0000000,    0.0000000 ]
  distance:    0.0202219
  band:
  - # 1
    frequency:   -0.4050030832
  - # 2
    frequency:    0.1897978553
  - # 3
    frequency:    0.4568921078
  - # 4
    frequency:    1.3655492489
  - # 5
    frequency:    1.4637041060
  - # 6
    frequency:    2.8519160433
  - # 7
    frequency:    2.8693391414
  - # 8
    frequency:    4.3851793361
  - # 9
    frequency:    5.2239542706
  - # 10
    frequency:    5.3048546587
  - # 11
    frequency:    6.6694290314
  - # 12
    frequency:    6.8947006383
  - # 13
    frequency:    6.9278867871
  - # 14
    frequency:    8.0263617513
  - # 15
    frequency:   10.8511546756
  - # 16
    frequency:   10.8556804430
  - # 17
    frequency:   11.9203650015
  - # 18
    frequency:   14.8773934329
  - # 19
    frequency:   14.9204526938
  - # 20
    frequency:   19.3395229812
  - # 21
    frequency:   64.7771401290

- q-position: [    0.0656566,    0.0000000,    0.0000000 ]
  distance:    0.0219071
  band:
  - # 1
    frequency:   -0.4253884299
  - # 2
    frequency:    0.2220282347
  - # 3
    frequency:    0.4905254972
  - # 4
    frequency:    1.3824920514
  - # 5
    frequency:    1.4941722510
  - # 6
    frequency:    2.8551389952
  - # 7
    frequency:    2.8742995167
  - # 8
    frequency:    4.3833719632
  - # 9
    frequency:    5.2222386814
  - # 10
    frequency:    5.3163752137
  - # 11
    frequency:    6.6646098954
  - # 12
    frequency:    6.8924172052
  - # 13
    frequency:    6.9309465139
  - # 14
    frequency:    8.0146971348
  - # 15
    frequency:   10.8500717241
  - # 16
    frequency:   10.8553786190
  - # 17
    frequency:   11.9232731406
  - # 18
    frequency:   14.8749306878
  - # 19
    frequency:   14.9250682733
  - # 20
    frequency:   19.3369466002
  - # 21
    frequency:   64.7751044864

- q-position: [    0.0707071,    0.0000000,    0.0000000 ]
  distance:    0.0235922
  band:
  - # 1
    frequency:   -0.4429318288
  - # 2
    frequency:    0.2565834725
  - # 3
    frequency:    0.5232546104
  - # 4
    frequency:    1.4003525400
  - # 5
    frequency:    1.5259539111
  - # 6
    frequency:    2.8587569812
  - # 7
    frequency:    2.8794063130
  - # 8
    frequency:    4.3815538117
  - # 9
    frequency:    5.2204427324
  - # 10
    frequency:    5.3286231623
  - # 11
    frequency:    6.6594523363
  - # 12
    frequency:    6.8900437303
  - # 13
    frequency:    6.9342121464
  - # 14
    frequency:    8.0022203504
  - # 15
    frequency:   10.8489317795
  - # 16
    frequency:   10.8550791935
  - # 17
    frequency:   11.9262671641
  - # 18
    frequency:   14.8722275096
  - # 19
    frequency:   14.9298806412
  - # 20
    frequency:   19.3341891331
  - # 21
    frequency:   64.7729256088

- q-position: [    0.0757576,    0.0000000,    0.0000000 ]
  distance:    0.0252774
  band:
  - # 1
    frequency:   -0.4574458466
  - # 2
    frequency:    0.2934033827
  - # 3
    frequency:    0.5550659583
  - # 4
    frequency:    1.4190327284
  - # 5
    frequency:    1.5589235509
  - # 6
    frequency:    2.8627916012
  - # 7
    frequency:    2.8846082938
  - # 8
    frequency:    4.3797467388
  - # 9
    frequency:    5.2185791224
  - # 10
    frequency:    5.3415616761
  - # 11
    frequency:    6.6539688697
  - # 12
    frequency:    6.8875997482
  - # 13
    frequency:    6.9376765458
  - # 14
    frequency:    7.9889579823
  - # 15
    frequency:   10.8477404567
  - # 16
    frequency:   10.8547864825
  - # 17
    frequency:   11.9293194035
  - # 18
    frequency:   14.8692748104
  - # 19
    frequency:   14.9348523533
  - # 20
    frequency:   19.3312563101
  - # 21
    frequency:   64.7706078358

- q-position: [    0.0808081,    0.0000000,    0.0000000 ]
  distance:    0.0269625
  band:
  - # 1
    frequency:   -0.4687192490
  - # 2
    frequency:    0.3324242097
  - # 3
    frequency:    0.5859549912
  - # 4
    frequency:    1.4384300365
  - # 5
    frequency:    1.5929657743
  - # 6
    frequency:    2.8672634839
  - # 7
    frequency:    2.8898527594
  - # 8
    frequency:    4.3779708892
  - # 9
    frequency:    5.2166613061
  - # 10
    frequency:    5.3551539352
  - # 11
    frequency:    6.6481733712
  - # 12
    frequency:    6.8851055539
  - # 13
    frequency:    6.9413327115
  - # 14
    frequency:    7.9749381422
  - # 15
    frequency:   10.8465033706
  - # 16
    frequency:   10.8545045787
  - # 17
    frequency:   11.9324022158
  - # 18
    frequency:   14.8660631374
  - # 19
    frequency:   14.9399440263
  - # 20
    frequency:   19.3281542650
  - # 21
    frequency:   64.7681557606

- q-position: [    0.0858586,    0.0000000,    0.0000000 ]
  distance:    0.0286477
  band:
  - # 1
    frequency:   -0.4765096545
  - # 2
    frequency:    0.3735788635
  - # 3
    frequency:    0.6159254463
  - # 4
    frequency:    1.4584384008
  - # 5
    frequency:    1.6279742130
  - # 6
    frequency:    2.8721921147
  - # 7
    frequency:    2.8950859989
  - # 8
    frequency:    4.3762441201
  - # 9
    frequency:    5.2147034438
  - # 10
    frequency:    5.3693635341
  - # 11
    frequency:    6.6420811195
  - # 12
    frequency:    6.8825820562
  - # 13
    frequency:    6.9451738955
  - # 14
    frequency:    7.9601903991
  - # 15
    frequency:   10.8452260640
  - # 16
    frequency:   10.8542372897
  - # 17
    frequency:   11.9354883240
  - # 18
    frequency:   14.8625827259
  - # 19
    frequency:   14.9451145004
  - # 20
    frequency:   19.3248895298
  - # 21
    frequency:   64.7655742165

- q-position: [    0.0909091,    0.0000000,    0.0000000 ]
  distance:    0.0303328
  band:
  - # 1
    frequency:   -0.4805336001
  - # 2
    frequency:    0.4167970024
  - # 3
    frequency:    0.6449885207
  - # 4
    frequency:    1.4789495005
  - # 5
    frequency:    1.6638504784
  - # 6
    frequency:    2.8775957006
  - # 7
    frequency:    2.9002537566
  - # 8
    frequency:    4.3745814722
  - # 9
    frequency:    5.2127203435
  - # 10
    frequency:    5.3841548410
  - # 11
    frequency:    6.6357088342
  - # 12
    frequency:    6.8800506217
  - # 13
    frequency:    6.9491937132
  - # 14
    frequency:    7.9447457114
  - # 15
    frequency:   10.8439139371
  - # 16
    frequency:   10.8539880856
  - # 17
    frequency:   11.9385511518
  - # 18
    frequency:   14.8588235530
  - # 19
    frequency:   14.9503210069
  - # 20
    frequency:   19.3214690269
  - # 21
    frequency:   64.7628682623

- q-position: [    0.0959596,    0.0000000,    0.0000000 ]
  distance:    0.0320180
  band:
  - # 1
    frequency:   -0.4804521384
  - # 2
    frequency:    0.4620049425
  - # 3
    frequency:    0.6731619125
  - # 4
    frequency:    1.4998540569
  - # 5
    frequency:    1.7005032115
  - # 6
    frequency:    2.8834910618
  - # 7
    frequency:    2.9053017088
  - # 8
    frequency:    4.3729947008
  - # 9
    frequency:    5.2107273981
  - # 10
    frequency:    5.3994933046
  - # 11
    frequency:    6.6290747082
  - # 12
    frequency:    6.8775329124
  - # 13
    frequency:    6.9533862463
  - # 14
    frequency:    7.9286363618
  - # 15
    frequency:   10.8425721778
  - # 16
    frequency:   10.8537600583
  - # 17
    frequency:   11.9415651450
  - # 18
    frequency:   14.8547753937
  - # 19
    frequency:   14.9555193419
  - # 20
    frequency:   19.3179000604
  - # 21
    frequency:   64.7600431679

- q-position: [    0.1010101,    0.0000000,    0.0000000 ]
  distance:    0.0337032
  band:
  - # 1
    frequency:   -0.4758488536
  - # 2
    frequency:    0.5091253913
  - # 3
    frequency:    0.7004687832
  - # 4
    frequency:    1.5210431574
  - # 5
    frequency:    1.7378472433
  - # 6
    frequency:    2.8898935401
  - # 7
    frequency:    2.9101759476
  - # 8
    frequency:    4.3714918801
  - # 9
    frequency:    5.2087405149
  - # 10
    frequency:    5.4153457024
  - # 11
    frequency:    6.6221984324
  - # 12
    frequency:    6.8750507153
  - # 13
    frequency:    6.9577461400
  - # 14
    frequency:    7.9118958956
  - # 15
    frequency:   10.8412056948
  - # 16
    frequency:   10.8535558925
  - # 17
    frequency:   11.9445060776
  - # 18
    frequency:   14.8504278779
  - # 19
    frequency:   14.9606640439
  - # 20
    frequency:   19.3141903068
  - # 21
    frequency:   64.7571043982

- q-position: [    0.1060606,    0.0000000,    0.0000000 ]
  distance:    0.0353883
  band:
  - # 1
    frequency:   -0.4661947255
  - # 2
    frequency:    0.5580770214
  - # 3
    frequency:    0.7269366897
  - # 4
    frequency:    1.5424095567
  - # 5
    frequency:    1.7758028620
  - # 6
    frequency:    2.8968169166
  - # 7
    frequency:    2.9148234679
  - # 8
    frequency:    4.3700770892
  - # 9
    frequency:    5.2067760393
  - # 10
    frequency:    5.4316803288
  - # 11
    frequency:    6.6151012066
  - # 12
    frequency:    6.8726257672
  - # 13
    frequency:    6.9622686942
  - # 14
    frequency:    7.8945590622
  - # 15
    frequency:   10.8398190534
  - # 16
    frequency:   10.8533778488
  - # 17
    frequency:   11.9473513363
  - # 18
    frequency:   14.8457705517
  - # 19
    frequency:   14.9657085761
  - # 20
    frequency:   19.3103478033
  - # 21
    frequency:   64.7540575977

- q-position: [    0.1111111,    0.0000000,    0.0000000 ]
  distance:    0.0370735
  band:
  - # 1
    frequency:   -0.4507890338
  - # 2
    frequency:    0.6087739180
  - # 3
    frequency:    0.7525965348
  - # 4
    frequency:    1.5638489131
  - # 5
    frequency:    1.8142951775
  - # 6
    frequency:    2.9042733280
  - # 7
    frequency:    2.9191926525
  - # 8
    frequency:    4.3687501864
  - # 9
    frequency:    5.2048506722
  - # 10
    frequency:    5.4484671249
  - # 11
    frequency:    6.6078057353
  - # 12
    frequency:    6.8702795765
  - # 13
    frequency:    6.9669499479
  - # 14
    frequency:    7.8766617614
  - # 15
    frequency:   10.8384164156
  - # 16
    frequency:   10.8532277610
  - # 17
    frequency:   11.9500801817
  - # 18
    frequency:   14.8407929403
  - # 19
    frequency:   14.9706055123
  - # 20
    frequency:   19.3063809353
  - # 21
    frequency:   64.7509085736

- q-position: [    0.1161616,    0.0000000,    0.0000000 ]
  distance:    0.0387586
  band:
  - # 1
    frequency:   -0.4286532719
  - # 2
    frequency:    0.6611249496
  - # 3
    frequency:    0.7774815732
  - # 4
    frequency:    1.5852609234
  - # 5
    frequency:    1.8532535728
  - # 6
    frequency:    2.9122731769
  - # 7
    frequency:    2.9232337521
  - # 8
    frequency:    4.3675066736
  - # 9
    frequency:    5.2029813817
  - # 10
    frequency:    5.4656777531
  - # 11
    frequency:    6.6003361997
  - # 12
    frequency:    6.8680332417
  - # 13
    frequency:    6.9717867599
  - # 14
    frequency:    7.8582409924
  - # 15
    frequency:   10.8370014843
  - # 16
    frequency:   10.8531070462
  - # 17
    frequency:   11.9526739805
  - # 18
    frequency:   14.8354846158
  - # 19
    frequency:   14.9753067244
  - # 20
    frequency:   19.3022984218
  - # 21
    frequency:   64.7476632789

- q-position: [    0.1212121,    0.0000000,    0.0000000 ]
  distance:    0.0404438
  band:
  - # 1
    frequency:   -0.3983229375
  - # 2
    frequency:    0.7150331180
  - # 3
    frequency:    0.8016265052
  - # 4
    frequency:    1.6065503317
  - # 5
    frequency:    1.8926112269
  - # 6
    frequency:    2.9208250280
  - # 7
    frequency:    2.9268993542
  - # 8
    frequency:    4.3663376534
  - # 9
    frequency:    5.2011853093
  - # 10
    frequency:    5.4832856232
  - # 11
    frequency:    6.5927182016
  - # 12
    frequency:    6.8659072708
  - # 13
    frequency:    6.9767768864
  - # 14
    frequency:    7.8393348076
  - # 15
    frequency:   10.8355774532
  - # 16
    frequency:   10.8530167279
  - # 17
    frequency:   11.9551164071
  - # 18
    frequency:   14.8298352695
  - # 19
    frequency:   14.9797635735
  - # 20
    frequency:   19.2981092990
  - # 21
    frequency:   64.7443277957

- q-position: [    0.1262626,    0.0000000,    0.0000000 ]
  distance:    0.0421289
  band:
  - # 1
    frequency:   -0.3573827879
  - # 2
    frequency:    0.7703949533
  - # 3
    frequency:    0.8250666752
  - # 4
    frequency:    1.6276277964
  - # 5
    frequency:    1.9323047007
  - # 6
    frequency:    2.9299354879
  - # 7
    frequency:    2.9301448376
  - # 8
    frequency:    4.3652298776
  - # 9
    frequency:    5.1994796715
  - # 10
    frequency:    5.5012658770
  - # 11
    frequency:    6.5849786694
  - # 12
    frequency:    6.8639214019
  - # 13
    frequency:    6.9819190560
  - # 14
    frequency:    7.8199822685
  - # 15
    frequency:   10.8341469626
  - # 16
    frequency:   10.8529574738
  - # 17
    frequency:   11.9573936104
  - # 18
    frequency:   14.8238347883
  - # 19
    frequency:   14.9839271022
  - # 20
    frequency:   19.2938229026
  - # 21
    frequency:   64.7409083177

- q-position: [    0.1313131,    0.0000000,    0.0000000 ]
  distance:    0.0438141
  band:
  - # 1
    frequency:   -0.3011987512
  - # 2
    frequency:    0.8271000169
  - # 3
    frequency:    0.8478373895
  - # 4
    frequency:    1.6484106071
  - # 5
    frequency:    1.9722735763
  - # 6
    frequency:    2.9329288065
  - # 7
    frequency:    2.9396090631
  - # 8
    frequency:    4.3641658848
  - # 9
    frequency:    5.1978816583
  - # 10
    frequency:    5.5195953402
  - # 11
    frequency:    6.5771457220
  - # 12
    frequency:    6.8620944291
  - # 13
    frequency:    6.9872130443
  - # 14
    frequency:    7.8002234051
  - # 15
    frequency:   10.8327120615
  - # 16
    frequency:   10.8529296451
  - # 17
    frequency:   11.9594943447
  - # 18
    frequency:   14.8174733379
  - # 19
    frequency:   14.9877482278
  - # 20
    frequency:   19.2894488479
  - # 21
    frequency:   64.7374111321

- q-position: [    0.1363636,    0.0000000,    0.0000000 ]
  distance:    0.0454993
  band:
  - # 1
    frequency:   -0.2179043242
  - # 2
    frequency:    0.8699733515
  - # 3
    frequency:    0.8850305655
  - # 4
    frequency:    1.6688232556
  - # 5
    frequency:    2.0124601416
  - # 6
    frequency:    2.9352135000
  - # 7
    frequency:    2.9498479969
  - # 8
    frequency:    4.3631242268
  - # 9
    frequency:    5.1964083270
  - # 10
    frequency:    5.5382524511
  - # 11
    frequency:    6.5692484791
  - # 12
    frequency:    6.8604440340
  - # 13
    frequency:    6.9926597485
  - # 14
    frequency:    7.7800991762
  - # 15
    frequency:   10.8312741768
  - # 16
    frequency:   10.8529333584
  - # 17
    frequency:   11.9614100610
  - # 18
    frequency:   14.8107414503
  - # 19
    frequency:   14.9911779372
  - # 20
    frequency:   19.2849970071
  - # 21
    frequency:   64.7338426027

- q-position: [    0.1414141,    0.0000000,    0.0000000 ]
  distance:    0.0471844
  band:
  - # 1
    frequency:    0.0462007733
  - # 2
    frequency:    0.8915082150
  - # 3
    frequency:    0.9440614236
  - # 4
    frequency:    1.6887978655
  - # 5
    frequency:    2.0528091150
  - # 6
    frequency:    2.9369651720
  - # 7
    frequency:    2.9606520818
  - # 8
    frequency:    4.3620797808
  - # 9
    frequency:    5.1950764959
  - # 10
    frequency:    5.5572171739
  - # 11
    frequency:    6.5613168133
  - # 12
    frequency:    6.8589866267
  - # 13
    frequency:    6.9982612624
  - # 14
    frequency:    7.7596514320
  - # 15
    frequency:   10.8298340900
  - # 16
    frequency:   10.8529685596
  - # 17
    frequency:   11.9631349598
  - # 18
    frequency:   14.8036301186
  - # 19
    frequency:   14.9941674810
  - # 20
    frequency:   19.2804774863
  - # 21
    frequency:   64.7302091512

- q-position: [    0.1464646,    0.0000000,    0.0000000 ]
  distance:    0.0488696
  band:
  - # 1
    frequency:    0.2413332738
  - # 2
    frequency:    0.9124742451
  - # 3
    frequency:    1.0040600865
  - # 4
    frequency:    1.7082744924
  - # 5
    frequency:    2.0932674084
  - # 6
    frequency:    2.9381544373
  - # 7
    frequency:    2.9720184490
  - # 8
    frequency:    4.3610041463
  - # 9
    frequency:    5.1939026352
  - # 10
    frequency:    5.5764709072
  - # 11
    frequency:    6.5533810357
  - # 12
    frequency:    6.8577371980
  - # 13
    frequency:    7.0040209510
  - # 14
    frequency:    7.7389228754
  - # 15
    frequency:   10.8283919215
  - # 16
    frequency:   10.8530351067
  - # 17
    frequency:   11.9646660021
  - # 18
    frequency:   14.7961308961
  - # 19
    frequency:   14.9966685688
  - # 20
    frequency:   19.2759005986
  - # 21
    frequency:   64.7265172400

- q-position: [    0.1515152,    0.0000000,    0.0000000 ]
  distance:    0.0505547
  band:
  - # 1
    frequency:    0.3477412555
  - # 2
    frequency:    0.9329020776
  - # 3
    frequency:    1.0648870659
  - # 4
    frequency:    1.7272013083
  - # 5
    frequency:    2.1337839232
  - # 6
    frequency:    2.9387565785
  - # 7
    frequency:    2.9839413349
  - # 8
    frequency:    4.3598661252
  - # 9
    frequency:    5.1929027588
  - # 10
    frequency:    5.5959963942
  - # 11
    frequency:    6.5454715094
  - # 12
    frequency:    6.8567091856
  - # 13
    frequency:    7.0099435237
  - # 14
    frequency:    7.7179570238
  - # 15
    frequency:   10.8269471226
  - # 16
    frequency:   10.8531328625
  - # 17
    frequency:   11.9660028803
  - # 18
    frequency:   14.7882360023
  - # 19
    frequency:   14.9986335631
  - # 20
    frequency:   19.2712768366
  - # 21