nqpoint: 300    
npath: 3      
segment_nqpoint:
- 100
- 100
- 100
labels:
- [ 'G', 'M' ]
- [ 'M', 'K' ]
- [ 'K', 'G' ]
reciprocal_lattice:
- [   0.27826908,   0.16065873,   0.00000000 ] # a*
- [   0.00000000,   0.32131746,   0.00000000 ] # b*
- [   0.00000000,   0.00000000,   0.03839165 ] # c*
natom: 7      
lattice:
- [     3.593643929491016,     0.000000000000000,     0.000000000000000 ] # a
- [    -1.796821964745508,     3.112186935101429,     0.000000000000000 ] # b
- [     0.000000000000000,     0.000000000000000,    26.047327704661043 ] # c
points:
- symbol: C # 1
  coordinates: [  0.333332985432215,  0.666666983183674,  0.608391068400336 ]
  mass: 12.010700
- symbol: C # 2
  coordinates: [  0.666666984744048,  0.333332985985144,  0.391608932014156 ]
  mass: 12.010700
- symbol: N # 3
  coordinates: [  0.000000000000000,  0.000000000000000,  0.500000027978158 ]
  mass: 14.006700
- symbol: N # 4
  coordinates: [  0.333332985432215,  0.666666983183674,  0.654475111533630 ]
  mass: 14.006700
- symbol: N # 5
  coordinates: [  0.666666984744048,  0.333332985985144,  0.345524888466370 ]
  mass: 14.006700
- symbol: Y # 6
  coordinates: [  0.333332985432215,  0.666666983183674,  0.449003861628493 ]
  mass: 88.905850
- symbol: Y # 7
  coordinates: [  0.666666984744048,  0.333332985985144,  0.550996138371500 ]
  mass: 88.905850

phonon:
- q-position: [    0.0000000,    0.0000000,    0.0000000 ]
  distance:    0.0000000
  band:
  - # 1
    frequency:   -3.0115377386
  - # 2
    frequency:   -3.0115377386
  - # 3
    frequency:   -2.7201521333
  - # 4
    frequency:   -2.7201521333
  - # 5
    frequency:   -0.0000114010
  - # 6
    frequency:    0.0000004988
  - # 7
    frequency:    0.0000118509
  - # 8
    frequency:    3.5903749840
  - # 9
    frequency:    3.5903749840
  - # 10
    frequency:    5.0782474773
  - # 11
    frequency:    7.3848070253
  - # 12
    frequency:    7.3848070253
  - # 13
    frequency:    7.5373464364
  - # 14
    frequency:    7.5373464364
  - # 15
    frequency:    7.5773362179
  - # 16
    frequency:    8.2638281805
  - # 17
    frequency:   10.9279031226
  - # 18
    frequency:   10.9886903285
  - # 19
    frequency:   10.9886903285
  - # 20
    frequency:   61.9591670508
  - # 21
    frequency:   61.9789794418

- q-position: [    0.0050505,    0.0000000,    0.0000000 ]
  distance:    0.0016228
  band:
  - # 1
    frequency:   -3.0114290065
  - # 2
    frequency:   -3.0110375918
  - # 3
    frequency:   -2.7203165195
  - # 4
    frequency:   -2.7201331519
  - # 5
    frequency:    0.0013695284
  - # 6
    frequency:    0.0661538506
  - # 7
    frequency:    0.0838692017
  - # 8
    frequency:    3.5903251409
  - # 9
    frequency:    3.5907888274
  - # 10
    frequency:    5.0781554259
  - # 11
    frequency:    7.3846518526
  - # 12
    frequency:    7.3851417400
  - # 13
    frequency:    7.5371429127
  - # 14
    frequency:    7.5373692830
  - # 15
    frequency:    7.5776781782
  - # 16
    frequency:    8.2632266078
  - # 17
    frequency:   10.9283012921
  - # 18
    frequency:   10.9883742917
  - # 19
    frequency:   10.9886172714
  - # 20
    frequency:   61.9590966624
  - # 21
    frequency:   61.9788807230

- q-position: [    0.0101010,    0.0000000,    0.0000000 ]
  distance:    0.0032456
  band:
  - # 1
    frequency:   -3.0111038351
  - # 2
    frequency:   -3.0095441941
  - # 3
    frequency:   -2.7208089771
  - # 4
    frequency:   -2.7200762657
  - # 5
    frequency:    0.0054733899
  - # 6
    frequency:    0.1322821845
  - # 7
    frequency:    0.1677249022
  - # 8
    frequency:    3.5901776781
  - # 9
    frequency:    3.5920294465
  - # 10
    frequency:    5.0778796820
  - # 11
    frequency:    7.3841871482
  - # 12
    frequency:    7.3861435666
  - # 13
    frequency:    7.5365534391
  - # 14
    frequency:    7.5374369115
  - # 15
    frequency:    7.5786857901
  - # 16
    frequency:    8.2614241208
  - # 17
    frequency:   10.9294927275
  - # 18
    frequency:   10.9874286088
  - # 19
    frequency:   10.9883977363
  - # 20
    frequency:   61.9588856667
  - # 21
    frequency:   61.9785848023

- q-position: [    0.0151515,    0.0000000,    0.0000000 ]
  distance:    0.0048684
  band:
  - # 1
    frequency:   -3.0105652881
  - # 2
    frequency:   -3.0070786526
  - # 3
    frequency:   -2.7216272974
  - # 4
    frequency:   -2.7199816493
  - # 5
    frequency:    0.0122977572
  - # 6
    frequency:    0.1983594599
  - # 7
    frequency:    0.2515528342
  - # 8
    frequency:    3.5899387774
  - # 9
    frequency:    3.5940941279
  - # 10
    frequency:    5.0774214683
  - # 11
    frequency:    7.3834153367
  - # 12
    frequency:    7.3878053386
  - # 13
    frequency:    7.5356348949
  - # 14
    frequency:    7.5375466092
  - # 15
    frequency:    7.5803108578
  - # 16
    frequency:    8.2584273941
  - # 17
    frequency:   10.9314676667
  - # 18
    frequency:   10.9858611216
  - # 19
    frequency:   10.9880306319
  - # 20
    frequency:   61.9585345725
  - # 21
    frequency:   61.9780923859

- q-position: [    0.0202020,    0.0000000,    0.0000000 ]
  distance:    0.0064913
  band:
  - # 1
    frequency:   -3.0098184382
  - # 2
    frequency:   -3.0036760858
  - # 3
    frequency:   -2.7227674421
  - # 4
    frequency:   -2.7198495957
  - # 5
    frequency:    0.0218195986
  - # 6
    frequency:    0.2643600893
  - # 7
    frequency:    0.3353372158
  - # 8
    frequency:    3.5896186835
  - # 9
    frequency:    3.5969784122
  - # 10
    frequency:    5.0767827950
  - # 11
    frequency:    7.3823404061
  - # 12
    frequency:    7.3901143760
  - # 13
    frequency:    7.5344654711
  - # 14
    frequency:    7.5376939290
  - # 15
    frequency:    7.5824903458
  - # 16
    frequency:    8.2542474915
  - # 17
    frequency:   10.9342076051
  - # 18
    frequency:   10.9836871909
  - # 19
    frequency:   10.9875141415
  - # 20
    frequency:   61.9580442252
  - # 21
    frequency:   61.9774046487

- q-position: [    0.0252525,    0.0000000,    0.0000000 ]
  distance:    0.0081141
  band:
  - # 1
    frequency:   -3.0088703159
  - # 2
    frequency:   -2.9993855593
  - # 3
    frequency:   -2.7242229881
  - # 4
    frequency:   -2.7196805194
  - # 5
    frequency:    0.0340068152
  - # 6
    frequency:    0.3302584160
  - # 7
    frequency:    0.4190600481
  - # 8
    frequency:    3.5892316166
  - # 9
    frequency:    3.6006761858
  - # 10
    frequency:    5.0759664185
  - # 11
    frequency:    7.3809678329
  - # 12
    frequency:    7.3930512987
  - # 13
    frequency:    7.5331312056
  - # 14
    frequency:    7.5378727936
  - # 15
    frequency:    7.5851609533
  - # 16
    frequency:    8.2488997780
  - # 17
    frequency:   10.9376798580
  - # 18
    frequency:   10.9809352169
  - # 19
    frequency:   10.9868457266
  - # 20
    frequency:   61.9574158047
  - # 21
    frequency:   61.9765232300

- q-position: [    0.0303030,    0.0000000,    0.0000000 ]
  distance:    0.0097369
  band:
  - # 1
    frequency:   -3.0077298390
  - # 2
    frequency:   -2.9942700489
  - # 3
    frequency:   -2.7259843103
  - # 4
    frequency:   -2.7194749611
  - # 5
    frequency:    0.0488183933
  - # 6
    frequency:    0.3960286921
  - # 7
    frequency:    0.5027004756
  - # 8
    frequency:    3.5887956508
  - # 9
    frequency:    3.6051798049
  - # 10
    frequency:    5.0749757858
  - # 11
    frequency:    7.3793044867
  - # 12
    frequency:    7.3965881881
  - # 13
    frequency:    7.5317189102
  - # 14
    frequency:    7.5380756319
  - # 15
    frequency:    7.5882679160
  - # 16
    frequency:    8.2424037993
  - # 17
    frequency:   10.9418223522
  - # 18
    frequency:   10.9776619599
  - # 19
    frequency:   10.9860221325
  - # 20
    frequency:   61.9566508215
  - # 21
    frequency:   61.9754502288

- q-position: [    0.0353535,    0.0000000,    0.0000000 ]
  distance:    0.0113597
  band:
  - # 1
    frequency:   -3.0064077213
  - # 2
    frequency:   -2.9884064910
  - # 3
    frequency:   -2.7280374610
  - # 4
    frequency:   -2.7192335947
  - # 5
    frequency:    0.0662046101
  - # 6
    frequency:    0.4616450583
  - # 7
    frequency:    0.5862342334
  - # 8
    frequency:    3.5883325584
  - # 9
    frequency:    3.6104802463
  - # 10
    frequency:    5.0738149635
  - # 11
    frequency:    7.3773585210
  - # 12
    frequency:    7.4006859091
  - # 13
    frequency:    7.5303156815
  - # 14
    frequency:    7.5382935390
  - # 15
    frequency:    7.5917680376
  - # 16
    frequency:    8.2347831355
  - # 17
    frequency:   10.9464933072
  - # 18
    frequency:   10.9740029969
  - # 19
    frequency:   10.9850393955
  - # 20
    frequency:   61.9557511109
  - # 21
    frequency:   61.9741881970

- q-position: [    0.0404040,    0.0000000,    0.0000000 ]
  distance:    0.0129825
  band:
  - # 1
    frequency:   -3.0049163631
  - # 2
    frequency:   -2.9818859949
  - # 3
    frequency:   -2.7303626872
  - # 4
    frequency:   -2.7189572360
  - # 5
    frequency:    0.0861072974
  - # 6
    frequency:    0.5270815248
  - # 7
    frequency:    0.6696331985
  - # 8
    frequency:    3.5878676220
  - # 9
    frequency:    3.6165672798
  - # 10
    frequency:    5.0724885553
  - # 11
    frequency:    7.3751392580
  - # 12
    frequency:    7.4052903396
  - # 13
    frequency:    7.5290129718
  - # 14
    frequency:    7.5385164501
  - # 15
    frequency:    7.5956292240
  - # 16
    frequency:    8.2260652304
  - # 17
    frequency:   10.9512595840
  - # 18
    frequency:   10.9703845314
  - # 19
    frequency:   10.9838928537
  - # 20
    frequency:   61.9547188277
  - # 21
    frequency:   61.9727401315

- q-position: [    0.0454545,    0.0000000,    0.0000000 ]
  distance:    0.0146053
  band:
  - # 1
    frequency:   -3.0032697207
  - # 2
    frequency:   -2.9748143198
  - # 3
    frequency:   -2.7329325152
  - # 4
    frequency:   -2.7186468546
  - # 5
    frequency:    0.1084601722
  - # 6
    frequency:    0.5923119550
  - # 7
    frequency:    0.7528650670
  - # 8
    frequency:    3.5874294133
  - # 9
    frequency:    3.6234296561
  - # 10
    frequency:    5.0710016080
  - # 11
    frequency:    7.3726570739
  - # 12
    frequency:    7.4103272399
  - # 13
    frequency:    7.5279134056
  - # 14
    frequency:    7.5387333213
  - # 15
    frequency:    7.5998286057
  - # 16
    frequency:    8.2162812040
  - # 17
    frequency:   10.9544321332
  - # 18
    frequency:   10.9684881222
  - # 19
    frequency:   10.9825771611
  - # 20
    frequency:   61.9535564385
  - # 21
    frequency:   61.9711094644

- q-position: [    0.0505051,    0.0000000,    0.0000000 ]
  distance:    0.0162282
  band:
  - # 1
    frequency:   -3.0014831591
  - # 2
    frequency:   -2.9673127288
  - # 3
    frequency:   -2.7357093211
  - # 4
    frequency:   -2.7183035889
  - # 5
    frequency:    0.1331892395
  - # 6
    frequency:    0.6573100519
  - # 7
    frequency:    0.8358931713
  - # 8
    frequency:    3.5870495426
  - # 9
    frequency:    3.6310553034
  - # 10
    frequency:    5.0693595085
  - # 11
    frequency:    7.3699232908
  - # 12
    frequency:    7.4156956310
  - # 13
    frequency:    7.5271392730
  - # 14
    frequency:    7.5389323086
  - # 15
    frequency:    7.6043504515
  - # 16
    frequency:    8.2054656525
  - # 17
    frequency:   10.9528677593
  - # 18
    frequency:   10.9714491050
  - # 19
    frequency:   10.9810863055
  - # 20
    frequency:   61.9522667137
  - # 21
    frequency:   61.9693000529

- q-position: [    0.0555556,    0.0000000,    0.0000000 ]
  distance:    0.0178510
  band:
  - # 1
    frequency:   -2.9995732856
  - # 2
    frequency:   -2.9595193349
  - # 3
    frequency:   -2.7386423141
  - # 4
    frequency:   -2.7179287648
  - # 5
    frequency:    0.1602132723
  - # 6
    frequency:    0.7220493473
  - # 7
    frequency:    0.9186764498
  - # 8
    frequency:    3.5867623776
  - # 9
    frequency:    3.6394315254
  - # 10
    frequency:    5.0675678746
  - # 11
    frequency:    7.3669500778
  - # 12
    frequency:    7.4212600854
  - # 13
    frequency:    7.5268417872
  - # 14
    frequency:    7.5391009409
  - # 15
    frequency:    7.6091843803
  - # 16
    frequency:    8.1936564414
  - # 17
    frequency:   10.9478522799
  - # 18
    frequency:   10.9779736290
  - # 19
    frequency:   10.9794136310
  - # 20
    frequency:   61.9508527181
  - # 21
    frequency:   61.9673161663

- q-position: [    0.0606061,    0.0000000,    0.0000000 ]
  distance:    0.0194738
  band:
  - # 1
    frequency:   -2.9975577674
  - # 2
    frequency:   -2.9515910052
  - # 3
    frequency:   -2.7416639108
  - # 4
    frequency:   -2.7175239187
  - # 5
    frequency:    0.1894443752
  - # 6
    frequency:    0.7865031963
  - # 7
    frequency:    1.0011695749
  - # 8
    frequency:    3.5866047353
  - # 9
    frequency:    3.6485451955
  - # 10
    frequency:    5.0656324419
  - # 11
    frequency:    7.3637503635
  - # 12
    frequency:    7.4268437232
  - # 13
    frequency:    7.5272091771
  - # 14
    frequency:    7.5392262827
  - # 15
    frequency:    7.6143240126
  - # 16
    frequency:    8.1808944969
  - # 17
    frequency:   10.9414380907
  - # 18
    frequency:   10.9775518670
  - # 19
    frequency:   10.9860012871
  - # 20
    frequency:   61.9493178005
  - # 21
    frequency:   61.9651624732

- q-position: [    0.0656566,    0.0000000,    0.0000000 ]
  distance:    0.0210966
  band:
  - # 1
    frequency:   -2.9954551337
  - # 2
    frequency:   -2.9437057448
  - # 3
    frequency:   -2.7446856296
  - # 4
    frequency:   -2.7170908254
  - # 5
    frequency:    0.2207886308
  - # 6
    frequency:    0.8506447755
  - # 7
    frequency:    1.0833232406
  - # 8
    frequency:    3.5866155476
  - # 9
    frequency:    3.6583829387
  - # 10
    frequency:    5.0635589484
  - # 11
    frequency:    7.3603377605
  - # 12
    frequency:    7.4322263896
  - # 13
    frequency:    7.5284691569
  - # 14
    frequency:    7.5392950841
  - # 15
    frequency:    7.6197660413
  - # 16
    frequency:    8.1672236027
  - # 17
    frequency:   10.9342212332
  - # 18
    frequency:   10.9754931620
  - # 19
    frequency:   10.9949282426
  - # 20
    frequency:   61.9476655831
  - # 21
    frequency:   61.9628440265

- q-position: [    0.0707071,    0.0000000,    0.0000000 ]
  distance:    0.0227194
  band:
  - # 1
    frequency:   -2.9932845642
  - # 2
    frequency:   -2.9360651503
  - # 3
    frequency:   -2.7475939668
  - # 4
    frequency:   -2.7166315299
  - # 5
    frequency:    0.2541468299
  - # 6
    frequency:    0.9144470881
  - # 7
    frequency:    1.1650846020
  - # 8
    frequency:    3.5868355032
  - # 9
    frequency:    3.6689312985
  - # 10
    frequency:    5.0613530224
  - # 11
    frequency:    7.3567265001
  - # 12
    frequency:    7.4371558380
  - # 13
    frequency:    7.5308780096
  - # 14
    frequency:    7.5392939182
  - # 15
    frequency:    7.6255096645
  - # 16
    frequency:    8.1526902054
  - # 17
    frequency:   10.9263898492
  - # 18
    frequency:   10.9732291253
  - # 19
    frequency:   11.0045589628
  - # 20
    frequency:   61.9458999486
  - # 21
    frequency:   61.9603662476

- q-position: [    0.0757576,    0.0000000,    0.0000000 ]
  distance:    0.0243422
  band:
  - # 1
    frequency:   -2.9910656657
  - # 2
    frequency:   -2.9288958763
  - # 3
    frequency:   -2.7502473579
  - # 4
    frequency:   -2.7161483847
  - # 5
    frequency:    0.2894152780
  - # 6
    frequency:    0.9778829747
  - # 7
    frequency:    1.2463978524
  - # 8
    frequency:    3.5873066691
  - # 9
    frequency:    3.6801768812
  - # 10
    frequency:    5.0590200732
  - # 11
    frequency:    7.3529313758
  - # 12
    frequency:    7.4413798213
  - # 13
    frequency:    7.5346884384
  - # 14
    frequency:    7.5392093045
  - # 15
    frequency:    7.6315563189
  - # 16
    frequency:    8.1373432365
  - # 17
    frequency:   10.9180301334
  - # 18
    frequency:   10.9707508751
  - # 19
    frequency:   11.0148004457
  - # 20
    frequency:   61.9440250280
  - # 21
    frequency:   61.9577349093

- q-position: [    0.0808081,    0.0000000,    0.0000000 ]
  distance:    0.0259650
  band:
  - # 1
    frequency:   -2.9888182406
  - # 2
    frequency:   -2.9224480367
  - # 3
    frequency:   -2.7524763537
  - # 4
    frequency:   -2.7156440910
  - # 5
    frequency:    0.3264866710
  - # 6
    frequency:    1.0409251312
  - # 7
    frequency:    1.3272049183
  - # 8
    frequency:    3.5880720924
  - # 9
    frequency:    3.6921064751
  - # 10
    frequency:    5.0565651914
  - # 11
    frequency:    7.3489676918
  - # 12
    frequency:    7.4446968492
  - # 13
    frequency:    7.5390278211
  - # 14
    frequency:    7.5400984670
  - # 15
    frequency:    7.6379096775
  - # 16
    frequency:    8.1212339574
  - # 17
    frequency:   10.9091965089
  - # 18
    frequency:   10.9680490946
  - # 19
    frequency:   11.0255922108
  - # 20
    frequency:   61.9420451861
  - # 21
    frequency:   61.9549561177

- q-position: [    0.0858586,    0.0000000,    0.0000000 ]
  distance:    0.0275879
  band:
  - # 1
    frequency:   -2.9865620488
  - # 2
    frequency:   -2.9169872835
  - # 3
    frequency:   -2.7540903022
  - # 4
    frequency:   -2.7151217442
  - # 5
    frequency:    0.3652510259
  - # 6
    frequency:    1.1035461350
  - # 7
    frequency:    1.4074462444
  - # 8
    frequency:    3.5891753881
  - # 9
    frequency:    3.7047071419
  - # 10
    frequency:    5.0539930587
  - # 11
    frequency:    7.3448512150
  - # 12
    frequency:    7.4470039118
  - # 13
    frequency:    7.5387362049
  - # 14
    frequency:    7.5472030862
  - # 15
    frequency:    7.6445759041
  - # 16
    frequency:    8.1044158352
  - # 17
    frequency:   10.8999319531
  - # 18
    frequency:   10.9651140966
  - # 19
    frequency:   11.0368861276
  - # 20
    frequency:   61.9399650076
  - # 21
    frequency:   61.9520362929

- q-position: [    0.0909091,    0.0000000,    0.0000000 ]
  distance:    0.0292107
  band:
  - # 1
    frequency:   -2.9843165677
  - # 2
    frequency:   -2.9127769668
  - # 3
    frequency:   -2.7548941683
  - # 4
    frequency:   -2.7145848809
  - # 5
    frequency:    0.4055966488
  - # 6
    frequency:    1.1657184794
  - # 7
    frequency:    1.4870616400
  - # 8
    frequency:    3.5906603134
  - # 9
    frequency:    3.7179662767
  - # 10
    frequency:    5.0513078722
  - # 11
    frequency:    7.3405981274
  - # 12
    frequency:    7.4483116028
  - # 13
    frequency:    7.5383214432
  - # 14
    frequency:    7.5559781807
  - # 15
    frequency:    7.6515641939
  - # 16
    frequency:    8.0869444633
  - # 17
    frequency:   10.8902752003
  - # 18
    frequency:   10.9619358951
  - # 19
    frequency:   11.0486393510
  - # 20
    frequency:   61.9377892813
  - # 21
    frequency:   61.9489821491

- q-position: [    0.0959596,    0.0000000,    0.0000000 ]
  distance:    0.0308335
  band:
  - # 1
    frequency:   -2.9821007533
  - # 2
    frequency:   -2.9100491568
  - # 3
    frequency:   -2.7547167247
  - # 4
    frequency:   -2.7140375281
  - # 5
    frequency:    0.4474111205
  - # 6
    frequency:    1.2274146174
  - # 7
    frequency:    1.5659911513
  - # 8
    frequency:    3.5925703342
  - # 9
    frequency:    3.7318716383
  - # 10
    frequency:    5.0485132853
  - # 11
    frequency:    7.3362249762
  - # 12
    frequency:    7.4487186293
  - # 13
    frequency:    7.5377708553
  - # 14
    frequency:    7.5663046480
  - # 15
    frequency:    7.6588876798
  - # 16
    frequency:    8.0688775433
  - # 17
    frequency:   10.8802636993
  - # 18
    frequency:   10.9585042864
  - # 19
    frequency:   11.0608114861
  - # 20
    frequency:   61.9355229840
  - # 21
    frequency:   61.9458006736

- q-position: [    0.1010101,    0.0000000,    0.0000000 ]
  distance:    0.0324563
  band:
  - # 1
    frequency:   -2.9799328077
  - # 2
    frequency:   -2.9089696882
  - # 3
    frequency:   -2.7534449660
  - # 4
    frequency:   -2.7134842510
  - # 5
    frequency:    0.4905822776
  - # 6
    frequency:    1.2886070141
  - # 7
    frequency:    1.6441759285
  - # 8
    frequency:    3.5949481867
  - # 9
    frequency:    3.7464113468
  - # 10
    frequency:    5.0456123678
  - # 11
    frequency:    7.3317486192
  - # 12
    frequency:    7.4483669407
  - # 13
    frequency:    7.5370721684
  - # 14
    frequency:    7.5780113014
  - # 15
    frequency:    7.6665648592
  - # 16
    frequency:    8.0502749568
  - # 17
    frequency:   10.8699349616
  - # 18
    frequency:   10.9548089367
  - # 19
    frequency:   11.0733633461
  - # 20
    frequency:   61.9331712641
  - # 21
    frequency:   61.9424991050

- q-position: [    0.1060606,    0.0000000,    0.0000000 ]
  distance:    0.0340791
  band:
  - # 1
    frequency:   -2.9778299566
  - # 2
    frequency:   -2.9096099037
  - # 3
    frequency:   -2.7510520619
  - # 4
    frequency:   -2.7129301977
  - # 5
    frequency:    0.5349991635
  - # 6
    frequency:    1.3492682091
  - # 7
    frequency:    1.7215590559
  - # 8
    frequency:    3.5978354376
  - # 9
    frequency:    3.7615738529
  - # 10
    frequency:    5.0426075875
  - # 11
    frequency:    7.3271861660
  - # 12
    frequency:    7.4474032946
  - # 13
    frequency:    7.5362135857
  - # 14
    frequency:    7.5909104268
  - # 15
    frequency:    7.6746218061
  - # 16
    frequency:    8.0311989749
  - # 17
    frequency:   10.8593272202
  - # 18
    frequency:   10.9508394787
  - # 19
    frequency:   11.0862563832
  - # 20
    frequency:   61.9307394239
  - # 21
    frequency:   61.9390849110

- q-position: [    0.1111111,    0.0000000,    0.0000000 ]
  distance:    0.0357019
  band:
  - # 1
    frequency:   -2.9758082425
  - # 2
    frequency:   -2.9119388058
  - # 3
    frequency:   -2.7476051266
  - # 4
    frequency:   -2.7123811383
  - # 5
    frequency:    0.5805529281
  - # 6
    frequency:    1.4093708892
  - # 7
    frequency:    1.7980863153
  - # 8
    frequency:    3.6012720482
  - # 9
    frequency:    3.7773478787
  - # 10
    frequency:    5.0395008148
  - # 11
    frequency:    7.3225549113
  - # 12
    frequency:    7.4459576440
  - # 13
    frequency:    7.5351838486
  - # 14
    frequency:    7.6048151008
  - # 15
    frequency:    7.6830956017
  - # 16
    frequency:    8.0117146805
  - # 17
    frequency:   10.8484797596
  - # 18
    frequency:   10.9465856141
  - # 19
    frequency:   11.0994524315
  - # 20
    frequency:   61.9282329010
  - # 21
    frequency:   61.9355657664

- q-position: [    0.1161616,    0.0000000,    0.0000000 ]
  distance:    0.0373248
  band:
  - # 1
    frequency:   -2.9738823373
  - # 2
    frequency:   -2.9158395704
  - # 3
    frequency:   -2.7432488265
  - # 4
    frequency:   -2.7118434956
  - # 5
    frequency:    0.6271376528
  - # 6
    frequency:    1.4688879695
  - # 7
    frequency:    1.8737068603
  - # 8
    frequency:    3.6052959452
  - # 9
    frequency:    3.7937223332
  - # 10
    frequency:    5.0362933519
  - # 11
    frequency:    7.3178722619
  - # 12
    frequency:    7.4441355524
  - # 13
    frequency:    7.5339722945
  - # 14
    frequency:    7.6195402688
  - # 15
    frequency:    7.6920396421
  - # 16
    frequency:    7.9918907433
  - # 17
    frequency:   10.8374330758
  - # 18
    frequency:   10.9420372229
  - # 19
    frequency:   11.1129136039
  - # 20
    frequency:   61.9256572487
  - # 21
    frequency:   61.9319495301

- q-position: [    0.1212121,    0.0000000,    0.0000000 ]
  distance:    0.0389476
  band:
  - # 1
    frequency:   -2.9720653786
  - # 2
    frequency:   -2.9211412211
  - # 3
    frequency:   -2.7381739958
  - # 4
    frequency:   -2.7113243654
  - # 5
    frequency:    0.6746510832
  - # 6
    frequency:    1.5277926848
  - # 7
    frequency:    1.9483737833
  - # 8
    frequency:    3.6099426035
  - # 9
    frequency:    3.8106862080
  - # 10
    frequency:    5.0329859867
  - # 11
    frequency:    7.3131556577
  - # 12
    frequency:    7.4420183196
  - # 13
    frequency:    7.5325689073
  - # 14
    frequency:    7.6348927998
  - # 15
    frequency:    7.7015316751
  - # 16
    frequency:    7.9718007953
  - # 17
    frequency:   10.8262289382
  - # 18
    frequency:   10.9371844788
  - # 19
    frequency:   11.1266022718
  - # 20
    frequency:   61.9230181139
  - # 21
    frequency:   61.9282442256

- q-position: [    0.1262626,    0.0000000,    0.0000000 ]
  distance:    0.0405704
  band:
  - # 1
    frequency:   -2.9703688348
  - # 2
    frequency:   -2.9276511864
  - # 3
    frequency:   -2.7325855021
  - # 4
    frequency:   -2.7108315225
  - # 5
    frequency:    0.7229952525
  - # 6
    frequency:    1.5860586891
  - # 7
    frequency:    2.0220445606
  - # 8
    frequency:    3.6152446454
  - # 9
    frequency:    3.8282284552
  - # 10
    frequency:    5.0295790711
  - # 11
    frequency:    7.3084224844
  - # 12
    frequency:    7.4396660998
  - # 13
    frequency:    7.5309643647
  - # 14
    frequency:    7.6506541810
  - # 15
    frequency:    7.7116851497
  - # 16
    frequency:    7.9515258836
  - # 17
    frequency:   10.8149103915
  - # 18
    frequency:   10.9320179675
  - # 19
    frequency:   11.1404810893
  - # 20
    frequency:   61.9203212073
  - # 21
    frequency:   61.9244580262

- q-position: [    0.1313131,    0.0000000,    0.0000000 ]
  distance:    0.0421932
  band:
  - # 1
    frequency:   -2.9688024001
  - # 2
    frequency:   -2.9351792301
  - # 3
    frequency:   -2.7266788344
  - # 4
    frequency:   -2.7103734126
  - # 5
    frequency:    0.7720769870
  - # 6
    frequency:    1.6436601635
  - # 7
    frequency:    2.0946813704
  - # 8
    frequency:    3.6212314592
  - # 9
    frequency:    3.8463378535
  - # 10
    frequency:    5.0260726238
  - # 11
    frequency:    7.3036899831
  - # 12
    frequency:    7.4371215666
  - # 13
    frequency:    7.5291500781
  - # 14
    frequency:    7.6665588661
  - # 15
    frequency:    7.7226623467
  - # 16
    frequency:    7.9311589608
  - # 17
    frequency:   10.8035217145
  - # 18
    frequency:   10.9265288098
  - # 19
    frequency:   11.1545130454
  - # 20
    frequency:   61.9175722504
  - # 21
    frequency:   61.9205992649

- q-position: [    0.1363636,    0.0000000,    0.0000000 ]
  distance:    0.0438160
  band:
  - # 1
    frequency:   -2.9673739236
  - # 2
    frequency:   -2.9435507117
  - # 3
    frequency:   -2.7206274186
  - # 4
    frequency:   -2.7099591263
  - # 5
    frequency:    0.8218082858
  - # 6
    frequency:    1.7005719308
  - # 7
    frequency:    2.1662512806
  - # 8
    frequency:    3.6279288433
  - # 9
    frequency:    3.8650028674
  - # 10
    frequency:    5.0224664540
  - # 11
    frequency:    7.2989751540
  - # 12
    frequency:    7.4344131640
  - # 13
    frequency:    7.5271182281
  - # 14
    frequency:    7.6822756399
  - # 15
    frequency:    7.7346808305
  - # 16
    frequency:    7.9108134785
  - # 17
    frequency:   10.7921083492
  - # 18
    frequency:   10.9207087858
  - # 19
    frequency:   11.1686615336
  - # 20
    frequency:   61.9147767961
  - # 21
    frequency:   61.9166765688

- q-position: [    0.1414141,    0.0000000,    0.0000000 ]
  distance:    0.0454388
  band:
  - # 1
    frequency:   -2.9660893713
  - # 2
    frequency:   -2.9526116187
  - # 3
    frequency:   -2.7145781855
  - # 4
    frequency:   -2.7095983568
  - # 5
    frequency:    0.8721065744
  - # 6
    frequency:    1.7567695761
  - # 7
    frequency:    2.2367263084
  - # 8
    frequency:    3.6353586780
  - # 9
    frequency:    3.8842115053
  - # 10
    frequency:    5.0187603059
  - # 11
    frequency:    7.2942946582
  - # 12
    frequency:    7.4315577061
  - # 13
    frequency:    7.5248617944
  - # 14
    frequency:    7.6974090424
  - # 15
    frequency:    7.7479916297
  - # 16
    frequency:    7.8906408680
  - # 17
    frequency:   10.7807168024
  - # 18
    frequency:   10.9145504599
  - # 19
    frequency:   11.1828904334
  - # 20
    frequency:   61.9119385958
  - # 21
    frequency:   61.9127004482

- q-position: [    0.1464646,    0.0000000,    0.0000000 ]
  distance:    0.0470616
  band:
  - # 1
    frequency:   -2.9649528234
  - # 2
    frequency:   -2.9622287650
  - # 3
    frequency:   -2.7093013395
  - # 4
    frequency:   -2.7086519658
  - # 5
    frequency:    0.9228948351
  - # 6
    frequency:    1.8122295709
  - # 7
    frequency:    2.3060833590
  - # 8
    frequency:    3.6435386300
  - # 9
    frequency:    3.9039511805
  - # 10
    frequency:    5.0149540187
  - # 11
    frequency:    7.2896647178
  - # 12
    frequency:    7.4285623728
  - # 13
    frequency:    7.5223745786
  - # 14
    frequency:    7.7115340482
  - # 15
    frequency:    7.7628037102
  - # 16
    frequency:    7.8708691084
  - # 17
    frequency:   10.7693945269
  - # 18
    frequency:   10.9080473047
  - # 19
    frequency:   11.1971642008
  - # 20
    frequency:   61.9086571853
  - # 21
    frequency:   61.9090856653

- q-position: [    0.1515152,    0.0000000,    0.0000000 ]
  distance:    0.0486845
  band:
  - # 1
    frequency:   -2.9722877752
  - # 2
    frequency:   -2.9639665034
  - # 3
    frequency:   -2.7090787758
  - # 4
    frequency:   -2.7029460679
  - # 5
    frequency:    0.9741016209
  - # 6
    frequency:    1.8669294005
  - # 7
    frequency:    2.3743040515
  - # 8
    frequency:    3.6524818935
  - # 9
    frequency:    3.9242085807
  - # 10
    frequency:    5.0110477002
  - # 11
    frequency:    7.2851010176
  - # 12
    frequency:    7.4254262342
  - # 13
    frequency:    7.5196512216
  - # 14
    frequency:    7.7242141321
  - # 15
    frequency:    7.7791691845
  - # 16
    frequency:    7.8518976736
  - # 17
    frequency:   10.7581897824
  - # 18
    frequency:   10.9011938227
  - # 19
    frequency:   11.2114479667
  - # 20
    frequency:   61.9045984408
  - # 21
    frequency:   61.9061806347
