nqpoint: 300    
npath: 3      
segment_nqpoint:
- 100
- 100
- 100
labels:
- [ 'G', 'M' ]
- [ 'M', 'K' ]
- [ 'K', 'G' ]
reciprocal_lattice:
- [   0.30358143,   0.17527282,   0.00000000 ] # a*
- [   0.00000000,   0.35054564,   0.00000000 ] # b*
- [   0.00000000,   0.00000000,   0.03331173 ] # c*
natom: 7      
lattice:
- [     3.294009132775385,     0.000000000000000,     0.000000000000000 ] # a
- [    -1.647004566387693,     2.852695589280769,     0.000000000000000 ] # b
- [     0.000000000000000,     0.000000000000000,    30.019459870789465 ] # c
points:
- symbol: C # 1
  coordinates: [  0.000000000000000,  0.000000000000000,  0.500000028679461 ]
  mass: 12.010700
- symbol: Cl # 2
  coordinates: [  0.333332985432215,  0.666666983183674,  0.700194472560864 ]
  mass: 35.453000
- symbol: Cl # 3
  coordinates: [  0.666666984744047,  0.333332985985145,  0.299805527439136 ]
  mass: 35.453000
- symbol: O # 4
  coordinates: [  0.333332985432215,  0.666666983183674,  0.577788014678335 ]
  mass: 15.999400
- symbol: O # 5
  coordinates: [  0.666666984744047,  0.333332985985145,  0.422211985321673 ]
  mass: 15.999400
- symbol: Zr # 6
  coordinates: [  0.333332985432215,  0.666666983183674,  0.452415438625888 ]
  mass: 91.224000
- symbol: Zr # 7
  coordinates: [  0.666666984744047,  0.333332985985145,  0.547584560946060 ]
  mass: 91.224000

phonon:
- q-position: [    0.0000000,    0.0000000,    0.0000000 ]
  distance:    0.0000000
  band:
  - # 1
    frequency:   -0.3846710785
  - # 2
    frequency:   -0.3846710785
  - # 3
    frequency:   -0.3240225937
  - # 4
    frequency:   -0.3240225937
  - # 5
    frequency:   -0.0000004856
  - # 6
    frequency:    0.0000001909
  - # 7
    frequency:    0.0000004534
  - # 8
    frequency:    0.6288609375
  - # 9
    frequency:    0.8999652454
  - # 10
    frequency:    3.1406978076
  - # 11
    frequency:    3.1406978076
  - # 12
    frequency:    6.4219927712
  - # 13
    frequency:    9.5078958495
  - # 14
    frequency:    9.5078958495
  - # 15
    frequency:   12.6654131993
  - # 16
    frequency:   12.6654131993
  - # 17
    frequency:   14.4041154522
  - # 18
    frequency:   14.4157079709
  - # 19
    frequency:   14.5109461383
  - # 20
    frequency:   14.5109461383
  - # 21
    frequency:   20.0551873561

- q-position: [    0.0050505,    0.0000000,    0.0000000 ]
  distance:    0.0017704
  band:
  - # 1
    frequency:   -0.4028208795
  - # 2
    frequency:   -0.3926962940
  - # 3
    frequency:   -0.3575608176
  - # 4
    frequency:   -0.3391746700
  - # 5
    frequency:    0.0306500087
  - # 6
    frequency:    0.0594771704
  - # 7
    frequency:    0.1085346296
  - # 8
    frequency:    0.6301868380
  - # 9
    frequency:    0.9003783588
  - # 10
    frequency:    3.1412030116
  - # 11
    frequency:    3.1430499400
  - # 12
    frequency:    6.4208673470
  - # 13
    frequency:    9.5080179825
  - # 14
    frequency:    9.5168724138
  - # 15
    frequency:   12.6632442677
  - # 16
    frequency:   12.6649574987
  - # 17
    frequency:   14.4044448408
  - # 18
    frequency:   14.4122910124
  - # 19
    frequency:   14.5111858815
  - # 20
    frequency:   14.5142716188
  - # 21
    frequency:   20.0549919396

- q-position: [    0.0101010,    0.0000000,    0.0000000 ]
  distance:    0.0035409
  band:
  - # 1
    frequency:   -0.4667753069
  - # 2
    frequency:   -0.4424553969
  - # 3
    frequency:   -0.4196100323
  - # 4
    frequency:   -0.3809480038
  - # 5
    frequency:    0.0574335129
  - # 6
    frequency:    0.1315677353
  - # 7
    frequency:    0.2447673063
  - # 8
    frequency:    0.6341292037
  - # 9
    frequency:    0.9016191181
  - # 10
    frequency:    3.1427190752
  - # 11
    frequency:    3.1500907926
  - # 12
    frequency:    6.4175233339
  - # 13
    frequency:    9.5083859446
  - # 14
    frequency:    9.5436984762
  - # 15
    frequency:   12.6567568195
  - # 16
    frequency:   12.6635927017
  - # 17
    frequency:   14.4030693396
  - # 18
    frequency:   14.4054990591
  - # 19
    frequency:   14.5119033668
  - # 20
    frequency:   14.5231405895
  - # 21
    frequency:   20.0544047872

- q-position: [    0.0151515,    0.0000000,    0.0000000 ]
  distance:    0.0053113
  band:
  - # 1
    frequency:   -0.5686255616
  - # 2
    frequency:   -0.5549092623
  - # 3
    frequency:   -0.4673327820
  - # 4
    frequency:   -0.4416519274
  - # 5
    frequency:    0.0824226025
  - # 6
    frequency:    0.2149703389
  - # 7
    frequency:    0.3910399569
  - # 8
    frequency:    0.6407618456
  - # 9
    frequency:    0.9036970070
  - # 10
    frequency:    3.1452473302
  - # 11
    frequency:    3.1617742290
  - # 12
    frequency:    6.4120539298
  - # 13
    frequency:    9.5090044212
  - # 14
    frequency:    9.5880685464
  - # 15
    frequency:   12.6460081618
  - # 16
    frequency:   12.6613256954
  - # 17
    frequency:   14.3902386344
  - # 18
    frequency:   14.4070685762
  - # 19
    frequency:   14.5130933845
  - # 20
    frequency:   14.5355310387
  - # 21
    frequency:   20.0534232031

- q-position: [    0.0202020,    0.0000000,    0.0000000 ]
  distance:    0.0070817
  band:
  - # 1
    frequency:   -0.6899746820
  - # 2
    frequency:   -0.6809655423
  - # 3
    frequency:   -0.5316387689
  - # 4
    frequency:   -0.5143664114
  - # 5
    frequency:    0.1077373234
  - # 6
    frequency:    0.3029959902
  - # 7
    frequency:    0.5354228908
  - # 8
    frequency:    0.6514377406
  - # 9
    frequency:    0.9066391103
  - # 10
    frequency:    3.1487899220
  - # 11
    frequency:    3.1780249770
  - # 12
    frequency:    6.4046033072
  - # 13
    frequency:    9.5098812088
  - # 14
    frequency:    9.6494905738
  - # 15
    frequency:   12.6310914450
  - # 16
    frequency:   12.6581678694
  - # 17
    frequency:   14.3751442360
  - # 18
    frequency:   14.4092411061
  - # 19
    frequency:   14.5147473284
  - # 20
    frequency:   14.5499526940
  - # 21
    frequency:   20.0520427338

- q-position: [    0.0252525,    0.0000000,    0.0000000 ]
  distance:    0.0088522
  band:
  - # 1
    frequency:   -0.8206051153
  - # 2
    frequency:   -0.8138835203
  - # 3
    frequency:   -0.6066468922
  - # 4
    frequency:   -0.5944071431
  - # 5
    frequency:    0.1342974748
  - # 6
    frequency:    0.3918022128
  - # 7
    frequency:    0.6432480292
  - # 8
    frequency:    0.6991266179
  - # 9
    frequency:    0.9104946110
  - # 10
    frequency:    3.1533496986
  - # 11
    frequency:    3.1987409443
  - # 12
    frequency:    6.3953523297
  - # 13
    frequency:    9.5110271947
  - # 14
    frequency:    9.7273087127
  - # 15
    frequency:   12.6121323944
  - # 16
    frequency:   12.6541349853
  - # 17
    frequency:   14.3586551233
  - # 18
    frequency:   14.4119067336
  - # 19
    frequency:   14.5168533083
  - # 20
    frequency:   14.5655714830
  - # 21
    frequency:   20.0502572272

- q-position: [    0.0303030,    0.0000000,    0.0000000 ]
  distance:    0.0106226
  band:
  - # 1
    frequency:   -0.9557739040
  - # 2
    frequency:   -0.9502969706
  - # 3
    frequency:   -0.6880766178
  - # 4
    frequency:   -0.6788743336
  - # 5
    frequency:    0.1625010003
  - # 6
    frequency:    0.4800895725
  - # 7
    frequency:    0.6646796446
  - # 8
    frequency:    0.8336860433
  - # 9
    frequency:    0.9153366747
  - # 10
    frequency:    3.1589300600
  - # 11
    frequency:    3.2237962369
  - # 12
    frequency:    6.3845026198
  - # 13
    frequency:    9.5124563292
  - # 14
    frequency:    9.8207303111
  - # 15
    frequency:   12.5892852274
  - # 16
    frequency:   12.6492469987
  - # 17
    frequency:   14.3412135906
  - # 18
    frequency:   14.4149770045
  - # 19
    frequency:   14.5193963018
  - # 20
    frequency:   14.5819453168
  - # 21
    frequency:   20.0480589140

- q-position: [    0.0353535,    0.0000000,    0.0000000 ]
  distance:    0.0123930
  band:
  - # 1
    frequency:   -1.0930944726
  - # 2
    frequency:   -1.0883653046
  - # 3
    frequency:   -0.7732853743
  - # 4
    frequency:   -0.7659763731
  - # 5
    frequency:    0.1925616732
  - # 6
    frequency:    0.5675443382
  - # 7
    frequency:    0.6797343226
  - # 8
    frequency:    0.9211769773
  - # 9
    frequency:    0.9753357374
  - # 10
    frequency:    3.1655347703
  - # 11
    frequency:    3.2530446928
  - # 12
    frequency:    6.3722614909
  - # 13
    frequency:    9.5141855868
  - # 14
    frequency:    9.9288538908
  - # 15
    frequency:   12.5627281525
  - # 16
    frequency:   12.6435278396
  - # 17
    frequency:   14.3230597547
  - # 18
    frequency:   14.4183564163
  - # 19
    frequency:   14.5223583427
  - # 20
    frequency:   14.5988332768
  - # 21
    frequency:   20.0454385091

- q-position: [    0.0404040,    0.0000000,    0.0000000 ]
  distance:    0.0141635
  band:
  - # 1
    frequency:   -1.2312189089
  - # 2
    frequency:   -1.2269784924
  - # 3
    frequency:   -0.8606555278
  - # 4
    frequency:   -0.8545677363
  - # 5
    frequency:    0.2246135522
  - # 6
    frequency:    0.6541421068
  - # 7
    frequency:    0.6956270031
  - # 8
    frequency:    0.9282138336
  - # 9
    frequency:    1.1168418091
  - # 10
    frequency:    3.1731677370
  - # 11
    frequency:    3.2863237244
  - # 12
    frequency:    6.3588295402
  - # 13
    frequency:    9.5162349173
  - # 14
    frequency:   10.0506955042
  - # 15
    frequency:   12.5326588418
  - # 16
    frequency:   12.6370051567
  - # 17
    frequency:   14.3043328020
  - # 18
    frequency:   14.4219459747
  - # 19
    frequency:   14.5257187383
  - # 20
    frequency:   14.6160963223
  - # 21
    frequency:   20.0423853331

- q-position: [    0.0454545,    0.0000000,    0.0000000 ]
  distance:    0.0159339
  band:
  - # 1
    frequency:   -1.3692995972
  - # 2
    frequency:   -1.3654029604
  - # 3
    frequency:   -0.9491551455
  - # 4
    frequency:   -0.9438802670
  - # 5
    frequency:    0.2587407677
  - # 6
    frequency:    0.7129018429
  - # 7
    frequency:    0.7399235018
  - # 8
    frequency:    0.9364418533
  - # 9
    frequency:    1.2577696488
  - # 10
    frequency:    3.1818327632
  - # 11
    frequency:    3.3234582703
  - # 12
    frequency:    6.3443917836
  - # 13
    frequency:    9.5186271845
  - # 14
    frequency:   10.1852117329
  - # 15
    frequency:   12.4992902435
  - # 16
    frequency:   12.6297100308
  - # 17
    frequency:   14.2851215886
  - # 18
    frequency:   14.4256471517
  - # 19
    frequency:   14.5294543107
  - # 20
    frequency:   14.6336483318
  - # 21
    frequency:   20.0388874494

- q-position: [    0.0505051,    0.0000000,    0.0000000 ]
  distance:    0.0177043
  band:
  - # 1
    frequency:   -1.5067518282
  - # 2
    frequency:   -1.5031132671
  - # 3
    frequency:   -1.0380894655
  - # 4
    frequency:   -1.0333718927
  - # 5
    frequency:    0.2949869066
  - # 6
    frequency:    0.7316223006
  - # 7
    frequency:    0.8249304891
  - # 8
    frequency:    0.9459416717
  - # 9
    frequency:    1.3980230338
  - # 10
    frequency:    3.1915332771
  - # 11
    frequency:    3.3642646780
  - # 12
    frequency:    6.3291123956
  - # 13
    frequency:    9.5213880907
  - # 14
    frequency:   10.3313183889
  - # 15
    frequency:   12.4628470569
  - # 16
    frequency:   12.6216766666
  - # 17
    frequency:   14.2654911484
  - # 18
    frequency:   14.4293652544
  - # 19
    frequency:   14.5335396569
  - # 20
    frequency:   14.6514317979
  - # 21
    frequency:   20.0349318178

- q-position: [    0.0555556,    0.0000000,    0.0000000 ]
  distance:    0.0194748
  band:
  - # 1
    frequency:   -1.6431399517
  - # 2
    frequency:   -1.6397066308
  - # 3
    frequency:   -1.1269647226
  - # 4
    frequency:   -1.1226406265
  - # 5
    frequency:    0.3333595602
  - # 6
    frequency:    0.7517522899
  - # 7
    frequency:    0.9091914734
  - # 8
    frequency:    0.9567707459
  - # 9
    frequency:    1.5375885748
  - # 10
    frequency:    3.2022720474
  - # 11
    frequency:    3.4085543719
  - # 12
    frequency:    6.3131325605
  - # 13
    frequency:    9.5245460870
  - # 14
    frequency:   10.4879044923
  - # 15
    frequency:   12.4235632048
  - # 16
    frequency:   12.6129420670
  - # 17
    frequency:   14.2454977882
  - # 18
    frequency:   14.4330119962
  - # 19
    frequency:   14.5379474188
  - # 20
    frequency:   14.6694057211
  - # 21
    frequency:   20.0305044592

- q-position: [    0.0606061,    0.0000000,    0.0000000 ]
  distance:    0.0212452
  band:
  - # 1
    frequency:   -1.7781185946
  - # 2
    frequency:   -1.7748568747
  - # 3
    frequency:   -1.2154119677
  - # 4
    frequency:   -1.2113745084
  - # 5
    frequency:    0.3738341263
  - # 6
    frequency:    0.7732255509
  - # 7
    frequency:    0.9689745930
  - # 8
    frequency:    0.9927203527
  - # 9
    frequency:    1.6764667500
  - # 10
    frequency:    3.2140508886
  - # 11
    frequency:    3.4561372040
  - # 12
    frequency:    6.2965706816
  - # 13
    frequency:    9.5281322658
  - # 14
    frequency:   10.6538412020
  - # 15
    frequency:   12.3816807657
  - # 16
    frequency:   12.6035456982
  - # 17
    frequency:   14.2251988186
  - # 18
    frequency:   14.4365072531
  - # 19
    frequency:   14.5426485603
  - # 20
    frequency:   14.6875398432
  - # 21
    frequency:   20.0255906312

- q-position: [    0.0656566,    0.0000000,    0.0000000 ]
  distance:    0.0230156
  band:
  - # 1
    frequency:   -1.9114003822
  - # 2
    frequency:   -1.9082883046
  - # 3
    frequency:   -1.3031429383
  - # 4
    frequency:   -1.2993216353
  - # 5
    frequency:    0.4163576509
  - # 6
    frequency:    0.7959658363
  - # 7
    frequency:    0.9825881862
  - # 8
    frequency:    1.0755190159
  - # 9
    frequency:    1.8146585469
  - # 10
    frequency:    3.2268703646
  - # 11
    frequency:    3.5068244192
  - # 12
    frequency:    6.2795241547
  - # 13
    frequency:    9.5321802355
  - # 14
    frequency:   10.8279849124
  - # 15
    frequency:   12.3374512892
  - # 16
    frequency:   12.5935291511
  - # 17
    frequency:   14.2046600138
  - # 18
    frequency:   14.4397800921
  - # 19
    frequency:   14.5476126437
  - # 20
    frequency:   14.7058123864
  - # 21
    frequency:   20.0201750113

- q-position: [    0.0707071,    0.0000000,    0.0000000 ]
  distance:    0.0247861
  band:
  - # 1
    frequency:   -2.0427372911
  - # 2
    frequency:   -2.0397602362
  - # 3
    frequency:   -1.3899235609
  - # 4
    frequency:   -1.3862716854
  - # 5
    frequency:    0.4608525736
  - # 6
    frequency:    0.8198946564
  - # 7
    frequency:    0.9976377881
  - # 8
    frequency:    1.1575802160
  - # 9
    frequency:    1.9521619927
  - # 10
    frequency:    3.2407294973
  - # 11
    frequency:    3.5604312126
  - # 12
    frequency:    6.2620720163
  - # 13
    frequency:    9.5367259747
  - # 14
    frequency:   11.0091721603
  - # 15
    frequency:   12.2911417918
  - # 16
    frequency:   12.5829358038
  - # 17
    frequency:   14.1839626172
  - # 18
    frequency:   14.4427692196
  - # 19
    frequency:   14.5528081017
  - # 20
    frequency:   14.7242098953
  - # 21
    frequency:   20.0142418855

- q-position: [    0.0757576,    0.0000000,    0.0000000 ]
  distance:    0.0265565
  band:
  - # 1
    frequency:   -2.1719094212
  - # 2
    frequency:   -2.1690574925
  - # 3
    frequency:   -1.4755575141
  - # 4
    frequency:   -1.4720441972
  - # 5
    frequency:    0.5072200231
  - # 6
    frequency:    0.8449347913
  - # 7
    frequency:    1.0141435182
  - # 8
    frequency:    1.2388900253
  - # 9
    frequency:    2.0889709637
  - # 10
    frequency:    3.2556254868
  - # 11
    frequency:    3.6167788814
  - # 12
    frequency:    6.2442779373
  - # 13
    frequency:    9.5418076665
  - # 14
    frequency:   11.1961992185
  - # 15
    frequency:   12.2430521536
  - # 16
    frequency:   12.5718104912
  - # 17
    frequency:   14.1632112672
  - # 18
    frequency:   14.4454230235
  - # 19
    frequency:   14.5582025015
  - # 20
    frequency:   14.7427284920
  - # 21
    frequency:   20.0077753395

- q-position: [    0.0808081,    0.0000000,    0.0000000 ]
  distance:    0.0283269
  band:
  - # 1
    frequency:   -2.2987180030
  - # 2
    frequency:   -2.2959843924
  - # 3
    frequency:   -1.5598757387
  - # 4
    frequency:   -1.5564809288
  - # 5
    frequency:    0.5553422925
  - # 6
    frequency:    0.8710120127
  - # 7
    frequency:    1.0321226076
  - # 8
    frequency:    1.3194297650
  - # 9
    frequency:    2.2250744722
  - # 10
    frequency:    3.2715534485
  - # 11
    frequency:    3.6756966031
  - # 12
    frequency:    6.2261931981
  - # 13
    frequency:    9.5474655085
  - # 14
    frequency:   11.3877619785
  - # 15
    frequency:   12.1935673823
  - # 16
    frequency:   12.5601991841
  - # 17
    frequency:   14.1425442500
  - # 18
    frequency:   14.4476993956
  - # 19
    frequency:   14.5637627964
  - # 20
    frequency:   14.7613762623
  - # 21
    frequency:   20.0007594524

- q-position: [    0.0858586,    0.0000000,    0.0000000 ]
  distance:    0.0300974
  band:
  - # 1
    frequency:   -2.4229809229
  - # 2
    frequency:   -2.4203608565
  - # 3
    frequency:   -1.6427295768
  - # 4
    frequency:   -1.6394407558
  - # 5
    frequency:    0.6050841446
  - # 6
    frequency:    0.8980559173
  - # 7
    frequency:    1.0515933560
  - # 8
    frequency:    1.3991774816
  - # 9
    frequency:    2.3604559766
  - # 10
    frequency:    3.2885061747
  - # 11
    frequency:    3.7370228875
  - # 12
    frequency:    6.2078594253
  - # 13
    frequency:    9.5537415015
  - # 14
    frequency:   11.5822475539
  - # 15
    frequency:   12.1433515745
  - # 16
    frequency:   12.5481486823
  - # 17
    frequency:   14.1221479338
  - # 18
    frequency:   14.4495655214
  - # 19
    frequency:   14.5694555639
  - # 20
    frequency:   14.7801767699
  - # 21
    frequency:   19.9931784882

- q-position: [    0.0909091,    0.0000000,    0.0000000 ]
  distance:    0.0318678
  band:
  - # 1
    frequency:   -2.5445297991
  - # 2
    frequency:   -2.5420198387
  - # 3
    frequency:   -1.7239861888
  - # 4
    frequency:   -1.7207961915
  - # 5
    frequency:    0.6562926000
  - # 6
    frequency:    0.9260002655
  - # 7
    frequency:    1.0725799270
  - # 8
    frequency:    1.4781090713
  - # 9
    frequency:    2.4950926127
  - # 10
    frequency:    3.3064739254
  - # 11
    frequency:    3.8006067618
  - # 12
    frequency:    6.1893109762
  - # 13
    frequency:    9.5606792131
  - # 14
    frequency:   11.7766074164
  - # 15
    frequency:   12.0944507430
  - # 16
    frequency:   12.5357063224
  - # 17
    frequency:   14.1022782116
  - # 18
    frequency:   14.4509978336
  - # 19
    frequency:   14.5752472281
  - # 20
    frequency:   14.7991739416
  - # 21
    frequency:   19.9850170865

- q-position: [    0.0959596,    0.0000000,    0.0000000 ]
  distance:    0.0336382
  band:
  - # 1
    frequency:   -2.6632080391
  - # 2
    frequency:   -2.6608056086
  - # 3
    frequency:   -1.8035254347
  - # 4
    frequency:   -1.8004309727
  - # 5
    frequency:    0.7087948145
  - # 6
    frequency:    0.9547830275
  - # 7
    frequency:    1.0951182806
  - # 8
    frequency:    1.5561991438
  - # 9
    frequency:    2.6289543310
  - # 10
    frequency:    3.3254442513
  - # 11
    frequency:    3.8663087518
  - # 12
    frequency:    6.1705769363
  - # 13
    frequency:    9.5683235181
  - # 14
    frequency:   11.9498571805
  - # 15
    frequency:   12.0667542153
  - # 16
    frequency:   12.5229197037
  - # 17
    frequency:   14.0832935666
  - # 18
    frequency:   14.4519823629
  - # 19
    frequency:   14.5811042648
  - # 20
    frequency:   14.8184388413
  - # 21
    frequency:   19.9762604494

- q-position: [    0.1010101,    0.0000000,    0.0000000 ]
  distance:    0.0354087
  band:
  - # 1
    frequency:   -2.7788695367
  - # 2
    frequency:   -2.7765725952
  - # 3
    frequency:   -1.8812377188
  - # 4
    frequency:   -1.8782383584
  - # 5
    frequency:    0.7623935690
  - # 6
    frequency:    0.9843462499
  - # 7
    frequency:    1.1192637100
  - # 8
    frequency:    1.6334216928
  - # 9
    frequency:    2.7620029456
  - # 10
    frequency:    3.3454018549
  - # 11
    frequency:    3.9340017240
  - # 12
    frequency:    6.1516827394
  - # 13
    frequency:    9.5767203147
  - # 14
    frequency:   11.9628046587
  - # 15
    frequency:   12.1982041425
  - # 16
    frequency:   12.5098364319
  - # 17
    frequency:   14.0657075410
  - # 18
    frequency:   14.4525158179
  - # 19
    frequency:   14.5869933901
  - # 20
    frequency:   14.8380792213
  - # 21
    frequency:   19.9668945238

- q-position: [    0.1060606,    0.0000000,    0.0000000 ]
  distance:    0.0371791
  band:
  - # 1
    frequency:   -2.8913777919
  - # 2
    frequency:   -2.8891846060
  - # 3
    frequency:   -1.9570224791
  - # 4
    frequency:   -1.9541199187
  - # 5
    frequency:    0.8168598034
  - # 6
    frequency:    1.0146358125
  - # 7
    frequency:    1.1451006021
  - # 8
    frequency:    1.7097506250
  - # 9
    frequency:    2.8941910934
  - # 10
    frequency:    3.3663284908
  - # 11
    frequency:    4.0035716459
  - # 12
    frequency:    6.1326514513
  - # 13
    frequency:    9.5859162186
  - # 14
    frequency:   11.9140555301
  - # 15
    frequency:   12.3886887658
  - # 16
    frequency:   12.4965038809
  - # 17
    frequency:   14.0502737669
  - # 18
    frequency:   14.4526079362
  - # 19
    frequency:   14.5928817322
  - # 20
    frequency:   14.8582532890
  - # 21
    frequency:   19.9569061806

- q-position: [    0.1111111,    0.0000000,    0.0000000 ]
  distance:    0.0389495
  band:
  - # 1
    frequency:   -3.0006053174
  - # 2
    frequency:   -2.9985143011
  - # 3
    frequency:   -2.0307871182
  - # 4
    frequency:   -2.0279846634
  - # 5
    frequency:    0.8719216720
  - # 6
    frequency:    1.0456011212
  - # 7
    frequency:    1.1727550301
  - # 8
    frequency:    1.7851601844
  - # 9
    frequency:    3.0254611032
  - # 10
    frequency:    3.3882029065
  - # 11
    frequency:    4.0749183157
  - # 12
    frequency:    6.1135047700
  - # 13
    frequency:    9.5959582347
  - # 14
    frequency:   11.8601647845
  - # 15
    frequency:   12.4829689744
  - # 16
    frequency:   12.5797266733
  - # 17
    frequency:   14.0381249676
  - # 18
    frequency:   14.4522861194
  - # 19
    frequency:   14.5987369863
  - # 20
    frequency:   14.8791899799
  - # 21
    frequency:   19.9462833877

- q-position: [    0.1161616,    0.0000000,    0.0000000 ]
  distance:    0.0407199
  band:
  - # 1
    frequency:   -3.1064332395
  - # 2
    frequency:   -3.1044428438
  - # 3
    frequency:   -2.1024462384
  - # 4
    frequency:   -2.0997484117
  - # 5
    frequency:    0.9272501463
  - # 6
    frequency:    1.0771947626
  - # 7
    frequency:    1.2024102538
  - # 8
    frequency:    1.8596252961
  - # 9
    frequency:    3.1557437699
  - # 10
    frequency:    3.4110008255
  - # 11
    frequency:    4.1479560927
  - # 12
    frequency:    6.0942638034
  - # 13
    frequency:    9.6068934093
  - # 14
    frequency:   11.8049498707
  - # 15
    frequency:   12.4692779847
  - # 16
    frequency:   12.7648906050
  - # 17
    frequency:   14.0309958434
  - # 18
    frequency:   14.4516044104
  - # 19
    frequency:   14.6045275538
  - # 20
    frequency:   14.9012193751
  - # 21
    frequency:   19.9350153803

- q-position: [    0.1212121,    0.0000000,    0.0000000 ]
  distance:    0.0424904
  band:
  - # 1
    frequency:   -3.2087510337
  - # 2
    frequency:   -3.2068596727
  - # 3
    frequency:   -2.1719210906
  - # 4
    frequency:   -2.1693333323
  - # 5
    frequency:    0.9824430810
  - # 6
    frequency:    1.1093721401
  - # 7
    frequency:    1.2343233206
  - # 8
    frequency:    1.9331218508
  - # 9
    frequency:    3.2849570451
  - # 10
    frequency:    3.4346949703
  - # 11
    frequency:    4.2226146404
  - # 12
    frequency:    6.0749496853
  - # 13
    frequency:    9.6187684649
  - # 14
    frequency:   11.7493011876
  - # 15
    frequency:   12.4554763502
  - # 16
    frequency:   12.9396057975
  - # 17
    frequency:   14.0315490632
  - # 18
    frequency:   14.4506613447
  - # 19
    frequency:   14.6102226671
  - # 20
    frequency:   14.9248189534
  - # 21
    frequency:   19.9230928271

- q-position: [    0.1262626,    0.0000000,    0.0000000 ]
  distance:    0.0442608
  band:
  - # 1
    frequency:   -3.3074563533
  - # 2
    frequency:   -3.3056623575
  - # 3
    frequency:   -2.2391391758
  - # 4
    frequency:   -2.2366676084
  - # 5
    frequency:    1.0370143390
  - # 6
    frequency:    1.1420910975
  - # 7
    frequency:    1.2688362725
  - # 8
    frequency:    2.0056269403
  - # 9
    frequency:    3.4130046714
  - # 10
    frequency:    3.4592551249
  - # 11
    frequency:    4.2988396514
  - # 12
    frequency:    6.0555840959
  - # 13
    frequency:    9.6316294200
  - # 14
    frequency:   11.6936416478
  - # 15
    frequency:   12.4416085090
  - # 16
    frequency:   13.0982434329
  - # 17
    frequency:   14.0437126998
  - # 18
    frequency:   14.4496375716
  - # 19
    frequency:   14.6157925006
  - # 20
    frequency:   14.9506842183
  - # 21
    frequency:   19.9105079948

- q-position: [    0.1313131,    0.0000000,    0.0000000 ]
  distance:    0.0460312
  band:
  - # 1
    frequency:   -3.4024549207
  - # 2
    frequency:   -3.4007565141
  - # 3
    frequency:   -2.3040339543
  - # 4
    frequency:   -2.3016851912
  - # 5
    frequency:    1.0904031093
  - # 6
    frequency:    1.1753115331
  - # 7
    frequency:    1.3063669222
  - # 8
    frequency:    2.0771190561
  - # 9
    frequency:    3.4846482321
  - # 10
    frequency:    3.5397748336
  - # 11
    frequency:    4.3765934699
  - # 12
    frequency:    6.0361897570
  - # 13
    frequency:    9.6455211982
  - # 14
    frequency:   11.6382636942
  - # 15
    frequency:   12.4277177499
  - # 16
    frequency:   13.2337526623
  - # 17
    frequency:   14.0725170067
  - # 18
    frequency:   14.4488821778
  - # 19
    frequency:   14.6212082693
  - # 20
    frequency:   14.9798350681
  - # 21
    frequency:   19.8972549129

- q-position: [    0.1363636,    0.0000000,    0.0000000 ]
  distance:    0.0478017
  band:
  - # 1
    frequency:   -3.4936604629
  - # 2
    frequency:   -3.4920557577
  - # 3
    frequency:   -2.3665446328
  - # 4
    frequency:   -2.3643256189
  - # 5
    frequency:    1.1420269142
  - # 6
    frequency:    1.2089950044
  - # 7
    frequency:    1.3473557829
  - # 8
    frequency:    2.1475782561
  - # 9
    frequency:    3.5108385248
  - # 10
    frequency:    3.6651389575
  - # 11
    frequency:    4.4558554394
  - # 12
    frequency:    6.0167909821
  - # 13
    frequency:    9.6604872293
  - # 14
    frequency:   11.5834104289
  - # 15
    frequency:   12.4138460773
  - # 16
    frequency:   13.3391517386
  - # 17
    frequency:   14.1221471912
  - # 18
    frequency:   14.4491339908
  - # 19
    frequency:   14.6264423160
  - # 20
    frequency:   15.0137678284
  - # 21
    frequency:   19.8833295400

- q-position: [    0.1414141,    0.0000000,    0.0000000 ]
  distance:    0.0495721
  band:
  - # 1
    frequency:   -3.5809946740
  - # 2
    frequency:   -3.5794816823
  - # 3
    frequency:   -2.4266160085
  - # 4
    frequency:   -2.4245338820
  - # 5
    frequency:    1.1913931597
  - # 6
    frequency:    1.2431043284
  - # 7
    frequency:    1.3921543609
  - # 8
    frequency:    2.2169863055
  - # 9
    frequency:    3.5377876826
  - # 10
    frequency:    3.7889508859
  - # 11
    frequency:    4.5366216752
  - # 12
    frequency:    5.9974143907
  - # 13
    frequency:    9.6765690472
  - # 14
    frequency:   11.5293018312
  - # 15
    frequency:   12.4000340917
  - # 16
    frequency:   13.4112351232
  - # 17
    frequency:   14.1913769619
  - # 18
    frequency:   14.4521656404
  - # 19
    frequency:   14.6314681879
  - # 20
    frequency:   15.0546425794
  - # 21
    frequency:   19.8687299365

- q-position: [    0.1464646,    0.0000000,    0.0000000 ]
  distance:    0.0513425
  band:
  - # 1
    frequency:   -3.6643871967
  - # 2
    frequency:   -3.6629638559
  - # 3
    frequency:   -2.4841983520
  - # 4
    frequency:   -2.4822603233
  - # 5
    frequency:    1.2382382440
  - # 6
    frequency:    1.2776032059
  - # 7
    frequency:    1.4408858232
  - # 8
    frequency:    2.2853267958
  - # 9
    frequency:    3.5654550129
  - # 10
    frequency:    3.9110467790
  - # 11
    frequency:    4.6189037849
  - # 12
    frequency:    5.9780899410
  - # 13
    frequency:    9.6938058896
  - # 14
    frequency:   11.4761448789
  - # 15
    frequency:   12.3863208830
  - # 16
    frequency:   13.4531405753
  - # 17
    frequency:   14.2688513342
  - # 18
    frequency:   14.4627842537
  - # 19
    frequency:   14.6362607045
  - # 20
    frequency:   15.1054206219
  - # 21
    frequency:   19.8534564452

- q-position: [    0.1515152,    0.0000000,    0.0000000 ]
  distance:    0.0531130
  band:
  - # 1
    frequency:   -3.7437756124
  - # 2
    frequency:   -3.7424398229
  - # 3
    frequency:   -2.5392473205
  - # 4
    frequency:   -2.5374605603
  - # 5
    frequency:    1.2826078603
  - # 6
    frequency:    1.3124559448
  - # 7
    frequency:    1.4933643726
  - # 8
    frequency:    2.3525852435
  - # 9
    frequency:    3.5937976472
  - # 10
    frequency:    4.0312462341
  - # 11
    frequency:    4.7027258174
  - # 12
    frequency:    5.9588525265
  - # 13
    frequency:    9.7122343031
  - # 14
    frequency:   11.4241378822
  - # 15
    frequency:   12.3727439364
  - # 16
    frequency:   13.4720726005
  - # 17
    frequency:   14.3319167558
  - # 18
    frequency:   14.4924379005
  - # 19
    frequency:   14.6407960168
  - # 20
    frequency:   15.1696982298
  - # 21