nqpoint: 300    
npath: 3      
segment_nqpoint:
- 100
- 100
- 100
labels:
- [ 'G', 'M' ]
- [ 'M', 'K' ]
- [ 'K', 'G' ]
reciprocal_lattice:
- [   0.30358143,   0.17527282,   0.00000000 ] # a*
- [   0.00000000,   0.35054564,   0.00000000 ] # b*
- [   0.00000000,   0.00000000,   0.03331173 ] # c*
natom: 7      
lattice:
- [     3.294009132775385,     0.000000000000000,     0.000000000000000 ] # a
- [    -1.647004566387693,     2.852695589280769,     0.000000000000000 ] # b
- [     0.000000000000000,     0.000000000000000,    30.019459870789465 ] # c
points:
- symbol: C # 1
  coordinates: [  0.000000000000000,  0.000000000000000,  0.500000028679461 ]
  mass: 12.010700
- symbol: Cl # 2
  coordinates: [  0.333332985432215,  0.666666983183674,  0.700194472560864 ]
  mass: 35.453000
- symbol: Cl # 3
  coordinates: [  0.666666984744047,  0.333332985985145,  0.299805527439136 ]
  mass: 35.453000
- symbol: O # 4
  coordinates: [  0.333332985432215,  0.666666983183674,  0.577788014678335 ]
  mass: 15.999400
- symbol: O # 5
  coordinates: [  0.666666984744047,  0.333332985985145,  0.422211985321673 ]
  mass: 15.999400
- symbol: Zr # 6
  coordinates: [  0.333332985432215,  0.666666983183674,  0.452415438625888 ]
  mass: 91.224000
- symbol: Zr # 7
  coordinates: [  0.666666984744047,  0.333332985985145,  0.547584560946060 ]
  mass: 91.224000

phonon:
- q-position: [    0.0000000,    0.0000000,    0.0000000 ]
  distance:    0.0000000
  band:
  - # 1
    frequency:   -0.6815710982
  - # 2
    frequency:   -0.6815710982
  - # 3
    frequency:   -0.6180032732
  - # 4
    frequency:   -0.6180032732
  - # 5
    frequency:   -0.0000056482
  - # 6
    frequency:   -0.0000001678
  - # 7
    frequency:    0.0000045655
  - # 8
    frequency:    0.6552567140
  - # 9
    frequency:    0.7448417139
  - # 10
    frequency:    2.9916287531
  - # 11
    frequency:    2.9916287531
  - # 12
    frequency:    6.3859762929
  - # 13
    frequency:   10.0082412807
  - # 14
    frequency:   10.0082412807
  - # 15
    frequency:   12.4210815832
  - # 16
    frequency:   12.4210815832
  - # 17
    frequency:   14.3942812376
  - # 18
    frequency:   14.4317814968
  - # 19
    frequency:   14.7809726870
  - # 20
    frequency:   14.7809726870
  - # 21
    frequency:   20.0368900713

- q-position: [    0.0050505,    0.0000000,    0.0000000 ]
  distance:    0.0017704
  band:
  - # 1
    frequency:   -0.6878691041
  - # 2
    frequency:   -0.6851833793
  - # 3
    frequency:   -0.6314627104
  - # 4
    frequency:   -0.6245997129
  - # 5
    frequency:   -0.0038180693
  - # 6
    frequency:    0.0662335965
  - # 7
    frequency:    0.1112699412
  - # 8
    frequency:    0.6565198688
  - # 9
    frequency:    0.7453468543
  - # 10
    frequency:    2.9923822922
  - # 11
    frequency:    2.9945432912
  - # 12
    frequency:    6.3850764767
  - # 13
    frequency:   10.0082005658
  - # 14
    frequency:   10.0154519006
  - # 15
    frequency:   12.4195012169
  - # 16
    frequency:   12.4208514546
  - # 17
    frequency:   14.3946101665
  - # 18
    frequency:   14.4305670935
  - # 19
    frequency:   14.7811192737
  - # 20
    frequency:   14.7818100894
  - # 21
    frequency:   20.0367234186

- q-position: [    0.0101010,    0.0000000,    0.0000000 ]
  distance:    0.0035409
  band:
  - # 1
    frequency:   -0.7100714591
  - # 2
    frequency:   -0.6966503867
  - # 3
    frequency:   -0.6700213104
  - # 4
    frequency:   -0.6439622602
  - # 5
    frequency:   -0.0141329705
  - # 6
    frequency:    0.1363553010
  - # 7
    frequency:    0.2336827278
  - # 8
    frequency:    0.6603519165
  - # 9
    frequency:    0.7468951527
  - # 10
    frequency:    2.9946413295
  - # 11
    frequency:    3.0032580177
  - # 12
    frequency:    6.3823966775
  - # 13
    frequency:   10.0080809245
  - # 14
    frequency:   10.0370158582
  - # 15
    frequency:   12.4147717371
  - # 16
    frequency:   12.4201619625
  - # 17
    frequency:   14.3955868905
  - # 18
    frequency:   14.4269592405
  - # 19
    frequency:   14.7815579008
  - # 20
    frequency:   14.7842927277
  - # 21
    frequency:   20.0362228422

- q-position: [    0.0151515,    0.0000000,    0.0000000 ]
  distance:    0.0053113
  band:
  - # 1
    frequency:   -0.7532312816
  - # 2
    frequency:   -0.7292838242
  - # 3
    frequency:   -0.7173400230
  - # 4
    frequency:   -0.6749323105
  - # 5
    frequency:   -0.0282885706
  - # 6
    frequency:    0.2124913811
  - # 7
    frequency:    0.3687804879
  - # 8
    frequency:    0.6669888863
  - # 9
    frequency:    0.7495822081
  - # 10
    frequency:    2.9984011066
  - # 11
    frequency:    3.0176876328
  - # 12
    frequency:    6.3779942481
  - # 13
    frequency:   10.0078898530
  - # 14
    frequency:   10.0727318991
  - # 15
    frequency:   12.4069276898
  - # 16
    frequency:   12.4190157824
  - # 17
    frequency:   14.3971782853
  - # 18
    frequency:   14.4210621864
  - # 19
    frequency:   14.7822851797
  - # 20
    frequency:   14.7883370499
  - # 21
    frequency:   20.0353864890

- q-position: [    0.0202020,    0.0000000,    0.0000000 ]
  distance:    0.0070817
  band:
  - # 1
    frequency:   -0.8173759529
  - # 2
    frequency:   -0.8042465690
  - # 3
    frequency:   -0.7482252169
  - # 4
    frequency:   -0.7159115521
  - # 5
    frequency:   -0.0433516814
  - # 6
    frequency:    0.2944921016
  - # 7
    frequency:    0.5100983512
  - # 8
    frequency:    0.6776671634
  - # 9
    frequency:    0.7535587693
  - # 10
    frequency:    3.0036536357
  - # 11
    frequency:    3.0376943821
  - # 12
    frequency:    6.3719597107
  - # 13
    frequency:   10.0076397969
  - # 14
    frequency:   10.1222724691
  - # 15
    frequency:   12.3960256344
  - # 16
    frequency:   12.4174173523
  - # 17
    frequency:   14.3993005960
  - # 18
    frequency:   14.4130641704
  - # 19
    frequency:   14.7832954939
  - # 20
    frequency:   14.7938191655
  - # 21
    frequency:   20.0342112789

- q-position: [    0.0252525,    0.0000000,    0.0000000 ]
  distance:    0.0088522
  band:
  - # 1
    frequency:   -0.8981953812
  - # 2
    frequency:   -0.8905790500
  - # 3
    frequency:   -0.7891174416
  - # 4
    frequency:   -0.7651749046
  - # 5
    frequency:   -0.0567137235
  - # 6
    frequency:    0.3807789469
  - # 7
    frequency:    0.6388623659
  - # 8
    frequency:    0.7059778658
  - # 9
    frequency:    0.7590648909
  - # 10
    frequency:    3.0103876217
  - # 11
    frequency:    3.0630942244
  - # 12
    frequency:    6.3644099716
  - # 13
    frequency:   10.0073480793
  - # 14
    frequency:   10.1851945213
  - # 15
    frequency:   12.3821426983
  - # 16
    frequency:   12.4153728420
  - # 17
    frequency:   14.4008158671
  - # 18
    frequency:   14.4042251471
  - # 19
    frequency:   14.7845810464
  - # 20
    frequency:   14.8005925873
  - # 21
    frequency:   20.0326929169

- q-position: [    0.0303030,    0.0000000,    0.0000000 ]
  distance:    0.0106226
  band:
  - # 1
    frequency:   -0.9906324049
  - # 2
    frequency:   -0.9851483439
  - # 3
    frequency:   -0.8387823350
  - # 4
    frequency:   -0.8210955721
  - # 5
    frequency:   -0.0659430447
  - # 6
    frequency:    0.4695310672
  - # 7
    frequency:    0.6843543665
  - # 8
    frequency:    0.7656779666
  - # 9
    frequency:    0.8205035504
  - # 10
    frequency:    3.0185883717
  - # 11
    frequency:    3.0936646293
  - # 12
    frequency:    6.3554802462
  - # 13
    frequency:   10.0070368002
  - # 14
    frequency:   10.2609528761
  - # 15
    frequency:   12.3653747020
  - # 16
    frequency:   12.4128901106
  - # 17
    frequency:   14.3907148140
  - # 18
    frequency:   14.4056792674
  - # 19
    frequency:   14.7861319245
  - # 20
    frequency:   14.8085054255
  - # 21
    frequency:   20.0308259105

- q-position: [    0.0353535,    0.0000000,    0.0000000 ]
  distance:    0.0123930
  band:
  - # 1
    frequency:   -1.0905459453
  - # 2
    frequency:   -1.0858940799
  - # 3
    frequency:   -0.8955265101
  - # 4
    frequency:   -0.8822564154
  - # 5
    frequency:   -0.0681108296
  - # 6
    frequency:    0.5593397826
  - # 7
    frequency:    0.7021745944
  - # 8
    frequency:    0.7746082114
  - # 9
    frequency:    0.9634308203
  - # 10
    frequency:    3.0282377041
  - # 11
    frequency:    3.1291533131
  - # 12
    frequency:    6.3453157092
  - # 13
    frequency:   10.0067327067
  - # 14
    frequency:   10.3489147947
  - # 15
    frequency:   12.3458339795
  - # 16
    frequency:   12.4099786525
  - # 17
    frequency:   14.3773384848
  - # 18
    frequency:   14.4092027470
  - # 19
    frequency:   14.7879361815
  - # 20
    frequency:   14.8174139708
  - # 21
    frequency:   20.0286035927

- q-position: [    0.0404040,    0.0000000,    0.0000000 ]
  distance:    0.0141635
  band:
  - # 1
    frequency:   -1.1952160985
  - # 2
    frequency:   -1.1911560711
  - # 3
    frequency:   -0.9576856503
  - # 4
    frequency:   -0.9474743380
  - # 5
    frequency:   -0.0577306083
  - # 6
    frequency:    0.6493064155
  - # 7
    frequency:    0.7189812025
  - # 8
    frequency:    0.7852684632
  - # 9
    frequency:    1.1083397355
  - # 10
    frequency:    3.0393138719
  - # 11
    frequency:    3.1692872076
  - # 12
    frequency:    6.3340637531
  - # 13
    frequency:   10.0064670351
  - # 14
    frequency:   10.4483745116
  - # 15
    frequency:   12.3236470272
  - # 16
    frequency:   12.4066495339
  - # 17
    frequency:   14.3624707678
  - # 18
    frequency:   14.4131159991
  - # 19
    frequency:   14.7899799344
  - # 20
    frequency:   14.8271916622
  - # 21
    frequency:   20.0260181503

- q-position: [    0.0454545,    0.0000000,    0.0000000 ]
  distance:    0.0159339
  band:
  - # 1
    frequency:   -1.3029897890
  - # 2
    frequency:   -1.2995091215
  - # 3
    frequency:   -1.0238476966
  - # 4
    frequency:   -1.0157777374
  - # 5
    frequency:    0.0200827275
  - # 6
    frequency:    0.7367696443
  - # 7
    frequency:    0.7389112475
  - # 8
    frequency:    0.7978246048
  - # 9
    frequency:    1.2529306546
  - # 10
    frequency:    3.0517915144
  - # 11
    frequency:    3.2137810376
  - # 12
    frequency:    6.3218674810
  - # 13
    frequency:   10.0062753242
  - # 14
    frequency:   10.5585666823
  - # 15
    frequency:   12.2989521072
  - # 16
    frequency:   12.4029153196
  - # 17
    frequency:   14.3463390209
  - # 18
    frequency:   14.4172822098
  - # 19
    frequency:   14.7922474761
  - # 20
    frequency:   14.8377339450
  - # 21
    frequency:   20.0230606586

- q-position: [    0.0505051,    0.0000000,    0.0000000 ]
  distance:    0.0177043
  band:
  - # 1
    frequency:   -1.4127778160
  - # 2
    frequency:   -1.4098354237
  - # 3
    frequency:   -1.0928943347
  - # 4
    frequency:   -1.0863695133
  - # 5
    frequency:    0.0862830041
  - # 6
    frequency:    0.7558605333
  - # 7
    frequency:    0.8122903786
  - # 8
    frequency:    0.8278661134
  - # 9
    frequency:    1.3967688785
  - # 10
    frequency:    3.0656416465
  - # 11
    frequency:    3.2623450351
  - # 12
    frequency:    6.3088607649
  - # 13
    frequency:   10.0061971999
  - # 14
    frequency:   10.6786779811
  - # 15
    frequency:   12.2718969162
  - # 16
    frequency:   12.3987899918
  - # 17
    frequency:   14.3291188260
  - # 18
    frequency:   14.4216051840
  - # 19
    frequency:   14.7947214012
  - # 20
    frequency:   14.8489601987
  - # 21
    frequency:   20.0197211224

- q-position: [    0.0555556,    0.0000000,    0.0000000 ]
  distance:    0.0194748
  band:
  - # 1
    frequency:   -1.5237978494
  - # 2
    frequency:   -1.5212889336
  - # 3
    frequency:   -1.1639634566
  - # 4
    frequency:   -1.1585930356
  - # 5
    frequency:    0.1366675437
  - # 6
    frequency:    0.7762902693
  - # 7
    frequency:    0.8286302372
  - # 8
    frequency:    0.9160115371
  - # 9
    frequency:    1.5397350525
  - # 10
    frequency:    3.0808316922
  - # 11
    frequency:    3.3146914992
  - # 12
    frequency:    6.2951649337
  - # 13
    frequency:   10.0062761316
  - # 14
    frequency:   10.8078563248
  - # 15
    frequency:   12.2426364059
  - # 16
    frequency:   12.3942888619
  - # 17
    frequency:   14.3109715330
  - # 18
    frequency:   14.4259966299
  - # 19
    frequency:   14.7973827426
  - # 20
    frequency:   14.8608139786
  - # 21
    frequency:   20.0159885237

- q-position: [    0.0606061,    0.0000000,    0.0000000 ]
  distance:    0.0212452
  band:
  - # 1
    frequency:   -1.6354524126
  - # 2
    frequency:   -1.6332281727
  - # 3
    frequency:   -1.2363916694
  - # 4
    frequency:   -1.2319052631
  - # 5
    frequency:    0.1870124573
  - # 6
    frequency:    0.7980169942
  - # 7
    frequency:    0.8467763830
  - # 8
    frequency:    1.0032559368
  - # 9
    frequency:    1.6817912668
  - # 10
    frequency:    3.0973255660
  - # 11
    frequency:    3.3705400869
  - # 12
    frequency:    6.2808869565
  - # 13
    frequency:   10.0065591614
  - # 14
    frequency:   10.9452173755
  - # 15
    frequency:   12.2113308164
  - # 16
    frequency:   12.3894284760
  - # 17
    frequency:   14.2920533537
  - # 18
    frequency:   14.4303732702
  - # 19
    frequency:   14.8002111188
  - # 20
    frequency:   14.8732625944
  - # 21
    frequency:   20.0118508768

- q-position: [    0.0656566,    0.0000000,    0.0000000 ]
  distance:    0.0230156
  band:
  - # 1
    frequency:   -1.7472589218
  - # 2
    frequency:   -1.7451643612
  - # 3
    frequency:   -1.3096617285
  - # 4
    frequency:   -1.3058555078
  - # 5
    frequency:    0.2390906262
  - # 6
    frequency:    0.8209725383
  - # 7
    frequency:    0.8666409626
  - # 8
    frequency:    1.0895422834
  - # 9
    frequency:    1.8229218187
  - # 10
    frequency:    3.1150838001
  - # 11
    frequency:    3.4296218630
  - # 12
    frequency:    6.2661188713
  - # 13
    frequency:   10.0070966049
  - # 14
    frequency:   11.0898480490
  - # 15
    frequency:   12.1781439591
  - # 16
    frequency:   12.3842265163
  - # 17
    frequency:   14.2725219068
  - # 18
    frequency:   14.4346574240
  - # 19
    frequency:   14.8031848894
  - # 20
    frequency:   14.8862967648
  - # 21
    frequency:   20.0072952913

- q-position: [    0.0707071,    0.0000000,    0.0000000 ]
  distance:    0.0247861
  band:
  - # 1
    frequency:   -1.8588094426
  - # 2
    frequency:   -1.8567222473
  - # 3
    frequency:   -1.3833615990
  - # 4
    frequency:   -1.3800682531
  - # 5
    frequency:    0.2933054053
  - # 6
    frequency:    0.8450800625
  - # 7
    frequency:    0.8881261703
  - # 8
    frequency:    1.1748305221
  - # 9
    frequency:    1.9631144440
  - # 10
    frequency:    3.1340637153
  - # 11
    frequency:    3.4916822361
  - # 12
    frequency:    6.2509381586
  - # 13
    frequency:   10.0079417260
  - # 14
    frequency:   11.2408067204
  - # 15
    frequency:   12.1432417641
  - # 16
    frequency:   12.3787016981
  - # 17
    frequency:   14.2525430726
  - # 18
    frequency:   14.4387781289
  - # 19
    frequency:   14.8062813172
  - # 20
    frequency:   14.8999308625
  - # 21
    frequency:   20.0023080426

- q-position: [    0.0757576,    0.0000000,    0.0000000 ]
  distance:    0.0265565
  band:
  - # 1
    frequency:   -1.9697549772
  - # 2
    frequency:   -1.9676030924
  - # 3
    frequency:   -1.4571543557
  - # 4
    frequency:   -1.4542294424
  - # 5
    frequency:    0.3496802143
  - # 6
    frequency:    0.8702612815
  - # 7
    frequency:    0.9111323206
  - # 8
    frequency:    1.2590885714
  - # 9
    frequency:    2.1023536676
  - # 10
    frequency:    3.1542196264
  - # 11
    frequency:    3.5564829613
  - # 12
    frequency:    6.2354087702
  - # 13
    frequency:   10.0091503855
  - # 14
    frequency:   11.3971196691
  - # 15
    frequency:   12.1067910967
  - # 16
    frequency:   12.3728736650
  - # 17
    frequency:   14.2322989884
  - # 18
    frequency:   14.4426722446
  - # 19
    frequency:   14.8094767353
  - # 20
    frequency:   14.9142041194
  - # 21
    frequency:   19.9968746521

- q-position: [    0.0808081,    0.0000000,    0.0000000 ]
  distance:    0.0283269
  band:
  - # 1
    frequency:   -2.0797998083
  - # 2
    frequency:   -2.0775546089
  - # 3
    frequency:   -1.5307565218
  - # 4
    frequency:   -1.5280756927
  - # 5
    frequency:    0.4080993820
  - # 6
    frequency:    0.8964397664
  - # 7
    frequency:    0.9355640907
  - # 8
    frequency:    1.3422878838
  - # 9
    frequency:    2.2406182574
  - # 10
    frequency:    3.1755030785
  - # 11
    frequency:    3.6238034079
  - # 12
    frequency:    6.2195825544
  - # 13
    frequency:   10.0107806647
  - # 14
    frequency:   11.5577730173
  - # 15
    frequency:   12.0689588572
  - # 16
    frequency:   12.3667628820
  - # 17
    frequency:   14.2119979060
  - # 18
    frequency:   14.4462854391
  - # 19
    frequency:   14.8127467175
  - # 20
    frequency:   14.9291831022
  - # 21
    frequency:   19.9909799760

- q-position: [    0.0858586,    0.0000000,    0.0000000 ]
  distance:    0.0300974
  band:
  - # 1
    frequency:   -2.1886935935
  - # 2
    frequency:   -2.1863541858
  - # 3
    frequency:   -1.6039232447
  - # 4
    frequency:   -1.6013851971
  - # 5
    frequency:    0.4683899177
  - # 6
    frequency:    0.9235425160
  - # 7
    frequency:    0.9613353942
  - # 8
    frequency:    1.4244014018
  - # 9
    frequency:    2.3778801147
  - # 10
    frequency:    3.1978631034
  - # 11
    frequency:    3.6934412823
  - # 12
    frequency:    6.2035008761
  - # 13
    frequency:   10.0128924652
  - # 14
    frequency:   11.7216988384
  - # 15
    frequency:   12.0299115514
  - # 16
    frequency:   12.3603905284
  - # 17
    frequency:   14.1918868875
  - # 18
    frequency:   14.4495730949
  - # 19
    frequency:   14.8160662516
  - # 20
    frequency:   14.9449657738
  - # 21
    frequency:   19.9846083038

- q-position: [    0.0909091,    0.0000000,    0.0000000 ]
  distance:    0.0318678
  band:
  - # 1
    frequency:   -2.2962214500
  - # 2
    frequency:   -2.2938014292
  - # 3
    frequency:   -1.6764393090
  - # 4
    frequency:   -1.6739690448
  - # 5
    frequency:    0.5303535783
  - # 6
    frequency:    0.9515006640
  - # 7
    frequency:    0.9883735098
  - # 8
    frequency:    1.5054027624
  - # 9
    frequency:    2.5141036388
  - # 10
    frequency:    3.2212464900
  - # 11
    frequency:    3.7652129720
  - # 12
    frequency:    6.1871962786
  - # 13
    frequency:   10.0155470878
  - # 14
    frequency:   11.8877501103
  - # 15
    frequency:   11.9898189425
  - # 16
    frequency:   12.3537783911
  - # 17
    frequency:   14.1722687259
  - # 18
    frequency:   14.4525012475
  - # 19
    frequency:   14.8194099114
  - # 20
    frequency:   14.9616875153
  - # 21
    frequency:   19.9777434671

- q-position: [    0.0959596,    0.0000000,    0.0000000 ]
  distance:    0.0336382
  band:
  - # 1
    frequency:   -2.4021953126
  - # 2
    frequency:   -2.3997143653
  - # 3
    frequency:   -1.7481142809
  - # 4
    frequency:   -1.7456629595
  - # 5
    frequency:    0.5937791025
  - # 6
    frequency:    0.9802497193
  - # 7
    frequency:    1.0166232078
  - # 8
    frequency:    1.5852661390
  - # 9
    frequency:    2.6492452031
  - # 10
    frequency:    3.2455980613
  - # 11
    frequency:    3.8389536478
  - # 12
    frequency:    6.1706940869
  - # 13
    frequency:   10.0188067896
  - # 14
    frequency:   11.9488080895
  - # 15
    frequency:   12.0547157506
  - # 16
    frequency:   12.3469487586
  - # 17
    frequency:   14.1535250385
  - # 18
    frequency:   14.4550477346
  - # 19
    frequency:   14.8227520298
  - # 20
    frequency:   14.9795295874
  - # 21
    frequency:   19.9703689591

- q-position: [    0.1010101,    0.0000000,    0.0000000 ]
  distance:    0.0354087
  band:
  - # 1
    frequency:   -2.5064475553
  - # 2
    frequency:   -2.5039267752
  - # 3
    frequency:   -1.8187794406
  - # 4
    frequency:   -1.8163205581
  - # 5
    frequency:    0.6584445346
  - # 6
    frequency:    1.0097295391
  - # 7
    frequency:    1.0460517866
  - # 8
    frequency:    1.6639664002
  - # 9
    frequency:    2.7832526187
  - # 10
    frequency:    3.2708609541
  - # 11
    frequency:    3.9145172233
  - # 12
    frequency:    6.1540138883
  - # 13
    frequency:   10.0227343246
  - # 14
    frequency:   11.9070986628
  - # 15
    frequency:   12.2211415153
  - # 16
    frequency:   12.3399243169
  - # 17
    frequency:   14.1361480976
  - # 18
    frequency:   14.4572038299
  - # 19
    frequency:   14.8260668683
  - # 20
    frequency:   14.9987306389
  - # 21
    frequency:   19.9624680656

- q-position: [    0.1060606,    0.0000000,    0.0000000 ]
  distance:    0.0371791
  band:
  - # 1
    frequency:   -2.6088265202
  - # 2
    frequency:   -2.6062860050
  - # 3
    frequency:   -1.8882849496
  - # 4
    frequency:   -1.8858087910
  - # 5
    frequency:    0.7241129428
  - # 6
    frequency:    1.0398841504
  - # 7
    frequency:    1.0766562522
  - # 8
    frequency:    1.7414794127
  - # 9
    frequency:    2.9160645541
  - # 10
    frequency:    3.2969768941
  - # 11
    frequency:    3.9917762404
  - # 12
    frequency:    6.1371708606
  - # 13
    frequency:   10.0273924686
  - # 14
    frequency:   11.8648140112
  - # 15
    frequency:   12.3327280481
  - # 16
    frequency:   12.3854583197
  - # 17
    frequency:   14.1207843224
  - # 18
    frequency:   14.4589767820
  - # 19
    frequency:   14.8293287842
  - # 20
    frequency:   15.0196019843
  - # 21
    frequency:   19.9540240077

- q-position: [    0.1111111,    0.0000000,    0.0000000 ]
  distance:    0.0389495
  band:
  - # 1
    frequency:   -2.7091933898
  - # 2
    frequency:   -2.7066511295
  - # 3
    frequency:   -1.9564969601
  - # 4
    frequency:   -1.9540052165
  - # 5
    frequency:    0.7905218434
  - # 6
    frequency:    1.0706614837
  - # 7
    frequency:    1.1084744723
  - # 8
    frequency:    1.8177823972
  - # 9
    frequency:    3.0476099255
  - # 10
    frequency:    3.3238864675
  - # 11
    frequency:    4.0706217114
  - # 12
    frequency:    6.1201769396
  - # 13
    frequency:   10.0328435317
  - # 14
    frequency:   11.8221150464
  - # 15
    frequency:   12.3253831316
  - # 16
    frequency:   12.5457676763
  - # 17
    frequency:   14.1082913210
  - # 18
    frequency:   14.4603939425
  - # 19
    frequency:   14.8325123931
  - # 20
    frequency:   15.0425473968
  - # 21
    frequency:   19.9450200970

- q-position: [    0.1161616,    0.0000000,    0.0000000 ]
  distance:    0.0407199
  band:
  - # 1
    frequency:   -2.8074199683
  - # 2
    frequency:   -2.8048914361
  - # 3
    frequency:   -2.0232949326
  - # 4
    frequency:   -2.0207963824
  - # 5
    frequency:    0.8573645839
  - # 6
    frequency:    1.1020130638
  - # 7
    frequency:    1.1416031570
  - # 8
    frequency:    1.8928542905
  - # 9
    frequency:    3.1778073029
  - # 10
    frequency:    3.3515293843
  - # 11
    frequency:    4.1509629121
  - # 12
    frequency:    6.1030418343
  - # 13
    frequency:   10.0391488621
  - # 14
    frequency:   11.7791558286
  - # 15
    frequency:   12.3179128476
  - # 16
    frequency:   12.6997874298
  - # 17
    frequency:   14.0998048517
  - # 18
    frequency:   14.4615096491
  - # 19
    frequency:   14.8355927266
  - # 20
    frequency:   15.0680878903
  - # 21
    frequency:   19.9354399049

- q-position: [    0.1212121,    0.0000000,    0.0000000 ]
  distance:    0.0424904
  band:
  - # 1
    frequency:   -2.9033870803
  - # 2
    frequency:   -2.9008851942
  - # 3
    frequency:   -2.0885693809
  - # 4
    frequency:   -2.0860767629
  - # 5
    frequency:    0.9242599852
  - # 6
    frequency:    1.1338936827
  - # 7
    frequency:    1.1762269686
  - # 8
    frequency:    1.9666760854
  - # 9
    frequency:    3.3065644021
  - # 10
    frequency:    3.3798447344
  - # 11
    frequency:    4.2327270768
  - # 12
    frequency:    6.0857739115
  - # 13
    frequency:   10.0463683448
  - # 14
    frequency:   11.7360874625
  - # 15
    frequency:   12.3103404859
  - # 16
    frequency:   12.8447506091
  - # 17
    frequency:   14.0967947330
  - # 18
    frequency:   14.4624169367
  - # 19
    frequency:   14.8385453835
  - # 20
    frequency:   15.0968910143
  - # 21
    frequency:   19.9252674460

- q-position: [    0.1262626,    0.0000000,    0.0000000 ]
  distance:    0.0442608
  band:
  - # 1
    frequency:   -2.9969833984
  - # 2
    frequency:   -2.9945186664
  - # 3
    frequency:   -2.1522200860
  - # 4
    frequency:   -2.1497479664
  - # 5
    frequency:    0.9907052649
  - # 6
    frequency:    1.1662610728
  - # 7
    frequency:    1.2126640792
  - # 8
    frequency:    2.0392311376
  - # 9
    frequency:    3.4087712365
  - # 10
    frequency:    3.4337777667
  - # 11
    frequency:    4.3158589012
  - # 12
    frequency:    6.0683809799
  - # 13
    frequency:   10.0545598988
  - # 14
    frequency:   11.6930583588
  - # 15
    frequency:   12.3026892564
  - # 16
    frequency:   12.9773713729
  - # 17
    frequency:   14.1010467088
  - # 18
    frequency:   14.4632679042
  - # 19
    frequency:   14.8413466753
  - # 20
    frequency:   15.1298018417
  - # 21
    frequency:   19.9144873770

- q-position: [    0.1313131,    0.0000000,    0.0000000 ]
  distance:    0.0460312
  band:
  - # 1
    frequency:   -3.0881045734
  - # 2
    frequency:   -3.0856853211
  - # 3
    frequency:   -2.2141547229
  - # 4
    frequency:   -2.2117180932
  - # 5
    frequency:    1.0560110087
  - # 6
    frequency:    1.1990755894
  - # 7
    frequency:    1.2514296066
  - # 8
    frequency:    2.1105054291
  - # 9
    frequency:    3.4382474809
  - # 10
    frequency:    3.5593327843
  - # 11
    frequency:    4.4003196969
  - # 12
    frequency:    6.0508710162
  - # 13
    frequency:   10.0637789785
  - # 14
    frequency:   11.6502142484
  - # 15
    frequency:   12.2949822054
  - # 16
    frequency:   13.0940115890
  - # 17
    frequency:   14.1144337663
  - # 18
    frequency:   14.4643099622
  - # 19
    frequency:   14.8439737635
  - # 20
    frequency:   15.1678680425
  - # 21
    frequency:   19.9030852136

- q-position: [    0.1363636,    0.0000000,    0.0000000 ]
  distance:    0.0478017
  band:
  - # 1
    frequency:   -3.1766525848
  - # 2
    frequency:   -3.1742852090
  - # 3
    frequency:   -2.2742878144
  - # 4
    frequency:   -2.2719011966
  - # 5
    frequency:    1.1192404065
  - # 6
    frequency:    1.2322999115
  - # 7
    frequency:    1.2932948249
  - # 8
    frequency:    2.1804877864
  - # 9
    frequency:    3.4682121669
  - # 10
    frequency:    3.6831042259
  - # 11
    frequency:    4.4860859806
  - # 12
    frequency:    6.0332528866
  - # 13
    frequency:   10.0740780820
  - # 14
    frequency:   11.6076981391
  - # 15
    frequency:   12.2872421340
  - # 16
    frequency:   13.1912383121
  - # 17
    frequency:   14.1382887075
  - # 18
    frequency:   14.4659514932
  - # 19
    frequency:   14.8464047898
  - # 20
    frequency:   15.2123432866
  - # 21
    frequency:   19.8910475663

- q-position: [    0.1414141,    0.0000000,    0.0000000 ]
  distance:    0.0495721
  band:
  - # 1
    frequency:   -3.2625352526
  - # 2
    frequency:   -3.2602244708
  - # 3
    frequency:   -2.3325399330
  - # 4
    frequency:   -2.3302168295
  - # 5
    frequency:    1.1792435377
  - # 6
    frequency:    1.2658987628
  - # 7
    frequency:    1.3392514277
  - # 8
    frequency:    2.2491700504
  - # 9
    frequency:    3.4986043362
  - # 10
    frequency:    3.8049575388
  - # 11
    frequency:    4.5731472077
  - # 12
    frequency:    6.0155371430
  - # 13
    frequency:   10.0855062736
  - # 14
    frequency:   11.5656502407
  - # 15
    frequency:   12.2794915220
  - # 16
    frequency:   13.2668058685
  - # 17
    frequency:   14.1723474595
  - # 18
    frequency:   14.4688799136
  - # 19
    frequency:   14.8486189978
  - # 20
    frequency:   15.2646427941
  - # 21
    frequency:   19.8783623979

- q-position: [    0.1464646,    0.0000000,    0.0000000 ]
  distance:    0.0513425
  band:
  - # 1
    frequency:   -3.3456658704
  - # 2
    frequency:   -3.3434149525
  - # 3
    frequency:   -2.3888370898
  - # 4
    frequency:   -2.3865896619
  - # 5
    frequency:    1.2349526600
  - # 6
    frequency:    1.2998386546
  - # 7
    frequency:    1.3902149248
  - # 8
    frequency:    2.3165471953
  - # 9
    frequency:    3.5293636031
  - # 10
    frequency:    3.9247511471
  - # 11
    frequency:    4.6615022949
  - # 12
    frequency:    5.9977370071
  - # 13
    frequency:   10.0981087232
  - # 14
    frequency:   11.5242078577
  - # 15
    frequency:   12.2717524554
  - # 16
    frequency:   13.3205971869
  - # 17
    frequency:   14.2137367663
  - # 18
    frequency:   14.4742557641
  - # 19
    frequency:   14.8505968464
  - # 20
    frequency:   15.3262191453
  - # 21
    frequency:   19.8650193055

- q-position: [    0.1515152,    0.0000000,    0.0000000 ]
  distance:    0.0531130
  band:
  - # 1
    frequency:   -3.4259629296
  - # 2
    frequency:   -3.4237739051
  - # 3
    frequency:   -2.4431102643
  - # 4
    frequency:   -2.4409491623
  - # 5
    frequency:    1.2859227391
  - # 6
    frequency:    1.3340876529
  - # 7
    frequency:    1.4464829532
  - # 8
    frequency:    2.3826173995
  - # 9
    frequency:    3.5604303828
  - # 10
    frequency:    4.0423399919
  - # 11
    frequency:    4.7511545247
  - # 12
    frequency:    5.9798697321
  - # 13
    frequency:   10.1119262698
  - # 14
    frequency:   11.4835052480
  - # 15
    frequency:   12.2640465575
  - # 16
    frequency:   13.3547371665
  - # 17
    frequency:   14.2568709974
  - # 18
    frequency:   14.4839224518
  - # 19
    frequency:   14.8523201139
  - # 20
    frequency:   15.3983412192
  - # 21