nqpoint: 300    
npath: 3      
segment_nqpoint:
- 100
- 100
- 100
labels:
- [ 'G', 'M' ]
- [ 'M', 'K' ]
- [ 'K', 'G' ]
reciprocal_lattice:
- [   0.28793500,   0.16623935,   0.00000000 ] # a*
- [   0.00000000,   0.33247870,   0.00000000 ] # b*
- [   0.00000000,   0.00000000,   0.03520358 ] # c*
natom: 8      
lattice:
- [     3.473006068132861,     0.000000000000000,     0.000000000000000 ] # a
- [    -1.736503034066430,     3.007711482490956,     0.000000000000000 ] # b
- [     0.000000000000000,     0.000000000000000,    28.406198488736877 ] # c
points:
- symbol: C # 1
  coordinates: [  0.000000000000000,  0.000000000000000,  0.481360777939679 ]
  mass: 12.010700
- symbol: C # 2
  coordinates: [  0.333332985432215,  0.666666983183674,  0.641252763148249 ]
  mass: 12.010700
- symbol: N # 3
  coordinates: [  0.333332985432215,  0.666666983183674,  0.683167742295101 ]
  mass: 14.006700
- symbol: O # 4
  coordinates: [  0.666666984744047,  0.333332985985145,  0.316832257704899 ]
  mass: 15.999400
- symbol: P # 5
  coordinates: [  0.666666984744047,  0.333332985985145,  0.369460975835789 ]
  mass: 30.973762
- symbol: S # 6
  coordinates: [  0.333332985432215,  0.666666983183674,  0.582374364228412 ]
  mass: 32.065000
- symbol: Sc # 7
  coordinates: [  0.333332985432215,  0.666666983183674,  0.440107198834522 ]
  mass: 44.955912
- symbol: Sc # 8
  coordinates: [  0.666666984744047,  0.333332985985145,  0.524795463183590 ]
  mass: 44.955912

phonon:
- q-position: [    0.0000000,    0.0000000,    0.0000000 ]
  distance:    0.0000000
  band:
  - # 1
    frequency:   -0.4092594988
  - # 2
    frequency:   -0.4092594988
  - # 3
    frequency:   -0.0000017794
  - # 4
    frequency:   -0.0000007663
  - # 5
    frequency:    0.0000016568
  - # 6
    frequency:    2.2201007763
  - # 7
    frequency:    2.2201007763
  - # 8
    frequency:    4.4796113002
  - # 9
    frequency:    4.5914076065
  - # 10
    frequency:    4.5914076065
  - # 11
    frequency:    4.7410116574
  - # 12
    frequency:    4.7410116574
  - # 13
    frequency:    6.7786142782
  - # 14
    frequency:    6.7786142782
  - # 15
    frequency:    7.2655391260
  - # 16
    frequency:   10.3282048418
  - # 17
    frequency:   10.3282048418
  - # 18
    frequency:   10.8389889439
  - # 19
    frequency:   11.6498518065
  - # 20
    frequency:   11.6498518065
  - # 21
    frequency:   16.2007040787
  - # 22
    frequency:   21.1050876936
  - # 23
    frequency:   34.0359224739
  - # 24
    frequency:   65.0823136595

- q-position: [    0.0050505,    0.0000000,    0.0000000 ]
  distance:    0.0016792
  band:
  - # 1
    frequency:   -0.4094001798
  - # 2
    frequency:   -0.4053095961
  - # 3
    frequency:   -0.0245796131
  - # 4
    frequency:    0.0725023464
  - # 5
    frequency:    0.1018474243
  - # 6
    frequency:    2.2199260178
  - # 7
    frequency:    2.2202913997
  - # 8
    frequency:    4.4745807241
  - # 9
    frequency:    4.5913828539
  - # 10
    frequency:    4.5956683669
  - # 11
    frequency:    4.7409234386
  - # 12
    frequency:    4.7414324411
  - # 13
    frequency:    6.7772730946
  - # 14
    frequency:    6.7787536467
  - # 15
    frequency:    7.2671996415
  - # 16
    frequency:   10.3283249767
  - # 17
    frequency:   10.3283858485
  - # 18
    frequency:   10.8381780726
  - # 19
    frequency:   11.6497788918
  - # 20
    frequency:   11.6516038041
  - # 21
    frequency:   16.1991411454
  - # 22
    frequency:   21.1050147857
  - # 23
    frequency:   34.0356674569
  - # 24
    frequency:   65.0822166969

- q-position: [    0.0101010,    0.0000000,    0.0000000 ]
  distance:    0.0033584
  band:
  - # 1
    frequency:   -0.4094871569
  - # 2
    frequency:   -0.3930324254
  - # 3
    frequency:   -0.0482735412
  - # 4
    frequency:    0.1440251609
  - # 5
    frequency:    0.2029057707
  - # 6
    frequency:    2.2194054374
  - # 7
    frequency:    2.2208603222
  - # 8
    frequency:    4.4616700043
  - # 9
    frequency:    4.5913021697
  - # 10
    frequency:    4.6057722677
  - # 11
    frequency:    4.7406679313
  - # 12
    frequency:    4.7432052307
  - # 13
    frequency:    6.7733094606
  - # 14
    frequency:    6.7791722873
  - # 15
    frequency:    7.2721212612
  - # 16
    frequency:   10.3286845538
  - # 17
    frequency:   10.3289273192
  - # 18
    frequency:   10.8357550527
  - # 19
    frequency:   11.6495612172
  - # 20
    frequency:   11.6568512078
  - # 21
    frequency:   16.1944566270
  - # 22
    frequency:   21.1047962371
  - # 23
    frequency:   34.0349030523
  - # 24
    frequency:   65.0819259993

- q-position: [    0.0151515,    0.0000000,    0.0000000 ]
  distance:    0.0050376
  band:
  - # 1
    frequency:   -0.4087571313
  - # 2
    frequency:   -0.3712032378
  - # 3
    frequency:   -0.0710912326
  - # 4
    frequency:    0.2140295449
  - # 5
    frequency:    0.3028301699
  - # 6
    frequency:    2.2185525320
  - # 7
    frequency:    2.2217987494
  - # 8
    frequency:    4.4445571619
  - # 9
    frequency:    4.5911462513
  - # 10
    frequency:    4.6165714330
  - # 11
    frequency:    4.7402725664
  - # 12
    frequency:    4.7478389025
  - # 13
    frequency:    6.7668929391
  - # 14
    frequency:    6.7798717863
  - # 15
    frequency:    7.2801344273
  - # 16
    frequency:   10.3292810944
  - # 17
    frequency:   10.3298245309
  - # 18
    frequency:   10.8317481193
  - # 19
    frequency:   11.6492019949
  - # 20
    frequency:   11.6655688348
  - # 21
    frequency:   16.1866633504
  - # 22
    frequency:   21.1044325727
  - # 23
    frequency:   34.0336311955
  - # 24
    frequency:   65.0814421366

- q-position: [    0.0202020,    0.0000000,    0.0000000 ]
  distance:    0.0067167
  band:
  - # 1
    frequency:   -0.4064360527
  - # 2
    frequency:   -0.3376720917
  - # 3
    frequency:   -0.0923887281
  - # 4
    frequency:    0.2824558662
  - # 5
    frequency:    0.4013247403
  - # 6
    frequency:    2.2173979815
  - # 7
    frequency:    2.2230921882
  - # 8
    frequency:    4.4257020991
  - # 9
    frequency:    4.5908829055
  - # 10
    frequency:    4.6235943718
  - # 11
    frequency:    4.7397829558
  - # 12
    frequency:    4.7574094799
  - # 13
    frequency:    6.7582760912
  - # 14
    frequency:    6.7808547233
  - # 15
    frequency:    7.2909867024
  - # 16
    frequency:   10.3301104836
  - # 17
    frequency:   10.3310693597
  - # 18
    frequency:   10.8262026285
  - # 19
    frequency:   11.6487065871
  - # 20
    frequency:   11.6777165488
  - # 21
    frequency:   16.1757826392
  - # 22
    frequency:   21.1039246634
  - # 23
    frequency:   34.0318551004
  - # 24
    frequency:   65.0807660564

- q-position: [    0.0252525,    0.0000000,    0.0000000 ]
  distance:    0.0083959
  band:
  - # 1
    frequency:   -0.4019471248
  - # 2
    frequency:   -0.2884317972
  - # 3
    frequency:   -0.1112509690
  - # 4
    frequency:    0.3495060501
  - # 5
    frequency:    0.4981347364
  - # 6
    frequency:    2.2160024460
  - # 7
    frequency:    2.2247206992
  - # 8
    frequency:    4.4064101639
  - # 9
    frequency:    4.5904672002
  - # 10
    frequency:    4.6242821663
  - # 11
    frequency:    4.7392625507
  - # 12
    frequency:    4.7732594555
  - # 13
    frequency:    6.7477606210
  - # 14
    frequency:    6.7821245760
  - # 15
    frequency:    7.3043767984
  - # 16
    frequency:   10.3311669939
  - # 17
    frequency:   10.3326498775
  - # 18
    frequency:   10.8191788857
  - # 19
    frequency:   11.6480825176
  - # 20
    frequency:   11.6932416567
  - # 21
    frequency:   16.1618442314
  - # 22
    frequency:   21.1032737218
  - # 23
    frequency:   34.0295792415
  - # 24
    frequency:   65.0798990801

- q-position: [    0.0303030,    0.0000000,    0.0000000 ]
  distance:    0.0100751
  band:
  - # 1
    frequency:   -0.3949045727
  - # 2
    frequency:   -0.2149358122
  - # 3
    frequency:   -0.1239222518
  - # 4
    frequency:    0.4154460828
  - # 5
    frequency:    0.5929236741
  - # 6
    frequency:    2.2144755091
  - # 7
    frequency:    2.2266592637
  - # 8
    frequency:    4.3873706481
  - # 9
    frequency:    4.5898420457
  - # 10
    frequency:    4.6184287916
  - # 11
    frequency:    4.7387918027
  - # 12
    frequency:    4.7950176379
  - # 13
    frequency:    6.7356657020
  - # 14
    frequency:    6.7836855883
  - # 15
    frequency:    7.3199864901
  - # 16
    frequency:   10.3324433197
  - # 17
    frequency:   10.3345497387
  - # 18
    frequency:   10.8107497683
  - # 19
    frequency:   11.6473394827
  - # 20
    frequency:   11.7120816561
  - # 21
    frequency:   16.1448861657
  - # 22
    frequency:   21.1024812950
  - # 23
    frequency:   34.0268093288
  - # 24
    frequency:   65.0788428979

- q-position: [    0.0353535,    0.0000000,    0.0000000 ]
  distance:    0.0117543
  band:
  - # 1
    frequency:   -0.3850305988
  - # 2
    frequency:   -0.1562336383
  - # 3
    frequency:    0.0649461476
  - # 4
    frequency:    0.4805084381
  - # 5
    frequency:    0.6852215302
  - # 6
    frequency:    2.2130016952
  - # 7
    frequency:    2.2288782802
  - # 8
    frequency:    4.3689640545
  - # 9
    frequency:    4.5889395512
  - # 10
    frequency:    4.6071761585
  - # 11
    frequency:    4.7384664890
  - # 12
    frequency:    4.8212950591
  - # 13
    frequency:    6.7223041992
  - # 14
    frequency:    6.7855426040
  - # 15
    frequency:    7.3375047021
  - # 16
    frequency:   10.3339306228
  - # 17
    frequency:   10.3367473011
  - # 18
    frequency:   10.8009986014
  - # 19
    frequency:   11.6464893596
  - # 20
    frequency:   11.7341669313
  - # 21
    frequency:   16.1249546364
  - # 22
    frequency:   21.1015492554
  - # 23
    frequency:   34.0235522766
  - # 24
    frequency:   65.0775995627

- q-position: [    0.0404040,    0.0000000,    0.0000000 ]
  distance:    0.0134335
  band:
  - # 1
    frequency:   -0.3720709062
  - # 2
    frequency:   -0.1619256746
  - # 3
    frequency:    0.2346774052
  - # 4
    frequency:    0.5448628076
  - # 5
    frequency:    0.7743969323
  - # 6
    frequency:    2.2118743967
  - # 7
    frequency:    2.2313442113
  - # 8
    frequency:    4.3514029755
  - # 9
    frequency:    4.5876835161
  - # 10
    frequency:    4.5918073210
  - # 11
    frequency:    4.7383948493
  - # 12
    frequency:    4.8507486292
  - # 13
    frequency:    6.7079681951
  - # 14
    frequency:    6.7877008675
  - # 15
    frequency:    7.3566423548
  - # 16
    frequency:   10.3356185897
  - # 17
    frequency:   10.3392144053
  - # 18
    frequency:   10.7900176910
  - # 19
    frequency:   11.6455462051
  - # 20
    frequency:   11.7594230806
  - # 21
    frequency:   16.1021038184
  - # 22
    frequency:   21.1004797903
  - # 23
    frequency:   34.0198161651
  - # 24
    frequency:   65.0761714817

- q-position: [    0.0454545,    0.0000000,    0.0000000 ]
  distance:    0.0151127
  band:
  - # 1
    frequency:   -0.3557219597
  - # 2
    frequency:   -0.1682227231
  - # 3
    frequency:    0.3379726853
  - # 4
    frequency:    0.6086168297
  - # 5
    frequency:    0.8596284761
  - # 6
    frequency:    2.2115376852
  - # 7
    frequency:    2.2340204103
  - # 8
    frequency:    4.3347937262
  - # 9
    frequency:    4.5733379165
  - # 10
    frequency:    4.5859933098
  - # 11
    frequency:    4.7386932920
  - # 12
    frequency:    4.8824253050
  - # 13
    frequency:    6.6929224159
  - # 14
    frequency:    6.7901657967
  - # 15
    frequency:    7.3771393713
  - # 16
    frequency:   10.3374955015
  - # 17
    frequency:   10.3419147033
  - # 18
    frequency:   10.7779078169
  - # 19
    frequency:   11.6445262408
  - # 20
    frequency:   11.7877726838
  - # 21
    frequency:   16.0763956637
  - # 22
    frequency:   21.0992753895
  - # 23
    frequency:   34.0156101962
  - # 24
    frequency:   65.0745614080

- q-position: [    0.0505051,    0.0000000,    0.0000000 ]
  distance:    0.0167919
  band:
  - # 1
    frequency:   -0.3355567909
  - # 2
    frequency:   -0.1703156208
  - # 3
    frequency:    0.4247187500
  - # 4
    frequency:    0.6718258843
  - # 5
    frequency:    0.9398696582
  - # 6
    frequency:    2.2126334260
  - # 7
    frequency:    2.2368681691
  - # 8
    frequency:    4.3191601511
  - # 9
    frequency:    4.5525521445
  - # 10
    frequency:    4.5837891078
  - # 11
    frequency:    4.7394807102
  - # 12
    frequency:    4.9156990430
  - # 13
    frequency:    6.6774031408
  - # 14
    frequency:    6.7929427309
  - # 15
    frequency:    7.3987662567
  - # 16
    frequency:   10.3395483178
  - # 17
    frequency:   10.3448013937
  - # 18
    frequency:   10.7647789018
  - # 19
    frequency:   11.6434478181
  - # 20
    frequency:   11.8191364476
  - # 21
    frequency:   16.0478996716
  - # 22
    frequency:   21.0979388305
  - # 23
    frequency:   34.0109446433
  - # 24
    frequency:   65.0727724294

- q-position: [    0.0555556,    0.0000000,    0.0000000 ]
  distance:    0.0184710
  band:
  - # 1
    frequency:   -0.3109212418
  - # 2
    frequency:   -0.1665098700
  - # 3
    frequency:    0.5032608250
  - # 4
    frequency:    0.7345033657
  - # 5
    frequency:    1.0138146592
  - # 6
    frequency:    2.2160454073
  - # 7
    frequency:    2.2398480393
  - # 8
    frequency:    4.3044467661
  - # 9
    frequency:    4.5301152222
  - # 10
    frequency:    4.5809980155
  - # 11
    frequency:    4.7408718882
  - # 12
    frequency:    4.9501514660
  - # 13
    frequency:    6.6616203208
  - # 14
    frequency:    6.7960366601
  - # 15
    frequency:    7.4213225141
  - # 16
    frequency:   10.3417627759
  - # 17
    frequency:   10.3478141689
  - # 18
    frequency:   10.7507520197
  - # 19
    frequency:   11.6423313554
  - # 20
    frequency:   11.8534337675
  - # 21
    frequency:   16.0166926331
  - # 22
    frequency:   21.0964731634
  - # 23
    frequency:   34.0058307951
  - # 24
    frequency:   65.0708079580

- q-position: [    0.0606061,    0.0000000,    0.0000000 ]
  distance:    0.0201502
  band:
  - # 1
    frequency:   -0.2807414089
  - # 2
    frequency:   -0.1547614619
  - # 3
    frequency:    0.5767844803
  - # 4
    frequency:    0.7966286555
  - # 5
    frequency:    1.0798845657
  - # 6
    frequency:    2.2229219496
  - # 7
    frequency:    2.2429214999
  - # 8
    frequency:    4.2905081074
  - # 9
    frequency:    4.5066644323
  - # 10
    frequency:    4.5775601588
  - # 11
    frequency:    4.7429709277
  - # 12
    frequency:    4.9854873153
  - # 13
    frequency:    6.6457612309
  - # 14
    frequency:    6.7994519413
  - # 15
    frequency:    7.4446335654
  - # 16
    frequency:   10.3441235050
  - # 17
    frequency:   10.3508751321
  - # 18
    frequency:   10.7359628968
  - # 19
    frequency:   11.6411992428
  - # 20
    frequency:   11.8905828064
  - # 21
    frequency:   15.9828583545
  - # 22
    frequency:   21.0948816933
  - # 23
    frequency:   34.0002808953
  - # 24
    frequency:   65.0686717163

- q-position: [    0.0656566,    0.0000000,    0.0000000 ]
  distance:    0.0218294
  band:
  - # 1
    frequency:   -0.2430747075
  - # 2
    frequency:   -0.1313027319
  - # 3
    frequency:    0.6468415898
  - # 4
    frequency:    0.8581522715
  - # 5
    frequency:    1.1362678157
  - # 6
    frequency:    2.2346450599
  - # 7
    frequency:    2.2460530643
  - # 8
    frequency:    4.2770877897
  - # 9
    frequency:    4.4828759772
  - # 10
    frequency:    4.5734335848
  - # 11
    frequency:    4.7458658598
  - # 12
    frequency:    5.0214840788
  - # 13
    frequency:    6.6299945889
  - # 14
    frequency:    6.8031920102
  - # 15
    frequency:    7.4685472270
  - # 16
    frequency:   10.3466141586
  - # 17
    frequency:   10.3538833908
  - # 18
    frequency:   10.7205670807
  - # 19
    frequency:   11.6400757073
  - # 20
    frequency:   11.9305002165
  - # 21
    frequency:   15.9464873619
  - # 22
    frequency:   21.0931679616
  - # 23
    frequency:   33.9943080766
  - # 24
    frequency:   65.0663677245

- q-position: [    0.0707071,    0.0000000,    0.0000000 ]
  distance:    0.0235086
  band:
  - # 1
    frequency:   -0.1937386778
  - # 2
    frequency:   -0.0849464360
  - # 3
    frequency:    0.7142763218
  - # 4
    frequency:    0.9189983841
  - # 5
    frequency:    1.1810567445
  - # 6
    frequency:    2.2492129497
  - # 7
    frequency:    2.2527074011
  - # 8
    frequency:    4.2637928610
  - # 9
    frequency:    4.4595149662
  - # 10
    frequency:    4.5685969944
  - # 11
    frequency:    4.7496254301
  - # 12
    frequency:    5.0579630307
  - # 13
    frequency:    6.6144745474
  - # 14
    frequency:    6.8072590956
  - # 15
    frequency:    7.4929303190
  - # 16
    frequency:   10.3492175632
  - # 17
    frequency:   10.3567080404
  - # 18
    frequency:   10.7047469500
  - # 19
    frequency:   11.6389866315
  - # 20
    frequency:   11.9731006292
  - # 21
    frequency:   15.9076765897
  - # 22
    frequency:   21.0913357267
  - # 23
    frequency:   33.9879262909
  - # 24
    frequency:   65.0639002852

- q-position: [    0.0757576,    0.0000000,    0.0000000 ]
  distance:    0.0251878
  band:
  - # 1
    frequency:   -0.1192304968
  - # 2
    frequency:    0.0800379259
  - # 3
    frequency:    0.7795501013
  - # 4
    frequency:    0.9790650043
  - # 5
    frequency:    1.2125046208
  - # 6
    frequency:    2.2523804651
  - # 7
    frequency:    2.2784795008
  - # 8
    frequency:    4.2500785956
  - # 9
    frequency:    4.4374627902
  - # 10
    frequency:    4.5630498937
  - # 11
    frequency:    4.7542984768
  - # 12
    frequency:    5.0947724769
  - # 13
    frequency:    6.5993442659
  - # 14
    frequency:    6.8116539461
  - # 15
    frequency:    7.5176656779
  - # 16
    frequency:   10.3519158853
  - # 17
    frequency:   10.3591793841
  - # 18
    frequency:   10.6887206195
  - # 19
    frequency:   11.6379593239
  - # 20
    frequency:   12.0182960212
  - # 21
    frequency:   15.8665290591
  - # 22
    frequency:   21.0893889429
  - # 23
    frequency:   33.9811502363
  - # 24
    frequency:   65.0612739682

- q-position: [    0.0808081,    0.0000000,    0.0000000 ]
  distance:    0.0268670
  band:
  - # 1
    frequency:    0.1040204025
  - # 2
    frequency:    0.1541687297
  - # 3
    frequency:    0.8428508358
  - # 4
    frequency:    1.0382220639
  - # 5
    frequency:    1.2293734055
  - # 6
    frequency:    2.2555483106
  - # 7
    frequency:    2.3129144841
  - # 8
    frequency:    4.2352763338
  - # 9
    frequency:    4.4176948202
  - # 10
    frequency:    4.5568104533
  - # 11
    frequency:    4.7599156181
  - # 12
    frequency:    5.1317778895
  - # 13
    frequency:    6.5847389507
  - # 14
    frequency:    6.8163755767
  - # 15
    frequency:    7.5426496580
  - # 16
    frequency:   10.3546908159
  - # 17
    frequency:   10.3610787024
  - # 18
    frequency:   10.6727523533
  - # 19
    frequency:   11.6370222341
  - # 20
    frequency:   12.0659950408
  - # 21
    frequency:   15.8231535516
  - # 22
    frequency:   21.0873317386
  - # 23
    frequency:   33.9739952801
  - # 24
    frequency:   65.0584935941

- q-position: [    0.0858586,    0.0000000,    0.0000000 ]
  distance:    0.0285462
  band:
  - # 1
    frequency:    0.1937104387
  - # 2
    frequency:    0.2116388119
  - # 3
    frequency:    0.9040561157
  - # 4
    frequency:    1.0963074761
  - # 5
    frequency:    1.2313017212
  - # 6
    frequency:    2.2587280222
  - # 7
    frequency:    2.3563133235
  - # 8
    frequency:    4.2187061687
  - # 9
    frequency:    4.4011697860
  - # 10
    frequency:    4.5499118766
  - # 11
    frequency:    4.7664924527
  - # 12
    frequency:    5.1688560183
  - # 13
    frequency:    6.5707883375
  - # 14
    frequency:    6.8214210463
  - # 15
    frequency:    7.5677901165
  - # 16
    frequency:   10.3575237713
  - # 17
    frequency:   10.3621279979
  - # 18
    frequency:   10.6571630069
  - # 19
    frequency:   11.6362046138
  - # 20
    frequency:   12.1161023519
  - # 21
    frequency:   15.7776642827
  - # 22
    frequency:   21.0851683949
  - # 23
    frequency:   33.9664773802
  - # 24
    frequency:   65.0555642171

- q-position: [    0.0909091,    0.0000000,    0.0000000 ]
  distance:    0.0302253
  band:
  - # 1
    frequency:    0.2566017755
  - # 2
    frequency:    0.2627362611
  - # 3
    frequency:    0.9624180119
  - # 4
    frequency:    1.1531211476
  - # 5
    frequency:    1.2192585224
  - # 6
    frequency:    2.2619568179
  - # 7
    frequency:    2.4082747771
  - # 8
    frequency:    4.1998736711
  - # 9
    frequency:    4.3886334898
  - # 10
    frequency:    4.5423982243
  - # 11
    frequency:    4.7740333289
  - # 12
    frequency:    5.2058913870
  - # 13
    frequency:    6.5576186298
  - # 14
    frequency:    6.8267852718
  - # 15
    frequency:    7.5930048251
  - # 16
    frequency:   10.3603961087
  - # 17
    frequency:   10.3619833347
  - # 18
    frequency:   10.6423368505
  - # 19
    frequency:   11.6355361213
  - # 20
    frequency:   12.1685180332
  - # 21
    frequency:   15.7301805859
  - # 22
    frequency:   21.0829033217
  - # 23
    frequency:   33.9586130039
  - # 24
    frequency:   65.0524911075

- q-position: [    0.0959596,    0.0000000,    0.0000000 ]
  distance:    0.0319045
  band:
  - # 1
    frequency:    0.3088669363
  - # 2
    frequency:    0.3094053540
  - # 3
    frequency:    1.0151526821
  - # 4
    frequency:    1.1969377998
  - # 5
    frequency:    1.2084168517
  - # 6
    frequency:    2.2653060886
  - # 7
    frequency:    2.4678474543
  - # 8
    frequency:    4.1786474926
  - # 9
    frequency:    4.3804411277
  - # 10
    frequency:    4.5343204697
  - # 11
    frequency:    4.7825349116
  - # 12
    frequency:    5.2427742984
  - # 13
    frequency:    6.5453539179
  - # 14
    frequency:    6.8324608886
  - # 15
    frequency:    7.6182202431
  - # 16
    frequency:   10.3602387196
  - # 17
    frequency:   10.3632893534
  - # 18
    frequency:   10.6287178103
  - # 19
    frequency:   11.6350463735
  - # 20
    frequency:   12.2231370471
  - # 21
    frequency:   15.6808266153
  - # 22
    frequency:   21.0805410359
  - # 23
    frequency:   33.9504190456
  - # 24
    frequency:   65.0492797335

- q-position: [    0.1010101,    0.0000000,    0.0000000 ]
  distance:    0.0335837
  band:
  - # 1
    frequency:    0.3487194496
  - # 2
    frequency:    0.3565575230
  - # 3
    frequency:    1.0506739289
  - # 4
    frequency:    1.1775606371
  - # 5
    frequency:    1.2618919165
  - # 6
    frequency:    2.2688916786
  - # 7
    frequency:    2.5337832375
  - # 8
    frequency:    4.1552804511
  - # 9
    frequency:    4.3765363048
  - # 10
    frequency:    4.5257332386
  - # 11
    frequency:    4.7919890904
  - # 12
    frequency:    5.2793998688
  - # 13
    frequency:    6.5341170911
  - # 14
    frequency:    6.8384381620
  - # 15
    frequency:    7.6433705791
  - # 16
    frequency:   10.3564504471
  - # 17
    frequency:   10.3661854354
  - # 18
    frequency:   10.6167852020
  - # 19
    frequency:   11.6347644481
  - # 20
    frequency:   12.2798487810
  - # 21
    frequency:   15.6297310793
  - # 22
    frequency:   21.0780861376
  - # 23
    frequency:   33.9419127438
  - # 24
    frequency:   65.0459357427

- q-position: [    0.1060606,    0.0000000,    0.0000000 ]
  distance:    0.0352629
  band:
  - # 1
    frequency:    0.3781316032
  - # 2
    frequency:    0.3999942122
  - # 3
    frequency:    1.0415038037
  - # 4
    frequency:    1.1914138443
  - # 5
    frequency:    1.3131749201
  - # 6
    frequency:    2.2728858146
  - # 7
    frequency:    2.6047693520
  - # 8
    frequency:    4.1302698040
  - # 9
    frequency:    4.3765914651
  - # 10
    frequency:    4.5166923886
  - # 11
    frequency:    4.8023850782
  - # 12
    frequency:    5.3156678323
  - # 13
    frequency:    6.5240302470
  - # 14
    frequency:    6.8447049541
  - # 15
    frequency:    7.6683970791
  - # 16
    frequency:   10.3501898258
  - # 17
    frequency:   10.3690669282
  - # 18
    frequency:   10.6070010460
  - # 19
    frequency:   11.6347183448
  - # 20
    frequency:   12.3385366490
  - # 21
    frequency:   15.5770270225
  - # 22
    frequency:   21.0755432874
  - # 23
    frequency:   33.9331115980
  - # 24
    frequency:   65.0424649434

- q-position: [    0.1111111,    0.0000000,    0.0000000 ]
  distance:    0.0369421
  band:
  - # 1
    frequency:    0.3875531403
  - # 2
    frequency:    0.4407514342
  - # 3
    frequency:    0.9967615410
  - # 4
    frequency:    1.2347570618
  - # 5
    frequency:    1.3618121492
  - # 6
    frequency:    2.2775299467
  - # 7
    frequency:    2.6795765514
  - # 8
    frequency:    4.1041825254
  - # 9
    frequency:    4.3801841724
  - # 10
    frequency:    4.5072533761
  - # 11
    frequency:    4.8137107478
  - # 12
    frequency:    5.3514829879
  - # 13
    frequency:    6.5152145851
  - # 14
    frequency:    6.8512467489
  - # 15
    frequency:    7.6932474856
  - # 16
    frequency:   10.3411192278
  - # 17
    frequency:   10.3719172863
  - # 18
    frequency:   10.5997340284
  - # 19
    frequency:   11.6349344133
  - # 20
    frequency:   12.3990777318
  - # 21
    frequency:   15.5228516734
  - # 22
    frequency:   21.0729171840
  - # 23
    frequency:   33.9240332856
  - # 24
    frequency:   65.0388732853

- q-position: [    0.1161616,    0.0000000,    0.0000000 ]
  distance:    0.0386213
  band:
  - # 1
    frequency:    0.3554464738
  - # 2
    frequency:    0.4794515549
  - # 3
    frequency:    0.9476170658
  - # 4
    frequency:    1.2868143769
  - # 5
    frequency:    1.4072546473
  - # 6
    frequency:    2.2831466631
  - # 7
    frequency:    2.7571241114
  - # 8
    frequency:    4.0775426969
  - # 9
    frequency:    4.3869122735
  - # 10
    frequency:    4.4974702604
  - # 11
    frequency:    4.8259533560
  - # 12
    frequency:    5.3867562362
  - # 13
    frequency:    6.5077897613
  - # 14
    frequency:    6.8580467358
  - # 15
    frequency:    7.7178756221
  - # 16
    frequency:   10.3290649016
  - # 17
    frequency:   10.3747210735
  - # 18
    frequency:   10.5951866819
  - # 19
    frequency:   11.6354367611
  - # 20
    frequency:   12.4613424231
  - # 21
    frequency:   15.4673463852
  - # 22
    frequency:   21.0702125424
  - # 23
    frequency:   33.9146955809
  - # 24
    frequency:   65.0351668406

- q-position: [    0.1212121,    0.0000000,    0.0000000 ]
  distance:    0.0403004
  band:
  - # 1
    frequency:    0.2239554115
  - # 2
    frequency:    0.5164971643
  - # 3
    frequency:    0.9154092816
  - # 4
    frequency:    1.3411781508
  - # 5
    frequency:    1.4488493850
  - # 6
    frequency:    2.2901471097
  - # 7
    frequency:    2.8364894318
  - # 8
    frequency:    4.0507899139
  - # 9
    frequency:    4.3964391299
  - # 10
    frequency:    4.4873951716
  - # 11
    frequency:    4.8390998274
  - # 12
    frequency:    5.4214061921
  - # 13
    frequency:    6.5018726772
  - # 14
    frequency:    6.8650859482
  - # 15
    frequency:    7.7422410662
  - # 16
    frequency:   10.3140495989
  - # 17
    frequency:   10.3774641750
  - # 18
    frequency:   10.5933627449
  - # 19
    frequency:   11.6362466536
  - # 20
    frequency:   12.5251940407
  - # 21
    frequency:   15.4106567035
  - # 22
    frequency:   21.0674340721
  - # 23
    frequency:   33.9051162747
  - # 24
    frequency:   65.0313517849

- q-position: [    0.1262626,    0.0000000,    0.0000000 ]
  distance:    0.0419796
  band:
  - # 1
    frequency:   -0.2944920606
  - # 2
    frequency:    0.5521620226
  - # 3
    frequency:    0.9108845327
  - # 4
    frequency:    1.3961108043
  - # 5
    frequency:    1.4858402250
  - # 6
    frequency:    2.2990281736
  - # 7
    frequency:    2.9168894897
  - # 8
    frequency:    4.0242792816
  - # 9
    frequency:    4.4084984509
  - # 10
    frequency:    4.4770780842
  - # 11
    frequency:    4.8531367519
  - # 12
    frequency:    5.4553613705
  - # 13
    frequency:    6.4975756885
  - # 14
    frequency:    6.8723434551
  - # 15
    frequency:    7.7663088829
  - # 16
    frequency:   10.2962677454
  - # 17
    frequency:   10.3801339863
  - # 18
    frequency:   10.5940919821
  - # 19
    frequency:   11.6373819231
  - # 20
    frequency:   12.5904883459
  - # 21
    frequency:   15.3529326050
  - # 22
    frequency:   21.0645864574
  - # 23
    frequency:   33.8953130966
  - # 24
    frequency:   65.0274343781

- q-position: [    0.1313131,    0.0000000,    0.0000000 ]
  distance:    0.0436588
  band:
  - # 1
    frequency:   -0.5216040216
  - # 2
    frequency:    0.5866386412
  - # 3
    frequency:    0.9305019675
  - # 4
    frequency:    1.4510055828
  - # 5
    frequency:    1.5173859718
  - # 6
    frequency:    2.3103520403
  - # 7
    frequency:    2.9976516154
  - # 8
    frequency:    3.9982980050
  - # 9
    frequency:    4.4228839625
  - # 10
    frequency:    4.4665667718
  - # 11
    frequency:    4.8680502179
  - # 12
    frequency:    5.4885629257
  - # 13
    frequency:    6.4950042395
  - # 14
    frequency:    6.8797965970
  - # 15
    frequency:    7.7900493955
  - # 16
    frequency:   10.2760213727
  - # 17
    frequency:   10.3827195705
  - # 18
    frequency:   10.5970942566
  - # 19
    frequency:   11.6388564031
  - # 20
    frequency:   12.6570729027
  - # 21
    frequency:   15.2943289697
  - # 22
    frequency:   21.0616743376
  - # 23
    frequency:   33.8853036406
  - # 24
    frequency:   65.0234209456

- q-position: [    0.1363636,    0.0000000,    0.0000000 ]
  distance:    0.0453380
  band:
  - # 1
    frequency:   -0.6989474960
  - # 2
    frequency:    0.6200651379
  - # 3
    frequency:    0.9657572628
  - # 4
    frequency:    1.5056036853
  - # 5
    frequency:    1.5426017107
  - # 6
    frequency:    2.3247017793
  - # 7