nqpoint: 300    
npath: 3      
segment_nqpoint:
- 100
- 100
- 100
labels:
- [ 'G', 'M' ]
- [ 'M', 'K' ]
- [ 'K', 'G' ]
reciprocal_lattice:
- [   0.31730452,   0.18319585,   0.00000000 ] # a*
- [   0.00000000,   0.36639170,   0.00000000 ] # b*
- [   0.00000000,   0.00000000,   0.04370194 ] # c*
natom: 5      
lattice:
- [     3.151546648259287,     0.000000000000000,     0.000000000000000 ] # a
- [    -1.575773324129644,     2.729319458600970,     0.000000000000000 ] # b
- [     0.000000000000000,     0.000000000000000,    22.882281572256623 ] # c
points:
- symbol: C # 1
  coordinates: [  0.000000000000000,  0.000000000000000,  0.483991792987240 ]
  mass: 12.010700
- symbol: Cl # 2
  coordinates: [  0.333332985432215,  0.666666983183674,  0.606682577889787 ]
  mass: 35.453000
- symbol: H # 3
  coordinates: [  0.666666984744048,  0.333332985985145,  0.393317422110213 ]
  mass: 1.007940
- symbol: Ti # 4
  coordinates: [  0.333332985432215,  0.666666983183674,  0.434647851568322 ]
  mass: 47.867000
- symbol: Ti # 5
  coordinates: [  0.666666984744048,  0.333332985985145,  0.532616502537710 ]
  mass: 47.867000

phonon:
- q-position: [    0.0000000,    0.0000000,    0.0000000 ]
  distance:    0.0000000
  band:
  - # 1
    frequency:   -0.0000153309
  - # 2
    frequency:    0.0000001423
  - # 3
    frequency:    0.0000141046
  - # 4
    frequency:    5.3304508297
  - # 5
    frequency:    5.3304508298
  - # 6
    frequency:    7.7203028975
  - # 7
    frequency:    8.0955928193
  - # 8
    frequency:    8.0955928194
  - # 9
    frequency:   12.3050720422
  - # 10
    frequency:   18.0868137068
  - # 11
    frequency:   18.8396416647
  - # 12
    frequency:   18.8396416647
  - # 13
    frequency:   28.7275590555
  - # 14
    frequency:   28.7275590556
  - # 15
    frequency:   28.8962145661

- q-position: [    0.0050505,    0.0000000,    0.0000000 ]
  distance:    0.0018505
  band:
  - # 1
    frequency:    0.0023906008
  - # 2
    frequency:    0.0733826631
  - # 3
    frequency:    0.1380693257
  - # 4
    frequency:    5.3307195386
  - # 5
    frequency:    5.3322769602
  - # 6
    frequency:    7.7171886326
  - # 7
    frequency:    8.0953348588
  - # 8
    frequency:    8.0989722227
  - # 9
    frequency:   12.3041373274
  - # 10
    frequency:   18.0861356181
  - # 11
    frequency:   18.8392985752
  - # 12
    frequency:   18.8396471436
  - # 13
    frequency:   28.7229583821
  - # 14
    frequency:   28.7266685157
  - # 15
    frequency:   28.8995129671

- q-position: [    0.0101010,    0.0000000,    0.0000000 ]
  distance:    0.0037009
  band:
  - # 1
    frequency:    0.0095518257
  - # 2
    frequency:    0.1468290922
  - # 3
    frequency:    0.2761428479
  - # 4
    frequency:    5.3315261006
  - # 5
    frequency:    5.3377446671
  - # 6
    frequency:    7.7081755411
  - # 7
    frequency:    8.0945624156
  - # 8
    frequency:    8.1087800826
  - # 9
    frequency:   12.3013353643
  - # 10
    frequency:   18.0841038595
  - # 11
    frequency:   18.8382696861
  - # 12
    frequency:   18.8396611717
  - # 13
    frequency:   28.7101268631
  - # 14
    frequency:   28.7239993407
  - # 15
    frequency:   28.9084418036

- q-position: [    0.0151515,    0.0000000,    0.0000000 ]
  distance:    0.0055514
  band:
  - # 1
    frequency:    0.0214510538
  - # 2
    frequency:    0.2204026036
  - # 3
    frequency:    0.4142242701
  - # 4
    frequency:    5.3328718151
  - # 5
    frequency:    5.3468221410
  - # 6
    frequency:    7.6941107323
  - # 7
    frequency:    8.0932797959
  - # 8
    frequency:    8.1241673556
  - # 9
    frequency:   12.2966726819
  - # 10
    frequency:   18.0807259174
  - # 11
    frequency:   18.8365561420
  - # 12
    frequency:   18.8396765807
  - # 13
    frequency:   28.6910964841
  - # 14
    frequency:   28.7195588542
  - # 15
    frequency:   28.9209814776

- q-position: [    0.0202020,    0.0000000,    0.0000000 ]
  distance:    0.0074019
  band:
  - # 1
    frequency:    0.0380348988
  - # 2
    frequency:    0.2941656124
  - # 3
    frequency:    0.5523163158
  - # 4
    frequency:    5.3347588224
  - # 5
    frequency:    5.3594571676
  - # 6
    frequency:    7.6760555868
  - # 7
    frequency:    8.0914941471
  - # 8
    frequency:    8.1440694586
  - # 9
    frequency:   12.2901601144
  - # 10
    frequency:   18.0760141479
  - # 11
    frequency:   18.8341598725
  - # 12
    frequency:   18.8396816118
  - # 13
    frequency:   28.6677083782
  - # 14
    frequency:   28.7133592312
  - # 15
    frequency:   28.9353114477

- q-position: [    0.0252525,    0.0000000,    0.0000000 ]
  distance:    0.0092523
  band:
  - # 1
    frequency:    0.0592302393
  - # 2
    frequency:    0.3681791889
  - # 3
    frequency:    0.6904202424
  - # 4
    frequency:    5.3371900675
  - # 5
    frequency:    5.3755782837
  - # 6
    frequency:    7.6550296228
  - # 7
    frequency:    8.0892154141
  - # 8
    frequency:    8.1674624333
  - # 9
    frequency:   12.2818127313
  - # 10
    frequency:   18.0699856031
  - # 11
    frequency:   18.8310836238
  - # 12
    frequency:   18.8396601889
  - # 13
    frequency:   28.6412266469
  - # 14
    frequency:   28.7054174503
  - # 15
    frequency:   28.9501963272

- q-position: [    0.0303030,    0.0000000,    0.0000000 ]
  distance:    0.0111028
  band:
  - # 1
    frequency:    0.0849457357
  - # 2
    frequency:    0.4425026230
  - # 3
    frequency:    0.8285353620
  - # 4
    frequency:    5.3401692497
  - # 5
    frequency:    5.3950963093
  - # 6
    frequency:    7.6318872232
  - # 7
    frequency:    8.0864562782
  - # 8
    frequency:    8.1934862655
  - # 9
    frequency:   12.2716497402
  - # 10
    frequency:   18.0626618015
  - # 11
    frequency:   18.8273310027
  - # 12
    frequency:   18.8395922857
  - # 13
    frequency:   28.6124538181
  - # 14
    frequency:   28.6957552288
  - # 15
    frequency:   28.9648703133

- q-position: [    0.0353535,    0.0000000,    0.0000000 ]
  distance:    0.0129532
  band:
  - # 1
    frequency:    0.1150736406
  - # 2
    frequency:    0.5171929962
  - # 3
    frequency:    0.9666585708
  - # 4
    frequency:    5.3437007590
  - # 5
    frequency:    5.4179061771
  - # 6
    frequency:    7.6072962857
  - # 7
    frequency:    8.0832320788
  - # 8
    frequency:    8.2214662965
  - # 9
    frequency:   12.2596943662
  - # 10
    frequency:   18.0540684545
  - # 11
    frequency:   18.8229065333
  - # 12
    frequency:   18.8394543691
  - # 13
    frequency:   28.5819062646
  - # 14
    frequency:   28.6843989382
  - # 15
    frequency:   28.9788616229

- q-position: [    0.0404040,    0.0000000,    0.0000000 ]
  distance:    0.0148037
  band:
  - # 1
    frequency:    0.1494918207
  - # 2
    frequency:    0.5923047679
  - # 3
    frequency:    1.1047838874
  - # 4
    frequency:    5.3477896023
  - # 5
    frequency:    5.4438889750
  - # 6
    frequency:    7.5817634032
  - # 7
    frequency:    8.0795607189
  - # 8
    frequency:    8.2508881205
  - # 9
    frequency:   12.2459737085
  - # 10
    frequency:   18.0442351614
  - # 11
    frequency:   18.8178157236
  - # 12
    frequency:   18.8392199052
  - # 13
    frequency:   28.5499343662
  - # 14
    frequency:   28.6713795023
  - # 15
    frequency:   28.9918721547

- q-position: [    0.0454545,    0.0000000,    0.0000000 ]
  distance:    0.0166542
  band:
  - # 1
    frequency:    0.1880658992
  - # 2
    frequency:    0.6678893747
  - # 3
    frequency:    1.2429020039
  - # 4
    frequency:    5.3524413186
  - # 5
    frequency:    5.4729141098
  - # 6
    frequency:    7.5556702148
  - # 7
    frequency:    8.0754625548
  - # 8
    frequency:    8.2813613331
  - # 9
    frequency:   12.2305185769
  - # 10
    frequency:   18.0331950876
  - # 11
    frequency:   18.8120651426
  - # 12
    frequency:   18.8388599093
  - # 13
    frequency:   28.5167924293
  - # 14
    frequency:   28.6567322778
  - # 15
    frequency:   29.0037073629

- q-position: [    0.0505051,    0.0000000,    0.0000000 ]
  distance:    0.0185046
  band:
  - # 1
    frequency:    0.2306514369
  - # 2
    frequency:    0.7439948470
  - # 3
    frequency:    1.3809998483
  - # 4
    frequency:    5.3576618869
  - # 5
    frequency:    5.5048415080
  - # 6
    frequency:    7.5293062017
  - # 7
    frequency:    8.0709602701
  - # 8
    frequency:    8.3125868555
  - # 9
    frequency:   12.2133633115
  - # 10
    frequency:   18.0209846350
  - # 11
    frequency:   18.8056625073
  - # 12
    frequency:   18.8383435242
  - # 13
    frequency:   28.4826780123
  - # 14
    frequency:   28.6404969175
  - # 15
    frequency:   29.0142366943

- q-position: [    0.0555556,    0.0000000,    0.0000000 ]
  distance:    0.0203551
  band:
  - # 1
    frequency:    0.2770960753
  - # 2
    frequency:    0.8206654446
  - # 3
    frequency:    1.5190601617
  - # 4
    frequency:    5.3634576262
  - # 5
    frequency:    5.5395237764
  - # 6
    frequency:    7.5028941747
  - # 7
    frequency:    8.0660787353
  - # 8
    frequency:    8.3443315931
  - # 9
    frequency:   12.1945455880
  - # 10
    frequency:   18.0076431169
  - # 11
    frequency:   18.7986167770
  - # 12
    frequency:   18.8376386119
  - # 13
    frequency:   28.4477542267
  - # 14
    frequency:   28.6227172174
  - # 15
    frequency:   29.0233710212

- q-position: [    0.0606061,    0.0000000,    0.0000000 ]
  distance:    0.0222056
  band:
  - # 1
    frequency:    0.3272415787
  - # 2
    frequency:    0.8979413130
  - # 3
    frequency:    1.6570610904
  - # 4
    frequency:    5.3698350925
  - # 5
    frequency:    5.5768082568
  - # 6
    frequency:    7.4766088958
  - # 7
    frequency:    8.0608448532
  - # 8
    frequency:    8.3764099886
  - # 9
    frequency:   12.1741062117
  - # 10
    frequency:   17.9932124429
  - # 11
    frequency:   18.7909382551
  - # 12
    frequency:   18.8367123460
  - # 13
    frequency:   28.4121626648
  - # 14
    frequency:   28.6034409468
  - # 15
    frequency:   29.0310494193

- q-position: [    0.0656566,    0.0000000,    0.0000000 ]
  distance:    0.0240560
  band:
  - # 1
    frequency:    0.3809257270
  - # 2
    frequency:    0.9758581621
  - # 3
    frequency:    1.7949757926
  - # 4
    frequency:    5.3768009717
  - # 5
    frequency:    5.6165389238
  - # 6
    frequency:    7.4505903512
  - # 7
    frequency:    8.0552873919
  - # 8
    frequency:    8.4086709574
  - # 9
    frequency:   12.1520889025
  - # 10
    frequency:   17.9777368198
  - # 11
    frequency:   18.7826386967
  - # 12
    frequency:   18.8355317942
  - # 13
    frequency:   28.3760310764
  - # 14
    frequency:   28.5827196650
  - # 15
    frequency:   29.0372311694

- q-position: [    0.0707071,    0.0000000,    0.0000000 ]
  distance:    0.0259065
  band:
  - # 1
    frequency:    0.4379840260
  - # 2
    frequency:    1.0544469706
  - # 3
    frequency:    1.9327720609
  - # 4
    frequency:    5.3843619722
  - # 5
    frequency:    5.6585580897
  - # 6
    frequency:    7.4249531585
  - # 7
    frequency:    8.0494368049
  - # 8
    frequency:    8.4409887246
  - # 9
    frequency:   12.1285400757
  - # 10
    frequency:   17.9612624717
  - # 11
    frequency:   18.7737314196
  - # 12
    frequency:   18.8340644834
  - # 13
    frequency:   28.3394780255
  - # 14
    frequency:   28.5606085214
  - # 15
    frequency:   29.0418907532

- q-position: [    0.0757576,    0.0000000,    0.0000000 ]
  distance:    0.0277569
  band:
  - # 1
    frequency:    0.4982512123
  - # 2
    frequency:    1.1337337153
  - # 3
    frequency:    2.0704119599
  - # 4
    frequency:    5.3925247184
  - # 5
    frequency:    5.7027078933
  - # 6
    frequency:    7.3997932718
  - # 7
    frequency:    8.0433250406
  - # 8
    frequency:    8.4732564071
  - # 9
    frequency:   12.1035086186
  - # 10
    frequency:   17.9438373791
  - # 11
    frequency:   18.7642314192
  - # 12
    frequency:   18.8322789397
  - # 13
    frequency:   28.3026157551
  - # 14
    frequency:   28.5371660439
  - # 15
    frequency:   29.0450146168

- q-position: [    0.0808081,    0.0000000,    0.0000000 ]
  distance:    0.0296074
  band:
  - # 1
    frequency:    0.5615625480
  - # 2
    frequency:    1.2137391291
  - # 3
    frequency:    2.2078514776
  - # 4
    frequency:    5.4012956464
  - # 5
    frequency:    5.7488315588
  - # 6
    frequency:    7.3751928240
  - # 7
    frequency:    8.0369853418
  - # 8
    frequency:    8.5053815081
  - # 9
    frequency:   12.0770456673
  - # 10
    frequency:   17.9255110370
  - # 11
    frequency:   18.7541554833
  - # 12
    frequency:   18.8301452000
  - # 13
    frequency:   28.2655519601
  - # 14
    frequency:   28.5124539135
  - # 15
    frequency:   29.0465990028

- q-position: [    0.0858586,    0.0000000,    0.0000000 ]
  distance:    0.0314579
  band:
  - # 1
    frequency:    0.6277549047
  - # 2
    frequency:    1.2944784873
  - # 3
    frequency:    2.3450401899
  - # 4
    frequency:    5.4106809050
  - # 5
    frequency:    5.7967744252
  - # 6
    frequency:    7.3512236934
  - # 7
    frequency:    8.0304520358
  - # 8
    frequency:    8.5372827403
  - # 9
    frequency:   12.0492043865
  - # 10
    frequency:   17.9063342309
  - # 11
    frequency:   18.7435223072
  - # 12
    frequency:   18.8276352905
  - # 13
    frequency:   28.2283908750
  - # 14
    frequency:   28.4865367275
  - # 15
    frequency:   29.0466484471

- q-position: [    0.0909091,    0.0000000,    0.0000000 ]
  distance:    0.0333083
  band:
  - # 1
    frequency:    0.6966676477
  - # 2
    frequency:    1.3759614243
  - # 3
    frequency:    2.4819209364
  - # 4
    frequency:    5.4206862606
  - # 5
    frequency:    5.8463847474
  - # 6
    frequency:    7.3279502036
  - # 7
    frequency:    8.0237603175
  - # 8
    frequency:    8.5688877822
  - # 9
    frequency:   12.0200397521
  - # 10
    frequency:   17.8863588283
  - # 11
    frequency:   18.7323526056
  - # 12
    frequency:   18.8247236704
  - # 13
    frequency:   28.1912339192
  - # 14
    frequency:   28.4594817523
  - # 15
    frequency:   29.0451746984

- q-position: [    0.0959596,    0.0000000,    0.0000000 ]
  distance:    0.0351588
  band:
  - # 1
    frequency:    0.7681433354
  - # 2
    frequency:    1.4581917808
  - # 3
    frequency:    2.6184295041
  - # 4
    frequency:    5.4313170112
  - # 5
    frequency:    5.8975142775
  - # 6
    frequency:    7.3054312414
  - # 7
    frequency:    8.0169460257
  - # 8
    frequency:    8.6001316895
  - # 9
    frequency:   11.9896083408
  - # 10
    frequency:   17.8656375820
  - # 11
    frequency:   18.7206692212
  - # 12
    frequency:   18.8213876384
  - # 13
    frequency:   28.1541800544
  - # 14
    frequency:   28.4313586667
  - # 15
    frequency:   29.0421959089

- q-position: [    0.1010101,    0.0000000,    0.0000000 ]
  distance:    0.0370093
  band:
  - # 1
    frequency:    0.8420282519
  - # 2
    frequency:    1.5411674832
  - # 3
    frequency:    2.7544943165
  - # 4
    frequency:    5.4425779062
  - # 5
    frequency:    5.9500186338
  - # 6
    frequency:    7.2837219948
  - # 7
    frequency:    8.0100454144
  - # 8
    frequency:    8.6309557752
  - # 9
    frequency:   11.9579681277
  - # 10
    frequency:   17.8442239455
  - # 11
    frequency:   18.7084972264
  - # 12
    frequency:   18.8176077000
  - # 13
    frequency:   28.1173259451
  - # 14
    frequency:   28.4022392964
  - # 15
    frequency:   29.0377360065

- q-position: [    0.1060606,    0.0000000,    0.0000000 ]
  distance:    0.0388597
  band:
  - # 1
    frequency:    0.9181727934
  - # 2
    frequency:    1.6248804547
  - # 3
    frequency:    2.8900361239
  - # 4
    frequency:    5.4544730764
  - # 5
    frequency:    6.0037574636
  - # 6
    frequency:    7.2628754624
  - # 7
    frequency:    8.0030949208
  - # 8
    frequency:    8.6613068251
  - # 9
    frequency:   11.9251782925
  - # 10
    frequency:   17.8221718956
  - # 11
    frequency:   18.6958640179
  - # 12
    frequency:   18.8133678948
  - # 13
    frequency:   28.0807659884
  - # 14
    frequency:   28.3721973425
  - # 15
    frequency:   29.0318241863

- q-position: [    0.1111111,    0.0000000,    0.0000000 ]
  distance:    0.0407102
  band:
  - # 1
    frequency:    0.9964317292
  - # 2
    frequency:    1.7093165590
  - # 3
    frequency:    3.0249676902
  - # 4
    frequency:    5.4670059722
  - # 5
    frequency:    6.0585943981
  - # 6
    frequency:    7.2429438503
  - # 7
    frequency:    7.9961309308
  - # 8
    frequency:    8.6911365553
  - # 9
    frequency:   11.8912990369
  - # 10
    frequency:   17.7995357621
  - # 11
    frequency:   18.6827994006
  - # 12
    frequency:   18.8086560819
  - # 13
    frequency:   28.0445922506
  - # 14
    frequency:   28.3413081029
  - # 15
    frequency:   29.0244944834

- q-position: [    0.1161616,    0.0000000,    0.0000000 ]
  distance:    0.0425607
  band:
  - # 1
    frequency:    1.0766643568
  - # 2
    frequency:    1.7944555771
  - # 3
    frequency:    3.1591934718
  - # 4
    frequency:    5.4801793119
  - # 5
    frequency:    6.1143967896
  - # 6
    frequency:    7.2239799588
  - # 7
    frequency:    7.9891895440
  - # 8
    frequency:    8.7204012462
  - # 9
    frequency:   11.8563914130
  - # 10
    frequency:   17.7763700627
  - # 11
    frequency:   18.6693356603
  - # 12
    frequency:   18.8034641817
  - # 13
    frequency:   28.0088943410
  - # 14
    frequency:   28.3096481906
  - # 15
    frequency:   29.0157854025

- q-position: [    0.1212121,    0.0000000,    0.0000000 ]
  distance:    0.0444111
  band:
  - # 1
    frequency:    1.1587345698
  - # 2
    frequency:    1.8802712162
  - # 3
    frequency:    3.2926092802
  - # 4
    frequency:    5.4939950384
  - # 5
    frequency:    6.1710352036
  - # 6
    frequency:    7.2060386564
  - # 7
    frequency:    7.9823063402
  - # 8
    frequency:    8.7490615031
  - # 9
    frequency:   11.8205171650
  - # 10
    frequency:   17.7527293419
  - # 11
    frequency:   18.6555076225
  - # 12
    frequency:   18.7977883738
  - # 13
    frequency:   27.9737592407
  - # 14
    frequency:   28.2772952482
  - # 15
    frequency:   29.0057395871

- q-position: [    0.1262626,    0.0000000,    0.0000000 ]
  distance:    0.0462616
  band:
  - # 1
    frequency:    1.2425108556
  - # 2
    frequency:    1.9667311518
  - # 3
    frequency:    3.4251019258
  - # 4
    frequency:    5.5084542865
  - # 5
    frequency:    6.2283826125
  - # 6
    frequency:    7.1891785495
  - # 7
    frequency:    7.9755161476
  - # 8
    frequency:    8.7770821084
  - # 9
    frequency:   11.7837385841
  - # 10
    frequency:   17.7286680134
  - # 11
    frequency:   18.6413526959
  - # 12
    frequency:   18.7916292494
  - # 13
    frequency:   27.9392711005
  - # 14
    frequency:   28.2443276607
  - # 15
    frequency:   28.9944035170

- q-position: [    0.1313131,    0.0000000,    0.0000000 ]
  distance:    0.0481120
  band:
  - # 1
    frequency:    1.3278662373
  - # 2
    frequency:    2.0537971027
  - # 3
    frequency:    3.5565488318
  - # 4
    frequency:    5.5235573572
  - # 5
    frequency:    6.2863131974
  - # 6
    frequency:    7.1734639875
  - # 7
    frequency:    7.9688528166
  - # 8
    frequency:    8.8044319380
  - # 9
    frequency:   11.7461183777
  - # 10
    frequency:   17.7042402057
  - # 11
    frequency:   18.6269108983
  - # 12
    frequency:   18.7849919162
  - # 13
    frequency:   27.9055110168
  - # 14
    frequency:   28.2108242686
  - # 15
    frequency:   28.9818272288

- q-position: [    0.1363636,    0.0000000,    0.0000000 ]
  distance:    0.0499625
  band:
  - # 1
    frequency:    1.4146781738
  - # 2
    frequency:    2.1414249378
  - # 3
    frequency:    3.6868176164
  - # 4
    frequency:    5.5393037008
  - # 5
    frequency:    6.3447005989
  - # 6
    frequency:    7.1589675980
  - # 7
    frequency:    7.9623489984
  - # 8
    frequency:    8.8310839209
  - # 9
    frequency:   11.7077195533
  - # 10
    frequency:   17.6794996111
  - # 11
    frequency:   18.6122248631
  - # 12
    frequency:   18.7778860572
  - # 13
    frequency:   27.8725567931
  - # 14
    frequency:   28.1768640815
  - # 15
    frequency:   28.9680640534

- q-position: [    0.1414141,    0.0000000,    0.0000000 ]
  distance:    0.0518130
  band:
  - # 1
    frequency:    1.5028284266
  - # 2
    frequency:    2.2295648151
  - # 3
    frequency:    3.8157656351
  - # 4
    frequency:    5.5556919065
  - # 5
    frequency:    6.4034153447
  - # 6
    frequency:    7.1457736530
  - # 7
    frequency:    7.9560359326
  - # 8
    frequency:    8.8570150256
  - # 9
    frequency:   11.6686053186
  - # 10
    frequency:   17.6544993377
  - # 11
    frequency:   18.5973398256
  - # 12
    frequency:   18.7703259402
  - # 13
    frequency:   27.8404826913
  - # 14
    frequency:   28.1425259948
  - # 15
    frequency:   28.9531703693

- q-position: [    0.1464646,    0.0000000,    0.0000000 ]
  distance:    0.0536634
  band:
  - # 1
    frequency:    1.5922029049
  - # 2
    frequency:    2.3181613529
  - # 3
    frequency:    3.9432394813
  - # 4
    frequency:    5.5727196975
  - # 5
    frequency:    6.4623209905
  - # 6
    frequency:    7.1339827477
  - # 7
    frequency:    7.9499432434
  - # 8
    frequency:    8.8822062598
  - # 9
    frequency:   11.6288389979
  - # 10
    frequency:   17.6292917653
  - # 11
    frequency:   18.5823035863
  - # 12
    frequency:   18.7623303805
  - # 13
    frequency:   27.8093591766
  - # 14
    frequency:   28.1078885102
  - # 15
    frequency:   28.9372053713

- q-position: [    0.1515152,    0.0000000,    0.0000000 ]
  distance:    0.0555139
  band:
  - # 1
    frequency:    1.6826914943
  - # 2
    frequency:    2.4071538325
  - # 3
    frequency:    4.0690744472
  - # 4
    frequency:    5.5903839304
  - # 5
    frequency:    6.5212681678
  - # 6
    frequency:    7.1237186123
  - # 7
    frequency:    7.9440987478
  - # 8
    frequency:    8.9066426733
  - # 9
    frequency:   11.5884839646
  - # 10
    frequency:   17.6039284054
  - # 11
    frequency:   18.5671664504
  - # 12
    frequency:   18.7539226547
  - # 13
    frequency:   27.7792526575
  - # 14
    frequency:   28.0730294610
  - # 15
    frequency:   28.9202308534

- q-position: [    0.1565657,    0.0000000,    0.0000000 ]
  distance:    0.0573644
  band:
  - # 1
    frequency:    1.7741878757
  - # 2
    frequency:    2.4964764315
  - # 3
    frequency:    4.1930939523
  - # 4
    frequency:    5.6086805975
  - # 5
    frequency:    6.5800851035
  - # 6
    frequency:    7.1151384922
  - # 7
    frequency:    7.9385282765
  - # 8
    frequency:    8.9303133541
  - # 9
    frequency:   11.5476035922
  - # 10
    frequency:   17.5784597657
  - # 11
    frequency:   18.5519811419
  - # 12
    frequency:   18.7451303679
  - # 13
    frequency:   27.7502252235
  - # 14
    frequency:   28.0380257451
  - # 15
    frequency:   28.9023110078

- q-position: [    0.1616162,    0.0000000,    0.0000000 ]
  distance:    0.0592148
  band:
  - # 1
    frequency:    1.8665893384
  - # 2
    frequency:    2.5860584891
  - # 3
    frequency:    4.3151089579
  - # 4
    frequency:    5.6276048299
  - # 5
    frequency:    6.6385620028
  - # 6
    frequency:    7.1084496916
  - # 7
    frequency:    7.9332555097
  - # 8
    frequency:    8.9532114119
  - # 9
    frequency:   11.5062612223
  - # 10
    frequency:   17.5529352207
  - # 11
    frequency:   18.5368026916
  - # 12
    frequency:   18.7359852746
  - # 13
    frequency:   27.7223343796
  - # 14
    frequency:   28.0029530646
  - # 15
    frequency:   28.8835122414

- q-position: [    0.1666667,    0.0000000,    0.0000000 ]
  distance:    0.0610653
  band:
  - # 1
    frequency:    1.9597965908
  - # 2
    frequency:    2.6758248011
  - # 3
    frequency:    4.4349174032
  - # 4
    frequency:    5.6471508994
  - # 5
    frequency:    6.6964244947
  - # 6
    frequency:    7.1039370532
  - # 7
    frequency:    7.9283018288
  - # 8
    frequency:    8.9753339402
  - # 9
    frequency:   11.4645201515
  - # 10
    frequency:   17.5274028869
  - # 11
    frequency:   18.5216882972
  - # 12
    frequency:   18.7265230554
  - # 13
    frequency:   27.6956327796
  - # 14
    frequency:   27.9678856755
  - # 15
    frequency:   28.8639030116

- q-position: [    0.1717172,    0.0000000,    0.0000000 ]
  distance:    0.0629157
  band:
  - # 1
    frequency:    2.0537135716
  - # 2
    frequency:    2.7656959463
  - # 3
    frequency:    4.5523037209
  - # 4
    frequency:    5.6673122185
  - # 5
    frequency:    6.7532874080
  - # 6
    frequency:    7.1020100483
  - # 7
    frequency:    7.9236861862
  - # 8
    frequency:    8.9966819539
  - # 9
    frequency:   11.4224436362
  - # 10
    frequency:   17.5019095048
  - # 11
    frequency:   18.5066971553
  - # 12
    frequency:   18.7167830513
  - # 13
    frequency:   27.6701679553
  - # 14
    frequency:   27.9328961470
  - # 15
    frequency:   28.8435536826

- q-position: [    0.1767677,    0.0000000,    0.0000000 ]
  distance:    0.0647662
  band:
  - # 1
    frequency:    2.1482472619
  - # 2
    frequency:    2.8555886419
  - # 3
    frequency:    4.6670385210
  - # 4
    frequency:    5.6880813355
  - # 5
    frequency:    6.8085743179
  - # 6
    frequency:    7.1032839487
  - # 7
    frequency:    7.9194249941
  - # 8
    frequency:    9.0172602968
  - # 9
    frequency:   11.3800949167
  - # 10
    frequency:   17.4765003286
  - # 11
    frequency:   18.4918902648
  - # 12
    frequency:   18.7068079582
  - # 13
    frequency:   27.6459820436
  - # 14
    frequency:   27.8980551326
  - # 15
    frequency:   28.8225364061

- q-position: [    0.1818182,    0.0000000,    0.0000000 ]
  distance:    0.0666167
  band:
  - # 1
    frequency:    2.2433074993
  - # 2
    frequency:    2.9454161305
  - # 3
    frequency:    4.7788785794
  - # 4
    frequency:    5.7094499223
  - # 5
    frequency:    6.8613864790
  - # 6
    frequency:    7.1087113301
  - # 7
    frequency:    7.9155320342
  - # 8
    frequency:    9.0370775155
  - # 9
    frequency:   11.3375372590
  - # 10
    frequency:   17.4512190217
  - # 11
    frequency:   18.4773302010
  - # 12
    frequency:   18.6966434855
  - # 13
    frequency:   27.6231115074
  - # 14
    frequency:   27.8634311527
  - # 15
    frequency:   28.8009250283

- q-position: [    0.1868687,    0.0000000,    0.0000000 ]
  distance:    0.0684671
  band:
  - # 1
    frequency:    2.3388067958
  - # 2
    frequency:    3.0350885949
  - # 3
    frequency:    4.8875673206
  - # 4
    frequency:    5.7314087553
  - # 5
    frequency:    6.9103427797
  - # 6
    frequency:    7.1197420793
  - # 7
    frequency:    7.9120183880
  - # 8
    frequency:    9.0561456963
  - # 9
    frequency:   11.2948340156
  - # 10
    frequency:   17.4261075607
  - # 11
    frequency:   18.4630808603
  - # 12
    frequency:   18.6863379811
  - # 13
    frequency:   27.6015868517
  - # 14
    frequency:   27.8290903912
  - # 15
    frequency:   28.7787950247

- q-position: [    0.1919192,    0.0000000,    0.0000000 ]
  distance:    0.0703176
  band:
  - # 1
    frequency:    2.4346601572
  - # 2
    frequency:    3.1245136031
  - # 3
    frequency:    4.9928360530
  - # 4
    frequency:    5.7539476845
  - # 5
    frequency:    6.9536025387
  - # 6
    frequency:    7.1382998251
  - # 7
    frequency:    7.9088923899
  - # 8
    frequency:    9.0744802641
  - # 9
    frequency:   11.2520487027
  - # 10
    frequency:   17.4012061472
  - # 11
    frequency:   18.4492071771
  - # 12
    frequency:   18.6759420279
  - # 13
    frequency:   27.5814323311
  - # 14
    frequency:   27.7950965052
  - # 15
    frequency:   28.7562234663

- q-position: [    0.1969697,    0.0000000,    0.0000000 ]
  distance:    0.0721681
  band:
  - # 1
    frequency:    2.5307849046
  - # 2
    frequency:    3.2135965815
  - # 3
    frequency:    5.0944062881
  - # 4
    frequency:    5.7770555920
  - # 5
    frequency:    6.9896147430
  - # 6
    frequency:    7.1660308610
  - # 7
    frequency:    7.9061596039
  - # 8
    frequency:    9.0920997406
  - # 9
    frequency:   11.2092450952
  - # 10
    frequency:   17.3765531277
  - # 11
    frequency:   18.4357748117
  - # 12
    frequency:   18.6655080158
  - # 13
    frequency:   27.5626656490
  - # 14
    frequency:   27.7615104497
  - # 15
    frequency:   28.7332890196

- q-position: [    0.2020202,    0.0000000,    0.0000000 ]
  distance:    0.0740185
  band:
  - # 1
    frequency:    2.6271004978
  - # 2
    frequency:    3.3022413156
  - # 3
    frequency:    5.1919935368
  - # 4
    frequency:    5.8007203363
  - # 5
    frequency:    7.0185481161
  - # 6
    frequency:    7.2028707743
  - # 7
    frequency:    7.9038228228
  - # 8
    frequency:    9.1090254613
  - # 9
    frequency:   11.1664873353
  - # 10
    frequency:   17.3521849213
  - # 11
    frequency:   18.4228498115
  - # 12
    frequency:   18.6550896933
  - # 13
    frequency:   27.5452976449
  - # 14
    frequency:   27.7283903173
  - # 15
    frequency:   28.7100719808

- q-position: [    0.2070707,    0.0000000,    0.0000000 ]
  distance:    0.0758690
  band:
  - # 1
    frequency:    2.7235283586
  - # 2
    frequency:    3.3903504768
  - # 3
    frequency:    5.2853130038
  - # 4
    frequency:    5.8249286823
  - # 5
    frequency:    7.0425408768
  - # 6
    frequency:    7.2467894988
  - # 7
    frequency:    7.9018820918
  - # 8
    frequency:    9.1252812523
  - # 9
    frequency:   11.1238400552
  - # 10
    frequency:   17.3281359565
  - # 11
    frequency:   18.4104982464
  - # 12
    frequency:   18.6447417049
  - # 13
    frequency:   27.5293319712
  - # 14
    frequency:   27.6957911935
  - # 15
    frequency:   28.6866543476

- q-position: [    0.2121212,    0.0000000,    0.0000000 ]
  distance:    0.0777195
  band:
  - # 1
    frequency:    2.8199916934
  - # 2