nqpoint: 300    
npath: 3      
segment_nqpoint:
- 100
- 100
- 100
labels:
- [ 'G', 'M' ]
- [ 'M', 'K' ]
- [ 'K', 'G' ]
reciprocal_lattice:
- [   0.27782588,   0.16040285,   0.00000000 ] # a*
- [   0.00000000,   0.32080570,   0.00000000 ] # b*
- [   0.00000000,   0.00000000,   0.03947621 ] # c*
natom: 7      
lattice:
- [     3.599376663271712,     0.000000000000000,     0.000000000000000 ] # a
- [    -1.799688331635856,     3.117151628193219,     0.000000000000000 ] # b
- [     0.000000000000000,     0.000000000000000,    25.331714091885704 ] # c
points:
- symbol: C # 1
  coordinates: [  0.000000000000000,  0.000000000000000,  0.500000028464548 ]
  mass: 12.010700
- symbol: H # 2
  coordinates: [  0.333332985432215,  0.666666983183674,  0.644714133147315 ]
  mass: 1.007940
- symbol: H # 3
  coordinates: [  0.666666984744048,  0.333332985985145,  0.355285866852685 ]
  mass: 1.007940
- symbol: O # 4
  coordinates: [  0.333332985432215,  0.666666983183674,  0.605829818068030 ]
  mass: 15.999400
- symbol: O # 5
  coordinates: [  0.666666984744048,  0.333332985985145,  0.394170181931978 ]
  mass: 15.999400
- symbol: Y # 6
  coordinates: [  0.333332985432215,  0.666666983183674,  0.445640545743254 ]
  mass: 88.905850
- symbol: Y # 7
  coordinates: [  0.666666984744048,  0.333332985985145,  0.554359453831903 ]
  mass: 88.905850

phonon:
- q-position: [    0.0000000,    0.0000000,    0.0000000 ]
  distance:    0.0000000
  band:
  - # 1
    frequency:   -0.0000171341
  - # 2
    frequency:   -0.0000001762
  - # 3
    frequency:    0.0000158341
  - # 4
    frequency:    3.5585575805
  - # 5
    frequency:    3.5585575805
  - # 6
    frequency:    5.6898988563
  - # 7
    frequency:    5.6898988564
  - # 8
    frequency:    5.9656113392
  - # 9
    frequency:    5.9656113393
  - # 10
    frequency:    6.1800088221
  - # 11
    frequency:    9.3444947731
  - # 12
    frequency:    9.3444947732
  - # 13
    frequency:   10.6513177210
  - # 14
    frequency:   10.7846755478
  - # 15
    frequency:   10.7846755479
  - # 16
    frequency:   11.2176600029
  - # 17
    frequency:   11.2262732056
  - # 18
    frequency:   11.2262732056
  - # 19
    frequency:   17.1270108085
  - # 20
    frequency:  114.5525433719
  - # 21
    frequency:  114.5712897645

- q-position: [    0.0050505,    0.0000000,    0.0000000 ]
  distance:    0.0016202
  band:
  - # 1
    frequency:    0.0014619107
  - # 2
    frequency:    0.0615514878
  - # 3
    frequency:    0.1112433725
  - # 4
    frequency:    3.5585709965
  - # 5
    frequency:    3.5595049599
  - # 6
    frequency:    5.6898703209
  - # 7
    frequency:    5.6961004544
  - # 8
    frequency:    5.9657378532
  - # 9
    frequency:    5.9660323894
  - # 10
    frequency:    6.1798286400
  - # 11
    frequency:    9.3443470258
  - # 12
    frequency:    9.3455997605
  - # 13
    frequency:   10.6449503971
  - # 14
    frequency:   10.7839971521
  - # 15
    frequency:   10.7846548383
  - # 16
    frequency:   11.2224894417
  - # 17
    frequency:   11.2262924880
  - # 18
    frequency:   11.2335943671
  - # 19
    frequency:   17.1259725031
  - # 20
    frequency:  114.5525224877
  - # 21
    frequency:  114.5712617588

- q-position: [    0.0101010,    0.0000000,    0.0000000 ]
  distance:    0.0032405
  band:
  - # 1
    frequency:    0.0058420280
  - # 2
    frequency:    0.1230725701
  - # 3
    frequency:    0.2224435856
  - # 4
    frequency:    3.5586115881
  - # 5
    frequency:    3.5623428693
  - # 6
    frequency:    5.6897853848
  - # 7
    frequency:    5.7145169209
  - # 8
    frequency:    5.9661169900
  - # 9
    frequency:    5.9672939067
  - # 10
    frequency:    6.1793001633
  - # 11
    frequency:    9.3439042231
  - # 12
    frequency:    9.3488516757
  - # 13
    frequency:   10.6267336353
  - # 14
    frequency:   10.7824107433
  - # 15
    frequency:   10.7845937403
  - # 16
    frequency:   11.2263505822
  - # 17
    frequency:   11.2366403444
  - # 18
    frequency:   11.2546593503
  - # 19
    frequency:   17.1228585412
  - # 20
    frequency:  114.5524598958
  - # 21
    frequency:  114.5711778156

- q-position: [    0.0151515,    0.0000000,    0.0000000 ]
  distance:    0.0048607
  band:
  - # 1
    frequency:    0.0131231387
  - # 2
    frequency:    0.1845329053
  - # 3
    frequency:    0.3335584317
  - # 4
    frequency:    3.5586803831
  - # 5
    frequency:    3.5670587092
  - # 6
    frequency:    5.6896460548
  - # 7
    frequency:    5.7445877747
  - # 8
    frequency:    5.9667475344
  - # 9
    frequency:    5.9693912566
  - # 10
    frequency:    6.1784636357
  - # 11
    frequency:    9.3431676824
  - # 12
    frequency:    9.3540602714
  - # 13
    frequency:   10.5988350590
  - # 14
    frequency:   10.7811218863
  - # 15
    frequency:   10.7844953397
  - # 16
    frequency:   11.2264482280
  - # 17
    frequency:   11.2592264363
  - # 18
    frequency:   11.2872743896
  - # 19
    frequency:   17.1176717870
  - # 20
    frequency:  114.5523557789
  - # 21
    frequency:  114.5710381565

- q-position: [    0.0202020,    0.0000000,    0.0000000 ]
  distance:    0.0064809
  band:
  - # 1
    frequency:    0.0232768637
  - # 2
    frequency:    0.2459022906
  - # 3
    frequency:    0.4445474597
  - # 4
    frequency:    3.5587790867
  - # 5
    frequency:    3.5736317699
  - # 6
    frequency:    5.6894556593
  - # 7
    frequency:    5.7853900695
  - # 8
    frequency:    5.9676274622
  - # 9
    frequency:    5.9723179363
  - # 10
    frequency:    6.1774023785
  - # 11
    frequency:    9.3421395998
  - # 12
    frequency:    9.3609059048
  - # 13
    frequency:   10.5637547182
  - # 14
    frequency:   10.7817898628
  - # 15
    frequency:   10.7843647597
  - # 16
    frequency:   11.2265866567
  - # 17
    frequency:   11.2890918796
  - # 18
    frequency:   11.3289197978
  - # 19
    frequency:   17.1104170170
  - # 20
    frequency:  114.5522104405
  - # 21
    frequency:  114.5708431498

- q-position: [    0.0252525,    0.0000000,    0.0000000 ]
  distance:    0.0081012
  band:
  - # 1
    frequency:    0.0362639784
  - # 2
    frequency:    0.3071507278
  - # 3
    frequency:    0.5553725278
  - # 4
    frequency:    3.5589100698
  - # 5
    frequency:    3.5820336680
  - # 6
    frequency:    5.6892188253
  - # 7
    frequency:    5.8356375847
  - # 8
    frequency:    5.9687539410
  - # 9
    frequency:    5.9760695769
  - # 10
    frequency:    6.1762803351
  - # 11
    frequency:    9.3408230503
  - # 12
    frequency:    9.3689395790
  - # 13
    frequency:   10.5236688668
  - # 14
    frequency:   10.7842091315
  - # 15
    frequency:   10.7862540479
  - # 16
    frequency:   11.2267675881
  - # 17
    frequency:   11.3250703560
  - # 18
    frequency:   11.3774094763
  - # 19
    frequency:   17.1011009263
  - # 20
    frequency:  114.5520243037
  - # 21
    frequency:  114.5705933094

- q-position: [    0.0303030,    0.0000000,    0.0000000 ]
  distance:    0.0097214
  band:
  - # 1
    frequency:    0.0520349385
  - # 2
    frequency:    0.3682484930
  - # 3
    frequency:    0.6659980393
  - # 4
    frequency:    3.5590763525
  - # 5
    frequency:    3.5922289567
  - # 6
    frequency:    5.6889414456
  - # 7
    frequency:    5.8936161707
  - # 8
    frequency:    5.9701233319
  - # 9
    frequency:    5.9806638921
  - # 10
    frequency:    6.1754396747
  - # 11
    frequency:    9.3392219878
  - # 12
    frequency:    9.3775903952
  - # 13
    frequency:   10.4802299200
  - # 14
    frequency:   10.7840375526
  - # 15
    frequency:   10.7963652221
  - # 16
    frequency:   11.2269932265
  - # 17
    frequency:   11.3661344750
  - # 18
    frequency:   11.4310867956
  - # 19
    frequency:   17.0897321353
  - # 20
    frequency:  114.5517979104
  - # 21
    frequency:  114.5702892932

- q-position: [    0.0353535,    0.0000000,    0.0000000 ]
  distance:    0.0113416
  band:
  - # 1
    frequency:    0.0705305658
  - # 2
    frequency:    0.4291662064
  - # 3
    frequency:    0.7763908582
  - # 4
    frequency:    3.5592815846
  - # 5
    frequency:    3.6041758961
  - # 6
    frequency:    5.6886306375
  - # 7
    frequency:    5.9566968806
  - # 8
    frequency:    5.9717311919
  - # 9
    frequency:    5.9863998096
  - # 10
    frequency:    6.1756901621
  - # 11
    frequency:    9.3373412457
  - # 12
    frequency:    9.3861863994
  - # 13
    frequency:   10.4346169455
  - # 14
    frequency:   10.7838610344
  - # 15
    frequency:   10.8138965760
  - # 16
    frequency:   11.2272662555
  - # 17
    frequency:   11.4114455371
  - # 18
    frequency:   11.4887717253
  - # 19
    frequency:   17.0763212019
  - # 20
    frequency:  114.5515319185
  - # 21
    frequency:  114.5699319001

- q-position: [    0.0404040,    0.0000000,    0.0000000 ]
  distance:    0.0129618
  band:
  - # 1
    frequency:    0.0916828863
  - # 2
    frequency:    0.4898749031
  - # 3
    frequency:    0.8865199504
  - # 4
    frequency:    3.5595300210
  - # 5
    frequency:    3.6178273565
  - # 6
    frequency:    5.6882946938
  - # 7
    frequency:    5.9735722754
  - # 8
    frequency:    5.9910962761
  - # 9
    frequency:    6.0231437813
  - # 10
    frequency:    6.1793292397
  - # 11
    frequency:    9.3351865361
  - # 12
    frequency:    9.3939934418
  - # 13
    frequency:   10.3876532922
  - # 14
    frequency:   10.7836924365
  - # 15
    frequency:   10.8404845065
  - # 16
    frequency:   11.2275898319
  - # 17
    frequency:   11.4603481217
  - # 18
    frequency:   11.5496437909
  - # 19
    frequency:   17.0608806353
  - # 20
    frequency:  114.5512270999
  - # 21
    frequency:  114.5695220683

- q-position: [    0.0454545,    0.0000000,    0.0000000 ]
  distance:    0.0145821
  band:
  - # 1
    frequency:    0.1154160932
  - # 2
    frequency:    0.5503461053
  - # 3
    frequency:    0.9963558251
  - # 4
    frequency:    3.5598264956
  - # 5
    frequency:    3.6331318197
  - # 6
    frequency:    5.6879430249
  - # 7
    frequency:    5.9756405372
  - # 8
    frequency:    5.9982380675
  - # 9
    frequency:    6.0803139052
  - # 10
    frequency:    6.1938643094
  - # 11
    frequency:    9.3327644490
  - # 12
    frequency:    9.4002722371
  - # 13
    frequency:   10.3399137868
  - # 14
    frequency:   10.7835463912
  - # 15
    frequency:   10.8775654109
  - # 16
    frequency:   11.2279675778
  - # 17
    frequency:   11.5123448938
  - # 18
    frequency:   11.6131376025
  - # 19
    frequency:   17.0434249167
  - # 20
    frequency:  114.5508843380
  - # 21
    frequency:  114.5690608711

- q-position: [    0.0505051,    0.0000000,    0.0000000 ]
  distance:    0.0162023
  band:
  - # 1
    frequency:    0.1416476043
  - # 2
    frequency:    0.6105518944
  - # 3
    frequency:    1.1058698632
  - # 4
    frequency:    3.5601763909
  - # 5
    frequency:    3.6500344322
  - # 6
    frequency:    5.6875860947
  - # 7
    frequency:    5.9779291359
  - # 8
    frequency:    6.0057466147
  - # 9
    frequency:    6.1135404701
  - # 10
    frequency:    6.2344244002
  - # 11
    frequency:    9.3300824506
  - # 12
    frequency:    9.4043467972
  - # 13
    frequency:   10.2918039990
  - # 14
    frequency:   10.7834392154
  - # 15
    frequency:   10.9262985986
  - # 16
    frequency:   11.2284035718
  - # 17
    frequency:   11.5670702519
  - # 18
    frequency:   11.6788682131
  - # 19
    frequency:   17.0239705244
  - # 20
    frequency:  114.5505046238
  - # 21
    frequency:  114.5685495137

- q-position: [    0.0555556,    0.0000000,    0.0000000 ]
  distance:    0.0178225
  band:
  - # 1
    frequency:    0.1702891684
  - # 2
    frequency:    0.6704649846
  - # 3
    frequency:    1.2150336103
  - # 4
    frequency:    3.5605856072
  - # 5
    frequency:    3.6684780682
  - # 6
    frequency:    5.6872353478
  - # 7
    frequency:    5.9804304374
  - # 8
    frequency:    6.0138613248
  - # 9
    frequency:    6.1235717505
  - # 10
    frequency:    6.2984997883
  - # 11
    frequency:    9.3271488796
  - # 12
    frequency:    9.4056706445
  - # 13
    frequency:   10.2436145887
  - # 14
    frequency:   10.7833888121
  - # 15
    frequency:   10.9874830564
  - # 16
    frequency:   11.2289023393
  - # 17
    frequency:   11.6242704553
  - # 18
    frequency:   11.7465839015
  - # 19
    frequency:   17.0025359673
  - # 20
    frequency:  114.5500890530
  - # 21
    frequency:  114.5679893289

- q-position: [    0.0606061,    0.0000000,    0.0000000 ]
  distance:    0.0194428
  band:
  - # 1
    frequency:    0.2012479829
  - # 2
    frequency:    0.7300587967
  - # 3
    frequency:    1.3238180982
  - # 4
    frequency:    3.5610605287
  - # 5
    frequency:    3.6884043601
  - # 6
    frequency:    5.6869031312
  - # 7
    frequency:    5.9831360206
  - # 8
    frequency:    6.0225803643
  - # 9
    frequency:    6.1242016917
  - # 10
    frequency:    6.3709211899
  - # 11
    frequency:    9.3239729428
  - # 12
    frequency:    9.4038749174
  - # 13
    frequency:   10.1955576143
  - # 14
    frequency:   10.7834145603
  - # 15
    frequency:   11.0614825601
  - # 16
    frequency:   11.2294688402
  - # 17
    frequency:   11.6837929732
  - # 18
    frequency:   11.8161410116
  - # 19
    frequency:   16.9791418289
  - # 20
    frequency:  114.5496388216
  - # 21
    frequency:  114.5673817725

- q-position: [    0.0656566,    0.0000000,    0.0000000 ]
  distance:    0.0210630
  band:
  - # 1
    frequency:    0.2344277800
  - # 2
    frequency:    0.7893075328
  - # 3
    frequency:    1.4321932330
  - # 4
    frequency:    3.5616079907
  - # 5
    frequency:    3.7097546639
  - # 6
    frequency:    5.6866026082
  - # 7
    frequency:    5.9860366842
  - # 8
    frequency:    6.0318765474
  - # 9
    frequency:    6.1212512241
  - # 10
    frequency:    6.4447011249
  - # 11
    frequency:    9.3205647080
  - # 12
    frequency:    9.3987871690
  - # 13
    frequency:   10.1477906999
  - # 14
    frequency:   10.7835371958
  - # 15
    frequency:   11.1481689001
  - # 16
    frequency:   11.2301084566
  - # 17
    frequency:   11.7455864987
  - # 18
    frequency:   11.8874978530
  - # 19
    frequency:   16.9538108226
  - # 20
    frequency:  114.5491552219
  - # 21
    frequency:  114.5667284183

- q-position: [    0.0707071,    0.0000000,    0.0000000 ]
  distance:    0.0226832
  band:
  - # 1
    frequency:    0.2697298526
  - # 2
    frequency:    0.8481862496
  - # 3
    frequency:    1.5401272736
  - # 4
    frequency:    3.5622352450
  - # 5
    frequency:    3.7324709348
  - # 6
    frequency:    5.6863476660
  - # 7
    frequency:    5.9891224566
  - # 8
    frequency:    6.0417155407
  - # 9
    frequency:    6.1165439001
  - # 10
    frequency:    6.5170647256
  - # 11
    frequency:    9.3169350944
  - # 12
    frequency:    9.3904193696
  - # 13
    frequency:   10.1004332294
  - # 14
    frequency:   10.7837786804
  - # 15
    frequency:   11.2308269780
  - # 16
    frequency:   11.2468798319
  - # 17
    frequency:   11.8097134588
  - # 18
    frequency:   11.9607289180
  - # 19
    frequency:   16.9265678646
  - # 20
    frequency:  114.5486396375
  - # 21
    frequency:  114.5660309528

- q-position: [    0.0757576,    0.0000000,    0.0000000 ]
  distance:    0.0243035
  band:
  - # 1
    frequency:    0.3070539939
  - # 2
    frequency:    0.9066709332
  - # 3
    frequency:    1.6475864023
  - # 4
    frequency:    3.5629499270
  - # 5
    frequency:    3.7564964973
  - # 6
    frequency:    5.6861528163
  - # 7
    frequency:    5.9923826089
  - # 8
    frequency:    6.0520594678
  - # 9
    frequency:    6.1107623045
  - # 10
    frequency:    6.5865998406
  - # 11
    frequency:    9.3130958602
  - # 12
    frequency:    9.3789330067
  - # 13
    frequency:   10.0535773205
  - # 14
    frequency:   10.7841620627
  - # 15
    frequency:   11.2316305850
  - # 16
    frequency:   11.3563726326
  - # 17
    frequency:   11.8763773158
  - # 18
    frequency:   12.0360669126
  - # 19
    frequency:   16.8974401677
  - # 20
    frequency:  114.5480935386
  - # 21
    frequency:  114.5652911691

- q-position: [    0.0808081,    0.0000000,    0.0000000 ]
  distance:    0.0259237
  band:
  - # 1
    frequency:    0.3462993370
  - # 2
    frequency:    0.9647385706
  - # 3
    frequency:    1.7545343853
  - # 4
    frequency:    3.5637600237
  - # 5
    frequency:    3.7817767006
  - # 6
    frequency:    5.6860330896
  - # 7
    frequency:    5.9958056722
  - # 8
    frequency:    6.0628667979
  - # 9
    frequency:    6.1042193142
  - # 10
    frequency:    6.6524823071
  - # 11
    frequency:    9.3090595868
  - # 12
    frequency:    9.3645936778
  - # 13
    frequency:   10.0072953578
  - # 14
    frequency:   10.7847113304
  - # 15
    frequency:   11.2325258319
  - # 16
    frequency:   11.4747421549
  - # 17
    frequency:   11.9459640567
  - # 18
    frequency:   12.1139900787
  - # 19
    frequency:   16.8664573624
  - # 20
    frequency:  114.5475184766
  - # 21
    frequency:  114.5645109612

- q-position: [    0.0858586,    0.0000000,    0.0000000 ]
  distance:    0.0275439
  band:
  - # 1
    frequency:    0.3873650847
  - # 2
    frequency:    1.0223672217
  - # 3
    frequency:    1.8609323080
  - # 4
    frequency:    3.5646738427
  - # 5
    frequency:    3.8082594599
  - # 6
    frequency:    5.6860039223
  - # 7
    frequency:    5.9993794604
  - # 8
    frequency:    6.0740838031
  - # 9
    frequency:    6.0970949880
  - # 10
    frequency:    6.7142325085
  - # 11
    frequency:    9.3048396581
  - # 12
    frequency:    9.3477264753
  - # 13
    frequency:    9.9616452318
  - # 14
    frequency:   10.7854512534
  - # 15
    frequency:   11.2335196263
  - # 16
    frequency:   11.5992748923
  - # 17
    frequency:   12.0190798595
  - # 18
    frequency:   12.1953874417
  - # 19
    frequency:   16.8336516556
  - # 20
    frequency:  114.5469160785
  - # 21
    frequency:  114.5636923172

- q-position: [    0.0909091,    0.0000000,    0.0000000 ]
  distance:    0.0291642
  band:
  - # 1
    frequency:    0.4301511307
  - # 2
    frequency:    1.0795360872
  - # 3
    frequency:    1.9667383720
  - # 4
    frequency:    3.5656999848
  - # 5
    frequency:    3.8358956868
  - # 6
    frequency:    5.6860810373
  - # 7
    frequency:    6.0030910989
  - # 8
    frequency:    6.0853729150
  - # 9
    frequency:    6.0897888291
  - # 10
    frequency:    6.7716112628
  - # 11
    frequency:    9.3004502366
  - # 12
    frequency:    9.3286791969
  - # 13
    frequency:    9.9166740235
  - # 14
    frequency:   10.7864072216
  - # 15
    frequency:   11.2346192085
  - # 16
    frequency:   11.7262651165
  - # 17
    frequency:   12.0965049948
  - # 18
    frequency:   12.2818456548
  - # 19
    frequency:   16.7990580376
  - # 20
    frequency:  114.5462880411
  - # 21
    frequency:  114.5628373127

- q-position: [    0.0959596,    0.0000000,    0.0000000 ]
  distance:    0.0307844
  band:
  - # 1
    frequency:    0.4745585736
  - # 2
    frequency:    1.1362255745
  - # 3
    frequency:    2.0719077392
  - # 4
    frequency:    3.5668473175
  - # 5
    frequency:    3.8646396164
  - # 6
    frequency:    5.6862803177
  - # 7
    frequency:    6.0069270608
  - # 8
    frequency:    6.0811700610
  - # 9
    frequency:    6.0978954161
  - # 10
    frequency:    6.8245584530
  - # 11
    frequency:    9.2959062328
  - # 12
    frequency:    9.3077959133
  - # 13
    frequency:    9.8724206248
  - # 14
    frequency:   10.7876050747
  - # 15
    frequency:   11.2358321270
  - # 16
    frequency:   11.8510193675
  - # 17
    frequency:   12.1788464416
  - # 18
    frequency:   12.3760427525
  - # 19
    frequency:   16.7627145553
  - # 20
    frequency:  114.5456361247
  - # 21
    frequency:  114.5619481038

- q-position: [    0.1010101,    0.0000000,    0.0000000 ]
  distance:    0.0324046
  band:
  - # 1
    frequency:    0.5204901321
  - # 2
    frequency:    1.1924173593
  - # 3
    frequency:    2.1763924080
  - # 4
    frequency:    3.5681249526
  - # 5
    frequency:    3.8944490429
  - # 6
    frequency:    5.6866176743
  - # 7
    frequency:    6.0108732109
  - # 8
    frequency:    6.0727580615
  - # 9
    frequency:    6.1101461321
  - # 10
    frequency:    6.8731478787
  - # 11
    frequency:    9.2854003251
  - # 12
    frequency:    9.2912232707
  - # 13
    frequency:    9.8289176158
  - # 14
    frequency:   10.7890709283
  - # 15
    frequency:   11.2371662137
  - # 16
    frequency:   11.9686230179
  - # 17
    frequency:   12.2656600214
  - # 18
    frequency:   12.4819017148
  - # 19
    frequency:   16.7246626747
  - # 20
    frequency:  114.5449621472
  - # 21
    frequency:  114.5610269196

- q-position: [    0.1060606,    0.0000000,    0.0000000 ]
  distance:    0.0340248
  band:
  - # 1
    frequency:    0.5678504705
  - # 2
    frequency:    1.2480944424
  - # 3
    frequency:    2.2801411116
  - # 4
    frequency:    3.5695422260
  - # 5
    frequency:    3.9252854744
  - # 6
    frequency:    5.6871089064
  - # 7
    frequency:    6.0149148589
  - # 8
    frequency:    6.0639705646
  - # 9
    frequency:    6.1227128244
  - # 10
    frequency:    6.9175506839
  - # 11
    frequency:    9.2617868847
  - # 12
    frequency:    9.2864176460
  - # 13
    frequency:    9.7861926193
  - # 14
    frequency:   10.7908309953
  - # 15
    frequency:   11.2386295563
  - # 16
    frequency:   12.0757786005
  - # 17
    frequency:   12.3546925872
  - # 18
    frequency:   12.6035431039
  - # 19
    frequency:   16.6849477678
  - # 20
    frequency:  114.5442679772
  - # 21
    frequency:  114.5600760548

- q-position: [    0.1111111,    0.0000000,    0.0000000 ]
  distance:    0.0356451
  band:
  - # 1
    frequency:    0.6165464452
  - # 2
    frequency:    1.3032412010
  - # 3
    frequency:    2.3830992291
  - # 4
    frequency:    3.5711086801
  - # 5
    frequency:    3.9571142188
  - # 6
    frequency:    5.6877695569
  - # 7
    frequency:    6.0190368223
  - # 8
    frequency:    6.0548771233
  - # 9
    frequency:    6.1355268205
  - # 10
    frequency:    6.9580051763
  - # 11
    frequency:    9.2372173822
  - # 12
    frequency:    9.2815062785
  - # 13
    frequency:    9.7442692821
  - # 14
    frequency:   10.7929114045
  - # 15
    frequency:   11.2402304687
  - # 16
    frequency:   12.1722616629
  - # 17
    frequency:   12.4429204648
  - # 18
    frequency:   12.7428153728
  - # 19
    frequency:   16.6436197723
  - # 20
    frequency:  114.5435555275
  - # 21
    frequency:  114.5590978619

- q-position: [    0.1161616,    0.0000000,    0.0000000 ]
  distance:    0.0372653
  band:
  - # 1
    frequency:    0.6664872833
  - # 2
    frequency:    1.3578434333
  - # 3
    frequency:    2.4852087027
  - # 4
    frequency:    3.5728340497
  - # 5
    frequency:    3.9899044129
  - # 6
    frequency:    5.6886147619
  - # 7
    frequency:    6.0232234990
  - # 8
    frequency:    6.0455179727
  - # 9
    frequency:    6.1485464839
  - # 10
    frequency:    6.9947923177
  - # 11
    frequency:    9.2119210012
  - # 12
    frequency:    9.2765066580
  - # 13
    frequency:    9.7031679883
  - # 14
    frequency:   10.7953380178
  - # 15
    frequency:   11.2419774599
  - # 16
    frequency:   12.2601682438
  - # 17
    frequency:   12.5285864531
  - # 18
    frequency:   12.8980274536
  - # 19
    frequency:   16.6007340993
  - # 20
    frequency:  114.5428267481
  - # 21
    frequency:  114.5580947438

- q-position: [    0.1212121,    0.0000000,    0.0000000 ]
  distance:    0.0388855
  band:
  - # 1
    frequency:    0.7175847045
  - # 2
    frequency:    1.4118883963
  - # 3
    frequency:    2.5864079566
  - # 4
    frequency:    3.5747282485
  - # 5
    frequency:    4.0236290028
  - # 6
    frequency:    5.6896590959
  - # 7
    frequency:    6.0274589511
  - # 8
    frequency:    6.0359276720
  - # 9
    frequency:    6.1617349609
  - # 10
    frequency:    7.0282164036
  - # 11
    frequency:    9.1860963582
  - # 12
    frequency:    9.2714367833
  - # 13
    frequency:    9.6629063783
  - # 14
    frequency:   10.7981362466
  - # 15
    frequency:   11.2438792007
  - # 16
    frequency:   12.3420790795
  - # 17
    frequency:   12.6115201278
  - # 18
    frequency:   13.0654749039
  - # 19
    frequency:   16.5563528985
  - # 20
    frequency:  114.5420836196
  - # 21
    frequency:  114.5570691448

- q-position: [    0.1262626,    0.0000000,    0.0000000 ]
  distance:    0.0405058
  band:
  - # 1
    frequency:    0.7697529946
  - # 2
    frequency:    1.4653648347
  - # 3
    frequency:    2.6866318185
  - # 4
    frequency:    3.5768013586
  - # 5
    frequency:    4.0582646829
  - # 6
    frequency:    5.6909164126
  - # 7
    frequency:    6.0261386128
  - # 8
    frequency:    6.0317269992
  - # 9
    frequency:    6.1750575305
  - # 10
    frequency:    7.0585903635
  - # 11
    frequency:    9.1599145130
  - # 12
    frequency:    9.2663150938
  - # 13
    frequency:    9.6234997283
  - # 14
    frequency:   10.8013308690
  - # 15
    frequency:   11.2459444891
  - # 16
    frequency:   12.4200340985
  - # 17
    frequency:   12.6922228781
  - # 18
    frequency:   13.2413856759
  - # 19
    frequency:   16.5105468556
  - # 20
    frequency:  114.5413281458
  - # 21
    frequency:  114.5560235436

- q-position: [    0.1313131,    0.0000000,    0.0000000 ]
  distance:    0.0421260
  band:
  - # 1
    frequency:    0.8229090433
  - # 2
    frequency:    1.5182630016
  - # 3
    frequency:    2.7858114424
  - # 4
    frequency:    3.5790636194
  - # 5
    frequency:    4.0937917958
  - # 6
    frequency:    5.6923996835
  - # 7
    frequency:    6.0161821643
  - # 8
    frequency:    6.0360113273
  - # 9
    frequency:    6.1884810127
  - # 10
    frequency:    7.0862250069
  - # 11
    frequency:    9.1335223105
  - # 12
    frequency:    9.2611603950
  - # 13
    frequency:    9.5849612286
  - # 14
    frequency:   10.8049458491
  - # 15
    frequency:   11.2481822143
  - # 16
    frequency:   12.4953965919
  - # 17
    frequency:   12.7712363042
  - # 18
    frequency:   13.4226883433
  - # 19
    frequency:   16.4633977917
  - # 20
    frequency:  114.5405623468
  - # 21
    frequency:  114.5549604443

- q-position: [    0.1363636,    0.0000000,    0.0000000 ]
  distance:    0.0437462
  band:
  - # 1
    frequency:    0.8769723514
  - # 2
    frequency:    1.5705746698
  - # 3
    frequency:    2.8838742416
  - # 4
    frequency:    3.5815254169
  - # 5
    frequency:    4.1301941909
  - # 6
    frequency:    5.6941208343
  - # 7
    frequency:    6.0060892354
  - # 8
    frequency:    6.0402955990
  - # 9
    frequency:    6.2019735837
  - # 10
    frequency:    7.1114215015
  - # 11
    frequency:    9.1070456840
  - # 12
    frequency:    9.2559917772
  - # 13
    frequency:    9.5473021900
  - # 14
    frequency:   10.8090041595
  - # 15
    frequency:   11.2506013192
  - # 16
    frequency:   12.5690236928
  - # 17
    frequency:   12.8489616793
  - # 18
    frequency:   13.6070189809
  - # 19
    frequency:   16.4150025119
  - # 20
    frequency:  114.5397882515
  - # 21
    frequency:  114.5538823685

- q-position: [    0.1414141,    0.0000000,    0.0000000 ]
  distance:    0.0453665
  band:
  - # 1
    frequency:    0.9318650157
  - # 2
    frequency:    1.6222931323
  - # 3
    frequency:    2.9807438393
  - # 4
    frequency:    3.5841972709
  - # 5
    frequency:    4.1674590335
  - # 6
    frequency:    5.6960905810
  - # 7
    frequency:    5.9958906404
  - # 8
    frequency:    6.0445635837
  - # 9
    frequency:    6.2155046981
  - # 10
    frequency:    7.1344663965
  - # 11
    frequency:    9.0805927182
  - # 12
    frequency:    9.2508285279
  - # 13
    frequency:    9.5105322013
  - # 14
    frequency:   10.8135276070
  - # 15
    frequency:   11.2532107627
  - # 16
    frequency:   12.6414454007
  - # 17
    frequency:   12.9256604213
  - # 18
    frequency:   13.7925345840
  - # 19
    frequency:   16.3654786454
  - # 20
    frequency:  114.5390078912
  - # 21
    frequency:  114.5527918469

- q-position: [    0.1464646,    0.0000000,    0.0000000 ]
  distance:    0.0469867
  band:
  - # 1
    frequency:    0.9875116986
  - # 2
    frequency:    1.6734131934
  - # 3
    frequency:    3.0763400538
  - # 4
    frequency:    3.5870898197
  - # 5
    frequency:    4.2055765468
  - # 6
    frequency:    5.6983182666
  - # 7
    frequency:    5.9856173980
  - # 8
    frequency:    6.0487992926
  - # 9
    frequency:    6.2290450447
  - # 10
    frequency:    7.1556285767
  - # 11
    frequency:    9.0542563815
  - # 12
    frequency:    9.2456900383
  - # 13
    frequency:    9.4746592537
  - # 14
    frequency:   10.8185366649
  - # 15
    frequency:   11.2560194811
  - # 16
    frequency:   12.7129886411
  - # 17
    frequency:   13.0014914172
  - # 18
    frequency:   13.9777400456
  - # 19
    frequency:   16.3149737692
  - # 20
    frequency:  114.5382232916
  - # 21
    frequency:  114.5516914113

- q-position: [    0.1515152,    0.0000000,    0.0000000 ]
  distance:    0.0486069
  band:
  - # 1
    frequency:    1.0438395854
  - # 2
    frequency:    1.7239311485
  - # 3
    frequency:    3.1705789411
  - # 4
    frequency:    3.5902138007
  - # 5
    frequency:    4.2445396617
  - # 6
    frequency:    5.7008117003
  - # 7
    frequency:    5.9753010269
  - # 8
    frequency:    6.0529871243
  - # 9
    frequency:    6.2425665177
  - # 10
    frequency:    7.1751576306
  - # 11
    frequency:    9.0281169014
  - # 12
    frequency:    9.2405957055
  - # 13
    frequency:    9.4396898462
  - # 14
    frequency:   10.8240503103
  - # 15
    frequency:   11.2590363495
  - # 16
    frequency:   12.7838541836
  - # 17
    frequency:   13.0765444054
  - # 18
    frequency:   14.1613598430
  - # 19
    frequency:   16.2636801371
  - # 20
    frequency:  114.5374364662
  - # 21
    frequency:  114.5505835862
