nqpoint: 300    
npath: 3      
segment_nqpoint:
- 100
- 100
- 100
labels:
- [ 'G', 'M' ]
- [ 'M', 'K' ]
- [ 'K', 'G' ]
reciprocal_lattice:
- [   0.29228747,   0.16875225,   0.00000000 ] # a*
- [   0.00000000,   0.33750450,   0.00000000 ] # b*
- [   0.00000000,   0.00000000,   0.03853354 ] # c*
natom: 7      
lattice:
- [     3.421289299540033,     0.000000000000000,     0.000000000000000 ] # a
- [    -1.710644649770016,     2.962923447097471,     0.000000000000000 ] # b
- [     0.000000000000000,     0.000000000000000,    25.951420347443708 ] # c
points:
- symbol: C # 1
  coordinates: [  0.666666984744047,  0.333332985985145,  0.392583915264309 ]
  mass: 12.010700
- symbol: Cl # 2
  coordinates: [  0.333332985432215,  0.666666983183674,  0.653198172604586 ]
  mass: 35.453000
- symbol: N # 3
  coordinates: [  0.000000000000000,  0.000000000000000,  0.539390612574311 ]
  mass: 14.006700
- symbol: N # 4
  coordinates: [  0.666666984744047,  0.333332985985145,  0.346801827395414 ]
  mass: 14.006700
- symbol: O # 5
  coordinates: [  0.666666984744047,  0.333332985985145,  0.444043750393714 ]
  mass: 15.999400
- symbol: Zr # 6
  coordinates: [  0.333332985432215,  0.666666983183674,  0.496502607204961 ]
  mass: 91.224000
- symbol: Zr # 7
  coordinates: [  0.666666984744047,  0.333332985985145,  0.584293149823486 ]
  mass: 91.224000

phonon:
- q-position: [    0.0000000,    0.0000000,    0.0000000 ]
  distance:    0.0000000
  band:
  - # 1
    frequency:   -1.0420260159
  - # 2
    frequency:   -1.0420260159
  - # 3
    frequency:   -0.0000014816
  - # 4
    frequency:   -0.0000002598
  - # 5
    frequency:    0.0000012388
  - # 6
    frequency:    3.7909387912
  - # 7
    frequency:    3.7909387912
  - # 8
    frequency:    5.5624636383
  - # 9
    frequency:    5.9229082997
  - # 10
    frequency:    5.9229082997
  - # 11
    frequency:    6.6045076694
  - # 12
    frequency:    6.6045076694
  - # 13
    frequency:    8.2775870837
  - # 14
    frequency:    9.8474910314
  - # 15
    frequency:   13.6532961148
  - # 16
    frequency:   14.1778814380
  - # 17
    frequency:   14.1778814380
  - # 18
    frequency:   16.0555247821
  - # 19
    frequency:   16.0555247821
  - # 20
    frequency:   32.0587471729
  - # 21
    frequency:   67.9714282285

- q-position: [    0.0050505,    0.0000000,    0.0000000 ]
  distance:    0.0017046
  band:
  - # 1
    frequency:   -1.0421666042
  - # 2
    frequency:   -1.0404379372
  - # 3
    frequency:    0.0015146165
  - # 4
    frequency:    0.0690182578
  - # 5
    frequency:    0.0920150241
  - # 6
    frequency:    3.7908671751
  - # 7
    frequency:    3.7914111675
  - # 8
    frequency:    5.5614857437
  - # 9
    frequency:    5.9226643442
  - # 10
    frequency:    5.9240465829
  - # 11
    frequency:    6.6044949745
  - # 12
    frequency:    6.6049940305
  - # 13
    frequency:    8.2773624482
  - # 14
    frequency:    9.8465116301
  - # 15
    frequency:   13.6530870065
  - # 16
    frequency:   14.1778898266
  - # 17
    frequency:   14.1780406150
  - # 18
    frequency:   16.0556203423
  - # 19
    frequency:   16.0556407680
  - # 20
    frequency:   32.0582693905
  - # 21
    frequency:   67.9711554609

- q-position: [    0.0101010,    0.0000000,    0.0000000 ]
  distance:    0.0034091
  band:
  - # 1
    frequency:   -1.0425669836
  - # 2
    frequency:   -1.0356490993
  - # 3
    frequency:    0.0060578783
  - # 4
    frequency:    0.1378304562
  - # 5
    frequency:    0.1839210784
  - # 6
    frequency:    3.7906514235
  - # 7
    frequency:    3.7928270315
  - # 8
    frequency:    5.5585971332
  - # 9
    frequency:    5.9219344854
  - # 10
    frequency:    5.9274179648
  - # 11
    frequency:    6.6044556990
  - # 12
    frequency:    6.6064507905
  - # 13
    frequency:    8.2766891176
  - # 14
    frequency:    9.8435752252
  - # 15
    frequency:   13.6524589910
  - # 16
    frequency:   14.1779151086
  - # 17
    frequency:   14.1785179053
  - # 18
    frequency:   16.0559063328
  - # 19
    frequency:   16.0559882790
  - # 20
    frequency:   32.0568372416
  - # 21
    frequency:   67.9703377864

- q-position: [    0.0151515,    0.0000000,    0.0000000 ]
  distance:    0.0051137
  band:
  - # 1
    frequency:   -1.0431660590
  - # 2
    frequency:   -1.0275865449
  - # 3
    frequency:    0.0136294976
  - # 4
    frequency:    0.2062447424
  - # 5
    frequency:    0.2756157932
  - # 6
    frequency:    3.7902888353
  - # 7
    frequency:    3.7951826224
  - # 8
    frequency:    5.5539256098
  - # 9
    frequency:    5.9207247153
  - # 10
    frequency:    5.9328994754
  - # 11
    frequency:    6.6043863040
  - # 12
    frequency:    6.6088709503
  - # 13
    frequency:    8.2755688204
  - # 14
    frequency:    9.8386872094
  - # 15
    frequency:   13.6514100230
  - # 16
    frequency:   14.1779576314
  - # 17
    frequency:   14.1793125844
  - # 18
    frequency:   16.0563806785
  - # 19
    frequency:   16.0565659738
  - # 20
    frequency:   32.0544543168
  - # 21
    frequency:   67.9689770883

- q-position: [    0.0202020,    0.0000000,    0.0000000 ]
  distance:    0.0068183
  band:
  - # 1
    frequency:   -1.0438713218
  - # 2
    frequency:   -1.0161310500
  - # 3
    frequency:    0.0242297620
  - # 4
    frequency:    0.2740947545
  - # 5
    frequency:    0.3670086417
  - # 6
    frequency:    3.7897749366
  - # 7
    frequency:    3.7984717840
  - # 8
    frequency:    5.5476622215
  - # 9
    frequency:    5.9190449206
  - # 10
    frequency:    5.9403081774
  - # 11
    frequency:    6.6042809994
  - # 12
    frequency:    6.6122427489
  - # 13
    frequency:    8.2740044383
  - # 14
    frequency:    9.8318565561
  - # 15
    frequency:   13.6499367787
  - # 16
    frequency:   14.1780179698
  - # 17
    frequency:   14.1804234362
  - # 18
    frequency:   16.0570399058
  - # 19
    frequency:   16.0573716117
  - # 20
    frequency:   32.0511265877
  - # 21
    frequency:   67.9670764983

- q-position: [    0.0252525,    0.0000000,    0.0000000 ]
  distance:    0.0085228
  band:
  - # 1
    frequency:   -1.0445701323
  - # 2
    frequency:   -1.0011192642
  - # 3
    frequency:    0.0378612220
  - # 4
    frequency:    0.3412461382
  - # 5
    frequency:    0.4580239451
  - # 6
    frequency:    3.7891035233
  - # 7
    frequency:    3.8026861279
  - # 8
    frequency:    5.5400362802
  - # 9
    frequency:    5.9169087369
  - # 10
    frequency:    5.9494262180
  - # 11
    frequency:    6.6041319010
  - # 12
    frequency:    6.6165495331
  - # 13
    frequency:    8.2720000087
  - # 14
    frequency:    9.8230957974
  - # 15
    frequency:   13.6480347822
  - # 16
    frequency:   14.1780969196
  - # 17
    frequency:   14.1818487397
  - # 18
    frequency:   16.0578791206
  - # 19
    frequency:   16.0584020452
  - # 20
    frequency:   32.0468623887
  - # 21
    frequency:   67.9646403854

- q-position: [    0.0303030,    0.0000000,    0.0000000 ]
  distance:    0.0102274
  band:
  - # 1
    frequency:   -1.0451413670
  - # 2
    frequency:   -0.9823443758
  - # 3
    frequency:    0.0545311481
  - # 4
    frequency:    0.4075979974
  - # 5
    frequency:    0.5486014580
  - # 6
    frequency:    3.7882667211
  - # 7
    frequency:    3.8078152527
  - # 8
    frequency:    5.5312916338
  - # 9
    frequency:    5.9143333528
  - # 10
    frequency:    5.9600246335
  - # 11
    frequency:    6.6039292416
  - # 12
    frequency:    6.6217696002
  - # 13
    frequency:    8.2695607269
  - # 14
    frequency:    9.8124209946
  - # 15
    frequency:   13.6456985752
  - # 16
    frequency:   14.1781954896
  - # 17
    frequency:   14.1835862537
  - # 18
    frequency:   16.0588919802
  - # 19
    frequency:   16.0596532094
  - # 20
    frequency:   32.0416723903
  - # 21
    frequency:   67.9616743414

- q-position: [    0.0353535,    0.0000000,    0.0000000 ]
  distance:    0.0119320
  band:
  - # 1
    frequency:   -1.0454653567
  - # 2
    frequency:   -0.9595538212
  - # 3
    frequency:    0.0742552085
  - # 4
    frequency:    0.4730802631
  - # 5
    frequency:    0.6386949554
  - # 6
    frequency:    3.7872550644
  - # 7
    frequency:    3.8138470113
  - # 8
    frequency:    5.5216684080
  - # 9
    frequency:    5.9113392715
  - # 10
    frequency:    5.9718816696
  - # 11
    frequency:    6.6036616274
  - # 12
    frequency:    6.6278760359
  - # 13
    frequency:    8.2666929477
  - # 14
    frequency:    9.7998516996
  - # 15
    frequency:   13.6429219263
  - # 16
    frequency:   14.1783148898
  - # 17
    frequency:   14.1856331993
  - # 18
    frequency:   16.0600706592
  - # 19
    frequency:   16.0611201089
  - # 20
    frequency:   32.0355695657
  - # 21
    frequency:   67.9581851615

- q-position: [    0.0404040,    0.0000000,    0.0000000 ]
  distance:    0.0136365
  band:
  - # 1
    frequency:   -1.0454310363
  - # 2
    frequency:   -0.9324427459
  - # 3
    frequency:    0.0970629091
  - # 4
    frequency:    0.5376485660
  - # 5
    frequency:    0.7282695594
  - # 6
    frequency:    3.7860575942
  - # 7
    frequency:    3.8207678152
  - # 8
    frequency:    5.5113913876
  - # 9
    frequency:    5.9079500378
  - # 10
    frequency:    5.9847944259
  - # 11
    frequency:    6.6033163303
  - # 12
    frequency:    6.6348365723
  - # 13
    frequency:    8.2634041877
  - # 14
    frequency:    9.7854109094
  - # 15
    frequency:   13.6396980733
  - # 16
    frequency:   14.1784565183
  - # 17
    frequency:   14.1879862424
  - # 18
    frequency:   16.0614058141
  - # 19
    frequency:   16.0627968019
  - # 20
    frequency:   32.0285691502
  - # 21
    frequency:   67.9541808207

- q-position: [    0.0454545,    0.0000000,    0.0000000 ]
  distance:    0.0153411
  band:
  - # 1
    frequency:   -1.0449401586
  - # 2
    frequency:   -0.9006419982
  - # 3
    frequency:    0.1230056794
  - # 4
    frequency:    0.6012781604
  - # 5
    frequency:    0.8172985541
  - # 6
    frequency:    3.7846619761
  - # 7
    frequency:    3.8285629659
  - # 8
    frequency:    5.5006641559
  - # 9
    frequency:    5.9041919411
  - # 10
    frequency:    5.9985846830
  - # 11
    frequency:    6.6028796050
  - # 12
    frequency:    6.6426134930
  - # 13
    frequency:    8.2597031250
  - # 14
    frequency:    9.7691250126
  - # 15
    frequency:   13.6360199901
  - # 16
    frequency:   14.1786219461
  - # 17
    frequency:   14.1906414778
  - # 18
    frequency:   16.0628865470
  - # 19
    frequency:   16.0646763827
  - # 20
    frequency:   32.0206885933
  - # 21
    frequency:   67.9496704475

- q-position: [    0.0505051,    0.0000000,    0.0000000 ]
  distance:    0.0170457
  band:
  - # 1
    frequency:   -1.0439090196
  - # 2
    frequency:   -0.8636991767
  - # 3
    frequency:    0.1521690375
  - # 4
    frequency:    0.6639580355
  - # 5
    frequency:    0.9057602711
  - # 6
    frequency:    3.7830546403
  - # 7
    frequency:    3.8372169993
  - # 8
    frequency:    5.4896673223
  - # 9
    frequency:    5.9000937012
  - # 10
    frequency:    6.0131005637
  - # 11
    frequency:    6.6023370214
  - # 12
    frequency:    6.6511636071
  - # 13
    frequency:    8.2555995975
  - # 14
    frequency:    9.7510237300
  - # 15
    frequency:   13.6318806724
  - # 16
    frequency:   14.1788128989
  - # 17
    frequency:   14.1935944186
  - # 18
    frequency:   16.0645003726
  - # 19
    frequency:   16.0667509610
  - # 20
    frequency:   32.0119475032
  - # 21
    frequency:   67.9446642918

- q-position: [    0.0555556,    0.0000000,    0.0000000 ]
  distance:    0.0187503
  band:
  - # 1
    frequency:   -1.0422683788
  - # 2
    frequency:   -0.8210504985
  - # 3
    frequency:    0.1846911350
  - # 4
    frequency:    0.7256858666
  - # 5
    frequency:    0.9936353918
  - # 6
    frequency:    3.7812209444
  - # 7
    frequency:    3.8467140325
  - # 8
    frequency:    5.4785592216
  - # 9
    frequency:    5.8956861471
  - # 10
    frequency:    6.0282156288
  - # 11
    frequency:    6.6016738010
  - # 12
    frequency:    6.6604383134
  - # 13
    frequency:    8.2511045980
  - # 14
    frequency:    9.7311400473
  - # 15
    frequency:   13.6272734325
  - # 16
    frequency:   14.1790312374
  - # 17
    frequency:   14.1968399890
  - # 18
    frequency:   16.0662331906
  - # 19
    frequency:   16.0690116410
  - # 20
    frequency:   32.0023675858
  - # 21
    frequency:   67.9391736906

- q-position: [    0.0606061,    0.0000000,    0.0000000 ]
  distance:    0.0204548
  band:
  - # 1
    frequency:   -1.0399622482
  - # 2
    frequency:   -0.7719797616
  - # 3
    frequency:    0.2207912357
  - # 4
    frequency:    0.7864640550
  - # 5
    frequency:    1.0809048172
  - # 6
    frequency:    3.7791453592
  - # 7
    frequency:    3.8570380996
  - # 8
    frequency:    5.4674778653
  - # 9
    frequency:    5.8910018950
  - # 10
    frequency:    6.0438266186
  - # 11
    frequency:    6.6008751490
  - # 12
    frequency:    6.6703837677
  - # 13
    frequency:    8.2462302653
  - # 14
    frequency:    9.7095101435
  - # 15
    frequency:   13.6221921958
  - # 16
    frequency:   14.1792789362
  - # 17
    frequency:   14.2003725258
  - # 18
    frequency:   16.0680692674
  - # 19
    frequency:   16.0714484985
  - # 20
    frequency:   31.9919725757
  - # 21
    frequency:   67.9332110299

- q-position: [    0.0656566,    0.0000000,    0.0000000 ]
  distance:    0.0221594
  band:
  - # 1
    frequency:   -1.0369460907
  - # 2
    frequency:   -0.7155576024
  - # 3
    frequency:    0.2608130072
  - # 4
    frequency:    0.8462968476
  - # 5
    frequency:    1.1675481118
  - # 6
    frequency:    3.7768116808
  - # 7
    frequency:    3.8681734647
  - # 8
    frequency:    5.4565433585
  - # 9
    frequency:    5.8860750324
  - # 10
    frequency:    6.0598506283
  - # 11
    frequency:    6.5999265726
  - # 12
    frequency:    6.6809411584
  - # 13
    frequency:    8.2409898697
  - # 14
    frequency:    9.6861733125
  - # 15
    frequency:   13.6166317931
  - # 16
    frequency:   14.1795580601
  - # 17
    frequency:   14.2041857860
  - # 18
    frequency:   16.0699912291
  - # 19
    frequency:   16.0740505572
  - # 20
    frequency:   31.9807881613
  - # 21
    frequency:   67.9267897021

- q-position: [    0.0707071,    0.0000000,    0.0000000 ]
  distance:    0.0238640
  band:
  - # 1
    frequency:   -1.0331848059
  - # 2
    frequency:   -0.6505461294
  - # 3
    frequency:    0.3052868006
  - # 4
    frequency:    0.9051883932
  - # 5
    frequency:    1.2535424581
  - # 6
    frequency:    3.7742032683
  - # 7
    frequency:    3.8801049022
  - # 8
    frequency:    5.4458603325
  - # 9
    frequency:    5.8809408121
  - # 10
    frequency:    6.0762221702
  - # 11
    frequency:    6.5988141795
  - # 12
    frequency:    6.6920470913
  - # 13
    frequency:    8.2353977922
  - # 14
    frequency:    9.6611718813
  - # 15
    frequency:   13.6105882400
  - # 16
    frequency:   14.1798707397
  - # 17
    frequency:   14.2082729638
  - # 18
    frequency:   16.0719800684
  - # 19
    frequency:   16.0768057656
  - # 20
    frequency:   31.9688419037
  - # 21
    frequency:   67.9199240621

- q-position: [    0.0757576,    0.0000000,    0.0000000 ]
  distance:    0.0255685
  band:
  - # 1
    frequency:   -1.0286507402
  - # 2
    frequency:   -0.5752241807
  - # 3
    frequency:    0.3550038662
  - # 4
    frequency:    0.9631415477
  - # 5
    frequency:    1.3388620224
  - # 6
    frequency:    3.7713033089
  - # 7
    frequency:    3.8928179328
  - # 8
    frequency:    5.4355201738
  - # 9
    frequency:    5.8756353602
  - # 10
    frequency:    6.0928903603
  - # 11
    frequency:    6.5975249514
  - # 12
    frequency:    6.7036340736
  - # 13
    frequency:    8.2294694951
  - # 14
    frequency:    9.6345511222
  - # 15
    frequency:   13.6040589983
  - # 16
    frequency:   14.1802191449
  - # 17
    frequency:   14.2126267148
  - # 18
    frequency:   16.0740151690
  - # 19
    frequency:   16.0797009736
  - # 20
    frequency:   31.9561631494
  - # 21
    frequency:   67.9126293783

- q-position: [    0.0808081,    0.0000000,    0.0000000 ]
  distance:    0.0272731
  band:
  - # 1
    frequency:   -1.0233218487
  - # 2
    frequency:   -0.4869505967
  - # 3
    frequency:    0.4110479121
  - # 4
    frequency:    1.0201572392
  - # 5
    frequency:    1.4234776360
  - # 6
    frequency:    3.7680951104
  - # 7
    frequency:    3.9062990087
  - # 8
    frequency:    5.4256029623
  - # 9
    frequency:    5.8701953989
  - # 10
    frequency:    6.1098163339
  - # 11
    frequency:    6.5960469865
  - # 12
    frequency:    6.7156310823
  - # 13
    frequency:    8.2232214827
  - # 14
    frequency:    9.6063591629
  - # 15
    frequency:   13.5970432154
  - # 16
    frequency:   14.1806054585
  - # 17
    frequency:   14.2172391881
  - # 18
    frequency:   16.0760743473
  - # 19
    frequency:   16.0827219110
  - # 20
    frequency:   31.9427829370
  - # 21
    frequency:   67.9049217824

- q-position: [    0.0858586,    0.0000000,    0.0000000 ]
  distance:    0.0289777
  band:
  - # 1
    frequency:   -1.0171800656
  - # 2
    frequency:   -0.3805424603
  - # 3
    frequency:    0.4746044777
  - # 4
    frequency:    1.0762342349
  - # 5
    frequency:    1.5073567066
  - # 6
    frequency:    3.7645624223
  - # 7
    frequency:    3.9205356377
  - # 8
    frequency:    5.4161791094
  - # 9
    frequency:    5.8646579866
  - # 10
    frequency:    6.1269709272
  - # 11
    frequency:    6.5943697102
  - # 12
    frequency:    6.7279641999
  - # 13
    frequency:    8.2166712499
  - # 14
    frequency:    9.5766468923
  - # 15
    frequency:   13.5895419367
  - # 16
    frequency:   14.1810318480
  - # 17
    frequency:   14.2221020656
  - # 18
    frequency:   16.0781339149
  - # 19
    frequency:   16.0858531677
  - # 20
    frequency:   31.9287338991
  - # 21
    frequency:   67.8968182158

- q-position: [    0.0909091,    0.0000000,    0.0000000 ]
  distance:    0.0306822
  band:
  - # 1
    frequency:   -1.0102098916
  - # 2
    frequency:   -0.2389817921
  - # 3
    frequency:    0.5462603178
  - # 4
    frequency:    1.1313691799
  - # 5
    frequency:    1.5904632907
  - # 6
    frequency:    3.7606897839
  - # 7
    frequency:    3.9355164432
  - # 8
    frequency:    5.4073107188
  - # 9
    frequency:    5.8590602721
  - # 10
    frequency:    6.1443326257
  - # 11
    frequency:    6.5924840505
  - # 12
    frequency:    6.7405572949
  - # 13
    frequency:    8.2098372175
  - # 14
    frequency:    9.5454678641
  - # 15
    frequency:   13.5815582876
  - # 16
    frequency:   14.1815004375
  - # 17
    frequency:   14.2272066058
  - # 18
    frequency:   16.0801687615
  - # 19
    frequency:   16.0890781765
  - # 20
    frequency:   31.9140501585
  - # 21
    frequency:   67.8883363738

- q-position: [    0.0959596,    0.0000000,    0.0000000 ]
  distance:    0.0323868
  band:
  - # 1
    frequency:   -1.0023971850
  - # 2
    frequency:    0.1553086882
  - # 3
    frequency:    0.6249873245
  - # 4
    frequency:    1.1855568128
  - # 5
    frequency:    1.6727582792
  - # 6
    frequency:    3.7564628999
  - # 7
    frequency:    3.9512311528
  - # 8
    frequency:    5.3990527104
  - # 9
    frequency:    5.8534392648
  - # 10
    frequency:    6.1618857678
  - # 11
    frequency:    6.5903825788
  - # 12
    frequency:    6.7533327261
  - # 13
    frequency:    8.2027386498
  - # 14
    frequency:    9.5128781993
  - # 15
    frequency:   13.5730976252
  - # 16
    frequency:   14.1820132790
  - # 17
    frequency:   14.2325436929
  - # 18
    frequency:   16.0821524593
  - # 19
    frequency:   16.0923791997
  - # 20
    frequency:   31.8987672191
  - # 21
    frequency:   67.8794946479

- q-position: [    0.1010101,    0.0000000,    0.0000000 ]
  distance:    0.0340914
  band:
  - # 1
    frequency:   -0.9937281262
  - # 2
    frequency:    0.3157350750
  - # 3
    frequency:    0.7080920049
  - # 4
    frequency:    1.2387902856
  - # 5
    frequency:    1.7541996596
  - # 6
    frequency:    3.7518690407
  - # 7
    frequency:    3.9676705130
  - # 8
    frequency:    5.3914537481
  - # 9
    frequency:    5.8478316178
  - # 10
    frequency:    6.1796189868
  - # 11
    frequency:    6.5880596144
  - # 12
    frequency:    6.7662120512
  - # 13
    frequency:    8.1953955544
  - # 14
    frequency:    9.4789364869
  - # 15
    frequency:   13.5641676563
  - # 16
    frequency:   14.1825723244
  - # 17
    frequency:   14.2381038878
  - # 18
    frequency:   16.0840573883
  - # 19
    frequency:   16.0957373203
  - # 20
    frequency:   31.8829218536
  - # 21
    frequency:   67.8703120656

- q-position: [    0.1060606,    0.0000000,    0.0000000 ]
  distance:    0.0357959
  band:
  - # 1
    frequency:   -0.9841883234
  - # 2
    frequency:    0.4152410794
  - # 3
    frequency:    0.7926054270
  - # 4
    frequency:    1.2910615419
  - # 5
    frequency:    1.8347428339
  - # 6
    frequency:    3.7468974653
  - # 7
    frequency:    3.9848261279
  - # 8
    frequency:    5.3845570114
  - # 9
    frequency:    5.8422734212
  - # 10
    frequency:    6.1975238720
  - # 11
    frequency:    6.5855112957
  - # 12
    frequency:    6.7791167226
  - # 13
    frequency:    8.1878285601
  - # 14
    frequency:    9.4437036852
  - # 15
    frequency:   13.5547785226
  - # 16
    frequency:   14.1831793974
  - # 17
    frequency:   14.2438774810
  - # 18
    frequency:   16.0858548820
  - # 19
    frequency:   16.0991324389
  - # 20
    frequency:   31.8665519855
  - # 21
    frequency:   67.8608082293

- q-position: [    0.1111111,    0.0000000,    0.0000000 ]
  distance:    0.0375005
  band:
  - # 1
    frequency:   -0.9737620239
  - # 2
    frequency:    0.4954802266
  - # 3
    frequency:    0.8764738830
  - # 4
    frequency:    1.3423617177
  - # 5
    frequency:    1.9143409763
  - # 6
    frequency:    3.7415398633
  - # 7
    frequency:    4.0026902204
  - # 8
    frequency:    5.3784008445
  - # 9
    frequency:    5.8368000065
  - # 10
    frequency:    6.2155938320
  - # 11
    frequency:    6.5827356165
  - # 12
    frequency:    6.7919687565
  - # 13
    frequency:    8.1800587689
  - # 14
    frequency:    9.4072430242
  - # 15
    frequency:   13.5449428535
  - # 16
    frequency:   14.1838361664
  - # 17
    frequency:   14.2498545446
  - # 18
    frequency:   16.0875153926
  - # 19
    frequency:   16.1025432764
  - # 20
    frequency:   31.8496965686
  - # 21
    frequency:   67.8510032533

- q-position: [    0.1161616,    0.0000000,    0.0000000 ]
  distance:    0.0392051
  band:
  - # 1
    frequency:   -0.9624313966
  - # 2
    frequency:    0.5669852620
  - # 3
    frequency:    0.9586675444
  - # 4
    frequency:    1.3926815442
  - # 5
    frequency:    1.9929454264
  - # 6
    frequency:    3.7357908114
  - # 7
    frequency:    4.0212553153
  - # 8
    frequency:    5.3730193118
  - # 9
    frequency:    5.8314457573
  - # 10
    frequency:    6.2338231430
  - # 11
    frequency:    6.5797324327
  - # 12
    frequency:    6.8046913668
  - # 13
    frequency:    8.1721075819
  - # 14
    frequency:    9.3696199116
  - # 15
    frequency:   13.5346757862
  - # 16
    frequency:   14.1845441187
  - # 17
    frequency:   14.2560249834
  - # 18
    frequency:   16.0890086737
  - # 19
    frequency:   16.1059473847
  - # 20
    frequency:   31.8323954620
  - # 21
    frequency:   67.8409176999

- q-position: [    0.1212121,    0.0000000,    0.0000000 ]
  distance:    0.0409096
  band:
  - # 1
    frequency:   -0.9501758514
  - # 2
    frequency:    0.6341755692
  - # 3
    frequency:    1.0388104669
  - # 4
    frequency:    1.4420117402
  - # 5
    frequency:    2.0705061131
  - # 6
    frequency:    3.7296482373
  - # 7
    frequency:    4.0405138472
  - # 8
    frequency:    5.3684426824
  - # 9
    frequency:    5.8262439269
  - # 10
    frequency:    6.2522061655
  - # 11
    frequency:    6.5765034377
  - # 12
    frequency:    6.8172095582
  - # 13
    frequency:    8.1639964926
  - # 14
    frequency:    9.3309018422
  - # 15
    frequency:   13.5239949557
  - # 16
    frequency:   14.1853045354
  - # 17
    frequency:   14.2623785832
  - # 18
    frequency:   16.0903039783
  - # 19
    frequency:   16.1093211654
  - # 20
    frequency:   31.8146893032
  - # 21
    frequency:   67.8305725146

- q-position: [    0.1262626,    0.0000000,    0.0000000 ]
  distance:    0.0426142
  band:
  - # 1
    frequency:   -0.9369713645
  - # 2
    frequency:    0.6992280445
  - # 3
    frequency:    1.1168533429
  - # 4
    frequency:    1.4903433864
  - # 5
    frequency:    2.1469720107
  - # 6
    frequency:    3.7231138861
  - # 7
    frequency:    4.0604576944
  - # 8
    frequency:    5.3646978625
  - # 9
    frequency:    5.8212264620
  - # 10
    frequency:    6.2707367113
  - # 11
    frequency:    6.5730521120
  - # 12
    frequency:    6.8294506768
  - # 13
    frequency:    8.1557468461
  - # 14
    frequency:    9.2911583162
  - # 15
    frequency:   13.5129204550
  - # 16
    frequency:   14.1861184693
  - # 17
    frequency:   14.2689050559
  - # 18
    frequency:   16.0913702708
  - # 19
    frequency:   16.1126398978
  - # 20
    frequency:   31.7966193776
  - # 21
    frequency:   67.8199889602

- q-position: [    0.1313131,    0.0000000,    0.0000000 ]
  distance:    0.0443188
  band:
  - # 1
    frequency:   -0.9227897728
  - # 2
    frequency:    0.7633076655
  - # 3
    frequency:    1.1928863208
  - # 4
    frequency:    1.5376682790
  - # 5
    frequency:    2.2222916272
  - # 6
    frequency:    3.7161937774
  - # 7
    frequency:    4.0810776437
  - # 8
    frequency:    5.3618087882
  - # 9
    frequency:    5.8164238297
  - # 10
    frequency:    6.2894075463
  - # 11
    frequency:    6.5693836484
  - # 12
    frequency:    6.8413449196
  - # 13
    frequency:    8.1473795592
  - # 14
    frequency:    9.2504607656
  - # 15
    frequency:   13.5014747676
  - # 16
    frequency:   14.1869867233
  - # 17
    frequency:   14.2755940809
  - # 18
    frequency:   16.0921764492
  - # 19
    frequency:   16.1158777770
  - # 20
    frequency:   31.7782274865
  - # 21
    frequency:   67.8091885514

- q-position: [    0.1363636,    0.0000000,    0.0000000 ]
  distance:    0.0460233
  band:
  - # 1
    frequency:   -0.9075980027
  - # 2
    frequency:    0.8270695206
  - # 3
    frequency:    1.2670479268
  - # 4
    frequency:    1.5839792635
  - # 5
    frequency:    2.2964135282
  - # 6
    frequency:    3.7088986459
  - # 7
    frequency:    4.1023627916
  - # 8
    frequency:    5.3597967903
  - # 9
    frequency:    5.8118648519
  - # 10
    frequency:    6.3082100097
  - # 11
    frequency:    6.5655048547
  - # 12
    frequency:    6.8528258069
  - # 13
    frequency:    8.1389147989
  - # 14
    frequency:    9.2088824962
  - # 15
    frequency:   13.4896826739
  - # 16
    frequency:   14.1879098319
  - # 17
    frequency:   14.2824353418
  - # 18
    frequency:   16.0926915755
  - # 19
    frequency:   16.1190079629
  - # 20
    frequency:   31.7595558137
  - # 21
    frequency:   67.7981929888

- q-position: [    0.1414141,    0.0000000,    0.0000000 ]
  distance:    0.0477279
  band:
  - # 1
    frequency:   -0.8913571905
  - # 2
    frequency:    0.8908915691
  - # 3
    frequency:    1.3394843408
  - # 4
    frequency:    1.6292705486
  - # 5
    frequency:    2.3692868956
  - # 6
    frequency:    3.7012443520
  - # 7
    frequency:    4.1242998909
  - # 8
    frequency:    5.3586809355
  - # 9
    frequency:    5.8075765440
  - # 10
    frequency:    6.3271337355
  - # 11
    frequency:    6.5614240393
  - # 12
    frequency:    6.8638306219
  - # 13
    frequency:    8.1303716142
  - # 14
    frequency:    9.1664986477
  - # 15
    frequency:   13.4775711338
  - # 16
    frequency:   14.1888880456
  - # 17
    frequency:   14.2894185593
  - # 18
    frequency:   16.0928851121
  - # 19
    frequency:   16.1220026401
  - # 20
    frequency:   31.7406467902
  - # 21
    frequency:   67.7870240925

- q-position: [    0.1464646,    0.0000000,    0.0000000 ]
  distance:    0.0494325
  band:
  - # 1
    frequency:   -0.8740216420
  - # 2
    frequency:    0.9549920578
  - # 3
    frequency:    1.4103326552
  - # 4
    frequency:    1.6735380070
  - # 5
    frequency:    2.4408621210
  - # 6
    frequency:    3.6932522517
  - # 7
    frequency:    4.1468726521
  - # 8
    frequency:    5.3584783499
  - # 9
    frequency:    5.8035839618
  - # 10
    frequency:    6.3461664568
  - # 11
    frequency:    6.5571508798
  - # 12
    frequency:    6.8743008248
  - # 13
    frequency:    8.1217675173
  - # 14
    frequency:    9.1233861780
  - # 15
    frequency:   13.4651691461
  - # 16
    frequency:   14.1899213165
  - # 17
    frequency:   14.2965335193
  - # 18
    frequency:   16.0927271598
  - # 19
    frequency:   16.1248330911
  - # 20
    frequency:   31.7215429583
  - # 21
    frequency:   67.7757037372

- q-position: [    0.1515152,    0.0000000,    0.0000000 ]
  distance:    0.0511370
  band:
  - # 1
    frequency:   -0.8555375692
  - # 2
    frequency:    1.0194926958
  - # 3
    frequency:    1.4797150707
  - # 4
    frequency:    1.7167794639
  - # 5
    frequency:    2.5110914310
  - # 6
    frequency:    3.6849495100
  - # 7
    frequency:    4.1700610154
  - # 8
    frequency:    5.3592045229
  - # 9
    frequency:    5.7999100566
  - # 10
    frequency:    6.3652938797
  - # 11
    frequency:    6.5526962805
  - # 12
    frequency:    6.8841824453
  - # 13
    frequency:    8.1131180089
  - # 14
    frequency:    9.0796238809
  - # 15
    frequency:   13.4525075867
  - # 16
    frequency:   14.1910092883
  - # 17
    frequency:   14.3037700967
  - # 18
    frequency:   16.0921886966
  - # 19
    frequency:   16.1274697807
  - # 20
    frequency:   31.7022868364
  - # 21