nqpoint: 300    
npath: 3      
segment_nqpoint:
- 100
- 100
- 100
labels:
- [ 'G', 'M' ]
- [ 'M', 'K' ]
- [ 'K', 'G' ]
reciprocal_lattice:
- [   0.29790657,   0.17199644,   0.00000000 ] # a*
- [   0.00000000,   0.34399288,   0.00000000 ] # b*
- [   0.00000000,   0.00000000,   0.04413997 ] # c*
natom: 5      
lattice:
- [     3.356757132990416,     0.000000000000000,     0.000000000000000 ] # a
- [    -1.678378566495208,     2.907036951501464,     0.000000000000000 ] # b
- [     0.000000000000000,     0.000000000000000,    22.655204669046530 ] # c
points:
- symbol: F # 1
  coordinates: [  0.333332985432215,  0.666666983183674,  0.602740291625060 ]
  mass: 18.998403
- symbol: H # 2
  coordinates: [  0.666666984744047,  0.333332985985144,  0.397259708374940 ]
  mass: 1.007940
- symbol: N # 3
  coordinates: [  0.000000000000000,  0.000000000000000,  0.494841367393364 ]
  mass: 14.006700
- symbol: Zr # 4
  coordinates: [  0.333332985432215,  0.666666983183674,  0.441708506552291 ]
  mass: 91.224000
- symbol: Zr # 5
  coordinates: [  0.666666984744047,  0.333332985985144,  0.544520984932385 ]
  mass: 91.224000

phonon:
- q-position: [    0.0000000,    0.0000000,    0.0000000 ]
  distance:    0.0000000
  band:
  - # 1
    frequency:   -0.0000096951
  - # 2
    frequency:   -0.0000002158
  - # 3
    frequency:    0.0000080222
  - # 4
    frequency:    1.7741964421
  - # 5
    frequency:    1.9511792229
  - # 6
    frequency:    1.9511792229
  - # 7
    frequency:    6.4345742625
  - # 8
    frequency:    6.4345742625
  - # 9
    frequency:   10.9971957001
  - # 10
    frequency:   13.1909447445
  - # 11
    frequency:   15.5039643137
  - # 12
    frequency:   15.5039643138
  - # 13
    frequency:   26.0699121861
  - # 14
    frequency:   30.6952894750
  - # 15
    frequency:   30.6952894750

- q-position: [    0.0050505,    0.0000000,    0.0000000 ]
  distance:    0.0017373
  band:
  - # 1
    frequency:   -0.5295440529
  - # 2
    frequency:   -0.0654572504
  - # 3
    frequency:   -0.0012886211
  - # 4
    frequency:    1.7325801018
  - # 5
    frequency:    1.9485403875
  - # 6
    frequency:    2.0538395703
  - # 7
    frequency:    6.4353148819
  - # 8
    frequency:    6.4359885319
  - # 9
    frequency:   10.9966590297
  - # 10
    frequency:   13.1918481737
  - # 11
    frequency:   15.5038043569
  - # 12
    frequency:   15.5044302189
  - # 13
    frequency:   26.0701085847
  - # 14
    frequency:   30.6929154242
  - # 15
    frequency:   30.6935636088

- q-position: [    0.0101010,    0.0000000,    0.0000000 ]
  distance:    0.0034747
  band:
  - # 1
    frequency:   -0.9913818566
  - # 2
    frequency:   -0.1314670917
  - # 3
    frequency:   -0.0052008955
  - # 4
    frequency:    1.6923201842
  - # 5
    frequency:    1.9406603015
  - # 6
    frequency:    2.2390595202
  - # 7
    frequency:    6.4375310848
  - # 8
    frequency:    6.4402191822
  - # 9
    frequency:   10.9950504661
  - # 10
    frequency:   13.1945460285
  - # 11
    frequency:   15.5033225512
  - # 12
    frequency:   15.5058219076
  - # 13
    frequency:   26.0706975306
  - # 14
    frequency:   30.6858018409
  - # 15
    frequency:   30.6883915981

- q-position: [    0.0151515,    0.0000000,    0.0000000 ]
  distance:    0.0052120
  band:
  - # 1
    frequency:   -1.3783862482
  - # 2
    frequency:   -0.1985914545
  - # 3
    frequency:   -0.0118782989
  - # 4
    frequency:    1.6692246722
  - # 5
    frequency:    1.9276510064
  - # 6
    frequency:    2.4360299759
  - # 7
    frequency:    6.4412060411
  - # 8
    frequency:    6.4472298491
  - # 9
    frequency:   10.9923743697
  - # 10
    frequency:   13.1990013466
  - # 11
    frequency:   15.5025131112
  - # 12
    frequency:   15.5081213158
  - # 13
    frequency:   26.0716782648
  - # 14
    frequency:   30.6739744104
  - # 15
    frequency:   30.6797901899

- q-position: [    0.0202020,    0.0000000,    0.0000000 ]
  distance:    0.0069494
  band:
  - # 1
    frequency:   -1.7077585836
  - # 2
    frequency:   -0.2674091270
  - # 3
    frequency:   -0.0215448293
  - # 4
    frequency:    1.6534594562
  - # 5
    frequency:    1.9097085181
  - # 6
    frequency:    2.6272791207
  - # 7
    frequency:    6.4463121461
  - # 8
    frequency:    6.4569602933
  - # 9
    frequency:   10.9886380636
  - # 10
    frequency:   13.2051536340
  - # 11
    frequency:   15.5013664616
  - # 12
    frequency:   15.5112983910
  - # 13
    frequency:   26.0730494941
  - # 14
    frequency:   30.6574758656
  - # 15
    frequency:   30.6677872411

- q-position: [    0.0252525,    0.0000000,    0.0000000 ]
  distance:    0.0086867
  band:
  - # 1
    frequency:   -1.9949380508
  - # 2
    frequency:   -0.3385192793
  - # 3
    frequency:   -0.0344920608
  - # 4
    frequency:    1.6402539080
  - # 5
    frequency:    1.8871266537
  - # 6
    frequency:    2.8080559885
  - # 7
    frequency:    6.4528116612
  - # 8
    frequency:    6.4693269601
  - # 9
    frequency:   10.9838519086
  - # 10
    frequency:   13.2129204803
  - # 11
    frequency:   15.4998693358
  - # 12
    frequency:   15.5153111819
  - # 13
    frequency:   26.0748093480
  - # 14
    frequency:   30.6363658727
  - # 15
    frequency:   30.6524216367

- q-position: [    0.0303030,    0.0000000,    0.0000000 ]
  distance:    0.0104240
  band:
  - # 1
    frequency:   -2.2503374506
  - # 2
    frequency:   -0.4125381974
  - # 3
    frequency:   -0.0510585793
  - # 4
    frequency:    1.6278114866
  - # 5
    frequency:    1.8603157584
  - # 6
    frequency:    2.9775453458
  - # 7
    frequency:    6.4606575588
  - # 8
    frequency:    6.4842237746
  - # 9
    frequency:   10.9780293896
  - # 10
    frequency:   13.2221997251
  - # 11
    frequency:   15.4980049113
  - # 12
    frequency:   15.5201059800
  - # 13
    frequency:   26.0769553213
  - # 14
    frequency:   30.6107208707
  - # 15
    frequency:   30.6337431744

- q-position: [    0.0353535,    0.0000000,    0.0000000 ]
  distance:    0.0121614
  band:
  - # 1
    frequency:   -2.4807673244
  - # 2
    frequency:   -0.4900857417
  - # 3
    frequency:   -0.0716047271
  - # 4
    frequency:    1.6155927385
  - # 5
    frequency:    1.8298245945
  - # 6
    frequency:    3.1361844689
  - # 7
    frequency:    6.4697945265
  - # 8
    frequency:    6.5015231807
  - # 9
    frequency:   10.9711872023
  - # 10
    frequency:   13.2328720879
  - # 11
    frequency:   15.4957529795
  - # 12
    frequency:   15.5256175267
  - # 13
    frequency:   26.0794842022
  - # 14
    frequency:   30.5806338630
  - # 15
    frequency:   30.6118124168

- q-position: [    0.0404040,    0.0000000,    0.0000000 ]
  distance:    0.0138987
  band:
  - # 1
    frequency:   -2.6907793534
  - # 2
    frequency:   -0.5717577875
  - # 3
    frequency:   -0.0964825411
  - # 4
    frequency:    1.6036380805
  - # 5
    frequency:    1.7963615385
  - # 6
    frequency:    3.2847771697
  - # 7
    frequency:    6.4801600773
  - # 8
    frequency:    6.5210774296
  - # 9
    frequency:   10.9633453214
  - # 10
    frequency:   13.2448041545
  - # 11
    frequency:   15.4930901460
  - # 12
    frequency:   15.5317693036
  - # 13
    frequency:   26.0823919883
  - # 14
    frequency:   30.5462141607
  - # 15
    frequency:   30.5867005109

- q-position: [    0.0454545,    0.0000000,    0.0000000 ]
  distance:    0.0156360
  band:
  - # 1
    frequency:   -2.8835116290
  - # 2
    frequency:   -0.6580819983
  - # 3
    frequency:   -0.1260005151
  - # 4
    frequency:    1.5923054462
  - # 5
    frequency:    1.7608081704
  - # 6
    frequency:    3.4241910577
  - # 7
    frequency:    6.4916857137
  - # 8
    frequency:    6.5427201133
  - # 9
    frequency:   10.9545270399
  - # 10
    frequency:   13.2578516040
  - # 11
    frequency:   15.4899900570
  - # 12
    frequency:   15.5384739233
  - # 13
    frequency:   26.0856737922
  - # 14
    frequency:   30.5075870751
  - # 15
    frequency:   30.5584889736

- q-position: [    0.0505051,    0.0000000,    0.0000000 ]
  distance:    0.0173734
  band:
  - # 1
    frequency:   -3.0611937437
  - # 2
    frequency:   -0.7494579113
  - # 3
    frequency:   -0.1603832373
  - # 4
    frequency:    1.5821572750
  - # 5
    frequency:    1.7242151878
  - # 6
    frequency:    3.5552555090
  - # 7
    frequency:    6.5042980954
  - # 8
    frequency:    6.5662679352
  - # 9
    frequency:   10.9447589663
  - # 10
    frequency:   13.2718625545
  - # 11
    frequency:   15.4864236489
  - # 12
    frequency:   15.5456336382
  - # 13
    frequency:   26.0893237399
  - # 14
    frequency:   30.4648935603
  - # 15
    frequency:   30.5272694456

- q-position: [    0.0555556,    0.0000000,    0.0000000 ]
  distance:    0.0191107
  band:
  - # 1
    frequency:   -3.2254529902
  - # 2
    frequency:   -0.8460891487
  - # 3
    frequency:   -0.1997274891
  - # 4
    frequency:    1.5738976463
  - # 5
    frequency:    1.6877695472
  - # 6
    frequency:    3.6787315658
  - # 7
    frequency:    6.5179201635
  - # 8
    frequency:    6.5915226934
  - # 9
    frequency:   10.9340709735
  - # 10
    frequency:   13.2866809074
  - # 11
    frequency:   15.4823594150
  - # 12
    frequency:   15.5531409829
  - # 13
    frequency:   26.0933348636
  - # 14
    frequency:   30.4182898013
  - # 15
    frequency:   30.4931434111

- q-position: [    0.0606061,    0.0000000,    0.0000000 ]
  distance:    0.0208481
  band:
  - # 1
    frequency:   -3.3775057297
  - # 2
    frequency:   -0.9479241125
  - # 3
    frequency:   -0.2439591839
  - # 4
    frequency:    1.5683194987
  - # 5
    frequency:    1.6527260594
  - # 6
    frequency:    3.7953077649
  - # 7
    frequency:    6.5324721867
  - # 8
    frequency:    6.6182734470
  - # 9
    frequency:   10.9224960939
  - # 10
    frequency:   13.3021495767
  - # 11
    frequency:   15.4777636850
  - # 12
    frequency:   15.5608795623
  - # 13
    frequency:   26.0976989923
  - # 14
    frequency:   30.3679467488
  - # 15
    frequency:   30.4562218853

- q-position: [    0.0656566,    0.0000000,    0.0000000 ]
  distance:    0.0225854
  band:
  - # 1
    frequency:   -3.5182809815
  - # 2
    frequency:   -1.0546268340
  - # 3
    frequency:   -0.2927989779
  - # 4
    frequency:    1.5662451366
  - # 5
    frequency:    1.6203081600
  - # 6
    frequency:    3.9056047436
  - # 7
    frequency:    6.5478726996
  - # 8
    frequency:    6.6462988198
  - # 9
    frequency:   10.9100703626
  - # 10
    frequency:   13.3181135032
  - # 11
    frequency:   15.4726009124
  - # 12
    frequency:   15.5687249926
  - # 13
    frequency:   26.1024066429
  - # 14
    frequency:   30.3140495967
  - # 15
    frequency:   30.4166250687

- q-position: [    0.0707071,    0.0000000,    0.0000000 ]
  distance:    0.0243227
  band:
  - # 1
    frequency:   -3.6485027286
  - # 2
    frequency:   -1.1655952677
  - # 3
    frequency:   -0.3457467963
  - # 4
    frequency:    1.5684561868
  - # 5
    frequency:    1.5915977729
  - # 6
    frequency:    4.0101821384
  - # 7
    frequency:    6.5640393172
  - # 8
    frequency:    6.6753693938
  - # 9
    frequency:   10.8968326114
  - # 10
    frequency:   13.3344223695
  - # 11
    frequency:   15.4668339647
  - # 12
    frequency:   15.5765459970
  - # 13
    frequency:   26.1074469142
  - # 14
    frequency:   30.2567972033
  - # 15
    frequency:   30.3744819692

- q-position: [    0.0757576,    0.0000000,    0.0000000 ]
  distance:    0.0260601
  band:
  - # 1
    frequency:   -3.7687462498
  - # 2
    frequency:   -1.2800284216
  - # 3
    frequency:   -0.4020944187
  - # 4
    frequency:    1.5674436863
  - # 5
    frequency:    1.5756193404
  - # 6
    frequency:    4.1095453973
  - # 7
    frequency:    6.5808894157
  - # 8
    frequency:    6.7052501375
  - # 9
    frequency:   10.8828242184
  - # 10
    frequency:   13.3509329508
  - # 11
    frequency:   15.4604244109
  - # 12
    frequency:   15.5842056507
  - # 13
    frequency:   26.1128073870
  - # 14
    frequency:   30.1964014521
  - # 15
    frequency:   30.3299299910

- q-position: [    0.0808081,    0.0000000,    0.0000000 ]
  distance:    0.0277974
  band:
  - # 1
    frequency:   -3.8794775936
  - # 2
    frequency:   -1.3970240999
  - # 3
    frequency:   -0.4609690961
  - # 4
    frequency:    1.5484131167
  - # 5
    frequency:    1.5882214194
  - # 6
    frequency:    4.2041517500
  - # 7
    frequency:    6.5983406801
  - # 8
    frequency:    6.7357028143
  - # 9
    frequency:   10.8680888226
  - # 10
    frequency:   13.3675110577
  - # 11
    frequency:   15.4533328033
  - # 12
    frequency:   15.5915627648
  - # 13
    frequency:   26.1184740339
  - # 14
    frequency:   30.1330865536
  - # 15
    frequency:   30.2831144922

- q-position: [    0.0858586,    0.0000000,    0.0000000 ]
  distance:    0.0295347
  band:
  - # 1
    frequency:   -3.9810817974
  - # 2
    frequency:   -1.5156783980
  - # 3
    frequency:   -0.5214014920
  - # 4
    frequency:    1.5347937096
  - # 5
    frequency:    1.6065285497
  - # 6
    frequency:    4.2944152093
  - # 7
    frequency:    6.6163115266
  - # 8
    frequency:    6.7664883208
  - # 9
    frequency:   10.8526720111
  - # 10
    frequency:   13.3840330472
  - # 11
    frequency:   15.4455189480
  - # 12
    frequency:   15.5984733885
  - # 13
    frequency:   26.1244311395
  - # 14
    frequency:   30.0670882854
  - # 15
    frequency:   30.2341883102

- q-position: [    0.0909091,    0.0000000,    0.0000000 ]
  distance:    0.0312721
  band:
  - # 1
    frequency:   -4.0738833967
  - # 2
    frequency:   -1.6351625027
  - # 3
    frequency:   -0.5824028891
  - # 4
    frequency:    1.5266346099
  - # 5
    frequency:    1.6305781946
  - # 6
    frequency:    4.3807107106
  - # 7
    frequency:    6.6347214106
  - # 8
    frequency:    6.7973689108
  - # 9
    frequency:   10.8366209865
  - # 10
    frequency:   13.4003868976
  - # 11
    frequency:   15.4369421617
  - # 12
    frequency:   15.6047924091
  - # 13
    frequency:   26.1306612346
  - # 14
    frequency:   29.9986531718
  - # 15
    frequency:   30.1833112563

- q-position: [    0.0959596,    0.0000000,    0.0000000 ]
  distance:    0.0330094
  band:
  - # 1
    frequency:   -4.1581615310
  - # 2
    frequency:   -1.7547662775
  - # 3
    frequency:   -0.6430344526
  - # 4
    frequency:    1.5238061762
  - # 5
    frequency:    1.6602025347
  - # 6
    frequency:    4.4633775563
  - # 7
    frequency:    6.6534910384
  - # 8
    frequency:    6.8281102719
  - # 9
    frequency:   10.8199842245
  - # 10
    frequency:   13.4164728594
  - # 11
    frequency:   15.4275615103
  - # 12
    frequency:   15.6103752181
  - # 13
    frequency:   26.1371450474
  - # 14
    frequency:   29.9280376012
  - # 15
    frequency:   30.1306495796

- q-position: [    0.1010101,    0.0000000,    0.0000000 ]
  distance:    0.0347468
  band:
  - # 1
    frequency:   -4.2341611898
  - # 2
    frequency:   -1.8739114049
  - # 3
    frequency:   -0.7024562644
  - # 4
    frequency:    1.5260599726
  - # 5
    frequency:    1.6950729426
  - # 6
    frequency:    4.5427223336
  - # 7
    frequency:    6.6725424988
  - # 8
    frequency:    6.8584834297
  - # 9
    frequency:   10.8028111273
  - # 10
    frequency:   13.4322037085
  - # 11
    frequency:   15.4173360283
  - # 12
    frequency:   15.6150794149
  - # 13
    frequency:   26.1438614720
  - # 14
    frequency:   29.8555068840
  - # 15
    frequency:   30.0763754021

- q-position: [    0.1060606,    0.0000000,    0.0000000 ]
  distance:    0.0364841
  band:
  - # 1
    frequency:   -4.3021016525
  - # 2
    frequency:   -1.9921436454
  - # 3
    frequency:   -0.7599522465
  - # 4
    frequency:    1.5330783568
  - # 5
    frequency:    1.7347521417
  - # 6
    frequency:    4.6190214470
  - # 7
    frequency:    6.6917993363
  - # 8
    frequency:    6.8882664702
  - # 9
    frequency:   10.7851516784
  - # 10
    frequency:   13.4475046382
  - # 11
    frequency:   15.4062249161
  - # 12
    frequency:   15.6187665121
  - # 13
    frequency:   26.1507875571
  - # 14
    frequency:   29.7813342507
  - # 15
    frequency:   30.0206661240

- q-position: [    0.1111111,    0.0000000,    0.0000000 ]
  distance:    0.0382214
  band:
  - # 1
    frequency:   -4.3621828632
  - # 2
    frequency:   -2.1091143363
  - # 3
    frequency:   -0.8149342647
  - # 4
    frequency:    1.5445104029
  - # 5
    frequency:    1.7787429502
  - # 6
    frequency:    4.6925233741
  - # 7
    frequency:    6.7111865827
  - # 8
    frequency:    6.9172460765
  - # 9
    frequency:   10.7670561046
  - # 10
    frequency:   13.4623128332
  - # 11
    frequency:   15.3941877153
  - # 12
    frequency:   15.6213036127
  - # 13
    frequency:   26.1578985164
  - # 14
    frequency:   29.7057997933
  - # 15
    frequency:   29.9637038036

- q-position: [    0.1161616,    0.0000000,    0.0000000 ]
  distance:    0.0399588
  band:
  - # 1
    frequency:   -4.4145902709
  - # 2
    frequency:   -2.2245586389
  - # 3
    frequency:   -0.8669321848
  - # 4
    frequency:    1.5599954275
  - # 5
    frequency:    1.8265273879
  - # 6
    frequency:    4.7634507261
  - # 7
    frequency:    6.7306307654
  - # 8
    frequency:    6.9452188898
  - # 9
    frequency:   10.7485745470
  - # 10
    frequency:   13.4765767733
  - # 11
    frequency:   15.3811844602
  - # 12
    frequency:   15.6225650262
  - # 13
    frequency:   26.1651677612
  - # 14
    frequency:   29.6291893521
  - # 15
    frequency:   29.9056745097

- q-position: [    0.1212121,    0.0000000,    0.0000000 ]
  distance:    0.0416961
  band:
  - # 1
    frequency:   -4.4594985244
  - # 2
    frequency:   -2.3382749165
  - # 3
    frequency:   -0.9155767390
  - # 4
    frequency:    1.5791771223
  - # 5
    frequency:    1.8775944702
  - # 6
    frequency:    4.8320021679
  - # 7
    frequency:    6.7500599084
  - # 8
    frequency:    6.9719927086
  - # 9
    frequency:   10.7297567434
  - # 10
    frequency:   13.4902553142
  - # 11
    frequency:   15.3671758070
  - # 12
    frequency:   15.6224337950
  - # 13
    frequency:   26.1725669578
  - # 14
    frequency:   29.5517933525
  - # 15
    frequency:   29.8467676511

- q-position: [    0.1262626,    0.0000000,    0.0000000 ]
  distance:    0.0434334
  band:
  - # 1
    frequency:   -4.4970743133
  - # 2
    frequency:   -2.4501072031
  - # 3
    frequency:   -0.9605803442
  - # 4
    frequency:    1.6017113494
  - # 5
    frequency:    1.9314578753
  - # 6
    frequency:    4.8983542311
  - # 7
    frequency:    6.7694035380
  - # 8
    frequency:    6.9973875478
  - # 9
    frequency:   10.7106517215
  - # 10
    frequency:   13.5033165914
  - # 11
    frequency:   15.3521231416
  - # 12
    frequency:   15.6208031092
  - # 13
    frequency:   26.1800661080
  - # 14
    frequency:   29.4739055956
  - # 15
    frequency:   29.7871752838

- q-position: [    0.1313131,    0.0000000,    0.0000000 ]
  distance:    0.0451708
  band:
  - # 1
    frequency:   -4.5274785823
  - # 2
    frequency:   -2.5599312578
  - # 3
    frequency:   -1.0017189371
  - # 4
    frequency:    1.6272700145
  - # 5
    frequency:    1.9876658356
  - # 6
    frequency:    4.9626630427
  - # 7
    frequency:    6.7885927054
  - # 8
    frequency:    7.0212365807
  - # 9
    frequency:   10.6913075032
  - # 10
    frequency:   13.5157367909
  - # 11
    frequency:   15.3359886668
  - # 12
    frequency:   15.6175775887
  - # 13
    frequency:   26.1876336560
  - # 14
    frequency:   29.3958220092
  - # 15
    frequency:   29.7270913976

- q-position: [    0.1363636,    0.0000000,    0.0000000 ]
  distance:    0.0469081
  band:
  - # 1
    frequency:   -4.5508682947
  - # 2
    frequency:   -2.6676439557
  - # 3
    frequency:   -1.0388162186
  - # 4
    frequency:    1.6555426876
  - # 5
    frequency:    2.0458056855
  - # 6
    frequency:    5.0250659748
  - # 7
    frequency:    6.8075600329
  - # 8
    frequency:    7.0433869905
  - # 9
    frequency:   10.6717708186
  - # 10
    frequency:   13.5274988255
  - # 11
    frequency:   15.3187354727
  - # 12
    frequency:   15.6126744178
  - # 13
    frequency:   26.1952366195
  - # 14
    frequency:   29.3178393643
  - # 15
    frequency:   29.6667111858

- q-position: [    0.1414141,    0.0000000,    0.0000000 ]
  distance:    0.0486455
  band:
  - # 1
    frequency:   -4.5673978919
  - # 2
    frequency:   -2.7731554877
  - # 3
    frequency:   -1.0717306176
  - # 4
    frequency:    1.6862370178
  - # 5
    frequency:    2.1055050577
  - # 6
    frequency:    5.0856832184
  - # 7
    frequency:    6.8262397884
  - # 8
    frequency:    7.0637007567
  - # 9
    frequency:   10.6520868268
  - # 10
    frequency:   13.5385909483
  - # 11
    frequency:   15.3003275915
  - # 12
    frequency:   15.6060243254
  - # 13
    frequency:   26.2028407463
  - # 14
    frequency:   29.2402539657
  - # 15
    frequency:   29.6062303003

- q-position: [    0.1464646,    0.0000000,    0.0000000 ]
  distance:    0.0503828
  band:
  - # 1
    frequency:   -4.5772205717
  - # 2
    frequency:   -2.8763837902
  - # 3
    frequency:   -1.1003446900
  - # 4
    frequency:    1.7190785530
  - # 5
    frequency:    2.1664311738
  - # 6
    frequency:    5.1446192761
  - # 7
    frequency:    6.8445679927
  - # 8
    frequency:    7.0820553994
  - # 9
    frequency:   10.6322988426
  - # 10
    frequency:   13.5490053325
  - # 11
    frequency:   15.2807300411
  - # 12
    frequency:   15.5975724043
  - # 13
    frequency:   26.2104106955
  - # 14
    frequency:   29.1633603248
  - # 15
    frequency:   29.5458440938

- q-position: [    0.1515152,    0.0000000,    0.0000000 ]
  distance:    0.0521201
  band:
  - # 1
    frequency:   -4.5804894931
  - # 2
    frequency:   -2.9772506859
  - # 3
    frequency:   -1.1245563992
  - # 4
    frequency:    1.7538102916
  - # 5
    frequency:    2.2282891791
  - # 6
    frequency:    5.2019643654
  - # 7
    frequency:    6.8624825581
  - # 8
    frequency:    7.0983447044
  - # 9
    frequency:   10.6124480667
  - # 10
    frequency:   13.5587366399
  - # 11
    frequency:   15.2599088606
  - # 12
    frequency:   15.5872787712
  - # 13
    frequency:   26.2179102416
  - # 14
    frequency:   29.0874498233
  - # 15
    frequency:   29.4857468548

- q-position: [    0.1565657,    0.0000000,    0.0000000 ]
  distance:    0.0538575
  band:
  - # 1
    frequency:   -4.5773590077
  - # 2
    frequency:   -3.0756793105
  - # 3
    frequency:   -1.1442716281
  - # 4
    frequency:    1.7901921291
  - # 5
    frequency:    2.2908200989
  - # 6
    frequency:    5.2577957215
  - # 7
    frequency:    6.8799234580
  - # 8
    frequency:    7.1124794479
  - # 9
    frequency:   10.5925733183
  - # 10
    frequency:   13.5677805952
  - # 11
    frequency:   15.2378311410
  - # 12
    frequency:   15.5751190713
  - # 13
    frequency:   26.2253025004
  - # 14
    frequency:   29.0128093785
  - # 15
    frequency:   29.4261310360

- q-position: [    0.1616162,    0.0000000,    0.0000000 ]
  distance:    0.0555948
  band:
  - # 1
    frequency:   -4.5679860127
  - # 2
    frequency:   -3.1715924894
  - # 3
    frequency:   -1.1593972460
  - # 4
    frequency:    1.8280002704
  - # 5
    frequency:    2.3537987338
  - # 6
    frequency:    5.3121787881
  - # 7
    frequency:    6.8968329231
  - # 8
    frequency:    7.1243881329
  - # 9
    frequency:   10.5727107705
  - # 10
    frequency:   13.5761325799
  - # 11
    frequency:   15.2144650563
  - # 12
    frequency:   15.5610848366
  - # 13
    frequency:   26.2325501747
  - # 14
    frequency:   28.9397201214
  - # 15
    frequency:   29.3671864823

- q-position: [    0.1666667,    0.0000000,    0.0000000 ]
  distance:    0.0573321
  band:
  - # 1
    frequency:   -4.5525315195
  - # 2
    frequency:   -3.2649118092
  - # 3
    frequency:   -1.1698340317
  - # 4
    frequency:    1.8670266281
  - # 5
    frequency:    2.4170316454
  - # 6
    frequency:    5.3651682821
  - # 7
    frequency:    6.9131556602
  - # 8
    frequency:    7.1340177510
  - # 9
    frequency:   10.5528936888
  - # 10
    frequency:   13.5837862560
  - # 11
    frequency:   15.1897798973
  - # 12
    frequency:   15.5451837077
  - # 13
    frequency:   26.2396158148
  - # 14
    frequency:   28.8684560978
  - # 15
    frequency:   29.3090996607

- q-position: [    0.1717172,    0.0000000,    0.0000000 ]
  distance:    0.0590695
  band:
  - # 1
    frequency:   -4.5311625382
  - # 2
    frequency:   -3.3555571940
  - # 3
    frequency:   -1.1754687049
  - # 4
    frequency:    1.9070782122
  - # 5
    frequency:    2.4803552738
  - # 6
    frequency:    5.4168091166
  - # 7
    frequency:    6.9288390879
  - # 8
    frequency:    7.1413345737
  - # 9
    frequency:   10.5331521768
  - # 10
    frequency:   13.5907322266
  - # 11
    frequency:   15.1637461136
  - # 12
    frequency:   15.5274395324
  - # 13
    frequency:   26.2464620915
  - # 14
    frequency:   28.7992830069
  - # 15
    frequency:   29.2520528965

- q-position: [    0.1767677,    0.0000000,    0.0000000 ]
  distance:    0.0608068
  band:
  - # 1
    frequency:   -4.5040543796
  - # 2
    frequency:   -3.4434468432
  - # 3
    frequency:   -1.1761641935
  - # 4
    frequency:    1.9479765048
  - # 5
    frequency:    2.5436341724
  - # 6
    frequency:    5.4671371669
  - # 7
    frequency:    6.9438335818
  - # 8
    frequency:    7.1463249754
  - # 9
    frequency:   10.5135129328
  - # 10
    frequency:   13.5969567399
  - # 11
    frequency:   15.1363353658
  - # 12
    frequency:   15.5078923560
  - # 13
    frequency:   26.2530520740
  - # 14
    frequency:   28.7324569886
  - # 15
    frequency:   29.1962236213

- q-position: [    0.1818182,    0.0000000,    0.0000000 ]
  distance:    0.0625442
  band:
  - # 1
    frequency:   -4.4713934883
  - # 2
    frequency:   -3.5284974260
  - # 3
    frequency:   -1.1717470437
  - # 4
    frequency:    1.9895568143
  - # 5
    frequency:    2.6067593037
  - # 6
    frequency:    5.5161798607
  - # 7
    frequency:    6.9580927236
  - # 8
    frequency:    7.1489962882
  - # 9
    frequency:   10.4939990238
  - # 10
    frequency:   13.6024404423
  - # 11
    frequency:   15.1075205923
  - # 12
    frequency:   15.4865983169
  - # 13
    frequency:   26.2593495072
  - # 14
    frequency:   28.6682234742
  - # 15
    frequency:   29.1417836348

- q-position: [    0.1868687,    0.0000000,    0.0000000 ]
  distance:    0.0642815
  band:
  - # 1
    frequency:   -4.4333809281
  - # 2
    frequency:   -3.6106244561
  - # 3
    frequency:   -1.1619904986
  - # 4
    frequency:    2.0316676075
  - # 5
    frequency:    2.6696463298
  - # 6
    frequency:    5.5639565737
  - # 7
    frequency:    6.9715735449
  - # 8
    frequency:    7.1493776818
  - # 9
    frequency:   10.4746296855
  - # 10
    frequency:   13.6071571864
  - # 11
    frequency:   15.0772760938
  - # 12
    frequency:   15.4636294627
  - # 13
    frequency:   26.2653190801
  - # 14
    frequency:   28.6068161131
  - # 15
    frequency:   29.0888983869

- q-position: [    0.1919192,    0.0000000,    0.0000000 ]
  distance:    0.0660188
  band:
  - # 1
    frequency:   -4.3902366473
  - # 2
    frequency:   -3.6897427872
  - # 3
    frequency:   -1.1465911167
  - # 4
    frequency:    2.0741698177
  - # 5
    frequency:    2.7322338183
  - # 6
    frequency:    5.6104788092
  - # 7
    frequency:    6.9842367615
  - # 8
    frequency:    7.1475210635
  - # 9
    frequency:   10.4554201568
  - # 10
    frequency:   13.6110729028
  - # 11
    frequency:   15.0455776366
  - # 12
    frequency:   15.4390734975
  - # 13
    frequency:   26.2709266764
  - # 14
    frequency:   28.5484557897
  - # 15
    frequency:   29.0377262840

- q-position: [    0.1969697,    0.0000000,    0.0000000 ]
  distance:    0.0677562
  band:
  - # 1
    frequency:   -4.3422046555
  - # 2
    frequency:   -3.7657671900
  - # 3
    frequency:   -1.1251356853
  - # 4
    frequency:    2.1169361322
  - # 5
    frequency:    2.7944812927
  - # 6
    frequency:    5.6557501376
  - # 7
    frequency:    6.9960469882
  - # 8
    frequency:    7.1435019904
  - # 9
    frequency:   10.4363815593
  - # 10
    frequency:   13.6141445478
  - # 11
    frequency:   15.0124025786
  - # 12
    frequency:   15.4130334685
  - # 13
    frequency:   26.2761395971
  - # 14
    frequency:   28.4933497424
  - # 15
    frequency:   28.9884180232

- q-position: [    0.2020202,    0.0000000,    0.0000000 ]
  distance:    0.0694935
  band:
  - # 1
    frequency:   -4.2895592339
  - # 2
    frequency:   -3.8386129762
  - # 3
    frequency:   -1.0970531628
  - # 4
    frequency:    2.1598502647
  - # 5
    frequency:    2.8563670619
  - # 6
    frequency:    5.6997658722
  - # 7
    frequency:    7.0069729304
  - # 8
    frequency:    7.1374205853
  - # 9
    frequency:   10.4175208314
  - # 10
    frequency:   13.6163191444
  - # 11
    frequency:   14.9777300183
  - # 12
    frequency:   15.3856273970
  - # 13
    frequency:   26.2809267477
  - # 14
    frequency:   28.4416907968
  - # 15
    frequency:   28.9411159594

- q-position: [    0.2070707,    0.0000000,    0.0000000 ]
  distance:    0.0712308
  band:
  - # 1
    frequency:   -4.2326122701
  - # 2
    frequency:   -3.9081966488
  - # 3
    frequency:   -1.0615425379
  - # 4
    frequency:    2.2028062162
  - # 5
    frequency:    2.9178857787
  - # 6
    frequency:    5.7425124549
  - # 7
    frequency:    7.0169875450
  - # 8
    frequency:    7.1294024513
  - # 9
    frequency:   10.3988407257
  - # 10
    frequency:   13.6175329396
  - # 11
    frequency:   14.9415409668
  - # 12
    frequency:   15.3569878454
  - # 13
    frequency:   26.2852587800
  - # 14
    frequency:   28.3936567203
  - # 15
    frequency:   28.8959535099

- q-position: [    0.2121212,    0.0000000,    0.0000000 ]
  distance:    0.0729682
  band:
  - # 1
    frequency:   -4.1717217384
  - # 2