nqpoint: 300    
npath: 3      
segment_nqpoint:
- 100
- 100
- 100
labels:
- [ 'G', 'M' ]
- [ 'M', 'K' ]
- [ 'K', 'G' ]
reciprocal_lattice:
- [   0.32025203,   0.18489760,   0.00000000 ] # a*
- [   0.00000000,   0.36979519,   0.00000000 ] # b*
- [   0.00000000,   0.00000000,   0.03649514 ] # c*
natom: 8      
lattice:
- [     3.122540694990863,     0.000000000000000,     0.000000000000000 ] # a
- [    -1.561270347495431,     2.704199566211280,     0.000000000000000 ] # b
- [     0.000000000000000,     0.000000000000000,    27.400908969817429 ] # c
points:
- symbol: C # 1
  coordinates: [  0.666666984744048,  0.333332985985145,  0.372375317497099 ]
  mass: 12.010700
- symbol: N # 2
  coordinates: [  0.000000000000000,  0.000000000000000,  0.494851445405470 ]
  mass: 14.006700
- symbol: N # 3
  coordinates: [  0.333332985432215,  0.666666983183674,  0.597296995504138 ]
  mass: 14.006700
- symbol: N # 4
  coordinates: [  0.666666984744048,  0.333332985985145,  0.417724450023131 ]
  mass: 14.006700
- symbol: O # 5
  coordinates: [  0.333332985432215,  0.666666983183674,  0.671543742949781 ]
  mass: 15.999400
- symbol: O # 6
  coordinates: [  0.666666984744048,  0.333332985985145,  0.328456257050219 ]
  mass: 15.999400
- symbol: Ti # 7
  coordinates: [  0.333332985432215,  0.666666983183674,  0.470332351345014 ]
  mass: 47.867000
- symbol: Ti # 8
  coordinates: [  0.666666984744048,  0.333332985985145,  0.631064632535402 ]
  mass: 47.867000

phonon:
- q-position: [    0.0000000,    0.0000000,    0.0000000 ]
  distance:    0.0000000
  band:
  - # 1
    frequency:  -15.8924009234
  - # 2
    frequency:  -15.8924009234
  - # 3
    frequency:   -1.4971749711
  - # 4
    frequency:   -1.4971749711
  - # 5
    frequency:   -1.0697218202
  - # 6
    frequency:   -0.0000024414
  - # 7
    frequency:    0.0000006970
  - # 8
    frequency:    0.0000023176
  - # 9
    frequency:    0.5391718943
  - # 10
    frequency:    0.5391718943
  - # 11
    frequency:    5.1461158414
  - # 12
    frequency:    5.1461158414
  - # 13
    frequency:    9.7454899734
  - # 14
    frequency:   10.4337174474
  - # 15
    frequency:   13.7038151085
  - # 16
    frequency:   13.7038151085
  - # 17
    frequency:   16.0460641929
  - # 18
    frequency:   16.0460641929
  - # 19
    frequency:   16.4001668185
  - # 20
    frequency:   17.4407885517
  - # 21
    frequency:   17.4407885517
  - # 22
    frequency:   18.2078850222
  - # 23
    frequency:   39.3630348767
  - # 24
    frequency:   69.9356829137

- q-position: [    0.0050505,    0.0000000,    0.0000000 ]
  distance:    0.0018677
  band:
  - # 1
    frequency:  -15.8932710825
  - # 2
    frequency:  -15.8913804742
  - # 3
    frequency:   -1.4963339022
  - # 4
    frequency:   -1.4935609418
  - # 5
    frequency:   -1.0688056547
  - # 6
    frequency:   -0.1769761931
  - # 7
    frequency:    0.0860197433
  - # 8
    frequency:    0.2118325724
  - # 9
    frequency:    0.5451414432
  - # 10
    frequency:    0.5640235672
  - # 11
    frequency:    5.1468195317
  - # 12
    frequency:    5.1515609273
  - # 13
    frequency:    9.7448024046
  - # 14
    frequency:   10.4332791228
  - # 15
    frequency:   13.7005914514
  - # 16
    frequency:   13.7032007653
  - # 17
    frequency:   16.0460340474
  - # 18
    frequency:   16.0506675045
  - # 19
    frequency:   16.4006306458
  - # 20
    frequency:   17.4408628025
  - # 21
    frequency:   17.4416257111
  - # 22
    frequency:   18.2089466975
  - # 23
    frequency:   39.3629509284
  - # 24
    frequency:   69.9340389360

- q-position: [    0.0101010,    0.0000000,    0.0000000 ]
  distance:    0.0037353
  band:
  - # 1
    frequency:  -15.8958803018
  - # 2
    frequency:  -15.8883169515
  - # 3
    frequency:   -1.4938121935
  - # 4
    frequency:   -1.4827590260
  - # 5
    frequency:   -1.0659899946
  - # 6
    frequency:   -0.2485353673
  - # 7
    frequency:    0.1720385178
  - # 8
    frequency:    0.3514952090
  - # 9
    frequency:    0.5626966909
  - # 10
    frequency:    0.6268239968
  - # 11
    frequency:    5.1489259465
  - # 12
    frequency:    5.1678110118
  - # 13
    frequency:    9.7427387598
  - # 14
    frequency:   10.4319659237
  - # 15
    frequency:   13.6909213199
  - # 16
    frequency:   13.7013583138
  - # 17
    frequency:   16.0459398108
  - # 18
    frequency:   16.0641228694
  - # 19
    frequency:   16.4023445127
  - # 20
    frequency:   17.4410853211
  - # 21
    frequency:   17.4441402111
  - # 22
    frequency:   18.2121322498
  - # 23
    frequency:   39.3626993495
  - # 24
    frequency:   69.9291116622

- q-position: [    0.0151515,    0.0000000,    0.0000000 ]
  distance:    0.0056030
  band:
  - # 1
    frequency:  -15.9002246658
  - # 2
    frequency:  -15.8832038407
  - # 3
    frequency:   -1.4896142638
  - # 4
    frequency:   -1.4648824183
  - # 5
    frequency:   -1.0611233343
  - # 6
    frequency:   -0.3001298617
  - # 7
    frequency:    0.2580542609
  - # 8
    frequency:    0.4959464993
  - # 9
    frequency:    0.5908809713
  - # 10
    frequency:    0.7101071645
  - # 11
    frequency:    5.1524212005
  - # 12
    frequency:    5.1946146406
  - # 13
    frequency:    9.7392962848
  - # 14
    frequency:   10.4297827843
  - # 15
    frequency:   13.6748092760
  - # 16
    frequency:   13.6982894884
  - # 17
    frequency:   16.0457701293
  - # 18
    frequency:   16.0852605899
  - # 19
    frequency:   16.4063781673
  - # 20
    frequency:   17.4414554080
  - # 21
    frequency:   17.4483422660
  - # 22
    frequency:   18.2174439798
  - # 23
    frequency:   39.3622809366
  - # 24
    frequency:   69.9209150467

- q-position: [    0.0202020,    0.0000000,    0.0000000 ]
  distance:    0.0074706
  band:
  - # 1
    frequency:  -15.9062971833
  - # 2
    frequency:  -15.8760303164
  - # 3
    frequency:   -1.4837472300
  - # 4
    frequency:   -1.4400967229
  - # 5
    frequency:   -1.0540812543
  - # 6
    frequency:   -0.3362950939
  - # 7
    frequency:    0.3440628773
  - # 8
    frequency:    0.6283819526
  - # 9
    frequency:    0.6442167996
  - # 10
    frequency:    0.8043208678
  - # 11
    frequency:    5.1572824245
  - # 12
    frequency:    5.2315658796
  - # 13
    frequency:    9.7344705903
  - # 14
    frequency:   10.4267366657
  - # 15
    frequency:   13.6522692434
  - # 16
    frequency:   13.6939971783
  - # 17
    frequency:   16.0455062320
  - # 18
    frequency:   16.1117810005
  - # 19
    frequency:   16.4148536600
  - # 20
    frequency:   17.4419719060
  - # 21
    frequency:   17.4542528646
  - # 22
    frequency:   18.2248881765
  - # 23
    frequency:   39.3616970130
  - # 24
    frequency:   69.9094722712

- q-position: [    0.0252525,    0.0000000,    0.0000000 ]
  distance:    0.0093383
  band:
  - # 1
    frequency:  -15.9140871206
  - # 2
    frequency:  -15.8667812915
  - # 3
    frequency:   -1.4762205498
  - # 4
    frequency:   -1.4085907909
  - # 5
    frequency:   -1.0448652603
  - # 6
    frequency:   -0.3592381885
  - # 7
    frequency:    0.4300576082
  - # 8
    frequency:    0.6737947981
  - # 9
    frequency:    0.7946507573
  - # 10
    frequency:    0.9054029040
  - # 11
    frequency:    5.1634781646
  - # 12
    frequency:    5.2781227448
  - # 13
    frequency:    9.7282559521
  - # 14
    frequency:   10.4228347844
  - # 15
    frequency:   13.6233324586
  - # 16
    frequency:   13.6884854260
  - # 17
    frequency:   16.0451221580
  - # 18
    frequency:   16.1398660153
  - # 19
    frequency:   16.4313179948
  - # 20
    frequency:   17.4426332121
  - # 21
    frequency:   17.4619102455
  - # 22
    frequency:   18.2344789944
  - # 23
    frequency:   39.3609494223
  - # 24
    frequency:   69.8948156312

- q-position: [    0.0303030,    0.0000000,    0.0000000 ]
  distance:    0.0112059
  band:
  - # 1
    frequency:  -15.9235791242
  - # 2
    frequency:  -15.8554374846
  - # 3
    frequency:   -1.4670455442
  - # 4
    frequency:   -1.3705492204
  - # 5
    frequency:   -1.0336393808
  - # 6
    frequency:   -0.3699049135
  - # 7
    frequency:    0.5160288499
  - # 8
    frequency:    0.7258089640
  - # 9
    frequency:    0.9457022038
  - # 10
    frequency:    1.0121012874
  - # 11
    frequency:    5.1709689217
  - # 12
    frequency:    5.3336306066
  - # 13
    frequency:    9.7206457230
  - # 14
    frequency:   10.4180823597
  - # 15
    frequency:   13.5880560804
  - # 16
    frequency:   13.6817594240
  - # 17
    frequency:   16.0445850679
  - # 18
    frequency:   16.1643873940
  - # 19
    frequency:   16.4605134733
  - # 20
    frequency:   17.4434372946
  - # 21
    frequency:   17.4713802099
  - # 22
    frequency:   18.2462443138
  - # 23
    frequency:   39.3600405193
  - # 24
    frequency:   69.8769863787

- q-position: [    0.0353535,    0.0000000,    0.0000000 ]
  distance:    0.0130736
  band:
  - # 1
    frequency:  -15.9347521873
  - # 2
    frequency:  -15.8419755064
  - # 3
    frequency:   -1.4562348122
  - # 4
    frequency:   -1.3261471585
  - # 5
    frequency:   -1.0206806346
  - # 6
    frequency:   -0.3679022639
  - # 7
    frequency:    0.6019645607
  - # 8
    frequency:    0.7832990574
  - # 9
    frequency:    1.0921760720
  - # 10
    frequency:    1.1280413664
  - # 11
    frequency:    5.1797078139
  - # 12
    frequency:    5.3973486286
  - # 13
    frequency:    9.7116328467
  - # 14
    frequency:   10.4124800792
  - # 15
    frequency:   13.5465309328
  - # 16
    frequency:   13.6738255116
  - # 17
    frequency:   16.0438556379
  - # 18
    frequency:   16.1807530035
  - # 19
    frequency:   16.5065035785
  - # 20
    frequency:   17.4443817147
  - # 21
    frequency:   17.4827720263
  - # 22
    frequency:   18.2602341406
  - # 23
    frequency:   39.3589731584
  - # 24
    frequency:   69.8560345216

- q-position: [    0.0404040,    0.0000000,    0.0000000 ]
  distance:    0.0149412
  band:
  - # 1
    frequency:  -15.9475785201
  - # 2
    frequency:  -15.8263679636
  - # 3
    frequency:   -1.4438015468
  - # 4
    frequency:   -1.2756142670
  - # 5
    frequency:   -1.0062003072
  - # 6
    frequency:   -0.3512967643
  - # 7
    frequency:    0.6878513735
  - # 8
    frequency:    0.8453442569
  - # 9
    frequency:    1.2185135713
  - # 10
    frequency:    1.2677132047
  - # 11
    frequency:    5.1896413395
  - # 12
    frequency:    5.4684772621
  - # 13
    frequency:    9.7012104587
  - # 14
    frequency:   10.4060214974
  - # 15
    frequency:   13.4988873546
  - # 16
    frequency:   13.6646911693
  - # 17
    frequency:   16.0428885286
  - # 18
    frequency:   16.1873091551
  - # 19
    frequency:   16.5702332098
  - # 20
    frequency:   17.4454636524
  - # 21
    frequency:   17.4962630705
  - # 22
    frequency:   18.2765324432
  - # 23
    frequency:   39.3577506794
  - # 24
    frequency:   69.8320185802

- q-position: [    0.0454545,    0.0000000,    0.0000000 ]
  distance:    0.0168089
  band:
  - # 1
    frequency:  -15.9620223903
  - # 2
    frequency:  -15.8085835802
  - # 3
    frequency:   -1.4297587506
  - # 4
    frequency:   -1.2194980717
  - # 5
    frequency:   -0.9898993437
  - # 6
    frequency:   -0.3158178346
  - # 7
    frequency:    0.7736764985
  - # 8
    frequency:    0.9112088435
  - # 9
    frequency:    1.3341511067
  - # 10
    frequency:    1.4208211975
  - # 11
    frequency:    5.2007102197
  - # 12
    frequency:    5.5461850178
  - # 13
    frequency:    9.6893725491
  - # 14
    frequency:   10.3986905837
  - # 15
    frequency:   13.4452987502
  - # 16
    frequency:   13.6543650128
  - # 17
    frequency:   16.0416329233
  - # 18
    frequency:   16.1852307314
  - # 19
    frequency:   16.6495849242
  - # 20
    frequency:   17.4466799365
  - # 21
    frequency:   17.5121377045
  - # 22
    frequency:   18.2952738636
  - # 23
    frequency:   39.3563768915
  - # 24
    frequency:   69.8050053044

- q-position: [    0.0505051,    0.0000000,    0.0000000 ]
  distance:    0.0186765
  band:
  - # 1
    frequency:  -15.9780389996
  - # 2
    frequency:  -15.7885873359
  - # 3
    frequency:   -1.4141183466
  - # 4
    frequency:   -1.1595346690
  - # 5
    frequency:   -0.9698395719
  - # 6
    frequency:   -0.2515292568
  - # 7
    frequency:    0.8594303852
  - # 8
    frequency:    0.9803075911
  - # 9
    frequency:    1.4488591977
  - # 10
    frequency:    1.5768298127
  - # 11
    frequency:    5.2128502942
  - # 12
    frequency:    5.6296330760
  - # 13
    frequency:    9.6761146628
  - # 14
    frequency:   10.3904596227
  - # 15
    frequency:   13.3859829806
  - # 16
    frequency:   13.6428567846
  - # 17
    frequency:   16.0400331276
  - # 18
    frequency:   16.1765731420
  - # 19
    frequency:   16.7412453591
  - # 20
    frequency:   17.4480270777
  - # 21
    frequency:   17.5308497177
  - # 22
    frequency:   18.3166675409
  - # 23
    frequency:   39.3548560541
  - # 24
    frequency:   69.7750693515

- q-position: [    0.0555556,    0.0000000,    0.0000000 ]
  distance:    0.0205442
  band:
  - # 1
    frequency:  -15.9955734582
  - # 2
    frequency:  -15.7663406185
  - # 3
    frequency:   -1.3968901750
  - # 4
    frequency:   -1.1011098188
  - # 5
    frequency:   -0.9396411509
  - # 6
    frequency:   -0.1155378064
  - # 7
    frequency:    0.9451098965
  - # 8
    frequency:    1.0521692025
  - # 9
    frequency:    1.5638015951
  - # 10
    frequency:    1.7338584127
  - # 11
    frequency:    5.2259934500
  - # 12
    frequency:    5.7179967249
  - # 13
    frequency:    9.6614346044
  - # 14
    frequency:   10.3812876422
  - # 15
    frequency:   13.3212020688
  - # 16
    frequency:   13.6301773445
  - # 17
    frequency:   16.0380292226
  - # 18
    frequency:   16.1630716421
  - # 19
    frequency:   16.8417778872
  - # 20
    frequency:   17.4495013063
  - # 21
    frequency:   17.5531227771
  - # 22
    frequency:   18.3410314505
  - # 23
    frequency:   39.3531928561
  - # 24
    frequency:   69.7422929270

- q-position: [    0.0606061,    0.0000000,    0.0000000 ]
  distance:    0.0224118
  band:
  - # 1
    frequency:  -16.0145599138
  - # 2
    frequency:  -15.7418013924
  - # 3
    frequency:   -1.3780808681
  - # 4
    frequency:   -1.0555133865
  - # 5
    frequency:   -0.8857626538
  - # 6
    frequency:    0.2237196115
  - # 7
    frequency:    1.0307213843
  - # 8
    frequency:    1.1264039321
  - # 9
    frequency:    1.6788859287
  - # 10
    frequency:    1.8913101735
  - # 11
    frequency:    5.2400685579
  - # 12
    frequency:    5.8104830382
  - # 13
    frequency:    9.6453331220
  - # 14
    frequency:   10.3711195215
  - # 15
    frequency:   13.2512608100
  - # 16
    frequency:   13.6163386575
  - # 17
    frequency:   16.0355577634
  - # 18
    frequency:   16.1459367884
  - # 19
    frequency:   16.9476305937
  - # 20
    frequency:   17.4510986101
  - # 21
    frequency:   17.5801054220
  - # 22
    frequency:   18.3688421800
  - # 23
    frequency:   39.3513923929
  - # 24
    frequency:   69.7067653917

- q-position: [    0.0656566,    0.0000000,    0.0000000 ]
  distance:    0.0242795
  band:
  - # 1
    frequency:  -16.0349208811
  - # 2
    frequency:  -15.7149243802
  - # 3
    frequency:   -1.3576926006
  - # 4
    frequency:   -1.0291945967
  - # 5
    frequency:   -0.7974324518
  - # 6
    frequency:    0.3555003259
  - # 7
    frequency:    1.1162826575
  - # 8
    frequency:    1.2026779623
  - # 9
    frequency:    1.7937769904
  - # 10
    frequency:    2.0488465646
  - # 11
    frequency:    5.2550024007
  - # 12
    frequency:    5.9063445834
  - # 13
    frequency:    9.6278145462
  - # 14
    frequency:   10.3598859036
  - # 15
    frequency:   13.1765048252
  - # 16
    frequency:   13.6013537796
  - # 17
    frequency:   16.0325525131
  - # 18
    frequency:   16.1259824078
  - # 19
    frequency:   17.0547427431
  - # 20
    frequency:   17.4528147767
  - # 21
    frequency:   17.6135740674
  - # 22
    frequency:   18.4008064872
  - # 23
    frequency:   39.3494601412
  - # 24
    frequency:   69.6685828358

- q-position: [    0.0707071,    0.0000000,    0.0000000 ]
  distance:    0.0261471
  band:
  - # 1
    frequency:  -16.0565668071
  - # 2
    frequency:  -15.6856612560
  - # 3
    frequency:   -1.3357217125
  - # 4
    frequency:   -1.0159666616
  - # 5
    frequency:   -0.6723779692
  - # 6
    frequency:    0.4633184042
  - # 7
    frequency:    1.2018226541
  - # 8
    frequency:    1.2806955142
  - # 9
    frequency:    1.9080554662
  - # 10
    frequency:    2.2062182260
  - # 11
    frequency:    5.2707205735
  - # 12
    frequency:    6.0048892546
  - # 13
    frequency:    9.6088873731
  - # 14
    frequency:   10.3475040195
  - # 15
    frequency:   13.0973184435
  - # 16
    frequency:   13.5852368412
  - # 17
    frequency:   16.0289452049
  - # 18
    frequency:   16.1037693123
  - # 19
    frequency:   17.1581887731
  - # 20
    frequency:   17.4546454350
  - # 21
    frequency:   17.6560554131
  - # 22
    frequency:   18.4379604488
  - # 23
    frequency:   39.3474019321
  - # 24
    frequency:   69.6278476248

- q-position: [    0.0757576,    0.0000000,    0.0000000 ]
  distance:    0.0280148
  band:
  - # 1
    frequency:  -16.0793958953
  - # 2
    frequency:  -15.6539608514
  - # 3
    frequency:   -1.3121572025
  - # 4
    frequency:   -1.0092464822
  - # 5
    frequency:   -0.4967887857
  - # 6
    frequency:    0.5601136246
  - # 7
    frequency:    1.2873780058
  - # 8
    frequency:    1.3601886750
  - # 9
    frequency:    2.0212502448
  - # 10
    frequency:    2.3632222709
  - # 11
    frequency:    5.2871483445
  - # 12
    frequency:    6.1054865359
  - # 13
    frequency:    9.5885647938
  - # 14
    frequency:   10.3338795239
  - # 15
    frequency:   13.0141226172
  - # 16
    frequency:   13.5680030274
  - # 17
    frequency:   16.0246663223
  - # 18
    frequency:   16.0797034421
  - # 19
    frequency:   17.2523871770
  - # 20
    frequency:   17.4565860980
  - # 21
    frequency:   17.7104042568
  - # 22
    frequency:   18.4817937824
  - # 23
    frequency:   39.3452239227
  - # 24
    frequency:   69.5846679180

- q-position: [    0.0808081,    0.0000000,    0.0000000 ]
  distance:    0.0298824
  band:
  - # 1
    frequency:  -16.1032942009
  - # 2
    frequency:  -15.6197693707
  - # 3
    frequency:   -1.2869790822
  - # 4
    frequency:   -1.0056535370
  - # 5
    frequency:   -0.1623864027
  - # 6
    frequency:    0.6499589665
  - # 7
    frequency:    1.3729866750
  - # 8
    frequency:    1.4409138279
  - # 9
    frequency:    2.1328429135
  - # 10
    frequency:    2.5196871712
  - # 11
    frequency:    5.3042114662
  - # 12
    frequency:    6.2075706385
  - # 13
    frequency:    9.5668651878
  - # 14
    frequency:   10.3189094477
  - # 15
    frequency:   12.9273728938
  - # 16
    frequency:   13.5496685559
  - # 17
    frequency:   16.0196458889
  - # 18
    frequency:   16.0540955982
  - # 19
    frequency:   17.3326026206
  - # 20
    frequency:   17.4586322050
  - # 21
    frequency:   17.7781327486
  - # 22
    frequency:   18.5343675456
  - # 23
    frequency:   39.3429325657
  - # 24
    frequency:   69.5391571637

- q-position: [    0.0858586,    0.0000000,    0.0000000 ]
  distance:    0.0317501
  band:
  - # 1
    frequency:  -16.1281359951
  - # 2
    frequency:  -15.5830306159
  - # 3
    frequency:   -1.2601565613
  - # 4
    frequency:   -1.0034291577
  - # 5
    frequency:    0.4538195708
  - # 6
    frequency:    0.7349084419
  - # 7
    frequency:    1.4586800197
  - # 8
    frequency:    1.5226524868
  - # 9
    frequency:    2.2422644551
  - # 10
    frequency:    2.6754653786
  - # 11
    frequency:    5.3218369292
  - # 12
    frequency:    6.3106410156
  - # 13
    frequency:    9.5438126185
  - # 14
    frequency:   10.3024863825
  - # 15
    frequency:   12.8375573163
  - # 16
    frequency:   13.5302506515
  - # 17
    frequency:   16.0138142599
  - # 18
    frequency:   16.0271969329
  - # 19
    frequency:   17.3972406778
  - # 20
    frequency:   17.4607791621
  - # 21
    frequency:   17.8570788794
  - # 22
    frequency:   18.5983237181
  - # 23
    frequency:   39.3405345781
  - # 24
    frequency:   69.4914335741

- q-position: [    0.0909091,    0.0000000,    0.0000000 ]
  distance:    0.0336177
  band:
  - # 1
    frequency:  -16.1537843906
  - # 2
    frequency:  -15.5436862192
  - # 3
    frequency:   -1.2316460096
  - # 4
    frequency:   -1.0015071513
  - # 5
    frequency:    0.6685403813
  - # 6
    frequency:    0.8169178827
  - # 7
    frequency:    1.5444752585
  - # 8
    frequency:    1.6052138666
  - # 9
    frequency:    2.3488893560
  - # 10
    frequency:    2.8304286175
  - # 11
    frequency:    5.3399536562
  - # 12
    frequency:    6.4142607731
  - # 13
    frequency:    9.5194373830
  - # 14
    frequency:   10.2845040368
  - # 15
    frequency:   12.7451940000
  - # 16
    frequency:   13.5097675171
  - # 17
    frequency:   15.9992201882
  - # 18
    frequency:   16.0071029068
  - # 19
    frequency:   17.4483274134
  - # 20
    frequency:   17.4630223802
  - # 21
    frequency:   17.9412091424
  - # 22
    frequency:   18.6765894246
  - # 23
    frequency:   39.3380369084
  - # 24
    frequency:   69.4416195836

- q-position: [    0.0959596,    0.0000000,    0.0000000 ]
  distance:    0.0354854
  band:
  - # 1
    frequency:  -16.1800922073
  - # 2
    frequency:  -15.5016758831
  - # 3
    frequency:   -1.2013885982
  - # 4
    frequency:   -0.9991557935
  - # 5
    frequency:    0.8284389694
  - # 6
    frequency:    0.9015013801
  - # 7
    frequency:    1.6303700218
  - # 8
    frequency:    1.6884369487
  - # 9
    frequency:    2.4520286781
  - # 10
    frequency:    2.9844643353
  - # 11
    frequency:    5.3584931351
  - # 12
    frequency:    6.5180534617
  - # 13
    frequency:    9.4937766886
  - # 14
    frequency:   10.2648643117
  - # 15
    frequency:   12.6508280415
  - # 16
    frequency:   13.4882383018
  - # 17
    frequency:   15.9703526333
  - # 18
    frequency:   15.9994451871
  - # 19
    frequency:   17.4653573108
  - # 20
    frequency:   17.4894914692
  - # 21
    frequency:   18.0233996717
  - # 22
    frequency:   18.7716078408
  - # 23
    frequency:   39.3354467029
  - # 24
    frequency:   69.3898412924

- q-position: [    0.1010101,    0.0000000,    0.0000000 ]
  distance:    0.0373530
  band:
  - # 1
    frequency:  -16.2069030537
  - # 2
    frequency:  -15.4569376253
  - # 3
    frequency:   -1.1693074657
  - # 4
    frequency:   -0.9958330312
  - # 5
    frequency:    0.9391998931
  - # 6
    frequency:    1.0082829076
  - # 7
    frequency:    1.7163397945
  - # 8
    frequency:    1.7721908042
  - # 9
    frequency:    2.5509225900
  - # 10
    frequency:    3.1374727862
  - # 11
    frequency:    5.3773899919
  - # 12
    frequency:    6.6216986861
  - # 13
    frequency:    9.4668755430
  - # 14
    frequency:   10.2434860393
  - # 15
    frequency:   12.5550273577
  - # 16
    frequency:   13.4656830651
  - # 17
    frequency:   15.9407641040
  - # 18
    frequency:   15.9907770939
  - # 19
    frequency:   17.4677794771
  - # 20
    frequency:   17.5240152687
  - # 21
    frequency:   18.0983952828
  - # 22
    frequency:   18.8843263224
  - # 23
    frequency:   39.3327712716
  - # 24
    frequency:   69.3362279006

- q-position: [    0.1060606,    0.0000000,    0.0000000 ]
  distance:    0.0392207
  band:
  - # 1
    frequency:  -16.2340525935
  - # 2
    frequency:  -15.4094080296
  - # 3
    frequency:   -1.1353041809
  - # 4
    frequency:   -0.9911203117
  - # 5
    frequency:    1.0167364555
  - # 6
    frequency:    1.1306985461
  - # 7
    frequency:    1.8023382226
  - # 8
    frequency:    1.8563728727
  - # 9
    frequency:    2.6447325435
  - # 10
    frequency:    3.2893645268
  - # 11
    frequency:    5.3965825075
  - # 12
    frequency:    6.7249268950
  - # 13
    frequency:    9.4387879550
  - # 14
    frequency:   10.2203154762
  - # 15
    frequency:   12.4583770403
  - # 16
    frequency:   13.4421227377
  - # 17
    frequency:   15.9106120855
  - # 18
    frequency:   15.9810379760
  - # 19
    frequency:   17.4702845014
  - # 20
    frequency:   17.5542270872
  - # 21
    frequency:   18.1639330636
  - # 22
    frequency:   19.0136814127
  - # 23
    frequency:   39.3300180529
  - # 24
    frequency:   69.2809111357

- q-position: [    0.1111111,    0.0000000,    0.0000000 ]
  distance:    0.0410884
  band:
  - # 1
    frequency:  -16.2613699641
  - # 2
    frequency:  -15.3590224996
  - # 3
    frequency:   -1.0992541531
  - # 4
    frequency:   -0.9846893974
  - # 5
    frequency:    1.0851581122
  - # 6
    frequency:    1.2493633678
  - # 7
    frequency:    1.8882998457
  - # 8
    frequency:    1.9409053812
  - # 9
    frequency:    2.7325332473
  - # 10
    frequency:    3.4400582105
  - # 11
    frequency:    5.4160130817
  - # 12
    frequency:    6.8275136408
  - # 13
    frequency:    9.4095785528
  - # 14
    frequency:   10.1953385287
  - # 15
    frequency:   12.3614718582
  - # 16
    frequency:   13.4175790791
  - # 17
    frequency:   15.8800449652
  - # 18
    frequency:   15.9701712248
  - # 19
    frequency:   17.4728681274
  - # 20
    frequency:   17.5816333835
  - # 21
    frequency:   18.2201691658
  - # 22
    frequency:   19.1570415593
  - # 23
    frequency:   39.3271945785
  - # 24
    frequency:   69.2240246760

- q-position: [    0.1161616,    0.0000000,    0.0000000 ]
  distance:    0.0429560
  band:
  - # 1
    frequency:  -16.2886793108
  - # 2
    frequency:  -15.3057155154
  - # 3
    frequency:   -1.0610004755
  - # 4
    frequency:   -0.9762860253
  - # 5
    frequency:    1.1494015116
  - # 6
    frequency:    1.3621405728
  - # 7
    frequency:    1.9741447944
  - # 8
    frequency:    2.0257301777
  - # 9
    frequency:    2.8133046744
  - # 10
    frequency:    3.5894786139
  - # 11
    frequency:    5.4356286514
  - # 12
    frequency:    6.9292735158
  - # 13
    frequency:    9.3793247181
  - # 14
    frequency:   10.1685944728
  - # 15
    frequency:   12.2649066714
  - # 16
    frequency:   13.3920746309
  - # 17
    frequency:   15.8492041226
  - # 18
    frequency:   15.9581249211
  - # 19
    frequency:   17.4755262374
  - # 20
    frequency:   17.6071857414
  - # 21
    frequency:   18.2684671505
  - # 22
    frequency:   19.3111541843
  - # 23
    frequency:   39.3243084380
  - # 24
    frequency:   69.1657035748

- q-position: [    0.1212121,    0.0000000,    0.0000000 ]
  distance:    0.0448237
  band:
  - # 1
    frequency:  -16.3158014038
  - # 2
    frequency:  -15.2494208926
  - # 3
    frequency:   -1.0203454044
  - # 4
    frequency:   -0.9657247285
  - # 5
    frequency:    1.2106301212
  - # 6
    frequency:    1.4696985549
  - # 7
    frequency:    2.0597850606
  - # 8
    frequency:    2.1108022320
  - # 9
    frequency:    2.8859245256
  - # 10
    frequency:    3.7375548605
  - # 11
    frequency:    5.4553810667
  - # 12
    frequency:    7.0300538907
  - # 13
    frequency:    9.3481193143
  - # 14
    frequency:   10.1401906146
  - # 15
    frequency:   12.1692647551
  - # 16
    frequency:   13.3656326671
  - # 17
    frequency:   15.8182252607
  - # 18
    frequency:   15.9448524371
  - # 19
    frequency:   17.4782548652
  - # 20
    frequency:   17.6314880286
  - # 21
    frequency:   18.3104454899
  - # 22
    frequency:   19.4728935118
  - # 23
    frequency:   39.3213672439
  - # 24
    frequency:   69.1060836886

- q-position: [    0.1262626,    0.0000000,    0.0000000 ]
  distance:    0.0466913
  band:
  - # 1
    frequency:  -16.3425553035
  - # 2
    frequency:  -15.1900720416
  - # 3
    frequency:   -0.9770382125
  - # 4
    frequency:   -0.9528936314
  - # 5
    frequency:    1.2693284324
  - # 6
    frequency:    1.5728344205
  - # 7
    frequency:    2.1451318207
  - # 8
    frequency:    2.1960822224
  - # 9
    frequency:    2.9491618460
  - # 10
    frequency:    3.8842188275
  - # 11
    frequency:    5.4752274321
  - # 12
    frequency:    7.1297284957
  - # 13
    frequency:    9.3160740376
  - # 14
    frequency:   10.1103169155
  - # 15
    frequency:   12.0751043762
  - # 16
    frequency:   13.3382771409
  - # 17
    frequency:   15.7872392324
  - # 18
    frequency:   15.9303129897
  - # 19
    frequency:   17.4810502041
  - # 20
    frequency:   17.6549290352
  - # 21
    frequency:   18.3475226472
  - # 22
    frequency:   19.6395852397
  - # 23
    frequency:   39.3183785966
  - # 24
    frequency:   69.0453011121

- q-position: [    0.1313131,    0.0000000,    0.0000000 ]
  distance:    0.0485590
  band:
  - # 1
    frequency:  -16.3687600416
  - # 2
    frequency:  -15.1276022279
  - # 3
    frequency:   -0.9377708483
  - # 4
    frequency:   -0.9307573268
  - # 5
    frequency:    1.3257852953
  - # 6
    frequency:    1.6721977375
  - # 7
    frequency:    2.2301028917
  - # 8
    frequency:    2.2815290594
  - # 9
    frequency:    3.0016729165
  - # 10
    frequency:    4.0294037372
  - # 11
    frequency:    5.4951304170
  - # 12
    frequency:    7.2281907956
  - # 13
    frequency:    9.2833233378
  - # 14
    frequency:   10.0792591353
  - # 15
    frequency:   11.9829443910
  - # 16
    frequency:   13.3100326281
  - # 17
    frequency:   15.7563725239
  - # 18
    frequency:   15.9144721401
  - # 19
    frequency:   17.4839086095
  - # 20
    frequency:   17.6777629663
  - # 21
    frequency:   18.3807985769
  - # 22
    frequency:   19.8090467133
  - # 23
    frequency:   39.3153500507
  - # 24
    frequency:   68.9834916237

- q-position: [    0.1363636,    0.0000000,    0.0000000 ]
  distance:    0.0504266
  band:
  - # 1
    frequency:  -16.3942362916
  - # 2
    frequency:  -15.0619448308
  - # 3
    frequency:   -0.9204569703
  - # 4
    frequency:   -0.8810831235
  - # 5
    frequency:    1.3802063840
  - # 6
    frequency:    1.7682882008
  - # 7