nqpoint: 300    
npath: 3      
segment_nqpoint:
- 100
- 100
- 100
labels:
- [ 'G', 'M' ]
- [ 'M', 'K' ]
- [ 'K', 'G' ]
reciprocal_lattice:
- [   0.29813155,   0.17212633,   0.00000000 ] # a*
- [   0.00000000,   0.34425266,   0.00000000 ] # b*
- [   0.00000000,   0.00000000,   0.03889109 ] # c*
natom: 7      
lattice:
- [     3.354224021726013,     0.000000000000000,     0.000000000000000 ] # a
- [    -1.677112010863007,     2.904843212798454,     0.000000000000000 ] # b
- [     0.000000000000000,     0.000000000000000,    25.712827933418762 ] # c
points:
- symbol: C # 1
  coordinates: [  0.333332985432215,  0.666666983183674,  0.589695329297841 ]
  mass: 12.010700
- symbol: F # 2
  coordinates: [  0.666666984744047,  0.333332985985145,  0.350019843142293 ]
  mass: 18.998403
- symbol: Hf # 3
  coordinates: [  0.333332985432215,  0.666666983183674,  0.400793452565259 ]
  mass: 178.490000
- symbol: Hf # 4
  coordinates: [  0.666666984744047,  0.333332985985145,  0.488775776814788 ]
  mass: 178.490000
- symbol: N # 5
  coordinates: [  0.000000000000000,  0.000000000000000,  0.442135073468881 ]
  mass: 14.006700
- symbol: N # 6
  coordinates: [  0.333332985432215,  0.666666983183674,  0.540491020368327 ]
  mass: 14.006700
- symbol: S # 7
  coordinates: [  0.333332985432215,  0.666666983183674,  0.649980156857707 ]
  mass: 32.065000

phonon:
- q-position: [    0.0000000,    0.0000000,    0.0000000 ]
  distance:    0.0000000
  band:
  - # 1
    frequency:   -0.0000025496
  - # 2
    frequency:    0.0000003163
  - # 3
    frequency:    0.0000018066
  - # 4
    frequency:    1.1658923467
  - # 5
    frequency:    1.1658923467
  - # 6
    frequency:    3.1858239717
  - # 7
    frequency:    3.1858239717
  - # 8
    frequency:    5.1466078760
  - # 9
    frequency:    5.5646020147
  - # 10
    frequency:    5.5646020147
  - # 11
    frequency:    6.7423275338
  - # 12
    frequency:    7.4236308112
  - # 13
    frequency:    7.4236308112
  - # 14
    frequency:   10.6771120491
  - # 15
    frequency:   12.9434751095
  - # 16
    frequency:   12.9434751095
  - # 17
    frequency:   14.4811260385
  - # 18
    frequency:   16.4840663403
  - # 19
    frequency:   16.4840663403
  - # 20
    frequency:   26.7265257521
  - # 21
    frequency:   54.4552434307

- q-position: [    0.0050505,    0.0000000,    0.0000000 ]
  distance:    0.0017386
  band:
  - # 1
    frequency:   -0.0191770318
  - # 2
    frequency:    0.0014082140
  - # 3
    frequency:    0.0713772493
  - # 4
    frequency:    1.1668982332
  - # 5
    frequency:    1.1690323285
  - # 6
    frequency:    3.1854072158
  - # 7
    frequency:    3.1856554529
  - # 8
    frequency:    5.1464156800
  - # 9
    frequency:    5.5648244965
  - # 10
    frequency:    5.5649099800
  - # 11
    frequency:    6.7417489836
  - # 12
    frequency:    7.4238936148
  - # 13
    frequency:    7.4246403595
  - # 14
    frequency:   10.6766701514
  - # 15
    frequency:   12.9434064009
  - # 16
    frequency:   12.9436834887
  - # 17
    frequency:   14.4807780114
  - # 18
    frequency:   16.4838771581
  - # 19
    frequency:   16.4839514824
  - # 20
    frequency:   26.7261695789
  - # 21
    frequency:   54.4547758578

- q-position: [    0.0101010,    0.0000000,    0.0000000 ]
  distance:    0.0034773
  band:
  - # 1
    frequency:   -0.0385761720
  - # 2
    frequency:    0.0056102742
  - # 3
    frequency:    0.1427113979
  - # 4
    frequency:    1.1699134721
  - # 5
    frequency:    1.1783928265
  - # 6
    frequency:    3.1841605947
  - # 7
    frequency:    3.1851554692
  - # 8
    frequency:    5.1458393155
  - # 9
    frequency:    5.5654905783
  - # 10
    frequency:    5.5658300358
  - # 11
    frequency:    6.7400257959
  - # 12
    frequency:    7.4246810135
  - # 13
    frequency:    7.4276519182
  - # 14
    frequency:   10.6753453755
  - # 15
    frequency:   12.9432013395
  - # 16
    frequency:   12.9443081249
  - # 17
    frequency:   14.4797359222
  - # 18
    frequency:   16.4833081684
  - # 19
    frequency:   16.4836062386
  - # 20
    frequency:   26.7251021029
  - # 21
    frequency:   54.4533741480

- q-position: [    0.0151515,    0.0000000,    0.0000000 ]
  distance:    0.0052159
  band:
  - # 1
    frequency:   -0.0584077287
  - # 2
    frequency:    0.0125411598
  - # 3
    frequency:    0.2139594701
  - # 4
    frequency:    1.1749305594
  - # 5
    frequency:    1.1938009209
  - # 6
    frequency:    3.1820950266
  - # 7
    frequency:    3.1843405609
  - # 8
    frequency:    5.1448794715
  - # 9
    frequency:    5.5665961879
  - # 10
    frequency:    5.5673507444
  - # 11
    frequency:    6.7371943197
  - # 12
    frequency:    7.4259899758
  - # 13
    frequency:    7.4326153275
  - # 14
    frequency:   10.6731404700
  - # 15
    frequency:   12.9428631017
  - # 16
    frequency:   12.9453474983
  - # 17
    frequency:   14.4780057206
  - # 18
    frequency:   16.4823550661
  - # 19
    frequency:   16.4830286066
  - # 20
    frequency:   26.7233264516
  - # 21
    frequency:   54.4510413252

- q-position: [    0.0202020,    0.0000000,    0.0000000 ]
  distance:    0.0069546
  band:
  - # 1
    frequency:   -0.0788597115
  - # 2
    frequency:    0.0221023739
  - # 3
    frequency:    0.2850787455
  - # 4
    frequency:    1.1819362168
  - # 5
    frequency:    1.2149853041
  - # 6
    frequency:    3.1792286321
  - # 7
    frequency:    3.1832377132
  - # 8
    frequency:    5.1435373568
  - # 9
    frequency:    5.5681345994
  - # 10
    frequency:    5.5694533147
  - # 11
    frequency:    6.7333118453
  - # 12
    frequency:    7.4278154659
  - # 13
    frequency:    7.4394504747
  - # 14
    frequency:   10.6700600080
  - # 15
    frequency:   12.9423969258
  - # 16
    frequency:   12.9467990236
  - # 17
    frequency:   14.4755972318
  - # 18
    frequency:   16.4810107549
  - # 19
    frequency:   16.4822152798
  - # 20
    frequency:   26.7208478265
  - # 21
    frequency:   54.4477824190

- q-position: [    0.0252525,    0.0000000,    0.0000000 ]
  distance:    0.0086932
  band:
  - # 1
    frequency:   -0.1000896641
  - # 2
    frequency:    0.0341738670
  - # 3
    frequency:    0.3560268967
  - # 4
    frequency:    1.1909103626
  - # 5
    frequency:    1.2415979408
  - # 6
    frequency:    3.1755866189
  - # 7
    frequency:    3.1818835094
  - # 8
    frequency:    5.1418147836
  - # 9
    frequency:    5.5700965226
  - # 10
    frequency:    5.5721119987
  - # 11
    frequency:    6.7284522276
  - # 12
    frequency:    7.4301504691
  - # 13
    frequency:    7.4480519621
  - # 14
    frequency:   10.6661103753
  - # 15
    frequency:   12.9418100289
  - # 16
    frequency:   12.9486589722
  - # 17
    frequency:   14.4725240241
  - # 18
    frequency:   16.4792654650
  - # 19
    frequency:   16.4811616911
  - # 20
    frequency:   26.7176734856
  - # 21
    frequency:   54.4436044498

- q-position: [    0.0303030,    0.0000000,    0.0000000 ]
  distance:    0.0104319
  band:
  - # 1
    frequency:   -0.1222194007
  - # 2
    frequency:    0.0486265164
  - # 3
    frequency:    0.4267621342
  - # 4
    frequency:    1.2018249061
  - # 5
    frequency:    1.2732384061
  - # 6
    frequency:    3.1712011167
  - # 7
    frequency:    3.1803230028
  - # 8
    frequency:    5.1397142700
  - # 9
    frequency:    5.5724702257
  - # 10
    frequency:    5.5752946282
  - # 11
    frequency:    6.7227007176
  - # 12
    frequency:    7.4329860272
  - # 13
    frequency:    7.4582946786
  - # 14
    frequency:   10.6612997525
  - # 15
    frequency:   12.9411114936
  - # 16
    frequency:   12.9509223646
  - # 17
    frequency:   14.4688032284
  - # 18
    frequency:   16.4771069130
  - # 19
    frequency:   16.4798620744
  - # 20
    frequency:   26.7138127204
  - # 21
    frequency:   54.4385164076

- q-position: [    0.0353535,    0.0000000,    0.0000000 ]
  distance:    0.0121705
  band:
  - # 1
    frequency:   -0.1453327257
  - # 2
    frequency:    0.0653328255
  - # 3
    frequency:    0.4972433533
  - # 4
    frequency:    1.2146425591
  - # 5
    frequency:    1.3094773542
  - # 6
    frequency:    3.1661109604
  - # 7
    frequency:    3.1786083541
  - # 8
    frequency:    5.1372391523
  - # 9
    frequency:    5.5752416878
  - # 10
    frequency:    5.5789632711
  - # 11
    frequency:    6.7161486602
  - # 12
    frequency:    7.4363112849
  - # 13
    frequency:    7.4700396117
  - # 14
    frequency:   10.6556380933
  - # 15
    frequency:   12.9403121256
  - # 16
    frequency:   12.9535828327
  - # 17
    frequency:   14.4644553157
  - # 18
    frequency:   16.4745205019
  - # 19
    frequency:   16.4783095397
  - # 20
    frequency:   26.7092768247
  - # 21
    frequency:   54.4325292252

- q-position: [    0.0404040,    0.0000000,    0.0000000 ]
  distance:    0.0139092
  band:
  - # 1
    frequency:   -0.1694757964
  - # 2
    frequency:    0.0841745442
  - # 3
    frequency:    0.5674302739
  - # 4
    frequency:    1.2293158576
  - # 5
    frequency:    1.3498766686
  - # 6
    frequency:    3.1603614168
  - # 7
    frequency:    3.1767972949
  - # 8
    frequency:    5.1343936947
  - # 9
    frequency:    5.5783947780
  - # 10
    frequency:    5.5830749838
  - # 11
    frequency:    6.7088886024
  - # 12
    frequency:    7.4401135467
  - # 13
    frequency:    7.4831393501
  - # 14
    frequency:   10.6491370954
  - # 15
    frequency:   12.9394242853
  - # 16
    frequency:   12.9566324546
  - # 17
    frequency:   14.4595038399
  - # 18
    frequency:   16.4714895564
  - # 19
    frequency:   16.4764961640
  - # 20
    frequency:   26.7040790577
  - # 21
    frequency:   54.4256557455

- q-position: [    0.0454545,    0.0000000,    0.0000000 ]
  distance:    0.0156478
  band:
  - # 1
    frequency:   -0.1946595286
  - # 2
    frequency:    0.1050469244
  - # 3
    frequency:    0.6372835595
  - # 4
    frequency:    1.2457865563
  - # 5
    frequency:    1.3940051171
  - # 6
    frequency:    3.1540038530
  - # 7
    frequency:    3.1749514834
  - # 8
    frequency:    5.1311831867
  - # 9
    frequency:    5.5819114559
  - # 10
    frequency:    5.5875826344
  - # 11
    frequency:    6.7010101741
  - # 12
    frequency:    7.4443783447
  - # 13
    frequency:    7.4974429061
  - # 14
    frequency:   10.6418101670
  - # 15
    frequency:   12.9384616964
  - # 16
    frequency:   12.9600615631
  - # 17
    frequency:   14.4539751519
  - # 18
    frequency:   16.4679955887
  - # 19
    frequency:   16.4744130917
  - # 20
    frequency:   26.6982346002
  - # 21
    frequency:   54.4179106834

- q-position: [    0.0505051,    0.0000000,    0.0000000 ]
  distance:    0.0173865
  band:
  - # 1
    frequency:   -0.2208633410
  - # 2
    frequency:    0.1278600492
  - # 3
    frequency:    0.7067649016
  - # 4
    frequency:    1.2639855055
  - # 5
    frequency:    1.4414493853
  - # 6
    frequency:    3.1470953403
  - # 7
    frequency:    3.1731348147
  - # 8
    frequency:    5.1276140206
  - # 9
    frequency:    5.5857719911
  - # 10
    frequency:    5.5924357674
  - # 11
    frequency:    6.6925969167
  - # 12
    frequency:    7.4490895180
  - # 13
    frequency:    7.5127996747
  - # 14
    frequency:   10.6336723858
  - # 15
    frequency:   12.9374392350
  - # 16
    frequency:   12.9638585298
  - # 17
    frequency:   14.4478980948
  - # 18
    frequency:   16.4640185903
  - # 19
    frequency:   16.4720506467
  - # 20
    frequency:   26.6917605031
  - # 21
    frequency:   54.4093105815

- q-position: [    0.0555556,    0.0000000,    0.0000000 ]
  distance:    0.0191251
  band:
  - # 1
    frequency:   -0.2480395615
  - # 2
    frequency:    0.1525380259
  - # 3
    frequency:    0.7758370526
  - # 4
    frequency:    1.2838330530
  - # 5
    frequency:    1.4918210177
  - # 6
    frequency:    3.1396981921
  - # 7
    frequency:    3.1714117535
  - # 8
    frequency:    5.1236937445
  - # 9
    frequency:    5.5899551947
  - # 10
    frequency:    5.5975814815
  - # 11
    frequency:    6.6837240777
  - # 12
    frequency:    7.4542293040
  - # 13
    frequency:    7.5290625000
  - # 14
    frequency:   10.6247404519
  - # 15
    frequency:   12.9363727033
  - # 16
    frequency:   12.9680095272
  - # 17
    frequency:   14.4413036878
  - # 18
    frequency:   16.4595373430
  - # 19
    frequency:   16.4693984514
  - # 20
    frequency:   26.6846756308
  - # 21
    frequency:   54.3998737613

- q-position: [    0.0606061,    0.0000000,    0.0000000 ]
  distance:    0.0208638
  band:
  - # 1
    frequency:   -0.2761179318
  - # 2
    frequency:    0.1790168703
  - # 3
    frequency:    0.8444637971
  - # 4
    frequency:    1.3052399433
  - # 5
    frequency:    1.5447600901
  - # 6
    frequency:    3.1318794308
  - # 7
    frequency:    3.1698457461
  - # 8
    frequency:    5.1194310865
  - # 9
    frequency:    5.5944386598
  - # 10
    frequency:    5.6029652939
  - # 11
    frequency:    6.6744572822
  - # 12
    frequency:    7.4597784398
  - # 13
    frequency:    7.5460899249
  - # 14
    frequency:   10.6150326335
  - # 15
    frequency:   12.9352785914
  - # 16
    frequency:   12.9724982725
  - # 17
    frequency:   14.4342248078
  - # 18
    frequency:   16.4545297453
  - # 19
    frequency:   16.4664455508
  - # 20
    frequency:   26.6770005964
  - # 21
    frequency:   54.3896202686

- q-position: [    0.0656566,    0.0000000,    0.0000000 ]
  distance:    0.0226024
  band:
  - # 1
    frequency:   -0.3050097960
  - # 2
    frequency:    0.2072417850
  - # 3
    frequency:    0.9126098504
  - # 4
    frequency:    1.3281086312
  - # 5
    frequency:    1.5999364752
  - # 6
    frequency:    3.1237101850
  - # 7
    frequency:    3.1684977648
  - # 8
    frequency:    5.1148359518
  - # 9
    frequency:    5.5991990053
  - # 10
    frequency:    5.6085319673
  - # 11
    frequency:    6.6648519423
  - # 12
    frequency:    7.4657162770
  - # 13
    frequency:    7.5637477515
  - # 14
    frequency:   10.6045687051
  - # 15
    frequency:   12.9341738322
  - # 16
    frequency:   12.9773057554
  - # 17
    frequency:   14.4266958771
  - # 18
    frequency:   16.4489731480
  - # 19
    frequency:   16.4631805408
  - # 20
    frequency:   26.6687576914
  - # 21
    frequency:   54.3785718145

- q-position: [    0.0707071,    0.0000000,    0.0000000 ]
  distance:    0.0243411
  band:
  - # 1
    frequency:   -0.3346117137
  - # 2
    frequency:    0.2371643367
  - # 3
    frequency:    0.9802406813
  - # 4
    frequency:    1.3523348884
  - # 5
    frequency:    1.6570494655
  - # 6
    frequency:    3.1152650137
  - # 7
    frequency:    3.1674250262
  - # 8
    frequency:    5.1099193930
  - # 9
    frequency:    5.6042121183
  - # 10
    frequency:    5.6142262791
  - # 11
    frequency:    6.6549532425
  - # 12
    frequency:    7.4720209067
  - # 13
    frequency:    7.5819100593
  - # 14
    frequency:   10.5933698794
  - # 15
    frequency:   12.9330755530
  - # 16
    frequency:   12.9824099554
  - # 17
    frequency:   14.4187525647
  - # 18
    frequency:   16.4428446942
  - # 19
    frequency:   16.4595916970
  - # 20
    frequency:   26.6599708085
  - # 21
    frequency:   54.3667517111

- q-position: [    0.0757576,    0.0000000,    0.0000000 ]
  distance:    0.0260797
  band:
  - # 1
    frequency:   -0.3648083762
  - # 2
    frequency:    0.2687398521
  - # 3
    frequency:    1.0473222615
  - # 4
    frequency:    1.3778095664
  - # 5
    frequency:    1.7158263592
  - # 6
    frequency:    3.1066211625
  - # 7
    frequency:    3.1666799160
  - # 8
    frequency:    5.1046935554
  - # 9
    frequency:    5.6094533922
  - # 10
    frequency:    5.6199937189
  - # 11
    frequency:    6.6447965521
  - # 12
    frequency:    7.4786692961
  - # 13
    frequency:    7.6004598131
  - # 14
    frequency:   10.5814587301
  - # 15
    frequency:   12.9320008277
  - # 16
    frequency:   12.9877855519
  - # 17
    frequency:   14.4104315093
  - # 18
    frequency:   16.4361216586
  - # 19
    frequency:   16.4556671024
  - # 20
    frequency:   26.6506653580
  - # 21
    frequency:   54.3541848030

- q-position: [    0.0808081,    0.0000000,    0.0000000 ]
  distance:    0.0278184
  band:
  - # 1
    frequency:   -0.3954748099
  - # 2
    frequency:    0.3019252020
  - # 3
    frequency:    1.1138207493
  - # 4
    frequency:    1.4044203854
  - # 5
    frequency:    1.7760204627
  - # 6
    frequency:    3.0978577561
  - # 7
    frequency:    3.1663091422
  - # 8
    frequency:    5.0991716015
  - # 9
    frequency:    5.6148979540
  - # 10
    frequency:    5.6257811036
  - # 11
    frequency:    6.6344081328
  - # 12
    frequency:    7.4856374358
  - # 13
    frequency:    7.6192891795
  - # 14
    frequency:   10.5688591096
  - # 15
    frequency:   12.9309664354
  - # 16
    frequency:   12.9934036332
  - # 17
    frequency:   14.4017700683
  - # 18
    frequency:   16.4287817827
  - # 19
    frequency:   16.4513947724
  - # 20
    frequency:   26.6408681786
  - # 21
    frequency:   54.3408973942

- q-position: [    0.0858586,    0.0000000,    0.0000000 ]
  distance:    0.0295570
  band:
  - # 1
    frequency:   -0.4264779313
  - # 2
    frequency:    0.3366770385
  - # 3
    frequency:    1.1797021210
  - # 4
    frequency:    1.4320536397
  - # 5
    frequency:    1.8374088198
  - # 6
    frequency:    3.0890549358
  - # 7
    frequency:    3.1663531269
  - # 8
    frequency:    5.0933676164
  - # 9
    frequency:    5.6205208800
  - # 10
    frequency:    5.6315371065
  - # 11
    frequency:    6.6238060363
  - # 12
    frequency:    7.4929004974
  - # 13
    frequency:    7.6382996369
  - # 14
    frequency:   10.5555960579
  - # 15
    frequency:   12.9299886271
  - # 16
    frequency:   12.9992314099
  - # 17
    frequency:   14.3928061001
  - # 18
    frequency:   16.4208036018
  - # 19
    frequency:   16.4467627752
  - # 20
    frequency:   26.6306074418
  - # 21
    frequency:   54.3269171717

- q-position: [    0.0909091,    0.0000000,    0.0000000 ]
  distance:    0.0312957
  band:
  - # 1
    frequency:   -0.4576775549
  - # 2
    frequency:    0.3729504845
  - # 3
    frequency:    1.2449317687
  - # 4
    frequency:    1.4605957379
  - # 5
    frequency:    1.8997898736
  - # 6
    frequency:    3.0802929529
  - # 7
    frequency:    3.1668456396
  - # 8
    frequency:    5.0872964967
  - # 9
    frequency:    5.6262973952
  - # 10
    frequency:    5.6372126997
  - # 11
    frequency:    6.6130011102
  - # 12
    frequency:    7.5004329999
  - # 13
    frequency:    7.6574019486
  - # 14
    frequency:   10.5416957063
  - # 15
    frequency:   12.9290829055
  - # 16
    frequency:   13.0052319386
  - # 17
    frequency:   14.3835777813
  - # 18
    frequency:   16.4121667593
  - # 19
    frequency:   16.4417593451
  - # 20
    frequency:   26.6199125509
  - # 21
    frequency:   54.3122731242

- q-position: [    0.0959596,    0.0000000,    0.0000000 ]
  distance:    0.0330343
  band:
  - # 1
    frequency:   -0.4889269806
  - # 2
    frequency:    0.4106982377
  - # 3
    frequency:    1.3094740834
  - # 4
    frequency:    1.4899345291
  - # 5
    frequency:    1.9629811807
  - # 6
    frequency:    3.0716512350
  - # 7
    frequency:    3.1678136670
  - # 8
    frequency:    5.0809738246
  - # 9
    frequency:    5.6322030543
  - # 10
    frequency:    5.6427615151
  - # 11
    frequency:    6.6019980504
  - # 12
    frequency:    7.5082089845
  - # 13
    frequency:    7.6765160403
  - # 14
    frequency:   10.5271851755
  - # 15
    frequency:   12.9282638213
  - # 16
    frequency:   13.0113638631
  - # 17
    frequency:   14.3741234611
  - # 18
    frequency:   16.4028523073
  - # 19
    frequency:   16.4363729893
  - # 20
    frequency:   26.6088140345
  - # 21
    frequency:   54.2969954582

- q-position: [    0.1010101,    0.0000000,    0.0000000 ]
  distance:    0.0347730
  band:
  - # 1
    frequency:   -0.5200732813
  - # 2
    frequency:    0.4498700317
  - # 3
    frequency:    1.3732920492
  - # 4
    frequency:    1.5199603928
  - # 5
    frequency:    2.0268172405
  - # 6
    frequency:    3.0632074411
  - # 7
    frequency:    3.1692775095
  - # 8
    frequency:    5.0744157286
  - # 9
    frequency:    5.6382139026
  - # 10
    frequency:    5.6481401296
  - # 11
    frequency:    6.5907964556
  - # 12
    frequency:    7.5162021964
  - # 13
    frequency:    7.6955708139
  - # 14
    frequency:   10.5120924684
  - # 15
    frequency:   12.9275447880
  - # 16
    frequency:   13.0175811814
  - # 17
    frequency:   14.3644815538
  - # 18
    frequency:   16.3928429894
  - # 19
    frequency:   16.4305925852
  - # 20
    frequency:   26.5973434357
  - # 21
    frequency:   54.2811155105

- q-position: [    0.1060606,    0.0000000,    0.0000000 ]
  distance:    0.0365116
  band:
  - # 1
    frequency:   -0.5509573987
  - # 2
    frequency:    0.4904123938
  - # 3
    frequency:    1.4363468673
  - # 4
    frequency:    1.5505670922
  - # 5
    frequency:    2.0911474581
  - # 6
    frequency:    3.0550365292
  - # 7
    frequency:    3.1712510927
  - # 8
    frequency:    5.0676387307
  - # 9
    frequency:    5.6443066148
  - # 10
    frequency:    5.6533082855
  - # 11
    frequency:    6.5793918521
  - # 12
    frequency:    7.5243862723
  - # 13
    frequency:    7.7145039138
  - # 14
    frequency:   10.4964463595
  - # 15
    frequency:   12.9269379186
  - # 16
    frequency:   13.0238330447
  - # 17
    frequency:   14.3546904673
  - # 18
    frequency:   16.3821235046
  - # 19
    frequency:   16.4244074690
  - # 20
    frequency:   26.5855331959
  - # 21
    frequency:   54.2646656578

- q-position: [    0.1111111,    0.0000000,    0.0000000 ]
  distance:    0.0382503
  band:
  - # 1
    frequency:   -0.5814141342
  - # 2
    frequency:    0.5322686379
  - # 3
    frequency:    1.4985976350
  - # 4
    frequency:    1.5816524095
  - # 5
    frequency:    2.1558342272
  - # 6
    frequency:    3.0472098558
  - # 7
    frequency:    3.1737424883
  - # 8
    frequency:    5.0606595807
  - # 9
    frequency:    5.6504586122
  - # 10
    frequency:    5.6582290566
  - # 11
    frequency:    6.5677766663
  - # 12
    frequency:    7.5327349312
  - # 13
    frequency:    7.7332614555
  - # 14
    frequency:   10.4802762827
  - # 15
    frequency:   12.9264538860
  - # 16
    frequency:   13.0300635996
  - # 17
    frequency:   14.3447885635
  - # 18
    frequency:   16.3706807499
  - # 19
    frequency:   16.4178075135
  - # 20
    frequency:   26.5734165350
  - # 21
    frequency:   54.2476792238

- q-position: [    0.1161616,    0.0000000,    0.0000000 ]
  distance:    0.0399889
  band:
  - # 1
    frequency:   -0.6112720960
  - # 2
    frequency:    0.5753790379
  - # 3
    frequency:    1.5600010977
  - # 4
    frequency:    1.6131185864
  - # 5
    frequency:    2.2207510957
  - # 6
    frequency:    3.0397943334
  - # 7
    frequency:    3.1767546403
  - # 8
    frequency:    5.0534950760
  - # 9
    frequency:    5.6566481559
  - # 10
    frequency:    5.6628689711
  - # 11
    frequency:    6.5559411281
  - # 12
    frequency:    7.5412221679
  - # 13
    frequency:    7.7517977199
  - # 14
    frequency:   10.4636122167
  - # 15
    frequency:   12.9261018077
  - # 16
    frequency:   13.0362118806
  - # 17
    frequency:   14.3348141456
  - # 18
    frequency:   16.3585040401
  - # 19
    frequency:   16.4107831974
  - # 20
    frequency:   26.5610273286
  - # 21
    frequency:   54.2301903836

- q-position: [    0.1212121,    0.0000000,    0.0000000 ]
  distance:    0.0417276
  band:
  - # 1
    frequency:   -0.6403536381
  - # 2
    frequency:    0.6196811313
  - # 3
    frequency:    1.6205114899
  - # 4
    frequency:    1.6448726029
  - # 5
    frequency:    2.2857809530
  - # 6
    frequency:    3.0328516653
  - # 7
    frequency:    3.1802863162
  - # 8
    frequency:    5.0461618680
  - # 9
    frequency:    5.6628544180
  - # 10
    frequency:    5.6671981039
  - # 11
    frequency:    6.5438740961
  - # 12
    frequency:    7.5498224463
  - # 13
    frequency:    7.7700748162
  - # 14
    frequency:   10.4464845722
  - # 15
    frequency:   12.9258891579
  - # 16
    frequency:   13.0422117645
  - # 17
    frequency:   14.3248054643
  - # 18
    frequency:   16.3455853039
  - # 19
    frequency:   16.4033256631
  - # 20
    frequency:   26.5483999811
  - # 21
    frequency:   54.2122340661

- q-position: [    0.1262626,    0.0000000,    0.0000000 ]
  distance:    0.0434662
  band:
  - # 1
    frequency:   -0.6684748050
  - # 2
    frequency:    0.6651101118
  - # 3
    frequency:    1.6768263239
  - # 4
    frequency:    1.6800804796
  - # 5
    frequency:    2.3508141462
  - # 6
    frequency:    3.0264376803
  - # 7
    frequency:    3.1843333214
  - # 8
    frequency:    5.0386762531
  - # 9
    frequency:    5.6690575307
  - # 10
    frequency:    5.6711901476
  - # 11
    frequency:    6.5315637958
  - # 12
    frequency:    7.5585108912
  - # 13
    frequency:    7.7880623117
  - # 14
    frequency:   10.4289240805
  - # 15
    frequency:   12.9258217048
  - # 16
    frequency:   13.0479919970
  - # 17
    frequency:   14.3148007326
  - # 18
    frequency:   16.3319192548
  - # 19
    frequency:   16.3954267664
  - # 20
    frequency:   26.5355692970
  - # 21
    frequency:   54.1938458552

- q-position: [    0.1313131,    0.0000000,    0.0000000 ]
  distance:    0.0452049
  band:
  - # 1
    frequency:   -0.6954452717
  - # 2
    frequency:    0.7115992752
  - # 3
    frequency:    1.7088965441
  - # 4
    frequency:    1.7386572236
  - # 5
    frequency:    2.4157463967
  - # 6
    frequency:    3.0206017834
  - # 7
    frequency:    3.1888900621
  - # 8
    frequency:    5.0310539497
  - # 9
    frequency:    5.6748224728
  - # 10
    frequency:    5.6752386139
  - # 11
    frequency:    6.5189984664
  - # 12
    frequency:    7.5672634759
  - # 13
    frequency:    7.8057368293
  - # 14
    frequency:   10.4109616853
  - # 15
    frequency:   12.9259034757
  - # 16
    frequency:   13.0534763029
  - # 17
    frequency:   14.3048381378
  - # 18
    frequency:   16.3175035352
  - # 19
    frequency:   16.3870791162
  - # 20
    frequency:   26.5225703510
  - # 21
    frequency:   54.1750618888

- q-position: [    0.1363636,    0.0000000,    0.0000000 ]
  distance:    0.0469435
  band:
  - # 1
    frequency:   -0.7210682539
  - # 2
    frequency:    0.7590804892
  - # 3
    frequency:    1.7410049566
  - # 4
    frequency:    1.7961885390
  - # 5
    frequency:    2.4804763210
  - # 6
    frequency:    3.0153865339
  - # 7
    frequency:    3.1939516092
  - # 8
    frequency:    5.0233098607
  - # 9
    frequency:    5.6780761854
  - # 10
    frequency:    5.6813797840
  - # 11
    frequency:    6.5061669147
  - # 12
    frequency:    7.5760572036
  - # 13
    frequency:    7.8230816117
  - # 14
    frequency:   10.3926284393
  - # 15
    frequency:   12.9261367470
  - # 16
    frequency:   13.0585835909
  - # 17
    frequency:   14.2949558370
  - # 18
    frequency:   16.3023388345
  - # 19
    frequency:   16.3782761069
  - # 20
    frequency:   26.5094383562
  - # 21
    frequency:   54.1559187571

- q-position: [    0.1414141,    0.0000000,    0.0000000 ]
  distance:    0.0486822
  band:
  - # 1
    frequency:   -0.7451403416
  - # 2
    frequency:    0.8074846646
  - # 3
    frequency:    1.7730780683
  - # 4
    frequency:    1.8526191897
  - # 5
    frequency:    2.5449022518
  - # 6
    frequency:    3.0108273604
  - # 7
    frequency:    3.1995165317
  - # 8
    frequency:    5.0154578235
  - # 9
    frequency:    5.6809361862
  - # 10
    frequency:    5.6874641439
  - # 11
    frequency:    6.4930589736
  - # 12
    frequency:    7.5848702813
  - # 13
    frequency:    7.8400860532
  - # 14
    frequency:   10.3739554068
  - # 15
    frequency:   12.9265220600
  - # 16
    frequency:   13.0632282664
  - # 17
    frequency:   14.2851919218
  - # 18
    frequency:   16.2864289781
  - # 19
    frequency:   16.3690119439
  - # 20
    frequency:   26.4962085320
  - # 21
    frequency:   54.1364533999

- q-position: [    0.1464646,    0.0000000,    0.0000000 ]
  distance:    0.0504208
  band:
  - # 1
    frequency:   -0.7674511998
  - # 2
    frequency:    0.8567422094
  - # 3
    frequency:    1.8050470797
  - # 4
    frequency:    1.9078922826
  - # 5
    frequency:    2.6089178653
  - # 6
    frequency:    3.0069524133
  - # 7
    frequency:    3.2055909652
  - # 8
    frequency:    5.0075103506
  - # 9
    frequency:    5.6833912378
  - # 10
    frequency:    5.6934757576
  - # 11
    frequency:    6.4796658676
  - # 12
    frequency:    7.5936822824
  - # 13
    frequency:    7.8567452025
  - # 14
    frequency:   10.3549735728
  - # 15
    frequency:   12.9270582601
  - # 16
    frequency:   13.0673206616
  - # 17
    frequency:   14.2755843347
  - # 18
    frequency:   16.2697809888
  - # 19
    frequency:   16.3592816624
  - # 20
    frequency:   26.4829159730
  - # 21
    frequency:   54.1167030030

- q-position: [    0.1515152,    0.0000000,    0.0000000 ]
  distance:    0.0521595
  band:
  - # 1
    frequency:   -0.7877830594
  - # 2
    frequency:    0.9067834519
  - # 3
    frequency:    1.8368477436
  - # 4
    frequency:    1.9619497636
  - # 5
    frequency:    2.6724057805
  - # 6
    frequency:    3.0037825513
  - # 7
    frequency:    3.2121947311
  - # 8
    frequency:    4.9994783647
  - # 9
    frequency:    5.6854340391
  - # 10
    frequency:    5.6993996109
  - # 11
    frequency:    6.4659804863
  - # 12
    frequency:    7.6024742971
  - # 13
    frequency:    7.8730592369
  - # 14
    frequency:   10.3357137595
  - # 15
    frequency:   12.9277425572
  - # 16
    frequency:   13.0707675945
  - # 17
    frequency:   14.2661707249
  - # 18
    frequency:   16.2524051178
  - # 19
    frequency:   16.3490811428
  - # 20
    frequency:   26.4695955181
  - # 21