nqpoint: 300    
npath: 3      
segment_nqpoint:
- 100
- 100
- 100
labels:
- [ 'G', 'M' ]
- [ 'M', 'K' ]
- [ 'K', 'G' ]
reciprocal_lattice:
- [   0.29260798,   0.16893730,   0.00000000 ] # a*
- [   0.00000000,   0.33787459,   0.00000000 ] # b*
- [   0.00000000,   0.00000000,   0.04270387 ] # c*
natom: 5      
lattice:
- [     3.417541768408377,     0.000000000000000,     0.000000000000000 ] # a
- [    -1.708770884204188,     2.959677989931318,     0.000000000000000 ] # b
- [     0.000000000000000,     0.000000000000000,    23.417082466552802 ] # c
points:
- symbol: Br # 1
  coordinates: [  0.333332985432215,  0.666666983183674,  0.615665187460696 ]
  mass: 79.904000
- symbol: C # 2
  coordinates: [  0.000000000000000,  0.000000000000000,  0.479535274028653 ]
  mass: 12.010700
- symbol: H # 3
  coordinates: [  0.666666984744048,  0.333332985985145,  0.384334812539304 ]
  mass: 1.007940
- symbol: Zr # 4
  coordinates: [  0.333332985432215,  0.666666983183674,  0.426303309127541 ]
  mass: 91.224000
- symbol: Zr # 5
  coordinates: [  0.666666984744048,  0.333332985985145,  0.531022446595428 ]
  mass: 91.224000

phonon:
- q-position: [    0.0000000,    0.0000000,    0.0000000 ]
  distance:    0.0000000
  band:
  - # 1
    frequency:   -0.0000121486
  - # 2
    frequency:   -0.0000002098
  - # 3
    frequency:    0.0000109658
  - # 4
    frequency:    3.4015599164
  - # 5
    frequency:    3.4015599164
  - # 6
    frequency:    5.0341711186
  - # 7
    frequency:    5.4387326376
  - # 8
    frequency:    5.4387326376
  - # 9
    frequency:    8.5428405117
  - # 10
    frequency:   15.3906888218
  - # 11
    frequency:   16.7103790781
  - # 12
    frequency:   16.7103790781
  - # 13
    frequency:   26.1653044601
  - # 14
    frequency:   28.7526730684
  - # 15
    frequency:   28.7526730685

- q-position: [    0.0050505,    0.0000000,    0.0000000 ]
  distance:    0.0017064
  band:
  - # 1
    frequency:    0.0017474171
  - # 2
    frequency:    0.0449243493
  - # 3
    frequency:    0.1013948453
  - # 4
    frequency:    3.4017460244
  - # 5
    frequency:    3.4029769185
  - # 6
    frequency:    5.0324118544
  - # 7
    frequency:    5.4386490245
  - # 8
    frequency:    5.4406595422
  - # 9
    frequency:    8.5422120606
  - # 10
    frequency:   15.3902586584
  - # 11
    frequency:   16.7101152909
  - # 12
    frequency:   16.7104932782
  - # 13
    frequency:   26.1648914953
  - # 14
    frequency:   28.7515556502
  - # 15
    frequency:   28.7518524678

- q-position: [    0.0101010,    0.0000000,    0.0000000 ]
  distance:    0.0034129
  band:
  - # 1
    frequency:    0.0069807501
  - # 2
    frequency:    0.0899341578
  - # 3
    frequency:    0.2027613656
  - # 4
    frequency:    3.4023048204
  - # 5
    frequency:    3.4072179792
  - # 6
    frequency:    5.0272404333
  - # 7
    frequency:    5.4383989736
  - # 8
    frequency:    5.4463341888
  - # 9
    frequency:    8.5403283752
  - # 10
    frequency:   15.3889703839
  - # 11
    frequency:   16.7093239917
  - # 12
    frequency:   16.7108330296
  - # 13
    frequency:   26.1636539991
  - # 14
    frequency:   28.7482067079
  - # 15
    frequency:   28.7493932160

- q-position: [    0.0151515,    0.0000000,    0.0000000 ]
  distance:    0.0051193
  band:
  - # 1
    frequency:    0.0156733278
  - # 2
    frequency:    0.1351141355
  - # 3
    frequency:    0.3040708955
  - # 4
    frequency:    3.4032377137
  - # 5
    frequency:    3.4142535110
  - # 6
    frequency:    5.0189498273
  - # 7
    frequency:    5.4379848451
  - # 8
    frequency:    5.4554645275
  - # 9
    frequency:    8.5371944479
  - # 10
    frequency:   15.3868306108
  - # 11
    frequency:   16.7080053747
  - # 12
    frequency:   16.7113898341
  - # 13
    frequency:   26.1615961618
  - # 14
    frequency:   28.7426361673
  - # 15
    frequency:   28.7453029544

- q-position: [    0.0202020,    0.0000000,    0.0000000 ]
  distance:    0.0068257
  band:
  - # 1
    frequency:    0.0277815060
  - # 2
    frequency:    0.1805474981
  - # 3
    frequency:    0.4052940945
  - # 4
    frequency:    3.4045470280
  - # 5
    frequency:    3.4240350132
  - # 6
    frequency:    5.0079550895
  - # 7
    frequency:    5.4374105585
  - # 8
    frequency:    5.4676370721
  - # 9
    frequency:    8.5328185618
  - # 10
    frequency:   15.3838502445
  - # 11
    frequency:   16.7061597867
  - # 12
    frequency:   16.7121496881
  - # 13
    frequency:   26.1587249530
  - # 14
    frequency:   28.7348605318
  - # 15
    frequency:   28.7395943906

- q-position: [    0.0252525,    0.0000000,    0.0000000 ]
  distance:    0.0085322
  band:
  - # 1
    frequency:    0.0432457706
  - # 2
    frequency:    0.2263152421
  - # 3
    frequency:    0.5064006132
  - # 4
    frequency:    3.4062359652
  - # 5
    frequency:    3.4364962331
  - # 6
    frequency:    4.9947202710
  - # 7
    frequency:    5.4366815705
  - # 8
    frequency:    5.4823900326
  - # 9
    frequency:    8.5272122359
  - # 10
    frequency:   15.3800443149
  - # 11
    frequency:   16.7037877625
  - # 12
    frequency:   16.7130933185
  - # 13
    frequency:   26.1550501005
  - # 14
    frequency:   28.7249028221
  - # 15
    frequency:   28.7322852563

- q-position: [    0.0303030,    0.0000000,    0.0000000 ]
  distance:    0.0102386
  band:
  - # 1
    frequency:    0.0619922033
  - # 2
    frequency:    0.2724954440
  - # 3
    frequency:    0.6073587672
  - # 4
    frequency:    3.4083085561
  - # 5
    frequency:    3.4515546861
  - # 6
    frequency:    4.9797008990
  - # 7
    frequency:    5.4358048446
  - # 8
    frequency:    5.4992709074
  - # 9
    frequency:    8.5203901492
  - # 10
    frequency:   15.3754317487
  - # 11
    frequency:   16.7008900730
  - # 12
    frequency:   16.7141965018
  - # 13
    frequency:   26.1505840594
  - # 14
    frequency:   28.7127924940
  - # 15
    frequency:   28.7233982487

- q-position: [    0.0353535,    0.0000000,    0.0000000 ]
  distance:    0.0119451
  band:
  - # 1
    frequency:    0.0839342056
  - # 2
    frequency:    0.3191625908
  - # 3
    frequency:    0.7081352188
  - # 4
    frequency:    3.4107695994
  - # 5
    frequency:    3.4691134399
  - # 6
    frequency:    4.9633103790
  - # 7
    frequency:    5.4347888113
  - # 8
    frequency:    5.5178701822
  - # 9
    frequency:    8.5123700453
  - # 10
    frequency:   15.3700350901
  - # 11
    frequency:   16.6974677867
  - # 12
    frequency:   16.7154304601
  - # 13
    frequency:   26.1453419726
  - # 14
    frequency:   28.6985653310
  - # 15
    frequency:   28.7129609549

- q-position: [    0.0404040,    0.0000000,    0.0000000 ]
  distance:    0.0136515
  band:
  - # 1
    frequency:    0.1089743869
  - # 2
    frequency:    0.3663869483
  - # 3
    frequency:    0.8086946686
  - # 4
    frequency:    3.4136245912
  - # 5
    frequency:    3.4890630616
  - # 6
    frequency:    4.9459068180
  - # 7
    frequency:    5.4336433199
  - # 8
    frequency:    5.5378346398
  - # 9
    frequency:    8.5031726201
  - # 10
    frequency:   15.3638801793
  - # 11
    frequency:   16.6935223448
  - # 12
    frequency:   16.7167623207
  - # 13
    frequency:   26.1393416204
  - # 14
    frequency:   28.6822633147
  - # 15
    frequency:   28.7010057620

- q-position: [    0.0454545,    0.0000000,    0.0000000 ]
  distance:    0.0153579
  band:
  - # 1
    frequency:    0.1370065186
  - # 2
    frequency:    0.4142339739
  - # 3
    frequency:    0.9089995589
  - # 4
    frequency:    3.4168796470
  - # 5
    frequency:    3.5112836217
  - # 6
    frequency:    4.9277927833
  - # 7
    frequency:    5.4323795802
  - # 8
    frequency:    5.5588677772
  - # 9
    frequency:    8.4928213929
  - # 10
    frequency:   15.3569957976
  - # 11
    frequency:   16.6890556467
  - # 12
    frequency:   16.7181556303
  - # 13
    frequency:   26.1326033593
  - # 14
    frequency:   28.6639344728
  - # 15
    frequency:   28.6875697498

- q-position: [    0.0505051,    0.0000000,    0.0000000 ]
  distance:    0.0170644
  band:
  - # 1
    frequency:    0.1679174706
  - # 2
    frequency:    0.4627637768
  - # 3
    frequency:    1.0090097891
  - # 4
    frequency:    3.4205414185
  - # 5
    frequency:    3.5356466569
  - # 6
    frequency:    4.9092214430
  - # 7
    frequency:    5.4310100961
  - # 8
    frequency:    5.5807238935
  - # 9
    frequency:    8.4813425647
  - # 10
    frequency:   15.3494132898
  - # 11
    frequency:   16.6840701486
  - # 12
    frequency:   16.7195709091
  - # 13
    frequency:   26.1251500498
  - # 14
    frequency:   28.6436327032
  - # 15
    frequency:   28.6726945695

- q-position: [    0.0555556,    0.0000000,    0.0000000 ]
  distance:    0.0187708
  band:
  - # 1
    frequency:    0.2015890520
  - # 2
    frequency:    0.5120306295
  - # 3
    frequency:    1.1086824455
  - # 4
    frequency:    3.4246170079
  - # 5
    frequency:    3.5620170029
  - # 6
    frequency:    4.8904048906
  - # 7
    frequency:    5.4295485885
  - # 8
    frequency:    5.6032000566
  - # 9
    frequency:    8.4687648646
  - # 10
    frequency:   15.3411661727
  - # 11
    frequency:   16.6785689710
  - # 12
    frequency:   16.7209662351
  - # 13
    frequency:   26.1170069707
  - # 14
    frequency:   28.6214175780
  - # 15
    frequency:   28.6564263084

- q-position: [    0.0606061,    0.0000000,    0.0000000 ]
  distance:    0.0204772
  band:
  - # 1
    frequency:    0.2378997027
  - # 2
    frequency:    0.5620825334
  - # 3
    frequency:    1.2079715451
  - # 4
    frequency:    3.4291138819
  - # 5
    frequency:    3.5902544238
  - # 6
    frequency:    4.8715224735
  - # 7
    frequency:    5.4280099095
  - # 8
    frequency:    5.6261281479
  - # 9
    frequency:    8.4551193870
  - # 10
    frequency:   15.3322897401
  - # 11
    frequency:   16.6725560175
  - # 12
    frequency:   16.7222978458
  - # 13
    frequency:   26.1082017207
  - # 14
    frequency:   28.5973541250
  - # 15
    frequency:   28.6388153399

- q-position: [    0.0656566,    0.0000000,    0.0000000 ]
  distance:    0.0221837
  band:
  - # 1
    frequency:    0.2767259930
  - # 2
    frequency:    0.6129608396
  - # 3
    frequency:    1.3068277944
  - # 4
    frequency:    3.4340397880
  - # 5
    frequency:    3.6202149756
  - # 6
    frequency:    4.8527282211
  - # 7
    frequency:    5.4264099467
  - # 8
    frequency:    5.6493679079
  - # 9
    frequency:    8.4404394226
  - # 10
    frequency:   15.3228206700
  - # 11
    frequency:   16.6660361004
  - # 12
    frequency:   16.7235207467
  - # 13
    frequency:   26.0987641056
  - # 14
    frequency:   28.5715125888
  - # 15
    frequency:   28.6199161621

- q-position: [    0.0707071,    0.0000000,    0.0000000 ]
  distance:    0.0238901
  band:
  - # 1
    frequency:    0.3179439113
  - # 2
    frequency:    0.6646999243
  - # 3
    frequency:    1.4051983634
  - # 4
    frequency:    3.4394026759
  - # 5
    frequency:    3.6517520560
  - # 6
    frequency:    4.8341571521
  - # 7
    frequency:    5.4247655180
  - # 8
    frequency:    5.6728012270
  - # 9
    frequency:    8.4247602836
  - # 10
    frequency:   15.3127966434
  - # 11
    frequency:   16.6590150747
  - # 12
    frequency:   16.7245893179
  - # 13
    frequency:   26.0887260101
  - # 14
    frequency:   28.5439681719
  - # 15
    frequency:   28.5997872231

- q-position: [    0.0757576,    0.0000000,    0.0000000 ]
  distance:    0.0255966
  band:
  - # 1
    frequency:    0.3614299307
  - # 2
    frequency:    0.7173269207
  - # 3
    frequency:    1.5030266738
  - # 4
    frequency:    3.4452106256
  - # 5
    frequency:    3.6847171002
  - # 6
    frequency:    4.8159305531
  - # 7
    frequency:    5.4230942563
  - # 8
    frequency:    5.6963276243
  - # 9
    frequency:    8.4081191267
  - # 10
    frequency:   15.3022559791
  - # 11
    frequency:   16.6514999780
  - # 12
    frequency:   16.7254579082
  - # 13
    frequency:   26.0781212537
  - # 14
    frequency:   28.5148007567
  - # 15
    frequency:   28.5784907373

- q-position: [    0.0808081,    0.0000000,    0.0000000 ]
  distance:    0.0273030
  band:
  - # 1
    frequency:    0.4070618603
  - # 2
    frequency:    0.7708615027
  - # 3
    frequency:    1.6002522027
  - # 4
    frequency:    3.4514717848
  - # 5
    frequency:    3.7189598845
  - # 6
    frequency:    4.7981604416
  - # 7
    frequency:    5.4214144860
  - # 8
    frequency:    5.7198607392
  - # 9
    frequency:    8.3905547756
  - # 10
    frequency:   15.2912372894
  - # 11
    frequency:   16.6434991743
  - # 12
    frequency:   16.7260814117
  - # 13
    frequency:   26.0669854300
  - # 14
    frequency:   28.4840946093
  - # 15
    frequency:   28.5560924908

- q-position: [    0.0858586,    0.0000000,    0.0000000 ]
  distance:    0.0290094
  band:
  - # 1
    frequency:    0.4547194933
  - # 2
    frequency:    0.8253157223
  - # 3
    frequency:    1.6968102980
  - # 4
    frequency:    3.4581943175
  - # 5
    frequency:    3.7543284003
  - # 6
    frequency:    4.7809534552
  - # 7
    frequency:    5.4197450890
  - # 8
    frequency:    5.7433256471
  - # 9
    frequency:    8.3721075433
  - # 10
    frequency:   15.2797791602
  - # 11
    frequency:   16.6350225020
  - # 12
    frequency:   16.7264158191
  - # 13
    frequency:   26.0553557283
  - # 14
    frequency:   28.4519380655
  - # 15
    frequency:   28.5326616391

- q-position: [    0.0909091,    0.0000000,    0.0000000 ]
  distance:    0.0307159
  band:
  - # 1
    frequency:    0.5042850733
  - # 2
    frequency:    0.8806938946
  - # 3
    frequency:    1.7926320081
  - # 4
    frequency:    3.4653863644
  - # 5
    frequency:    3.7906682537
  - # 6
    frequency:    4.7644144069
  - # 7
    frequency:    5.4181053628
  - # 8
    frequency:    5.7666568248
  - # 9
    frequency:    8.3528190572
  - # 10
    frequency:   15.2679198587
  - # 11
    frequency:   16.6260814223
  - # 12
    frequency:   16.7264187381
  - # 13
    frequency:   26.0432707377
  - # 14
    frequency:   28.4184232009
  - # 15
    frequency:   28.5082704981

- q-position: [    0.0959596,    0.0000000,    0.0000000 ]
  distance:    0.0324223
  band:
  - # 1
    frequency:    0.5556436006
  - # 2
    frequency:    0.9369925308
  - # 3
    frequency:    1.8876439204
  - # 4
    frequency:    3.4730560175
  - # 5
    frequency:    3.8278215295
  - # 6
    frequency:    4.7486497302
  - # 7
    frequency:    5.4165148703
  - # 8
    frequency:    5.7897966222
  - # 9
    frequency:    8.3327320874
  - # 10
    frequency:   15.2556970696
  - # 11
    frequency:   16.6166891682
  - # 12
    frequency:   16.7260498800
  - # 13
    frequency:   26.0307702336
  - # 14
    frequency:   28.3836454861
  - # 15
    frequency:   28.4829943293

- q-position: [    0.1010101,    0.0000000,    0.0000000 ]
  distance:    0.0341287
  band:
  - # 1
    frequency:    0.6086830043
  - # 2
    frequency:    0.9942003139
  - # 3
    frequency:    1.9817680107
  - # 4
    frequency:    3.4812113091
  - # 5
    frequency:    3.8656250459
  - # 6
    frequency:    4.7337710322
  - # 7
    frequency:    5.4149932819
  - # 8
    frequency:    5.8126941259
  - # 9
    frequency:    8.3118903784
  - # 10
    frequency:   15.2431476611
  - # 11
    frequency:   16.6068608905
  - # 12
    frequency:   16.7252715073
  - # 13
    frequency:   26.0178949451
  - # 14
    frequency:   28.3477034275
  - # 15
    frequency:   28.4569111210

- q-position: [    0.1060606,    0.0000000,    0.0000000 ]
  distance:    0.0358352
  band:
  - # 1
    frequency:    0.6632942027
  - # 2
    frequency:    1.0522981152
  - # 3
    frequency:    2.0749214977
  - # 4
    frequency:    3.4898602150
  - # 5
    frequency:    3.9039079050
  - # 6
    frequency:    4.7198989593
  - # 7
    frequency:    5.4135602110
  - # 8
    frequency:    5.8353043272
  - # 9
    frequency:    8.2903384864
  - # 10
    frequency:   15.2303074813
  - # 11
    frequency:   16.5966138003
  - # 12
    frequency:   16.7240488392
  - # 13
    frequency:   26.0046863059
  - # 14
    frequency:   28.3106981964
  - # 15
    frequency:   28.4301013673

- q-position: [    0.1111111,    0.0000000,    0.0000000 ]
  distance:    0.0375416
  band:
  - # 1
    frequency:    0.7193710761
  - # 2
    frequency:    1.1112590478
  - # 3
    frequency:    2.1670167040
  - # 4
    frequency:    3.4990106737
  - # 5
    frequency:    3.9424882321
  - # 6
    frequency:    4.7071675778
  - # 7
    frequency:    5.4122350445
  - # 8
    frequency:    5.8575875239
  - # 9
    frequency:    8.2681216217
  - # 10
    frequency:   15.2172111859
  - # 11
    frequency:   16.5859673056
  - # 12
    frequency:   16.7223504135
  - # 13
    frequency:   25.9911861873
  - # 14
    frequency:   28.2727332459
  - # 15
    frequency:   28.4026478457

- q-position: [    0.1161616,    0.0000000,    0.0000000 ]
  distance:    0.0392481
  band:
  - # 1
    frequency:    0.7768103721
  - # 2
    frequency:    1.1710485539
  - # 3
    frequency:    2.2579609174
  - # 4
    frequency:    3.5086706197
  - # 5
    frequency:    3.9811690076
  - # 6
    frequency:    4.6957294379
  - # 7
    frequency:    5.4110367679
  - # 8
    frequency:    5.8795089053
  - # 9
    frequency:    8.2452854956
  - # 10
    frequency:   15.2038920946
  - # 11
    frequency:   16.5749431390
  - # 12
    frequency:   16.7201484015
  - # 13
    frequency:   25.9774366157
  - # 14
    frequency:   28.2339139194
  - # 15
    frequency:   28.3746353952

- q-position: [    0.1212121,    0.0000000,    0.0000000 ]
  distance:    0.0409545
  band:
  - # 1
    frequency:    0.8355115604
  - # 2
    frequency:    1.2316245237
  - # 3
    frequency:    2.3476562533
  - # 4
    frequency:    3.5188480310
  - # 5
    frequency:    4.0197329595
  - # 6
    frequency:    4.6857614147
  - # 7
    frequency:    5.4099837885
  - # 8
    frequency:    5.9010382797
  - # 9
    frequency:    8.2218761737
  - # 10
    frequency:   15.1903820782
  - # 11
    frequency:   16.5635654757
  - # 12
    frequency:   16.7174188745
  - # 13
    frequency:   25.9634794748
  - # 14
    frequency:   28.1943470509
  - # 15
    frequency:   28.3461506961

- q-position: [    0.1262626,    0.0000000,    0.0000000 ]
  distance:    0.0426609
  band:
  - # 1
    frequency:    0.8953766534
  - # 2
    frequency:    1.2929374433
  - # 3
    frequency:    2.4359995140
  - # 4
    frequency:    3.5295509902
  - # 5
    frequency:    4.0579366671
  - # 6
    frequency:    4.6774712218
  - # 7
    frequency:    5.4090937568
  - # 8
    frequency:    5.9221499120
  - # 9
    frequency:    8.1979399346
  - # 10
    frequency:   15.1767114737
  - # 11
    frequency:   16.5518610382
  - # 12
    frequency:   16.7141420208
  - # 13
    frequency:   25.9493561954
  - # 14
    frequency:   28.1541405588
  - # 15
    frequency:   28.3172820523

- q-position: [    0.1313131,    0.0000000,    0.0000000 ]
  distance:    0.0443674
  band:
  - # 1
    frequency:    0.9563100037
  - # 2
    frequency:    1.3549305679
  - # 3
    frequency:    2.5228820445
  - # 4
    frequency:    3.5407877561
  - # 5
    frequency:    4.0955044322
  - # 6
    frequency:    4.6711040806
  - # 7
    frequency:    5.4083833886
  - # 8
    frequency:    5.9428224469
  - # 9
    frequency:    8.1735231325
  - # 10
    frequency:   15.1629090272
  - # 11
    frequency:   16.5398591874
  - # 12
    frequency:   16.7103023107
  - # 13
    frequency:   25.9351074339
  - # 14
    frequency:   28.1134030354
  - # 15
    frequency:   28.2881191775

- q-position: [    0.1363636,    0.0000000,    0.0000000 ]
  distance:    0.0460738
  band:
  - # 1
    frequency:    1.0182180884
  - # 2
    frequency:    1.4175401220
  - # 3
    frequency:    2.6081895853
  - # 4
    frequency:    3.5525668465
  - # 5
    frequency:    4.1321232635
  - # 6
    frequency:    4.6669482257
  - # 7
    frequency:    5.4078682887
  - # 8
    frequency:    5.9630388983
  - # 9
    frequency:    8.1486720663
  - # 10
    frequency:   15.1490018623
  - # 11
    frequency:   16.5275919951
  - # 12
    frequency:   16.7058886099
  - # 13
    frequency:   25.9207727437
  - # 14
    frequency:   28.0722433343
  - # 15
    frequency:   28.2587529858

- q-position: [    0.1414141,    0.0000000,    0.0000000 ]
  distance:    0.0477802
  band:
  - # 1
    frequency:    1.0810092882
  - # 2
    frequency:    1.4806955220
  - # 3
    frequency:    2.6918021260
  - # 4
    frequency:    3.5648971265
  - # 5
    frequency:    4.1674416600
  - # 6
    frequency:    4.6653365823
  - # 7
    frequency:    5.4075627802
  - # 8
    frequency:    5.9827866867
  - # 9
    frequency:    8.1234328527
  - # 10
    frequency:   15.1350154746
  - # 11
    frequency:   16.5150942980
  - # 12
    frequency:   16.7008942406
  - # 13
    frequency:   25.9063902403
  - # 14
    frequency:   28.0307701564
  - # 15
    frequency:   28.2292753867

- q-position: [    0.1464646,    0.0000000,    0.0000000 ]
  distance:    0.0494867
  band:
  - # 1
    frequency:    1.1445936649
  - # 2
    frequency:    1.5443196241
  - # 3
    frequency:    2.7735937692
  - # 4
    frequency:    3.5777879029
  - # 5
    frequency:    4.2010767189
  - # 6
    frequency:    4.6666400972
  - # 7
    frequency:    5.4074797389
  - # 8
    frequency:    6.0020577121
  - # 9
    frequency:    8.0978513031
  - # 10
    frequency:   15.1209737473
  - # 11
    frequency:   16.5024037303
  - # 12
    frequency:   16.6953169899
  - # 13
    frequency:   25.8919962672
  - # 14
    frequency:   27.9890916380
  - # 15
    frequency:   28.1997790844

- q-position: [    0.1515152,    0.0000000,    0.0000000 ]
  distance:    0.0511931
  band:
  - # 1
    frequency:    1.2088827424
  - # 2
    frequency:    1.6083289969
  - # 3
    frequency:    2.8534326236
  - # 4
    frequency:    3.5912490174
  - # 5
    frequency:    4.2326357269
  - # 6
    frequency:    4.6712465625
  - # 7
    frequency:    5.4076304373
  - # 8
    frequency:    6.0208484471
  - # 9
    frequency:    8.0719728059
  - # 10
    frequency:   15.1068989892
  - # 11
    frequency:   16.4895607318
  - # 12
    frequency:   16.6891590656
  - # 13
    frequency:   25.8776250626
  - # 14
    frequency:   27.9473149415
  - # 15
    frequency:   28.1703573822

- q-position: [    0.1565657,    0.0000000,    0.0000000 ]
  distance:    0.0528996
  band:
  - # 1
    frequency:    1.2737892907
  - # 2
    frequency:    1.6726342205
  - # 3
    frequency:    2.9311807596
  - # 4
    frequency:    3.6052909371
  - # 5
    frequency:    4.2617577375
  - # 6
    frequency:    4.6795194063
  - # 7
    frequency:    5.4080243985
  - # 8
    frequency:    6.0391600408
  - # 9
    frequency:    8.0458422122
  - # 10
    frequency:   15.0928119906
  - # 11
    frequency:   16.4766085307
  - # 12
    frequency:   16.6824270019
  - # 13
    frequency:   25.8633084359
  - # 14
    frequency:   27.9055458519
  - # 15
    frequency:   28.1411039886

- q-position: [    0.1616162,    0.0000000,    0.0000000 ]
  distance:    0.0546060
  band:
  - # 1
    frequency:    1.3392271157
  - # 2
    frequency:    1.7371402162
  - # 3
    frequency:    3.0066942826
  - # 4
    frequency:    3.6199248352
  - # 5
    frequency:    4.2881745695
  - # 6
    frequency:    4.6917369747
  - # 7
    frequency:    5.4086692637
  - # 8
    frequency:    6.0569984188
  - # 9
    frequency:    8.0195037253
  - # 10
    frequency:   15.0787320961
  - # 11
    frequency:   16.4635930981
  - # 12
    frequency:   16.6751315147
  - # 13
    frequency:   25.8490754551
  - # 14
    frequency:   27.8638883805
  - # 15
    frequency:   28.1121128254

- q-position: [    0.1666667,    0.0000000,    0.0000000 ]
  distance:    0.0563124
  band:
  - # 1
    frequency:    1.4051108520
  - # 2
    frequency:    1.8017466099
  - # 3
    frequency:    3.0798236106
  - # 4
    frequency:    3.6351626552
  - # 5
    frequency:    4.3117781265
  - # 6
    frequency:    4.7080253243
  - # 7
    frequency:    5.4095706745
  - # 8
    frequency:    6.0743743700
  - # 9
    frequency:    7.9930007947
  - # 10
    frequency:   15.0646772911
  - # 11
    frequency:   16.4505630736
  - # 12
    frequency:   16.6672873105
  - # 13
    frequency:   25.8349521537
  - # 14
    frequency:   27.8224443778
  - # 15
    frequency:   28.0834778352

- q-position: [    0.1717172,    0.0000000,    0.0000000 ]
  distance:    0.0580189
  band:
  - # 1
    frequency:    1.4713557586
  - # 2
    frequency:    1.8663481358
  - # 3
    frequency:    3.1504140861
  - # 4
    frequency:    3.6510171529
  - # 5
    frequency:    4.3326685097
  - # 6
    frequency:    4.7283099368
  - # 7
    frequency:    5.4107321718
  - # 8
    frequency:    6.0913036049
  - # 9
    frequency:    7.9663760140
  - # 10
    frequency:   15.0506642991
  - # 11
    frequency:   16.4375696589
  - # 12
    frequency:   16.6589128505
  - # 13
    frequency:   25.8209612613
  - # 14
    frequency:   27.7813131579
  - # 15
    frequency:   28.0552927855

- q-position: [    0.1767677,    0.0000000,    0.0000000 ]
  distance:    0.0597253
  band:
  - # 1
    frequency:    1.5378775149
  - # 2
    frequency:    1.9308350873
  - # 3
    frequency:    3.2183071046
  - # 4
    frequency:    3.6675019041
  - # 5
    frequency:    4.3511583878
  - # 6
    frequency:    4.7523107135
  - # 7
    frequency:    5.4121551136
  - # 8
    frequency:    6.1078067733
  - # 9
    frequency:    7.9396710235
  - # 10
    frequency:   15.0367086878
  - # 11
    frequency:   16.4246664791
  - # 12
    frequency:   16.6500300741
  - # 13
    frequency:   25.8071219649
  - # 14
    frequency:   27.7405911363
  - # 15
    frequency:   28.0276510656

- q-position: [    0.1818182,    0.0000000,    0.0000000 ]
  distance:    0.0614317
  band:
  - # 1
    frequency:    1.6045920143
  - # 2
    frequency:    1.9950938242
  - # 3
    frequency:    3.2833420087
  - # 4
    frequency:    3.6846312702
  - # 5
    frequency:    4.3677289902
  - # 6
    frequency:    4.7795846511
  - # 7
    frequency:    5.4138386139
  - # 8
    frequency:    6.1239094269
  - # 9
    frequency:    7.9129264172
  - # 10
    frequency:   15.0228249802
  - # 11
    frequency:   16.4119094102
  - # 12
    frequency:   16.6406640867
  - # 13
    frequency:   25.7934497062
  - # 14
    frequency:   27.7003714828
  - # 15
    frequency:   28.0006454732

- q-position: [    0.1868687,    0.0000000,    0.0000000 ]
  distance:    0.0631382
  band:
  - # 1
    frequency:    1.6714151532
  - # 2
    frequency:    2.0590073458
  - # 3
    frequency:    3.3453590482
  - # 4
    frequency:    3.7024203088
  - # 5
    frequency:    4.3829574316
  - # 6
    frequency:    4.8095961939
  - # 7
    frequency:    5.4157795025
  - # 8
    frequency:    6.1396419083
  - # 9
    frequency:    7.8861816553
  - # 10
    frequency:   15.0090267677
  - # 11
    frequency:   16.3993563723
  - # 12
    frequency:   16.6308428153
  - # 13
    frequency:   25.7799560235
  - # 14
    frequency:   27.6607437910
  - # 15
    frequency:   27.9743679870

- q-position: [    0.1919192,    0.0000000,    0.0000000 ]
  distance:    0.0648446
  band:
  - # 1
    frequency:    1.7382626126
  - # 2
    frequency:    2.1224559423
  - # 3
    frequency:    3.4042037433
  - # 4
    frequency:    3.7208846160
  - # 5
    frequency:    4.3974436874
  - # 6
    frequency:    4.8417866229
  - # 7
    frequency:    5.4179723089
  - # 8
    frequency:    6.1550391518
  - # 9
    frequency:    7.8594749819
  - # 10
    frequency:   14.9953268236
  - # 11
    frequency:   16.3870670874
  - # 12
    frequency:   16.6205966386
  - # 13
    frequency:   25.7666484424
  - # 14
    frequency:   27.6217937676
  - # 15
    frequency:   27.9489095189

- q-position: [    0.1969697,    0.0000000,    0.0000000 ]
  distance:    0.0665511
  band:
  - # 1
    frequency:    1.8050496296
  - # 2
    frequency:    2.1853179348
  - # 3
    frequency:    3.4597329507
  - # 4
    frequency:    3.7400400870
  - # 5
    frequency:    4.4117557783
  - # 6
    frequency:    4.8756236307
  - # 7
    frequency:    5.4204092690
  - # 8
    frequency:    6.1701403757
  - # 9
    frequency:    7.8328433497
  - # 10
    frequency:   14.9817372120
  - # 11
    frequency:   16.3751028031
  - # 12
    frequency:   16.6099579978
  - # 13
    frequency:   25.7535304227
  - # 14
    frequency:   27.5836029413
  - # 15
    frequency:   27.9243596432

- q-position: [    0.2020202,    0.0000000,    0.0000000 ]
  distance:    0.0682575
  band:
  - # 1
    frequency:    1.8716907573
  - # 2
    frequency:    2.2474705185
  - # 3
    frequency:    3.5118227872
  - # 4
    frequency:    3.7599025818
  - # 5
    frequency:    4.4263968193
  - # 6
    frequency:    4.9106272866
  - # 7
    frequency:    5.4230803576
  - # 8
    frequency:    6.1849886481
  - # 9
    frequency:    7.8063223504
  - # 10
    frequency:   14.9682693908
  - # 11
    frequency:   16.3635259806
  - # 12
    frequency:   16.5989609933
  - # 13
    frequency:   25.7406013669
  - # 14
    frequency:   27.5462483935
  - # 15
    frequency:   27.9008062970

- q-position: [    0.2070707,    0.0000000,    0.0000000 ]
  distance:    0.0699639
  band:
  - # 1
    frequency:    1.9380996119
  - # 2
    frequency:    2.3087907173
  - # 3
    frequency:    3.5603782604
  - # 4
    frequency:    3.7804874817
  - # 5
    frequency:    4.4417885825
  - # 6
    frequency:    4.9463779020
  - # 7
    frequency:    5.4259733454
  - # 8
    frequency:    6.1996303068
  - # 9
    frequency:    7.7799461532
  - # 10
    frequency:   14.9549343069
  - # 11
    frequency:   16.3523999500
  - # 12
    frequency:   16.5876409753
  - # 13
    frequency:   25.7278566955
  - # 14
    frequency:   27.5098025132
  - # 15
    frequency:   27.8783354481

- q-position: [    0.2121212,    0.0000000,    0.0000000 ]
  distance:    0.0716704
  band:
  - # 1
    frequency:    2.0041886072
  - # 2