nqpoint: 300    
npath: 3      
segment_nqpoint:
- 100
- 100
- 100
labels:
- [ 'G', 'M' ]
- [ 'M', 'K' ]
- [ 'K', 'G' ]
reciprocal_lattice:
- [   0.30621060,   0.17679077,   0.00000000 ] # a*
- [   0.00000000,   0.35358154,   0.00000000 ] # b*
- [   0.00000000,   0.00000000,   0.04168239 ] # c*
natom: 6      
lattice:
- [     3.265726286140669,     0.000000000000000,     0.000000000000000 ] # a
- [    -1.632863143070334,     2.828201925599661,     0.000000000000000 ] # b
- [     0.000000000000000,     0.000000000000000,    23.990943903046361 ] # c
points:
- symbol: H # 1
  coordinates: [  0.666666984744047,  0.333332985985145,  0.375141554928866 ]
  mass: 1.007940
- symbol: N # 2
  coordinates: [  0.000000000000000,  0.000000000000000,  0.528388242275801 ]
  mass: 14.006700
- symbol: O # 3
  coordinates: [  0.333332985432215,  0.666666983183674,  0.624858445071134 ]
  mass: 15.999400
- symbol: O # 4
  coordinates: [  0.666666984744047,  0.333332985985145,  0.416492362315297 ]
  mass: 15.999400
- symbol: Zr # 5
  coordinates: [  0.333332985432215,  0.666666983183674,  0.473741157581914 ]
  mass: 91.224000
- symbol: Zr # 6
  coordinates: [  0.666666984744047,  0.333332985985145,  0.583188465410621 ]
  mass: 91.224000

phonon:
- q-position: [    0.0000000,    0.0000000,    0.0000000 ]
  distance:    0.0000000
  band:
  - # 1
    frequency:   -0.0000145193
  - # 2
    frequency:    0.0000003116
  - # 3
    frequency:    0.0000117568
  - # 4
    frequency:    3.3834168170
  - # 5
    frequency:    3.3834168171
  - # 6
    frequency:    5.4232462670
  - # 7
    frequency:    5.4232462670
  - # 8
    frequency:    6.1039010697
  - # 9
    frequency:   10.1589720220
  - # 10
    frequency:   10.1589720221
  - # 11
    frequency:   12.8639521056
  - # 12
    frequency:   13.4923463968
  - # 13
    frequency:   15.0457933032
  - # 14
    frequency:   15.0457933032
  - # 15
    frequency:   15.7084289510
  - # 16
    frequency:   15.7084289510
  - # 17
    frequency:   15.9457370070
  - # 18
    frequency:  106.5774695118

- q-position: [    0.0050505,    0.0000000,    0.0000000 ]
  distance:    0.0017858
  band:
  - # 1
    frequency:    0.0017209231
  - # 2
    frequency:    0.0834569971
  - # 3
    frequency:    0.1125556167
  - # 4
    frequency:    3.3838655691
  - # 5
    frequency:    3.3843439916
  - # 6
    frequency:    5.4231067398
  - # 7
    frequency:    5.4249642280
  - # 8
    frequency:    6.1051678149
  - # 9
    frequency:   10.1585022075
  - # 10
    frequency:   10.1591980727
  - # 11
    frequency:   12.8652320967
  - # 12
    frequency:   13.4916304593
  - # 13
    frequency:   15.0455052699
  - # 14
    frequency:   15.0455287927
  - # 15
    frequency:   15.7088921407
  - # 16
    frequency:   15.7089242494
  - # 17
    frequency:   15.9451902814
  - # 18
    frequency:  106.5775425684

- q-position: [    0.0101010,    0.0000000,    0.0000000 ]
  distance:    0.0035715
  band:
  - # 1
    frequency:    0.0068758778
  - # 2
    frequency:    0.1668855002
  - # 3
    frequency:    0.2250708608
  - # 4
    frequency:    3.3852119028
  - # 5
    frequency:    3.3871227290
  - # 6
    frequency:    5.4227091196
  - # 7
    frequency:    5.4301039567
  - # 8
    frequency:    6.1089471953
  - # 9
    frequency:   10.1570976466
  - # 10
    frequency:   10.1598761742
  - # 11
    frequency:   12.8690569771
  - # 12
    frequency:   13.4894869458
  - # 13
    frequency:   15.0446405863
  - # 14
    frequency:   15.0447304250
  - # 15
    frequency:   15.7102874444
  - # 16
    frequency:   15.7104021172
  - # 17
    frequency:   15.9435604354
  - # 18
    frequency:  106.5777612089

- q-position: [    0.0151515,    0.0000000,    0.0000000 ]
  distance:    0.0053573
  band:
  - # 1
    frequency:    0.0154411670
  - # 2
    frequency:    0.2502563583
  - # 3
    frequency:    0.3375036232
  - # 4
    frequency:    3.3874558922
  - # 5
    frequency:    3.3917450169
  - # 6
    frequency:    5.4221145536
  - # 7
    frequency:    5.4386233423
  - # 8
    frequency:    6.1151781975
  - # 9
    frequency:   10.1547728581
  - # 10
    frequency:   10.1610061733
  - # 11
    frequency:   12.8753812895
  - # 12
    frequency:   13.4859291223
  - # 13
    frequency:   15.0431974968
  - # 14
    frequency:   15.0433839919
  - # 15
    frequency:   15.7126317495
  - # 16
    frequency:   15.7128376060
  - # 17
    frequency:   15.9408793447
  - # 18
    frequency:  106.5781238478

- q-position: [    0.0202020,    0.0000000,    0.0000000 ]
  distance:    0.0071431
  band:
  - # 1
    frequency:    0.0273781028
  - # 2
    frequency:    0.3335391315
  - # 3
    frequency:    0.4498083287
  - # 4
    frequency:    3.3905971444
  - # 5
    frequency:    3.3981986372
  - # 6
    frequency:    5.4214194434
  - # 7
    frequency:    5.4504533535
  - # 8
    frequency:    6.1237640330
  - # 9
    frequency:   10.1515516166
  - # 10
    frequency:   10.1625878051
  - # 11
    frequency:   12.8841286152
  - # 12
    frequency:   13.4809803830
  - # 13
    frequency:   15.0411730582
  - # 14
    frequency:   15.0414667986
  - # 15
    frequency:   15.7159521659
  - # 16
    frequency:   15.7161860844
  - # 17
    frequency:   15.9372032481
  - # 18
    frequency:  106.5786278524

- q-position: [    0.0252525,    0.0000000,    0.0000000 ]
  distance:    0.0089288
  band:
  - # 1
    frequency:    0.0426340019
  - # 2
    frequency:    0.4167015160
  - # 3
    frequency:    0.5619342099
  - # 4
    frequency:    3.3946340758
  - # 5
    frequency:    3.4064687964
  - # 6
    frequency:    5.4207480751
  - # 7
    frequency:    5.4654996994
  - # 8
    frequency:    6.1345786256
  - # 9
    frequency:   10.1474663466
  - # 10
    frequency:   10.1646206809
  - # 11
    frequency:   12.8951903608
  - # 12
    frequency:   13.4746763742
  - # 13
    frequency:   15.0385631000
  - # 14
    frequency:   15.0389490892
  - # 15
    frequency:   15.7202845246
  - # 16
    frequency:   15.7203780397
  - # 17
    frequency:   15.9326180473
  - # 18
    frequency:  106.5792695573

- q-position: [    0.0303030,    0.0000000,    0.0000000 ]
  distance:    0.0107146
  band:
  - # 1
    frequency:    0.0611435513
  - # 2
    frequency:    0.4997088462
  - # 3
    frequency:    0.6738235920
  - # 4
    frequency:    3.3995629931
  - # 5
    frequency:    3.4165402715
  - # 6
    frequency:    5.4202438314
  - # 7
    frequency:    5.4836450255
  - # 8
    frequency:    6.1474742201
  - # 9
    frequency:   10.1425573298
  - # 10
    frequency:   10.1671042714
  - # 11
    frequency:   12.9084235633
  - # 12
    frequency:   13.4670684088
  - # 13
    frequency:   15.0353621462
  - # 14
    frequency:   15.0357959341
  - # 15
    frequency:   15.7253104271
  - # 16
    frequency:   15.7256713861
  - # 17
    frequency:   15.9272481173
  - # 18
    frequency:  106.5800442847

- q-position: [    0.0353535,    0.0000000,    0.0000000 ]
  distance:    0.0125004
  band:
  - # 1
    frequency:    0.0828304149
  - # 2
    frequency:    0.5825236931
  - # 3
    frequency:    0.7854101936
  - # 4
    frequency:    3.4053770583
  - # 5
    frequency:    3.4283999436
  - # 6
    frequency:    5.4200600259
  - # 7
    frequency:    5.5047515297
  - # 8
    frequency:    6.1622891340
  - # 9
    frequency:   10.1368717749
  - # 10
    frequency:   10.1700378883
  - # 11
    frequency:   12.9236471135
  - # 12
    frequency:   13.4582287206
  - # 13
    frequency:   15.0315632800
  - # 14
    frequency:   15.0319694725
  - # 15
    frequency:   15.7308329282
  - # 16
    frequency:   15.7321596657
  - # 17
    frequency:   15.9212702769
  - # 18
    frequency:  106.5809463700

- q-position: [    0.0404040,    0.0000000,    0.0000000 ]
  distance:    0.0142861
  band:
  - # 1
    frequency:    0.1076089893
  - # 2
    frequency:    0.6651055747
  - # 3
    frequency:    0.8966174505
  - # 4
    frequency:    3.4120652252
  - # 5
    frequency:    3.4420395743
  - # 6
    frequency:    5.4203512187
  - # 7
    frequency:    5.5286638722
  - # 8
    frequency:    6.1788548577
  - # 9
    frequency:   10.1304628040
  - # 10
    frequency:   10.1734206643
  - # 11
    frequency:   12.9406354504
  - # 12
    frequency:   13.4482584492
  - # 13
    frequency:   15.0271579334
  - # 14
    frequency:   15.0274313745
  - # 15
    frequency:   15.7367268557
  - # 16
    frequency:   15.7397980129
  - # 17
    frequency:   15.9149351941
  - # 18
    frequency:  106.5819691930

- q-position: [    0.0454545,    0.0000000,    0.0000000 ]
  distance:    0.0160719
  band:
  - # 1
    frequency:    0.1353862139
  - # 2
    frequency:    0.7474107854
  - # 3
    frequency:    1.0073568748
  - # 4
    frequency:    3.4196112276
  - # 5
    frequency:    3.4574586663
  - # 6
    frequency:    5.4212655977
  - # 7
    frequency:    5.5552122505
  - # 8
    frequency:    6.1970020000
  - # 9
    frequency:   10.1233884105
  - # 10
    frequency:   10.1772515345
  - # 11
    frequency:   12.9591082484
  - # 12
    frequency:   13.4372997764
  - # 13
    frequency:   15.0221355913
  - # 14
    frequency:   15.0221453674
  - # 15
    frequency:   15.7426746060
  - # 16
    frequency:   15.7486341032
  - # 17
    frequency:   15.9085983267
  - # 18
    frequency:  106.5831052141

- q-position: [    0.0505051,    0.0000000,    0.0000000 ]
  distance:    0.0178577
  band:
  - # 1
    frequency:    0.1660633466
  - # 2
    frequency:    0.8293923471
  - # 3
    frequency:    1.1175264678
  - # 4
    frequency:    3.4279926951
  - # 5
    frequency:    3.4746672468
  - # 6
    frequency:    5.4229387254
  - # 7
    frequency:    5.5842155175
  - # 8
    frequency:    6.2165648606
  - # 9
    frequency:   10.1157104419
  - # 10
    frequency:   10.1815292210
  - # 11
    frequency:   12.9787138339
  - # 12
    frequency:   13.4255544198
  - # 13
    frequency:   15.0160796637
  - # 14
    frequency:   15.0164834042
  - # 15
    frequency:   15.7482211968
  - # 16
    frequency:   15.7587120049
  - # 17
    frequency:   15.9027588612
  - # 18
    frequency:  106.5843460155

- q-position: [    0.0555556,    0.0000000,    0.0000000 ]
  distance:    0.0196434
  band:
  - # 1
    frequency:    0.1995376289
  - # 2
    frequency:    0.9110000814
  - # 3
    frequency:    1.2270092155
  - # 4
    frequency:    3.4371804499
  - # 5
    frequency:    3.4936884141
  - # 6
    frequency:    5.4254887306
  - # 7
    frequency:    5.6154842348
  - # 8
    frequency:    6.2373846372
  - # 9
    frequency:   10.1074936514
  - # 10
    frequency:   10.1862522211
  - # 11
    frequency:   12.9990030250
  - # 12
    frequency:   13.4133117392
  - # 13
    frequency:   15.0092091350
  - # 14
    frequency:   15.0101857159
  - # 15
    frequency:   15.7527428863
  - # 16
    frequency:   15.7700697814
  - # 17
    frequency:   15.8980916400
  - # 18
    frequency:  106.5856823470

- q-position: [    0.0606061,    0.0000000,    0.0000000 ]
  distance:    0.0214292
  band:
  - # 1
    frequency:    0.2357037753
  - # 2
    frequency:    0.9921807925
  - # 3
    frequency:    1.3356717117
  - # 4
    frequency:    3.4471380266
  - # 5
    frequency:    3.5145604924
  - # 6
    frequency:    5.4290128720
  - # 7
    frequency:    5.6488235729
  - # 8
    frequency:    6.2593114169
  - # 9
    frequency:   10.0988048564
  - # 10
    frequency:   10.1914188029
  - # 11
    frequency:   13.0193891872
  - # 12
    frequency:   13.4009906184
  - # 13
    frequency:   15.0015171012
  - # 14
    frequency:   15.0032235247
  - # 15
    frequency:   15.7554676307
  - # 16
    frequency:   15.7827374601
  - # 17
    frequency:   15.8954272948
  - # 18
    frequency:  106.5871041764

- q-position: [    0.0656566,    0.0000000,    0.0000000 ]
  distance:    0.0232149
  band:
  - # 1
    frequency:    0.2744552411
  - # 2
    frequency:    1.0728785513
  - # 3
    frequency:    1.4433629746
  - # 4
    frequency:    3.4578214346
  - # 5
    frequency:    3.5373386462
  - # 6
    frequency:    5.4335853268
  - # 7
    frequency:    5.6840359889
  - # 8
    frequency:    6.2822051734
  - # 9
    frequency:   10.0897122294
  - # 10
    frequency:   10.1970270076
  - # 11
    frequency:   13.0390913234
  - # 12
    frequency:   13.3891982665
  - # 13
    frequency:   14.9929966425
  - # 14
    frequency:   14.9955739065
  - # 15
    frequency:   15.7556166766
  - # 16
    frequency:   15.7967354665
  - # 17
    frequency:   15.8956112581
  - # 18
    frequency:  106.5886007433

- q-position: [    0.0707071,    0.0000000,    0.0000000 ]
  distance:    0.0250007
  band:
  - # 1
    frequency:    0.3156852405
  - # 2
    frequency:    1.1530350635
  - # 3
    frequency:    1.5499135529
  - # 4
    frequency:    3.4691791685
  - # 5
    frequency:    3.5620958048
  - # 6
    frequency:    5.4392560280
  - # 7
    frequency:    5.7209236356
  - # 8
    frequency:    6.3059360028
  - # 9
    frequency:   10.0802847385
  - # 10
    frequency:   10.2030746620
  - # 11
    frequency:   13.0570656167
  - # 12
    frequency:   13.3788004944
  - # 13
    frequency:   14.9836513874
  - # 14
    frequency:   14.9872094443
  - # 15
    frequency:   15.7526693754
  - # 16
    frequency:   15.8120735704
  - # 17
    frequency:   15.8992395172
  - # 18
    frequency:  106.5901606174

- q-position: [    0.0757576,    0.0000000,    0.0000000 ]
  distance:    0.0267865
  band:
  - # 1
    frequency:    0.3592875013
  - # 2
    frequency:    1.2325901074
  - # 3
    frequency:    1.6551350523
  - # 4
    frequency:    3.4811524552
  - # 5
    frequency:    3.5889227449
  - # 6
    frequency:    5.4460503756
  - # 7
    frequency:    5.7592904715
  - # 8
    frequency:    6.3303838160
  - # 9
    frequency:   10.0705917437
  - # 10
    frequency:   10.2095593989
  - # 11
    frequency:   13.0719594091
  - # 12
    frequency:   13.3709694607
  - # 13
    frequency:   14.9734957779
  - # 14
    frequency:   14.9780977182
  - # 15
    frequency:   15.7465730022
  - # 16
    frequency:   15.8287503475
  - # 17
    frequency:   15.9064492725
  - # 18
    frequency:  106.5917717593

- q-position: [    0.0808081,    0.0000000,    0.0000000 ]
  distance:    0.0285722
  band:
  - # 1
    frequency:    0.4051567589
  - # 2
    frequency:    1.3114820189
  - # 3
    frequency:    1.7588202596
  - # 4
    frequency:    3.4936757213
  - # 5
    frequency:    3.6179271636
  - # 6
    frequency:    5.4539696649
  - # 7
    frequency:    5.7989440606
  - # 8
    frequency:    6.3554376708
  - # 9
    frequency:   10.0607027476
  - # 10
    frequency:   10.2164786884
  - # 11
    frequency:   13.0821794508
  - # 12
    frequency:   13.3671170401
  - # 13
    frequency:   14.9625548589
  - # 14
    frequency:   14.9682009212
  - # 15
    frequency:   15.7376995134
  - # 16
    frequency:   15.8467531147
  - # 17
    frequency:   15.9169624995
  - # 18
    frequency:  106.5934215848

- q-position: [    0.0858586,    0.0000000,    0.0000000 ]
  distance:    0.0303580
  band:
  - # 1
    frequency:    0.4531890029
  - # 2
    frequency:    1.3896482076
  - # 3
    frequency:    1.8607440836
  - # 4
    frequency:    3.5066772516
  - # 5
    frequency:    3.6492315576
  - # 6
    frequency:    5.4629920883
  - # 7
    frequency:    5.8396970628
  - # 8
    frequency:    6.3809948918
  - # 9
    frequency:   10.0506872912
  - # 10
    frequency:   10.2238298769
  - # 11
    frequency:   13.0862008022
  - # 12
    frequency:   13.3685874257
  - # 13
    frequency:   14.9508636637
  - # 14
    frequency:   14.9574756727
  - # 15
    frequency:   15.7266202062
  - # 16
    frequency:   15.8660582677
  - # 17
    frequency:   15.9303113791
  - # 18
    frequency:  106.5950970313

- q-position: [    0.0909091,    0.0000000,    0.0000000 ]
  distance:    0.0321438
  band:
  - # 1
    frequency:    0.5032815000
  - # 2
    frequency:    1.4670256845
  - # 3
    frequency:    1.9606655727
  - # 4
    frequency:    3.5200800112
  - # 5
    frequency:    3.6829697047
  - # 6
    frequency:    5.4730741937
  - # 7
    frequency:    5.8813684260
  - # 8
    frequency:    6.4069600948
  - # 9
    frequency:   10.0406149802
  - # 10
    frequency:   10.2316102354
  - # 11
    frequency:   13.0830839216
  - # 12
    frequency:   13.3761414298
  - # 13
    frequency:   14.9384662926
  - # 14
    frequency:   14.9458731081
  - # 15
    frequency:   15.7139102180
  - # 16
    frequency:   15.8866319311
  - # 17
    frequency:   15.9460335815
  - # 18
    frequency:  106.5967846272

- q-position: [    0.0959596,    0.0000000,    0.0000000 ]
  distance:    0.0339295
  band:
  - # 1
    frequency:    0.5553326242
  - # 2
    frequency:    1.5435515812
  - # 3
    frequency:    2.0583312855
  - # 4
    frequency:    3.5338025999
  - # 5
    frequency:    3.7192815413
  - # 6
    frequency:    5.4841526907
  - # 7
    frequency:    5.9237842988
  - # 8
    frequency:    6.4332442018
  - # 9
    frequency:   10.0305556232
  - # 10
    frequency:   10.2398170116
  - # 11
    frequency:   13.0728236371
  - # 12
    frequency:   13.3896087854
  - # 13
    frequency:   14.9254147799
  - # 14
    frequency:   14.9333393160
  - # 15
    frequency:   15.7000643739
  - # 16
    frequency:   15.9084308274
  - # 17
    frequency:   15.9637558197
  - # 18
    frequency:  106.5984705614

- q-position: [    0.1010101,    0.0000000,    0.0000000 ]
  distance:    0.0357153
  band:
  - # 1
    frequency:    0.6092415254
  - # 2
    frequency:    1.6191636473
  - # 3
    frequency:    2.1534802619
  - # 4
    frequency:    3.5477603099
  - # 5
    frequency:    3.7583062610
  - # 6
    frequency:    5.4961465184
  - # 7
    frequency:    5.9667786874
  - # 8
    frequency:    6.4597635142
  - # 9
    frequency:   10.0205794586
  - # 10
    frequency:   10.2484474868
  - # 11
    frequency:   13.0561867162
  - # 12
    frequency:   13.4080517435
  - # 13
    frequency:   14.9117678422
  - # 14
    frequency:   14.9198161898
  - # 15
    frequency:   15.6854872856
  - # 16
    frequency:   15.9314032762
  - # 17
    frequency:   15.9832027060
  - # 18
    frequency:  106.6001407562

- q-position: [    0.1060606,    0.0000000,    0.0000000 ]
  distance:    0.0375011
  band:
  - # 1
    frequency:    0.6649076744
  - # 2
    frequency:    1.6938007081
  - # 3
    frequency:    2.2458507449
  - # 4
    frequency:    3.5618662611
  - # 5
    frequency:    3.8001735558
  - # 6
    frequency:    5.5089591026
  - # 7
    frequency:    6.0101938843
  - # 8
    frequency:    6.4864388940
  - # 9
    frequency:   10.0107574468
  - # 10
    frequency:   10.2574990316
  - # 11
    frequency:   13.0342407135
  - # 12
    frequency:   13.4302372924
  - # 13
    frequency:   14.8975895867
  - # 14
    frequency:   14.9052427353
  - # 15
    frequency:   15.6705098430
  - # 16
    frequency:   15.9554902500
  - # 17
    frequency:   16.0041787227
  - # 18
    frequency:  106.6017809389

- q-position: [    0.1111111,    0.0000000,    0.0000000 ]
  distance:    0.0392868
  band:
  - # 1
    frequency:    0.7222303150
  - # 2
    frequency:    1.7674030705
  - # 3
    frequency:    2.3351886112
  - # 4
    frequency:    3.5760325898
  - # 5
    frequency:    3.8449930977
  - # 6
    frequency:    5.5224807520
  - # 7
    frequency:    6.0538806961
  - # 8
    frequency:    6.5131950916
  - # 9
    frequency:   10.0011615999
  - # 10
    frequency:   10.2669691582
  - # 11
    frequency:   13.0079866116
  - # 12
    frequency:   13.4550054967
  - # 13
    frequency:   14.8829482390
  - # 14
    frequency:   14.8895568476
  - # 15
    frequency:   15.6554083202
  - # 16
    frequency:   15.9806264288
  - # 17
    frequency:   16.0265470668
  - # 18
    frequency:  106.6033767160

- q-position: [    0.1161616,    0.0000000,    0.0000000 ]
  distance:    0.0410726
  band:
  - # 1
    frequency:    0.7811078567
  - # 2
    frequency:    1.8399128649
  - # 3
    frequency:    2.4212571759
  - # 4
    frequency:    3.5901716743
  - # 5
    frequency:    3.8928426352
  - # 6
    frequency:    5.5365911633
  - # 7
    frequency:    6.0976985003
  - # 8
    frequency:    6.5399602486
  - # 9
    frequency:    9.9918653245
  - # 10
    frequency:   10.2768555635
  - # 11
    frequency:   12.9782203229
  - # 12
    frequency:   13.4814089012
  - # 13
    frequency:   14.8679149376
  - # 14
    frequency:   14.8726975232
  - # 15
    frequency:   15.6404189065
  - # 16
    frequency:   16.0067412125
  - # 17
    frequency:   16.0502125866
  - # 18
    frequency:  106.6049136458

- q-position: [    0.1212121,    0.0000000,    0.0000000 ]
  distance:    0.0428584
  band:
  - # 1
    frequency:    0.8414372309
  - # 2
    frequency:    1.9112743130
  - # 3
    frequency:    2.5038476724
  - # 4
    frequency:    3.6041973790
  - # 5
    frequency:    3.9437554138
  - # 6
    frequency:    5.5511620380
  - # 7
    frequency:    6.1415151588
  - # 8
    frequency:    6.5666655952
  - # 9
    frequency:    9.9829437456
  - # 10
    frequency:   10.2871561601
  - # 11
    frequency:   12.9455334849
  - # 12
    frequency:   13.5087125856
  - # 13
    frequency:   14.8525626206
  - # 14
    frequency:   14.8546074272
  - # 15
    frequency:   15.6257470398
  - # 16
    frequency:   16.0337596660
  - # 17
    frequency:   16.0751095016
  - # 18
    frequency:  106.6063773118

- q-position: [    0.1262626,    0.0000000,    0.0000000 ]
  distance:    0.0446441
  band:
  - # 1
    frequency:    0.9031132340
  - # 2
    frequency:    1.9814339126
  - # 3
    frequency:    2.5827893471
  - # 4
    frequency:    3.6180263085
  - # 5
    frequency:    3.9977079594
  - # 6
    frequency:    5.5660598435
  - # 7
    frequency:    6.1852068172
  - # 8
    frequency:    6.5932453582
  - # 9
    frequency:    9.9744739882
  - # 10
    frequency:   10.2978690891
  - # 11
    frequency:   12.9103590437
  - # 12
    frequency:   13.5363493886
  - # 13
    frequency:   14.8352356751
  - # 14
    frequency:   14.8369650223
  - # 15
    frequency:   15.6115726915
  - # 16
    frequency:   16.0616033846
  - # 17
    frequency:   16.1011928864
  - # 18
    frequency:  106.6077533948

- q-position: [    0.1313131,    0.0000000,    0.0000000 ]
  distance:    0.0464299
  band:
  - # 1
    frequency:    0.9660278664
  - # 2
    frequency:    2.0503405310
  - # 3
    frequency:    2.6579578676
  - # 4
    frequency:    3.6315790619
  - # 5
    frequency:    4.0546094687
  - # 6
    frequency:    5.5811487926
  - # 7
    frequency:    6.2286576133
  - # 8
    frequency:    6.6196368817
  - # 9
    frequency:    9.9665353838
  - # 10
    frequency:   10.3089927104
  - # 11
    frequency:   12.8730180183
  - # 12
    frequency:   13.5638739282
  - # 13
    frequency:   14.8145406496
  - # 14
    frequency:   14.8211957855
  - # 15
    frequency:   15.5980529105
  - # 16
    frequency:   16.0901912759
  - # 17
    frequency:   16.1284327786
  - # 18
    frequency:  106.6090277444

- q-position: [    0.1363636,    0.0000000,    0.0000000 ]
  distance:    0.0482157
  band:
  - # 1
    frequency:    1.0300696769
  - # 2
    frequency:    2.1179453994
  - # 3
    frequency:    2.7292807467
  - # 4
    frequency:    3.6447814829
  - # 5
    frequency:    4.1142940034
  - # 6
    frequency:    5.5962941628
  - # 7
    frequency:    6.2717593229
  - # 8
    frequency:    6.6457809603
  - # 9
    frequency:    9.9592095774
  - # 10
    frequency:   10.3205255672
  - # 11
    frequency:   12.8337555618
  - # 12
    frequency:   13.5909273167
  - # 13
    frequency:   14.7924926394
  - # 14
    frequency:   14.8053276881
  - # 15
    frequency:   15.5853226905
  - # 16
    frequency:   16.1194402612
  - # 17
    frequency:   16.1568100477
  - # 18
    frequency:  106.6101864490

- q-position: [    0.1414141,    0.0000000,    0.0000000 ]
  distance:    0.0500014
  band:
  - # 1
    frequency:    1.0951231047
  - # 2
    frequency:    2.1842020015
  - # 3
    frequency:    2.7967388010
  - # 4
    frequency:    3.6575659033
  - # 5
    frequency:    4.1765163197
  - # 6
    frequency:    5.6113661299
  - # 7
    frequency:    6.3144109635
  - # 8
    frequency:    6.6716223692
  - # 9
    frequency:    9.9525805066
  - # 10
    frequency:   10.3324663192
  - # 11
    frequency:   12.7927661851
  - # 12
    frequency:   13.6172127152
  - # 13
    frequency:   14.7690760926
  - # 14
    frequency:   14.7894319800
  - # 15
    frequency:   15.5734949560
  - # 16
    frequency:   16.1492659023
  - # 17
    frequency:   16.1863134312
  - # 18
    frequency:  106.6112159039

- q-position: [    0.1464646,    0.0000000,    0.0000000 ]
  distance:    0.0517872
  band:
  - # 1
    frequency:    1.1610678114
  - # 2
    frequency:    2.2490658474
  - # 3
    frequency:    2.8603632639
  - # 4
    frequency:    3.6698723816
  - # 5
    frequency:    4.2409515163
  - # 6
    frequency:    5.6262443528
  - # 7
    frequency:    6.3565183772
  - # 8
    frequency:    6.6971105673
  - # 9
    frequency:    9.9467342288
  - # 10
    frequency:   10.3448136434
  - # 11
    frequency:   12.7502107773
  - # 12
    frequency:   13.6424790976
  - # 13
    frequency:   14.7442913049
  - # 14
    frequency:   14.7735778225
  - # 15
    frequency:   15.5626602247
  - # 16
    frequency:   16.1795829630
  - # 17
    frequency:   16.2169373542
  - # 18
    frequency:  106.6121028774

- q-position: [    0.1515152,    0.0000000,    0.0000000 ]
  distance:    0.0535730
  band:
  - # 1
    frequency:    1.2277779786
  - # 2
    frequency:    2.3124941247
  - # 3
    frequency:    2.9202289011
  - # 4
    frequency:    3.6816499376
  - # 5
    frequency:    4.3071978950
  - # 6
    frequency:    5.6408236164
  - # 7
    frequency:    6.3979938124
  - # 8
    frequency:    6.7222005338
  - # 9
    frequency:    9.9417585747
  - # 10
    frequency:   10.3575660996
  - # 11
    frequency:   12.7062279776
  - # 12
    frequency:   13.6665106661
  - # 13
    frequency:   14.7181554292
  - # 14
    frequency:   14.7578318223
  - # 15
    frequency:   15.5528863171
  - # 16
    frequency:   16.2103059137
  - # 17
    frequency:   16.2486802856
  - # 18
    frequency:  106.6128345752

- q-position: [    0.1565657,    0.0000000,    0.0000000 ]
  distance:    0.0553587
  band:
  - # 1
    frequency:    1.2951215416
  - # 2
    frequency:    2.3744452176
  - # 3
    frequency:    2.9764441239
  - # 4
    frequency:    3.6928577920
  - # 5
    frequency:    4.3747817273
  - # 6
    frequency:    5.6550209072
  - # 7
    frequency:    6.4387555191
  - # 8
    frequency:    6.7468536848
  - # 9
    frequency:    9.9377426120
  - # 10
    frequency:   10.3707219600
  - # 11
    frequency:   12.6609417856
  - # 12
    frequency:   13.6891200116
  - # 13
    frequency:   14.6907027718
  - # 14
    frequency:   14.7422576503
  - # 15
    frequency:   15.5442183264
  - # 16
    frequency:   16.2413493870
  - # 17
    frequency:   16.2815434699
  - # 18
    frequency:  106.6133987013

- q-position: [    0.1616162,    0.0000000,    0.0000000 ]
  distance:    0.0571445
  band:
  - # 1
    frequency:    1.3629593163
  - # 2
    frequency:    2.4348780815
  - # 3
    frequency:    3.0291394838
  - # 4
    frequency:    3.7034666160
  - # 5
    frequency:    4.4431621902
  - # 6
    frequency:    5.6687843593
  - # 7
    frequency:    6.4787273730
  - # 8
    frequency:    6.7710388032
  - # 9
    frequency:    9.9347759086
  - # 10
    frequency:   10.3842790048
  - # 11
    frequency:   12.6144666863
  - # 12
    frequency:   13.7101437147
  - # 13
    frequency:   14.6619844236
  - # 14
    frequency:   14.7269157384
  - # 15
    frequency:   15.5366789334
  - # 16
    frequency:   16.2726285922
  - # 17
    frequency:   16.3155299319
  - # 18
    frequency:  106.6137835169

- q-position: [    0.1666667,    0.0000000,    0.0000000 ]
  distance:    0.0589303
  band:
  - # 1
    frequency:    1.4311439647
  - # 2
    frequency:    2.4937514616
  - # 3
    frequency:    3.0784559808
  - # 4
    frequency:    3.7134598043
  - # 5
    frequency:    4.5117346814
  - # 6
    frequency:    5.6821045215
  - # 7
    frequency:    6.5178385390
  - # 8
    frequency:    6.7947328993
  - # 9
    frequency:    9.9329475940
  - # 10
    frequency:   10.3982342848
  - # 11
    frequency:   12.5669111240
  - # 12
    frequency:   13.7294395041
  - # 13
    frequency:   14.6320673505
  - # 14
    frequency:   14.7118630453
  - # 15
    frequency:   15.5302690675
  - # 16
    frequency:   16.3040596947
  - # 17
    frequency:   16.3506436805
  - # 18
    frequency:  106.6139778959

- q-position: [    0.1717172,    0.0000000,    0.0000000 ]
  distance:    0.0607160
  band:
  - # 1
    frequency:    1.4995187286
  - # 2
    frequency:    2.5510229430
  - # 3
    frequency:    3.1245343796
  - # 4
    frequency:    3.7228347821
  - # 5
    frequency:    4.5798310618
  - # 6
    frequency:    5.6950283181
  - # 7
    frequency:    6.5560231815
  - # 8
    frequency:    6.8179219138
  - # 9
    frequency:    9.9323452251
  - # 10
    frequency:   10.4125838563
  - # 11
    frequency:   12.5183798683
  - # 12
    frequency:   13.7468843695
  - # 13
    frequency:   14.6010331105
  - # 14
    frequency:   14.6971528836
  - # 15
    frequency:   15.5249688537
  - # 16
    frequency:   16.3355601656
  - # 17
    frequency:   16.3868890616
  - # 18
    frequency:  106.6139713770

- q-position: [    0.1767677,    0.0000000,    0.0000000 ]
  distance:    0.0625018
  band:
  - # 1
    frequency:    1.5679158428
  - # 2
    frequency:    2.6066478202
  - # 3
    frequency:    3.1675063335
  - # 4
    frequency:    3.7316043572
  - # 5
    frequency:    4.6467160819
  - # 6
    frequency:    5.7076757649
  - # 7
    frequency:    6.5932202285
  - # 8
    frequency:    6.8406011672
  - # 9
    frequency:    9.9330534781
  - # 10
    frequency:   10.4273224926
  - # 11
    frequency:   12.4689756244
  - # 12
    frequency:   13.7623732039
  - # 13
    frequency:   14.5689763891
  - # 14