nqpoint: 300    
npath: 3      
segment_nqpoint:
- 100
- 100
- 100
labels:
- [ 'G', 'M' ]
- [ 'M', 'K' ]
- [ 'K', 'G' ]
reciprocal_lattice:
- [   0.30050577,   0.17349709,   0.00000000 ] # a*
- [   0.00000000,   0.34699417,   0.00000000 ] # b*
- [   0.00000000,   0.00000000,   0.03982268 ] # c*
natom: 6      
lattice:
- [     3.327723136458043,     0.000000000000000,     0.000000000000000 ] # a
- [    -1.663861568229021,     2.881892772928047,     0.000000000000000 ] # b
- [     0.000000000000000,     0.000000000000000,    25.111316745729429 ] # c
points:
- symbol: C # 1
  coordinates: [  0.000000000000000,  0.000000000000000,  0.453195646996621 ]
  mass: 12.010700
- symbol: O # 2
  coordinates: [  0.333332985432215,  0.666666983183674,  0.641595855321661 ]
  mass: 15.999400
- symbol: O # 3
  coordinates: [  0.666666984744047,  0.333332985985145,  0.358404144678339 ]
  mass: 15.999400
- symbol: P # 4
  coordinates: [  0.333332985432215,  0.666666983183674,  0.582156554482025 ]
  mass: 30.973762
- symbol: Zr # 5
  coordinates: [  0.333332985432215,  0.666666983183674,  0.395975476126001 ]
  mass: 91.224000
- symbol: Zr # 6
  coordinates: [  0.666666984744047,  0.333332985985145,  0.503075827973292 ]
  mass: 91.224000

phonon:
- q-position: [    0.0000000,    0.0000000,    0.0000000 ]
  distance:    0.0000000
  band:
  - # 1
    frequency:   -2.5498212478
  - # 2
    frequency:   -2.5498212477
  - # 3
    frequency:   -0.0000139661
  - # 4
    frequency:   -0.0000000883
  - # 5
    frequency:    0.0000132406
  - # 6
    frequency:    1.1159881197
  - # 7
    frequency:    1.1159881198
  - # 8
    frequency:    3.9479737693
  - # 9
    frequency:    3.9479737693
  - # 10
    frequency:    5.0778965046
  - # 11
    frequency:    5.0778965046
  - # 12
    frequency:    5.6061171176
  - # 13
    frequency:    8.6299760827
  - # 14
    frequency:   14.2693325742
  - # 15
    frequency:   14.2693325743
  - # 16
    frequency:   14.6140688389
  - # 17
    frequency:   17.9422944503
  - # 18
    frequency:   34.2539133302

- q-position: [    0.0050505,    0.0000000,    0.0000000 ]
  distance:    0.0017525
  band:
  - # 1
    frequency:   -2.5473934475
  - # 2
    frequency:   -2.5363459590
  - # 3
    frequency:    0.0006417744
  - # 4
    frequency:    0.0672651494
  - # 5
    frequency:    0.1116350685
  - # 6
    frequency:    1.1095523860
  - # 7
    frequency:    1.1266593104
  - # 8
    frequency:    3.9489221242
  - # 9
    frequency:    3.9499265895
  - # 10
    frequency:    5.0764078869
  - # 11
    frequency:    5.0773659598
  - # 12
    frequency:    5.6070837944
  - # 13
    frequency:    8.6296443853
  - # 14
    frequency:   14.2689431599
  - # 15
    frequency:   14.2693677827
  - # 16
    frequency:   14.6141753292
  - # 17
    frequency:   17.9423124022
  - # 18
    frequency:   34.2536850692

- q-position: [    0.0101010,    0.0000000,    0.0000000 ]
  distance:    0.0035050
  band:
  - # 1
    frequency:   -2.5402980406
  - # 2
    frequency:   -2.4964110071
  - # 3
    frequency:   -0.0009964822
  - # 4
    frequency:    0.1332026950
  - # 5
    frequency:    0.2147833496
  - # 6
    frequency:    1.0921363566
  - # 7
    frequency:    1.1599120074
  - # 8
    frequency:    3.9518049873
  - # 9
    frequency:    3.9557810694
  - # 10
    frequency:    5.0719824593
  - # 11
    frequency:    5.0757829479
  - # 12
    frequency:    5.6099573863
  - # 13
    frequency:    8.6286467296
  - # 14
    frequency:   14.2677821237
  - # 15
    frequency:   14.2694764048
  - # 16
    frequency:   14.6144921730
  - # 17
    frequency:   17.9423641193
  - # 18
    frequency:   34.2530007488

- q-position: [    0.0151515,    0.0000000,    0.0000000 ]
  distance:    0.0052575
  band:
  - # 1
    frequency:   -2.5291058906
  - # 2
    frequency:   -2.4316773164
  - # 3
    frequency:   -0.0096384736
  - # 4
    frequency:    0.1966516614
  - # 5
    frequency:    0.2955273274
  - # 6
    frequency:    1.0709235140
  - # 7
    frequency:    1.2192817559
  - # 8
    frequency:    3.9567411492
  - # 9
    frequency:    3.9655254282
  - # 10
    frequency:    5.0647372421
  - # 11
    frequency:    5.0731736133
  - # 12
    frequency:    5.6146626067
  - # 13
    frequency:    8.6269755178
  - # 14
    frequency:   14.2658707541
  - # 15
    frequency:   14.2696674243
  - # 16
    frequency:   14.6150117694
  - # 17
    frequency:   17.9424432163
  - # 18
    frequency:   34.2518617551

- q-position: [    0.0202020,    0.0000000,    0.0000000 ]
  distance:    0.0070100
  band:
  - # 1
    frequency:   -2.5147908694
  - # 2
    frequency:   -2.3455338234
  - # 3
    frequency:   -0.0315886014
  - # 4
    frequency:    0.2569074750
  - # 5
    frequency:    0.3265739925
  - # 6
    frequency:    1.0621516318
  - # 7
    frequency:    1.3099516872
  - # 8
    frequency:    3.9639478679
  - # 9
    frequency:    3.9791405364
  - # 10
    frequency:    5.0548543062
  - # 11
    frequency:    5.0695825274
  - # 12
    frequency:    5.6210862166
  - # 13
    frequency:    8.6246183949
  - # 14
    frequency:   14.2632434555
  - # 15
    frequency:   14.2699557917
  - # 16
    frequency:   14.6157223565
  - # 17
    frequency:   17.9425391507
  - # 18
    frequency:   34.2502703940

- q-position: [    0.0252525,    0.0000000,    0.0000000 ]
  distance:    0.0087625
  band:
  - # 1
    frequency:   -2.4987617400
  - # 2
    frequency:   -2.2439097200
  - # 3
    frequency:   -0.0981870724
  - # 4
    frequency:    0.2622003740
  - # 5
    frequency:    0.3140816846
  - # 6
    frequency:    1.0887328494
  - # 7
    frequency:    1.4374075681
  - # 8
    frequency:    3.9737747475
  - # 9
    frequency:    3.9966005592
  - # 10
    frequency:    5.0425650238
  - # 11
    frequency:    5.0650744718
  - # 12
    frequency:    5.6290918070
  - # 13
    frequency:    8.6215586951
  - # 14
    frequency:   14.2599462367
  - # 15
    frequency:   14.2703623913
  - # 16
    frequency:   14.6166092684
  - # 17
    frequency:   17.9426373702
  - # 18
    frequency:   34.2482298837

- q-position: [    0.0303030,    0.0000000,    0.0000000 ]
  distance:    0.0105150
  band:
  - # 1
    frequency:   -2.4829028513
  - # 2
    frequency:   -2.1358366989
  - # 3
    frequency:   -0.3149503524
  - # 4
    frequency:    0.1620952265
  - # 5
    frequency:    0.3692495983
  - # 6
    frequency:    1.1607588787
  - # 7
    frequency:    1.6052696410
  - # 8
    frequency:    3.9867628763
  - # 9
    frequency:    4.0178736226
  - # 10
    frequency:    5.0281337077
  - # 11
    frequency:    5.0597376284
  - # 12
    frequency:    5.6385350460
  - # 13
    frequency:    8.6177760383
  - # 14
    frequency:   14.2560347768
  - # 15
    frequency:   14.2709139920
  - # 16
    frequency:   14.6176565130
  - # 17
    frequency:   17.9427195161
  - # 18
    frequency:   34.2457443455

- q-position: [    0.0353535,    0.0000000,    0.0000000 ]
  distance:    0.0122675
  band:
  - # 1
    frequency:   -2.4696166507
  - # 2
    frequency:   -2.0327123720
  - # 3
    frequency:   -0.5469724369
  - # 4
    frequency:    0.1591440003
  - # 5
    frequency:    0.4241330568
  - # 6
    frequency:    1.2681410235
  - # 7
    frequency:    1.8127185824
  - # 8
    frequency:    4.0037457053
  - # 9
    frequency:    4.0429222525
  - # 10
    frequency:    5.0118435178
  - # 11
    frequency:    5.0536892137
  - # 12
    frequency:    5.6492767714
  - # 13
    frequency:    8.6132470496
  - # 14
    frequency:   14.2515722091
  - # 15
    frequency:   14.2716431844
  - # 16
    frequency:   14.6188485331
  - # 17
    frequency:   17.9427636763
  - # 18
    frequency:   34.2428187914

- q-position: [    0.0404040,    0.0000000,    0.0000000 ]
  distance:    0.0140200
  band:
  - # 1
    frequency:   -2.4618482613
  - # 2
    frequency:   -1.9455650642
  - # 3
    frequency:   -0.7405506675
  - # 4
    frequency:    0.1812056581
  - # 5
    frequency:    0.4804481528
  - # 6
    frequency:    1.3972923893
  - # 7
    frequency:    2.0529589739
  - # 8
    frequency:    4.0260210907
  - # 9
    frequency:    4.0717032221
  - # 10
    frequency:    4.9939862679
  - # 11
    frequency:    5.0470856402
  - # 12
    frequency:    5.6611926501
  - # 13
    frequency:    8.6079461719
  - # 14
    frequency:   14.2466267496
  - # 15
    frequency:   14.2725882980
  - # 16
    frequency:   14.6201720228
  - # 17
    frequency:   17.9427446870
  - # 18
    frequency:   34.2394591087

- q-position: [    0.0454545,    0.0000000,    0.0000000 ]
  distance:    0.0157725
  band:
  - # 1
    frequency:   -2.4630407371
  - # 2
    frequency:   -1.8816876142
  - # 3
    frequency:   -0.9043860306
  - # 4
    frequency:    0.2129235599
  - # 5
    frequency:    0.5393456761
  - # 6
    frequency:    1.5393115056
  - # 7
    frequency:    2.3142385286
  - # 8
    frequency:    4.0556434446
  - # 9
    frequency:    4.1041662757
  - # 10
    frequency:    4.9748567195
  - # 11
    frequency:    5.0401415907
  - # 12
    frequency:    5.6741793289
  - # 13
    frequency:    8.6018465399
  - # 14
    frequency:   14.2412692788
  - # 15
    frequency:   14.2737933013
  - # 16
    frequency:   14.6216176950
  - # 17
    frequency:   17.9426344739
  - # 18
    frequency:   34.2356720432

- q-position: [    0.0505051,    0.0000000,    0.0000000 ]
  distance:    0.0175250
  band:
  - # 1
    frequency:   -2.4769167423
  - # 2
    frequency:   -1.8432772161
  - # 3
    frequency:   -1.0415568726
  - # 4
    frequency:    0.2511494565
  - # 5
    frequency:    0.6012351466
  - # 6
    frequency:    1.6890064364
  - # 7
    frequency:    2.5826115332
  - # 8
    frequency:    4.0959000903
  - # 9
    frequency:    4.1402509019
  - # 10
    frequency:    4.9547514619
  - # 11
    frequency:    5.0331679229
  - # 12
    frequency:    5.6881577367
  - # 13
    frequency:    8.5949208817
  - # 14
    frequency:   14.2355709494
  - # 15
    frequency:   14.2753076774
  - # 16
    frequency:   14.6231819282
  - # 17
    frequency:   17.9424024306
  - # 18
    frequency:   34.2314651779

- q-position: [    0.0555556,    0.0000000,    0.0000000 ]
  distance:    0.0192775
  band:
  - # 1
    frequency:   -2.5069538610
  - # 2
    frequency:   -1.8286384726
  - # 3
    frequency:   -1.1527065270
  - # 4
    frequency:    0.2948614501
  - # 5
    frequency:    0.6659461056
  - # 6
    frequency:    1.8431234779
  - # 7
    frequency:    2.8438518495
  - # 8
    frequency:    4.1519734111
  - # 9
    frequency:    4.1798798125
  - # 10
    frequency:    4.9339726804
  - # 11
    frequency:    5.0266529337
  - # 12
    frequency:    5.7030744563
  - # 13
    frequency:    8.5871424190
  - # 14
    frequency:   14.2296008653
  - # 15
    frequency:   14.2771862751
  - # 16
    frequency:   14.6248682504
  - # 17
    frequency:   17.9420158254
  - # 18
    frequency:   34.2268469116

- q-position: [    0.0606061,    0.0000000,    0.0000000 ]
  distance:    0.0210299
  band:
  - # 1
    frequency:   -2.5555461349
  - # 2
    frequency:   -1.8342352943
  - # 3
    frequency:   -1.2381410609
  - # 4
    frequency:    0.3436269732
  - # 5
    frequency:    0.7330089613
  - # 6
    frequency:    1.9993773526
  - # 7
    frequency:    3.0836434693
  - # 8
    frequency:    4.2229467915
  - # 9
    frequency:    4.2313666345
  - # 10
    frequency:    4.9128380627
  - # 11
    frequency:    5.0214548247
  - # 12
    frequency:    5.7189020493
  - # 13
    frequency:    8.5784857372
  - # 14
    frequency:   14.2234238550
  - # 15
    frequency:   14.2794891295
  - # 16
    frequency:   14.6266886418
  - # 17
    frequency:   17.9414402320
  - # 18
    frequency:   34.2218264331

- q-position: [    0.0656566,    0.0000000,    0.0000000 ]
  distance:    0.0227824
  band:
  - # 1
    frequency:   -2.6231938220
  - # 2
    frequency:   -1.8561893814
  - # 3
    frequency:   -1.2992115642
  - # 4
    frequency:    0.3972097248
  - # 5
    frequency:    0.8018857145
  - # 6
    frequency:    2.1560056661
  - # 7
    frequency:    3.2881980874
  - # 8
    frequency:    4.2692945874
  - # 9
    frequency:    4.3423682049
  - # 10
    frequency:    4.8917001783
  - # 11
    frequency:    5.0193207719
  - # 12
    frequency:    5.7356390416
  - # 13
    frequency:    8.5689276029
  - # 14
    frequency:   14.2170983493
  - # 15
    frequency:   14.2822812471
  - # 16
    frequency:   14.6286646513
  - # 17
    frequency:   17.9406399773
  - # 18
    frequency:   34.2164136939

- q-position: [    0.0707071,    0.0000000,    0.0000000 ]
  distance:    0.0245349
  band:
  - # 1
    frequency:   -2.7083008227
  - # 2
    frequency:   -1.8909995051
  - # 3
    frequency:   -1.3388263661
  - # 4
    frequency:    0.4554273201
  - # 5
    frequency:    0.8720974537
  - # 6
    frequency:    2.3115699960
  - # 7
    frequency:    3.4483740102
  - # 8
    frequency:    4.3186742545
  - # 9
    frequency:    4.4875871156
  - # 10
    frequency:    4.8709830570
  - # 11
    frequency:    5.0245334630
  - # 12
    frequency:    5.7533100798
  - # 13
    frequency:    8.5584477093
  - # 14
    frequency:   14.2106743716
  - # 15
    frequency:   14.2856323494
  - # 16
    frequency:   14.6308283233
  - # 17
    frequency:   17.9395786003
  - # 18
    frequency:   34.2106193793

- q-position: [    0.0757576,    0.0000000,    0.0000000 ]
  distance:    0.0262874
  band:
  - # 1
    frequency:   -2.8077854888
  - # 2
    frequency:   -1.9357610910
  - # 3
    frequency:   -1.3610242801
  - # 4
    frequency:    0.5180829977
  - # 5
    frequency:    0.9432686056
  - # 6
    frequency:    2.4648646978
  - # 7
    frequency:    3.5649722279
  - # 8
    frequency:    4.3706676615
  - # 9
    frequency:    4.6520614327
  - # 10
    frequency:    4.8512535273
  - # 11
    frequency:    5.0499287460
  - # 12
    frequency:    5.7719666043
  - # 13
    frequency:    8.5470293366
  - # 14
    frequency:   14.2041916599
  - # 15
    frequency:   14.2896165671
  - # 16
    frequency:   14.6332229275
  - # 17
    frequency:   17.9382193164
  - # 18
    frequency:   34.2044548762

- q-position: [    0.0808081,    0.0000000,    0.0000000 ]
  distance:    0.0280399
  band:
  - # 1
    frequency:   -2.9180507015
  - # 2
    frequency:   -1.9881553728
  - # 3
    frequency:   -1.3701157201
  - # 4
    frequency:    0.5849262226
  - # 5
    frequency:    1.0151253219
  - # 6
    frequency:    2.6148718914
  - # 7
    frequency:    3.6472534884
  - # 8
    frequency:    4.4245319781
  - # 9
    frequency:    4.7887851910
  - # 10
    frequency:    4.8333679790
  - # 11
    frequency:    5.1324684172
  - # 12
    frequency:    5.7916882630
  - # 13
    frequency:    8.5346599167
  - # 14
    frequency:   14.1976779512
  - # 15
    frequency:   14.2943120766
  - # 16
    frequency:   14.6359034656
  - # 17
    frequency:   17.9365254822
  - # 18
    frequency:   34.1979322395

- q-position: [    0.0858586,    0.0000000,    0.0000000 ]
  distance:    0.0297924
  band:
  - # 1
    frequency:   -3.0357362737
  - # 2
    frequency:   -2.0463590792
  - # 3
    frequency:   -1.3699930493
  - # 4
    frequency:    0.6556306179
  - # 5
    frequency:    1.0874761145
  - # 6
    frequency:    2.7607367873
  - # 7
    frequency:    3.7060872159
  - # 8
    frequency:    4.4788722973
  - # 9
    frequency:    4.8187881865
  - # 10
    frequency:    4.8533981190
  - # 11
    frequency:    5.3051696959
  - # 12
    frequency:    5.8125851988
  - # 13
    frequency:    8.5213314983
  - # 14
    frequency:   14.1911474838
  - # 15
    frequency:   14.2998006677
  - # 16
    frequency:   14.6389369157
  - # 17
    frequency:   17.9344610556
  - # 18
    frequency:   34.1910641573

- q-position: [    0.0909091,    0.0000000,    0.0000000 ]
  distance:    0.0315449
  band:
  - # 1
    frequency:   -3.1580593092
  - # 2
    frequency:   -2.1089416110
  - # 3
    frequency:   -1.3638199522
  - # 4
    frequency:    0.7297877127
  - # 5
    frequency:    1.1601896856
  - # 6
    frequency:    2.9017528837
  - # 7
    frequency:    3.7498020505
  - # 8
    frequency:    4.5309618312
  - # 9
    frequency:    4.8102470542
  - # 10
    frequency:    4.8730354028
  - # 11
    frequency:    5.5322700775
  - # 12
    frequency:    5.8348012673
  - # 13
    frequency:    8.5070411100
  - # 14
    frequency:   14.1845997936
  - # 15
    frequency:   14.3061672319
  - # 16
    frequency:   14.6424021500
  - # 17
    frequency:   17.9319910477
  - # 18
    frequency:   34.1838639128

- q-position: [    0.0959596,    0.0000000,    0.0000000 ]
  distance:    0.0332974
  band:
  - # 1
    frequency:   -3.2828567007
  - # 2
    frequency:   -2.1747741024
  - # 3
    frequency:   -1.3539989610
  - # 4
    frequency:    0.8069167861
  - # 5
    frequency:    1.2331759052
  - # 6
    frequency:    3.0373524649
  - # 7
    frequency:    3.7838064161
  - # 8
    frequency:    4.5756896510
  - # 9
    frequency:    4.8127853313
  - # 10
    frequency:    4.8766169617
  - # 11
    frequency:    5.7792403182
  - # 12
    frequency:    5.8585181402
  - # 13
    frequency:    8.4917910236
  - # 14
    frequency:   14.1780189013
  - # 15
    frequency:   14.3134991572
  - # 16
    frequency:   14.6463894443
  - # 17
    frequency:   17.9290819618
  - # 18
    frequency:   34.1763453460

- q-position: [    0.1010101,    0.0000000,    0.0000000 ]
  distance:    0.0350499
  band:
  - # 1
    frequency:   -3.4084953708
  - # 2
    frequency:   -2.2429563668
  - # 3
    frequency:   -1.3422638665
  - # 4
    frequency:    0.8864889596
  - # 5
    frequency:    1.3063713276
  - # 6
    frequency:    3.1670995063
  - # 7
    frequency:    3.8114423261
  - # 8
    frequency:    4.6060255865
  - # 9
    frequency:    4.8332715954
  - # 10
    frequency:    4.8742168830
  - # 11
    frequency:    5.8839600884
  - # 12
    frequency:    6.0325173254
  - # 13
    frequency:    8.4755889214
  - # 14
    frequency:   14.1713730011
  - # 15
    frequency:   14.3218856158
  - # 16
    frequency:   14.6509994896
  - # 17
    frequency:   17.9257022172
  - # 18
    frequency:   34.1685228134

- q-position: [    0.1060606,    0.0000000,    0.0000000 ]
  distance:    0.0368024
  band:
  - # 1
    frequency:   -3.5337532618
  - # 2
    frequency:   -2.3127607855
  - # 3
    frequency:   -1.3298037354
  - # 4
    frequency:    0.9679603079
  - # 5
    frequency:    1.3797288210
  - # 6
    frequency:    3.2906821557
  - # 7
    frequency:    3.8347778570
  - # 8
    frequency:    4.6188554373
  - # 9
    frequency:    4.8693659230
  - # 10
    frequency:    4.8745552070
  - # 11
    frequency:    5.9113989499
  - # 12
    frequency:    6.2863844091
  - # 13
    frequency:    8.4584479734
  - # 14
    frequency:   14.1646147609
  - # 15
    frequency:   14.3314167299
  - # 16
    frequency:   14.6563418131
  - # 17
    frequency:   17.9218225551
  - # 18
    frequency:   34.1604111461

- q-position: [    0.1111111,    0.0000000,    0.0000000 ]
  distance:    0.0385549
  band:
  - # 1
    frequency:   -3.6577137003
  - # 2
    frequency:   -2.3835901576
  - # 3
    frequency:   -1.3173810921
  - # 4
    frequency:    1.0508065520
  - # 5
    frequency:    1.4532103944
  - # 6
    frequency:    3.4079017443
  - # 7
    frequency:    3.8551202758
  - # 8
    frequency:    4.6186539791
  - # 9
    frequency:    4.8635701044
  - # 10
    frequency:    4.9317884282
  - # 11
    frequency:    5.9411583094
  - # 12
    frequency:    6.5379257876
  - # 13
    frequency:    8.4403868309
  - # 14
    frequency:   14.1576823261
  - # 15
    frequency:   14.3421826006
  - # 16
    frequency:   14.6625325417
  - # 17
    frequency:   17.9174164239
  - # 18
    frequency:   34.1520256075

- q-position: [    0.1161616,    0.0000000,    0.0000000 ]
  distance:    0.0403074
  band:
  - # 1
    frequency:   -3.7796837083
  - # 2
    frequency:   -2.4549463701
  - # 3
    frequency:   -1.3054338736
  - # 4
    frequency:    1.1345522814
  - # 5
    frequency:    1.5267823339
  - # 6
    frequency:    3.5186554231
  - # 7
    frequency:    3.8733187822
  - # 8
    frequency:    4.6115493699
  - # 9
    frequency:    4.8575969477
  - # 10
    frequency:    4.9983683446
  - # 11
    frequency:    5.9736151730
  - # 12
    frequency:    6.7854302654
  - # 13
    frequency:    8.4214295460
  - # 14
    frequency:   14.1505010765
  - # 15
    frequency:   14.3542721845
  - # 16
    frequency:   14.6696914794
  - # 17
    frequency:   17.9124603426
  - # 18
    frequency:   34.1433818487

- q-position: [    0.1212121,    0.0000000,    0.0000000 ]
  distance:    0.0420599
  band:
  - # 1
    frequency:   -3.8991344800
  - # 2
    frequency:   -2.5264072108
  - # 3
    frequency:   -1.2941595757
  - # 4
    frequency:    1.2187903085
  - # 5
    frequency:    1.6004119483
  - # 6
    frequency:    3.6229101577
  - # 7
    frequency:    3.8899405284
  - # 8
    frequency:    4.6014923425
  - # 9
    frequency:    4.8518973761
  - # 10
    frequency:    5.0697897774
  - # 11
    frequency:    6.0091964351
  - # 12
    frequency:    7.0277897758
  - # 13
    frequency:    8.4016054244
  - # 14
    frequency:   14.1429861225
  - # 15
    frequency:   14.3677720076
  - # 16
    frequency:   14.6779385391
  - # 17
    frequency:   17.9069342401
  - # 18
    frequency:   34.1344958646

- q-position: [    0.1262626,    0.0000000,    0.0000000 ]
  distance:    0.0438124
  band:
  - # 1
    frequency:   -4.0156590883
  - # 2
    frequency:   -2.5976092194
  - # 3
    frequency:   -1.2835820313
  - # 4
    frequency:    1.3031901711
  - # 5
    frequency:    1.6740654114
  - # 6
    frequency:    3.7206666983
  - # 7
    frequency:    3.9053744539
  - # 8
    frequency:    4.5906723450
  - # 9
    frequency:    4.8467669216
  - # 10
    frequency:    5.1432717493
  - # 11
    frequency:    6.0483664074
  - # 12
    frequency:    7.2642331330
  - # 13
    frequency:    8.3809488212
  - # 14
    frequency:   14.1350454440
  - # 15
    frequency:   14.3827647055
  - # 16
    frequency:   14.6873896491
  - # 17
    frequency:   17.9008217704
  - # 18
    frequency:   34.1253839481

- q-position: [    0.1313131,    0.0000000,    0.0000000 ]
  distance:    0.0455649
  band:
  - # 1
    frequency:   -4.1289426567
  - # 2
    frequency:   -2.6682349905
  - # 3
    frequency:   -1.2736019278
  - # 4
    frequency:    1.3874974496
  - # 5
    frequency:    1.7477063480
  - # 6
    frequency:    3.8119128677
  - # 7
    frequency:    3.9198941272
  - # 8
    frequency:    4.5804168486
  - # 9
    frequency:    4.8424153181
  - # 10
    frequency:    5.2169257364
  - # 11
    frequency:    6.0916012626
  - # 12
    frequency:    7.4941938529
  - # 13
    frequency:    8.3594988897
  - # 14
    frequency:   14.1265834878
  - # 15
    frequency:   14.3993273895
  - # 16
    frequency:   14.6981523417
  - # 17
    frequency:   17.8941106008
  - # 18
    frequency:   34.1160626441

- q-position: [    0.1363636,    0.0000000,    0.0000000 ]
  distance:    0.0473174
  band:
  - # 1
    frequency:   -4.2387412714
  - # 2
    frequency:   -2.7380037511
  - # 3
    frequency:   -1.2640328504
  - # 4
    frequency:    1.4715268114
  - # 5
    frequency:    1.8212949196
  - # 6
    frequency:    3.8965660123
  - # 7
    frequency:    3.9336969103
  - # 8
    frequency:    4.5717066160
  - # 9
    frequency:    4.8389995156
  - # 10
    frequency:    5.2893355994
  - # 11
    frequency:    6.1393475751
  - # 12
    frequency:    7.7172391807
  - # 13
    frequency:    8.3372992916
  - # 14
    frequency:   14.1175049677
  - # 15
    frequency:   14.4175298399
  - # 16
    frequency:   14.7103213044
  - # 17
    frequency:   17.8867926725
  - # 18
    frequency:   34.1065487031

- q-position: [    0.1414141,    0.0000000,    0.0000000 ]
  distance:    0.0490699
  band:
  - # 1
    frequency:   -4.3448669481
  - # 2
    frequency:   -2.8066643481
  - # 3
    frequency:   -1.2546252078
  - # 4
    frequency:    1.5551517169
  - # 5
    frequency:    1.8947872493
  - # 6
    frequency:    3.9469291044
  - # 7
    frequency:    3.9744058801
  - # 8
    frequency:    4.5654456227
  - # 9
    frequency:    4.8366405390
  - # 10
    frequency:    5.3594074886
  - # 11
    frequency:    6.1919664668
  - # 12
    frequency:    7.9330299337
  - # 13
    frequency:    8.3143978795
  - # 14
    frequency:   14.1077185671
  - # 15
    frequency:   14.4374325448
  - # 16
    frequency:   14.7239742118
  - # 17
    frequency:   17.8788644336
  - # 18
    frequency:   34.0968590352

- q-position: [    0.1464646,    0.0000000,    0.0000000 ]
  distance:    0.0508224
  band:
  - # 1
    frequency:   -4.4471767807
  - # 2
    frequency:   -2.8739900136
  - # 3
    frequency:   -1.2450806140
  - # 4
    frequency:    1.6382930730
  - # 5
    frequency:    1.9681350759
  - # 6
    frequency:    3.9597025612
  - # 7
    frequency:    4.0450055641
  - # 8
    frequency:    4.5626174165
  - # 9
    frequency:    4.8354326300
  - # 10
    frequency:    5.4263412957
  - # 11
    frequency:    6.2496721850
  - # 12
    frequency:    8.1412970278
  - # 13
    frequency:    8.2908463619
  - # 14
    frequency:   14.0971402507
  - # 15
    frequency:   14.4590846106
  - # 16
    frequency:   14.7391681496
  - # 17
    frequency:   17.8703270403
  - # 18
    frequency:   34.0870106627

- q-position: [    0.1515152,    0.0000000,    0.0000000 ]
  distance:    0.0525749
  band:
  - # 1
    frequency:   -4.5455649846
  - # 2
    frequency:   -2.9397744421
  - # 3
    frequency:   -1.2350591285
  - # 4
    frequency:    1.7209083034
  - # 5
    frequency:    2.0412855643
  - # 6
    frequency:    3.9721059441
  - # 7
    frequency:    4.1076882453
  - # 8
    frequency:    4.5643667892
  - # 9
    frequency:    4.8354484839
  - # 10
    frequency:    5.4896407821
  - # 11
    frequency:    6.3124812451
  - # 12
    frequency:    8.2666999622
  - # 13
    frequency:    8.3418275437
  - # 14
    frequency:   14.0856959403
  - # 15
    frequency:   14.4825215875
  - # 16
    frequency:   14.7559368883
  - # 17
    frequency:   17.8611865270
  - # 18
    frequency:   34.0770206741

- q-position: [    0.1565657,    0.0000000,    0.0000000 ]
  distance:    0.0543274
  band:
  - # 1
    frequency:   -4.6399569519
  - # 2
    frequency:   -3.0038288400
  - # 3
    frequency:   -1.2241813336
  - # 4
    frequency:    1.8029816035
  - # 5
    frequency:    2.1141812255
  - # 6
    frequency:    3.9842125317
  - # 7
    frequency:    4.1615801333
  - # 8
    frequency:    4.5719652278
  - # 9
    frequency:    4.8367424312
  - # 10
    frequency:    5.5491156575
  - # 11
    frequency:    6.3801899039
  - # 12
    frequency:    8.2420170829
  - # 13
    frequency:    8.5344564618
  - # 14
    frequency:   14.0733234033
  - # 15
    frequency:   14.5077632697
  - # 16
    frequency:   14.7742891665
  - # 17
    frequency:   17.8514539416
  - # 18
    frequency:   34.0669061780

- q-position: [    0.1616162,    0.0000000,    0.0000000 ]
  distance:    0.0560799
  band:
  - # 1
    frequency:   -4.7303047098
  - # 2
    frequency:   -3.0659796947
  - # 3
    frequency:   -1.2120266781
  - # 4
    frequency:    1.8845156566
  - # 5
    frequency:    2.1867599103
  - # 6
    frequency:    3.9960857148
  - # 7
    frequency:    4.2058689888
  - # 8
    frequency:    4.5865631332
  - # 9
    frequency:    4.8393525243
  - # 10
    frequency:    5.6048533429
  - # 11
    frequency:    6.4523898028
  - # 12
    frequency:    8.2168589919
  - # 13
    frequency:    8.7190618382
  - # 14
    frequency:   14.0599733044
  - # 15
    frequency:   14.5348115474
  - # 16
    frequency:   14.7942080362
  - # 17
    frequency:   17.8411454445
  - # 18
    frequency:   34.0566842566

- q-position: [    0.1666667,    0.0000000,    0.0000000 ]
  distance:    0.0578324
  band:
  - # 1
    frequency:   -4.8165833581
  - # 2
    frequency:   -3.1260670775
  - # 3
    frequency:   -1.1981289398
  - # 4
    frequency:    1.9655247931
  - # 5
    frequency:    2.2589548590
  - # 6
    frequency:    4.0077829033
  - # 7
    frequency:    4.2402898380
  - # 8
    frequency:    4.6087124118
  - # 9
    frequency:    4.8433020460
  - # 10
    frequency:    5.6571597042
  - # 11
    frequency:    6.5285172378
  - # 12
    frequency:    8.1912895475
  - # 13
    frequency:    8.8955620645
  - # 14
    frequency:   14.0456094761
  - # 15
    frequency:   14.5636484013
  - # 16
    frequency:   14.8156512126
  - # 17
    frequency:   17.8302823671
  - # 18
    frequency:   34.0463719215

- q-position: [    0.1717172,    0.0000000,    0.0000000 ]
  distance:    0.0595849
  band:
  - # 1
    frequency:   -4.8987881893
  - # 2
    frequency:   -3.1839433447
  - # 3
    frequency:   -1.1819690748
  - # 4
    frequency:    2.0460294246
  - # 5
    frequency:    2.3306947895
  - # 6
    frequency:    4.0193583018
  - # 7
    frequency:    4.2655535714
  - # 8
    frequency:    4.6379458114
  - # 9
    frequency:    4.8486007331
  - # 10
    frequency:    5.7064830743
  - # 11
    frequency:    6.6079196549
  - # 12
    frequency:    8.1653749884
  - # 13
    frequency:    9.0639143389
  - # 14
    frequency:   14.0302085378
  - # 15
    frequency:   14.5942341447
  - # 16
    frequency:   14.8385522929
  - # 17
    frequency:   17.8188912266
  - # 18
    frequency:   34.0359860687

- q-position: [    0.1767677,    0.0000000,    0.0000000 ]
  distance:    0.0613374
  band:
  - # 1
    frequency:   -4.9769322788
  - # 2
    frequency:   -3.2394721323
  - # 3
    frequency:   -1.1629651062
  - # 4
    frequency:    2.1260515237
  - # 5
    frequency:    2.4019040181
  - # 6
    frequency:    4.0308648551
  - # 7
    frequency:    4.2832846727
  - # 8
    frequency:    4.6728474256
  - # 9
    frequency:    4.8552458773
  - # 10
    frequency:    5.7533397992
  - # 11
    frequency:    6.6899204443
  - # 12
    frequency:    8.1391838249
  - # 13
    frequency:    9.2241137537
  - # 14