nqpoint: 300    
npath: 3      
segment_nqpoint:
- 100
- 100
- 100
labels:
- [ 'G', 'M' ]
- [ 'M', 'K' ]
- [ 'K', 'G' ]
reciprocal_lattice:
- [   0.31511168,   0.18192981,   0.00000000 ] # a*
- [   0.00000000,   0.36385963,   0.00000000 ] # b*
- [   0.00000000,   0.00000000,   0.03614791 ] # c*
natom: 9      
lattice:
- [     3.173478039929898,     0.000000000000000,     0.000000000000000 ] # a
- [    -1.586739019964949,     2.748312600877219,     0.000000000000000 ] # b
- [     0.000000000000000,     0.000000000000000,    27.664117055631937 ] # c
points:
- symbol: C # 1
  coordinates: [  0.333332985432215,  0.666666983183674,  0.631152709074291 ]
  mass: 12.010700
- symbol: C # 2
  coordinates: [  0.666666984744047,  0.333332985985145,  0.368847290425268 ]
  mass: 12.010700
- symbol: N # 3
  coordinates: [  0.000000000000000,  0.000000000000000,  0.500000033530162 ]
  mass: 14.006700
- symbol: N # 4
  coordinates: [  0.333332985432215,  0.666666983183674,  0.586088930123843 ]
  mass: 14.006700
- symbol: N # 5
  coordinates: [  0.666666984744047,  0.333332985985145,  0.413911069876165 ]
  mass: 14.006700
- symbol: O # 6
  coordinates: [  0.333332985432215,  0.666666983183674,  0.674668814410335 ]
  mass: 15.999400
- symbol: O # 7
  coordinates: [  0.666666984744047,  0.333332985985145,  0.325331185589665 ]
  mass: 15.999400
- symbol: Ti # 8
  coordinates: [  0.333332985432215,  0.666666983183674,  0.462202402300267 ]
  mass: 47.867000
- symbol: Ti # 9
  coordinates: [  0.666666984744047,  0.333332985985145,  0.537797597199283 ]
  mass: 47.867000

phonon:
- q-position: [    0.0000000,    0.0000000,    0.0000000 ]
  distance:    0.0000000
  band:
  - # 1
    frequency:   -1.1631125353
  - # 2
    frequency:   -1.1631125353
  - # 3
    frequency:   -1.0258580574
  - # 4
    frequency:   -1.0258580574
  - # 5
    frequency:   -0.0000059897
  - # 6
    frequency:   -0.0000012909
  - # 7
    frequency:    0.0000059927
  - # 8
    frequency:    5.1078584720
  - # 9
    frequency:    5.1078584721
  - # 10
    frequency:    6.2246865343
  - # 11
    frequency:    7.6577651865
  - # 12
    frequency:    7.6577651865
  - # 13
    frequency:    8.2163704747
  - # 14
    frequency:    8.2163704747
  - # 15
    frequency:    9.7584191264
  - # 16
    frequency:   12.6413743924
  - # 17
    frequency:   16.1944443860
  - # 18
    frequency:   17.2771819929
  - # 19
    frequency:   17.2771819929
  - # 20
    frequency:   17.2803819270
  - # 21
    frequency:   17.2803819270
  - # 22
    frequency:   17.9219746180
  - # 23
    frequency:   17.9219746180
  - # 24
    frequency:   38.5533059032
  - # 25
    frequency:   38.5688769843
  - # 26
    frequency:   69.2819348214
  - # 27
    frequency:   69.5291166188

- q-position: [    0.0050505,    0.0000000,    0.0000000 ]
  distance:    0.0018377
  band:
  - # 1
    frequency:   -1.1616745532
  - # 2
    frequency:   -1.1586075767
  - # 3
    frequency:   -1.0251743596
  - # 4
    frequency:   -1.0232352056
  - # 5
    frequency:    0.0238436174
  - # 6
    frequency:    0.0887651282
  - # 7
    frequency:    0.1390033103
  - # 8
    frequency:    5.1079769120
  - # 9
    frequency:    5.1090524749
  - # 10
    frequency:    6.2239718473
  - # 11
    frequency:    7.6576069547
  - # 12
    frequency:    7.6592002559
  - # 13
    frequency:    8.2163179530
  - # 14
    frequency:    8.2171315731
  - # 15
    frequency:    9.7580967178
  - # 16
    frequency:   12.6399395075
  - # 17
    frequency:   16.1942473466
  - # 18
    frequency:   17.2772323987
  - # 19
    frequency:   17.2776295487
  - # 20
    frequency:   17.2804110226
  - # 21
    frequency:   17.2807784691
  - # 22
    frequency:   17.9218513949
  - # 23
    frequency:   17.9220441883
  - # 24
    frequency:   38.5532890982
  - # 25
    frequency:   38.5688393838
  - # 26
    frequency:   69.2804434646
  - # 27
    frequency:   69.5273553869

- q-position: [    0.0101010,    0.0000000,    0.0000000 ]
  distance:    0.0036753
  band:
  - # 1
    frequency:   -1.1574016228
  - # 2
    frequency:   -1.1452278476
  - # 3
    frequency:   -1.0231212203
  - # 4
    frequency:   -1.0153409668
  - # 5
    frequency:    0.0484541660
  - # 6
    frequency:    0.1777707299
  - # 7
    frequency:    0.2788666720
  - # 8
    frequency:    5.1083330383
  - # 9
    frequency:    5.1126279561
  - # 10
    frequency:    6.2218405674
  - # 11
    frequency:    7.6571340612
  - # 12
    frequency:    7.6634865568
  - # 13
    frequency:    8.2161589474
  - # 14
    frequency:    8.2194142539
  - # 15
    frequency:    9.7571315753
  - # 16
    frequency:   12.6356387646
  - # 17
    frequency:   16.1936556923
  - # 18
    frequency:   17.2773834312
  - # 19
    frequency:   17.2789700667
  - # 20
    frequency:   17.2804985703
  - # 21
    frequency:   17.2819667305
  - # 22
    frequency:   17.9214839604
  - # 23
    frequency:   17.9222526805
  - # 24
    frequency:   38.5532387398
  - # 25
    frequency:   38.5687267442
  - # 26
    frequency:   69.2759736774
  - # 27
    frequency:   69.5220771739

- q-position: [    0.0151515,    0.0000000,    0.0000000 ]
  distance:    0.0055130
  band:
  - # 1
    frequency:   -1.1504125958
  - # 2
    frequency:   -1.1233448147
  - # 3
    frequency:   -1.0196924591
  - # 4
    frequency:   -1.0020975660
  - # 5
    frequency:    0.0745703269
  - # 6
    frequency:    0.2672320599
  - # 7
    frequency:    0.4203081835
  - # 8
    frequency:    5.1089292680
  - # 9
    frequency:    5.1185654620
  - # 10
    frequency:    6.2183304076
  - # 11
    frequency:    7.6563518744
  - # 12
    frequency:    7.6705681243
  - # 13
    frequency:    8.2158891726
  - # 14
    frequency:    8.2232165842
  - # 15
    frequency:    9.7555299650
  - # 16
    frequency:   12.6284838773
  - # 17
    frequency:   16.1926678346
  - # 18
    frequency:   17.2776345169
  - # 19
    frequency:   17.2806453707
  - # 20
    frequency:   17.2811969672
  - # 21
    frequency:   17.2839427790
  - # 22
    frequency:   17.9208789871
  - # 23
    frequency:   17.9225994381
  - # 24
    frequency:   38.5531549978
  - # 25
    frequency:   38.5685395508
  - # 26
    frequency:   69.2685382886
  - # 27
    frequency:   69.5132984010

- q-position: [    0.0202020,    0.0000000,    0.0000000 ]
  distance:    0.0073507
  band:
  - # 1
    frequency:   -1.1408918685
  - # 2
    frequency:   -1.0934651345
  - # 3
    frequency:   -1.0148776328
  - # 4
    frequency:   -0.9833730257
  - # 5
    frequency:    0.1028824308
  - # 6
    frequency:    0.3573165530
  - # 7
    frequency:    0.5637857235
  - # 8
    frequency:    5.1097696200
  - # 9
    frequency:    5.1268329908
  - # 10
    frequency:    6.2135021988
  - # 11
    frequency:    7.6552692191
  - # 12
    frequency:    7.6803541358
  - # 13
    frequency:    8.2155016020
  - # 14
    frequency:    8.2285350408
  - # 15
    frequency:    9.7533023845
  - # 16
    frequency:   12.6184942946
  - # 17
    frequency:   16.1912811922
  - # 18
    frequency:   17.2779846283
  - # 19
    frequency:   17.2808528187
  - # 20
    frequency:   17.2842986727
  - # 21
    frequency:   17.2867007747
  - # 22
    frequency:   17.9200474882
  - # 23
    frequency:   17.9230833678
  - # 24
    frequency:   38.5530381542
  - # 25
    frequency:   38.5682786099
  - # 26
    frequency:   69.2581586100
  - # 27
    frequency:   69.5010463449

- q-position: [    0.0252525,    0.0000000,    0.0000000 ]
  distance:    0.0091884
  band:
  - # 1
    frequency:   -1.1290700633
  - # 2
    frequency:   -1.0560721224
  - # 3
    frequency:   -1.0086618150
  - # 4
    frequency:   -0.9589778995
  - # 5
    frequency:    0.1340259140
  - # 6
    frequency:    0.4481265224
  - # 7
    frequency:    0.7094314116
  - # 8
    frequency:    5.1108597007
  - # 9
    frequency:    5.1373866027
  - # 10
    frequency:    6.2074371015
  - # 11
    frequency:    7.6538981983
  - # 12
    frequency:    7.6927223535
  - # 13
    frequency:    8.2149866367
  - # 14
    frequency:    8.2353640443
  - # 15
    frequency:    9.7504636431
  - # 16
    frequency:   12.6056970920
  - # 17
    frequency:   16.1894922892
  - # 18
    frequency:   17.2784321525
  - # 19
    frequency:   17.2811230218
  - # 20
    frequency:   17.2882567536
  - # 21
    frequency:   17.2902349740
  - # 22
    frequency:   17.9190046579
  - # 23
    frequency:   17.9237029393
  - # 24
    frequency:   38.5528886024
  - # 25
    frequency:   38.5679450441
  - # 26
    frequency:   69.2448643326
  - # 27
    frequency:   69.4853589999

- q-position: [    0.0303030,    0.0000000,    0.0000000 ]
  distance:    0.0110260
  band:
  - # 1
    frequency:   -1.1151998633
  - # 2
    frequency:   -1.0114384351
  - # 3
    frequency:   -1.0010252737
  - # 4
    frequency:   -0.9286613561
  - # 5
    frequency:    0.1685898828
  - # 6
    frequency:    0.5396896048
  - # 7
    frequency:    0.8570616944
  - # 8
    frequency:    5.1122066824
  - # 9
    frequency:    5.1501712346
  - # 10
    frequency:    6.2002331460
  - # 11
    frequency:    7.6522539531
  - # 12
    frequency:    7.7075235194
  - # 13
    frequency:    8.2143323329
  - # 14
    frequency:    8.2436952864
  - # 15
    frequency:    9.7470329738
  - # 16
    frequency:   12.5901268241
  - # 17
    frequency:   16.1872968916
  - # 18
    frequency:   17.2789746457
  - # 19
    frequency:   17.2814590252
  - # 20
    frequency:   17.2930391955
  - # 21
    frequency:   17.2945466671
  - # 22
    frequency:   17.9177696519
  - # 23
    frequency:   17.9244561854
  - # 24
    frequency:   38.5527068450
  - # 25
    frequency:   38.5675402871
  - # 26
    frequency:   69.2286933822
  - # 27
    frequency:   69.4662848871

- q-position: [    0.0353535,    0.0000000,    0.0000000 ]
  distance:    0.0128637
  band:
  - # 1
    frequency:   -1.0995303528
  - # 2
    frequency:   -0.9919430322
  - # 3
    frequency:   -0.9594469997
  - # 4
    frequency:   -0.8921074792
  - # 5
    frequency:    0.2071390564
  - # 6
    frequency:    0.6319584388
  - # 7
    frequency:    1.0062583625
  - # 8
    frequency:    5.1138192736
  - # 9
    frequency:    5.1651216827
  - # 10
    frequency:    6.1920014478
  - # 11
    frequency:    7.6503543709
  - # 12
    frequency:    7.7245863755
  - # 13
    frequency:    8.2135246787
  - # 14
    frequency:    8.2535168301
  - # 15
    frequency:    9.7430341752
  - # 16
    frequency:   12.5718253409
  - # 17
    frequency:   16.1846901791
  - # 18
    frequency:   17.2796083842
  - # 19
    frequency:   17.2818652365
  - # 20
    frequency:   17.2985727670
  - # 21
    frequency:   17.2996720636
  - # 22
    frequency:   17.9163653108
  - # 23
    frequency:   17.9253407022
  - # 24
    frequency:   38.5524934918
  - # 25
    frequency:   38.5670660761
  - # 26
    frequency:   69.2096917354
  - # 27
    frequency:   69.4438828100

- q-position: [    0.0404040,    0.0000000,    0.0000000 ]
  distance:    0.0147014
  band:
  - # 1
    frequency:   -1.0822837978
  - # 2
    frequency:   -0.9813842910
  - # 3
    frequency:   -0.8994329419
  - # 4
    frequency:   -0.8489322736
  - # 5
    frequency:    0.2502448316
  - # 6
    frequency:    0.7248193324
  - # 7
    frequency:    1.1564839152
  - # 8
    frequency:    5.1157076790
  - # 9
    frequency:    5.1821637111
  - # 10
    frequency:    6.1828624266
  - # 11
    frequency:    7.6482197514
  - # 12
    frequency:    7.7437229958
  - # 13
    frequency:    8.2125479104
  - # 14
    frequency:    8.2648119677
  - # 15
    frequency:    9.7384957823
  - # 16
    frequency:   12.5508415733
  - # 17
    frequency:   16.1816669499
  - # 18
    frequency:   17.2803275533
  - # 19
    frequency:   17.2823482085
  - # 20
    frequency:   17.3046796148
  - # 21
    frequency:   17.3057459933
  - # 22
    frequency:   17.9148178326
  - # 23
    frequency:   17.9263536477
  - # 24
    frequency:   38.5522492572
  - # 25
    frequency:   38.5665244430
  - # 26
    frequency:   69.1879131962
  - # 27
    frequency:   69.4182215592

- q-position: [    0.0454545,    0.0000000,    0.0000000 ]
  distance:    0.0165391
  band:
  - # 1
    frequency:   -1.0636382621
  - # 2
    frequency:   -0.9693116819
  - # 3
    frequency:   -0.8300094682
  - # 4
    frequency:   -0.7986723987
  - # 5
    frequency:    0.2985174437
  - # 6
    frequency:    0.8181077241
  - # 7
    frequency:    1.3071861271
  - # 8
    frequency:    5.1178835484
  - # 9
    frequency:    5.2012152427
  - # 10
    frequency:    6.1729423059
  - # 11
    frequency:    7.6458724421
  - # 12
    frequency:    7.7647341621
  - # 13
    frequency:    8.2113848586
  - # 14
    frequency:    8.2775578246
  - # 15
    frequency:    9.7334512630
  - # 16
    frequency:   12.5272312932
  - # 17
    frequency:   16.1782218563
  - # 18
    frequency:   17.2811228703
  - # 19
    frequency:   17.2829179849
  - # 20
    frequency:   17.3112447336
  - # 21
    frequency:   17.3128347679
  - # 22
    frequency:   17.9131563989
  - # 23
    frequency:   17.9274917392
  - # 24
    frequency:   38.5519749571
  - # 25
    frequency:   38.5659177037
  - # 26
    frequency:   69.1634191361
  - # 27
    frequency:   69.3893795680

- q-position: [    0.0505051,    0.0000000,    0.0000000 ]
  distance:    0.0183767
  band:
  - # 1
    frequency:   -1.0437178304
  - # 2
    frequency:   -0.9556803105
  - # 3
    frequency:   -0.7490498550
  - # 4
    frequency:   -0.7404494366
  - # 5
    frequency:    0.3526220237
  - # 6
    frequency:    0.9116269033
  - # 7
    frequency:    1.4578652195
  - # 8
    frequency:    5.1203599119
  - # 9
    frequency:    5.2221875875
  - # 10
    frequency:    6.1623700925
  - # 11
    frequency:    7.6433364560
  - # 12
    frequency:    7.7874145847
  - # 13
    frequency:    8.2100173128
  - # 14
    frequency:    8.2917237141
  - # 15
    frequency:    9.7279392370
  - # 16
    frequency:   12.5010568523
  - # 17
    frequency:   16.1743496653
  - # 18
    frequency:   17.2819797502
  - # 19
    frequency:   17.2835899005
  - # 20
    frequency:   17.3183610582
  - # 21
    frequency:   17.3207914479
  - # 22
    frequency:   17.9114127617
  - # 23
    frequency:   17.9287512501
  - # 24
    frequency:   38.5516715049
  - # 25
    frequency:   38.5652484463
  - # 26
    frequency:   69.1362781982
  - # 27
    frequency:   69.3574445193

- q-position: [    0.0555556,    0.0000000,    0.0000000 ]
  distance:    0.0202144
  band:
  - # 1
    frequency:   -1.0225901771
  - # 2
    frequency:   -0.9404365314
  - # 3
    frequency:   -0.6755064382
  - # 4
    frequency:   -0.6502386390
  - # 5
    frequency:    0.4132421997
  - # 6
    frequency:    1.0051663204
  - # 7
    frequency:    1.6081019998
  - # 8
    frequency:    5.1231511004
  - # 9
    frequency:    5.2449866674
  - # 10
    frequency:    6.1512751507
  - # 11
    frequency:    7.6406370801
  - # 12
    frequency:    7.8115578278
  - # 13
    frequency:    8.2084263940
  - # 14
    frequency:    8.3072692676
  - # 15
    frequency:    9.7220037119
  - # 16
    frequency:   12.4723869069
  - # 17
    frequency:   16.1700455404
  - # 18
    frequency:   17.2828778668
  - # 19
    frequency:   17.2843849849
  - # 20
    frequency:   17.3260709494
  - # 21
    frequency:   17.3295147368
  - # 22
    frequency:   17.9096207990
  - # 23
    frequency:   17.9301280034
  - # 24
    frequency:   38.5513399077
  - # 25
    frequency:   38.5645195179
  - # 26
    frequency:   69.1065659665
  - # 27
    frequency:   69.3225129092

- q-position: [    0.0606061,    0.0000000,    0.0000000 ]
  distance:    0.0220521
  band:
  - # 1
    frequency:   -1.0002696212
  - # 2
    frequency:   -0.9235163729
  - # 3
    frequency:   -0.6007195789
  - # 4
    frequency:   -0.5266937407
  - # 5
    frequency:    0.4809315782
  - # 6
    frequency:    1.0985167627
  - # 7
    frequency:    1.7575591959
  - # 8
    frequency:    5.1262726473
  - # 9
    frequency:    5.2695141991
  - # 10
    frequency:    6.1397854145
  - # 11
    frequency:    7.6378004874
  - # 12
    frequency:    7.8369608493
  - # 13
    frequency:    8.2065929273
  - # 14
    frequency:    8.3241423951
  - # 15
    frequency:    9.7156943281
  - # 16
    frequency:   12.4412961315
  - # 17
    frequency:   16.1653053383
  - # 18
    frequency:   17.2837971402
  - # 19
    frequency:   17.2853239400
  - # 20
    frequency:   17.3343639655
  - # 21
    frequency:   17.3389516025
  - # 22
    frequency:   17.9078160476
  - # 23
    frequency:   17.9316173640
  - # 24
    frequency:   38.5509812617
  - # 25
    frequency:   38.5637340096
  - # 26
    frequency:   69.0743646041
  - # 27
    frequency:   69.2846895664

- q-position: [    0.0656566,    0.0000000,    0.0000000 ]
  distance:    0.0238898
  band:
  - # 1
    frequency:   -0.9767231256
  - # 2
    frequency:   -0.9048434972
  - # 3
    frequency:   -0.5156822654
  - # 4
    frequency:   -0.3508395477
  - # 5
    frequency:    0.5558118708
  - # 6
    frequency:    1.1914811305
  - # 7
    frequency:    1.9059696490
  - # 8
    frequency:    5.1297411726
  - # 9
    frequency:    5.2956688053
  - # 10
    frequency:    6.1280262257
  - # 11
    frequency:    7.6348533603
  - # 12
    frequency:    7.8634280848
  - # 13
    frequency:    8.2044978049
  - # 14
    frequency:    8.3422771689
  - # 15
    frequency:    9.7090666010
  - # 16
    frequency:   12.4078649299
  - # 17
    frequency:   16.1601259133
  - # 18
    frequency:   17.2847303891
  - # 19
    frequency:   17.2864144516
  - # 20
    frequency:   17.3432124956
  - # 21
    frequency:   17.3490620449
  - # 22
    frequency:   17.9060352203
  - # 23
    frequency:   17.9332142275
  - # 24
    frequency:   38.5505967471
  - # 25
    frequency:   38.5628952407
  - # 26
    frequency:   69.0397624611
  - # 27
    frequency:   69.2440871335

- q-position: [    0.0707071,    0.0000000,    0.0000000 ]
  distance:    0.0257274
  band:
  - # 1
    frequency:   -0.9518768521
  - # 2
    frequency:   -0.8843265310
  - # 3
    frequency:   -0.4161263069
  - # 4
    frequency:    0.2004249678
  - # 5
    frequency:    0.6372236249
  - # 6
    frequency:    1.2838808381
  - # 7
    frequency:    2.0531207301
  - # 8
    frequency:    5.1335742448
  - # 9
    frequency:    5.3233470265
  - # 10
    frequency:    6.1161197463
  - # 11
    frequency:    7.6318225326
  - # 12
    frequency:    7.8907750132
  - # 13
    frequency:    8.2021223335
  - # 14
    frequency:    8.3615917585
  - # 15
    frequency:    9.7021821458
  - # 16
    frequency:   12.3721791444
  - # 17
    frequency:   16.1545054226
  - # 18
    frequency:   17.2856873177
  - # 19
    frequency:   17.2876471696
  - # 20
    frequency:   17.3525818161
  - # 21
    frequency:   17.3598094403
  - # 22
    frequency:   17.9043157196
  - # 23
    frequency:   17.9349130070
  - # 24
    frequency:   38.5501876224
  - # 25
    frequency:   38.5620067419
  - # 26
    frequency:   69.0028536546
  - # 27
    frequency:   69.2008255110

- q-position: [    0.0757576,    0.0000000,    0.0000000 ]
  distance:    0.0275651
  band:
  - # 1
    frequency:   -0.9256215037
  - # 2
    frequency:   -0.8618555216
  - # 3
    frequency:   -0.2879782617
  - # 4
    frequency:    0.4609223102
  - # 5
    frequency:    0.7236489420
  - # 6
    frequency:    1.3755586559
  - # 7
    frequency:    2.1988397105
  - # 8
    frequency:    5.1377902209
  - # 9
    frequency:    5.3524442162
  - # 10
    frequency:    6.1041848785
  - # 11
    frequency:    7.6287346573
  - # 12
    frequency:    7.9188311298
  - # 13
    frequency:    8.1994485614
  - # 14
    frequency:    8.3819865849
  - # 15
    frequency:    9.6951088610
  - # 16
    frequency:   12.3343297703
  - # 17
    frequency:   16.1484436239
  - # 18
    frequency:   17.2866842767
  - # 19
    frequency:   17.2890059149
  - # 20
    frequency:   17.3624329594
  - # 21
    frequency:   17.3711580729
  - # 22
    frequency:   17.9026951540
  - # 23
    frequency:   17.9367076163
  - # 24
    frequency:   38.5497552186
  - # 25
    frequency:   38.5610722366
  - # 26
    frequency:   68.9637376246
  - # 27
    frequency:   69.1550312688

- q-position: [    0.0808081,    0.0000000,    0.0000000 ]
  distance:    0.0294028
  band:
  - # 1
    frequency:   -0.8978153311
  - # 2
    frequency:   -0.8372971573
  - # 3
    frequency:    0.0772290101
  - # 4
    frequency:    0.6275287798
  - # 5
    frequency:    0.8131151303
  - # 6
    frequency:    1.4663790778
  - # 7
    frequency:    2.3429817590
  - # 8
    frequency:    5.1424080638
  - # 9
    frequency:    5.3828553041
  - # 10
    frequency:    6.0923376170
  - # 11
    frequency:    7.6256159037
  - # 12
    frequency:    7.9474422476
  - # 13
    frequency:    8.1964595796
  - # 14
    frequency:    8.4033428806
  - # 15
    frequency:    9.6879210416
  - # 16
    frequency:   12.2944126783
  - # 17
    frequency:   16.1419421575
  - # 18
    frequency:   17.2877352181
  - # 19
    frequency:   17.2904766966
  - # 20
    frequency:   17.3727237359
  - # 21
    frequency:   17.3830725058
  - # 22
    frequency:   17.9012108672
  - # 23
    frequency:   17.9385914507
  - # 24
    frequency:   38.5493009324
  - # 25
    frequency:   38.5600956222
  - # 26
    frequency:   68.9225186665
  - # 27
    frequency:   69.1068370279

- q-position: [    0.0858586,    0.0000000,    0.0000000 ]
  distance:    0.0312405
  band:
  - # 1
    frequency:   -0.8682841270
  - # 2
    frequency:   -0.8104881875
  - # 3
    frequency:    0.3094550557
  - # 4
    frequency:    0.7643278996
  - # 5
    frequency:    0.9037953149
  - # 6
    frequency:    1.5562272178
  - # 7
    frequency:    2.4854206980
  - # 8
    frequency:    5.1474471348
  - # 9
    frequency:    5.4144754189
  - # 10
    frequency:    6.0806917702
  - # 11
    frequency:    7.6224916882
  - # 12
    frequency:    7.9764720466
  - # 13
    frequency:    8.1931397957
  - # 14
    frequency:    8.4255218497
  - # 15
    frequency:    9.6806993802
  - # 16
    frequency:   12.2525283473
  - # 17
    frequency:   16.1350048044
  - # 18
    frequency:   17.2888497361
  - # 19
    frequency:   17.2920496451
  - # 20
    frequency:   17.3834092075
  - # 21
    frequency:   17.3955174948
  - # 22
    frequency:   17.8998994887
  - # 23
    frequency:   17.9405573643
  - # 24
    frequency:   38.5488262188
  - # 25
    frequency:   38.5590809506
  - # 26
    frequency:   68.8793054443
  - # 27
    frequency:   69.0563808176

- q-position: [    0.0909091,    0.0000000,    0.0000000 ]
  distance:    0.0330781
  band:
  - # 1
    frequency:   -0.8368176478
  - # 2
    frequency:   -0.7812261544
  - # 3
    frequency:    0.4347082222
  - # 4
    frequency:    0.8852223146
  - # 5
    frequency:    0.9943635326
  - # 6
    frequency:    1.6450069999
  - # 7
    frequency:    2.6260420601
  - # 8
    frequency:    5.1529269643
  - # 9
    frequency:    5.4472003639
  - # 10
    frequency:    6.0693599934
  - # 11
    frequency:    7.6193864398
  - # 12
    frequency:    8.0058028142
  - # 13
    frequency:    8.1894751777
  - # 14
    frequency:    8.4483646052
  - # 15
    frequency:    9.6735308052
  - # 16
    frequency:   12.2087816109
  - # 17
    frequency:   16.1276377115
  - # 18
    frequency:   17.2900340508
  - # 19
    frequency:   17.2937180080
  - # 20
    frequency:   17.3944419813
  - # 21
    frequency:   17.4084580746
  - # 22
    frequency:   17.8987965104
  - # 23
    frequency:   17.9425976455
  - # 24
    frequency:   38.5483325836
  - # 25
    frequency:   38.5580324079
  - # 26
    frequency:   68.8342104877
  - # 27
    frequency:   69.0038054098

- q-position: [    0.0959596,    0.0000000,    0.0000000 ]
  distance:    0.0349158
  band:
  - # 1
    frequency:   -0.8031616765
  - # 2
    frequency:   -0.7492559662
  - # 3
    frequency:    0.5365491364
  - # 4
    frequency:    0.9959782801
  - # 5
    frequency:    1.0840171607
  - # 6
    frequency:    1.7326391471
  - # 7
    frequency:    2.7647378584
  - # 8
    frequency:    5.1588669992
  - # 9
    frequency:    5.4809269370
  - # 10
    frequency:    6.0584551022
  - # 11
    frequency:    7.6163234010
  - # 12
    frequency:    8.0353353581
  - # 13
    frequency:    8.1854534672
  - # 14
    frequency:    8.4716930222
  - # 15
    frequency:    9.6665080870
  - # 16
    frequency:   12.1632814200
  - # 17
    frequency:   16.1198495789
  - # 18
    frequency:   17.2912921715
  - # 19
    frequency:   17.2954769702
  - # 20
    frequency:   17.4057724544
  - # 21
    frequency:   17.4218596889
  - # 22
    frequency:   17.8979358965
  - # 23
    frequency:   17.9447039898
  - # 24
    frequency:   38.5478215744
  - # 25
    frequency:   38.5569542938
  - # 26
    frequency:   68.7873496748
  - # 27
    frequency:   68.9492576370

- q-position: [    0.1010101,    0.0000000,    0.0000000 ]
  distance:    0.0367535
  band:
  - # 1
    frequency:   -0.7670042826
  - # 2
    frequency:   -0.7142497951
  - # 3
    frequency:    0.6280298718
  - # 4
    frequency:    1.0996098690
  - # 5
    frequency:    1.1723403438
  - # 6
    frequency:    1.8190592641
  - # 7
    frequency:    2.9014025440
  - # 8
    frequency:    5.1652863305
  - # 9
    frequency:    5.5155530847
  - # 10
    frequency:    6.0480916502
  - # 11
    frequency:    7.6133244661
  - # 12
    frequency:    8.0649881285
  - # 13
    frequency:    8.1810643618
  - # 14
    frequency:    8.4953115946
  - # 15
    frequency:    9.6597291309
  - # 16
    frequency:   12.1161406226
  - # 17
    frequency:   16.1116518009
  - # 18
    frequency:   17.2926266678
  - # 19
    frequency:   17.2973228703
  - # 20
    frequency:   17.4173490609
  - # 21
    frequency:   17.4356883162
  - # 22
    frequency:   17.8973497281
  - # 23
    frequency:   17.9468674712
  - # 24
    frequency:   38.5472947704
  - # 25
    frequency:   38.5558510021
  - # 26
    frequency:   68.7388417042
  - # 27
    frequency:   68.8928876973

- q-position: [    0.1060606,    0.0000000,    0.0000000 ]
  distance:    0.0385912
  band:
  - # 1
    frequency:   -0.7279535121
  - # 2
    frequency:   -0.6757757402
  - # 3
    frequency:    0.7142373131
  - # 4
    frequency:    1.1979058883
  - # 5
    frequency:    1.2591567332
  - # 6
    frequency:    1.9042161526
  - # 7
    frequency:    3.0359297298
  - # 8
    frequency:    5.1722034040
  - # 9
    frequency:    5.5509778693
  - # 10
    frequency:    6.0383877850
  - # 11
    frequency:    7.6104100528
  - # 12
    frequency:    8.0946956413
  - # 13
    frequency:    8.1762996667
  - # 14
    frequency:    8.5190103288
  - # 15
    frequency:    9.6532958631
  - # 16
    frequency:   12.0674757625
  - # 17
    frequency:   16.1030585565
  - # 18
    frequency:   17.2940391175
  - # 19
    frequency:   17.2992527457
  - # 20
    frequency:   17.4291185476
  - # 21
    frequency:   17.4499105694
  - # 22
    frequency:   17.8970678851
  - # 23
    frequency:   17.9490785127
  - # 24
    frequency:   38.5467537717
  - # 25
    frequency:   38.5547270011
  - # 26
    frequency:   68.6888075600
  - # 27
    frequency:   68.8348484507

- q-position: [    0.1111111,    0.0000000,    0.0000000 ]
  distance:    0.0404288
  band:
  - # 1
    frequency:   -0.6855011471
  - # 2
    frequency:   -0.6332464924
  - # 3
    frequency:    0.7976729266
  - # 4
    frequency:    1.2920176219
  - # 5
    frequency:    1.3444231535
  - # 6
    frequency:    1.9880704068
  - # 7
    frequency:    3.1682093684
  - # 8
    frequency:    5.1796357163
  - # 9
    frequency:    5.5871012052
  - # 10
    frequency:    6.0294674276
  - # 11
    frequency:    7.6075990085
  - # 12
    frequency:    8.1244063412
  - # 13
    frequency:    8.1711534159
  - # 14
    frequency:    8.5425686625
  - # 15
    frequency:    9.6473126036
  - # 16
    frequency:   12.0174068993
  - # 17
    frequency:   16.0940868473
  - # 18
    frequency:   17.2955303618
  - # 19
    frequency:   17.3012640745
  - # 20
    frequency:   17.4410262888
  - # 21
    frequency:   17.4644937624
  - # 22
    frequency:   17.8971177631
  - # 23
    frequency:   17.9513268561
  - # 24
    frequency:   38.5462001855
  - # 25
    frequency:   38.5535868157
  - # 26
    frequency:   68.6373699713
  - # 27
    frequency:   68.7752947111

- q-position: [    0.1161616,    0.0000000,    0.0000000 ]
  distance:    0.0422665
  band:
  - # 1
    frequency:   -0.6389617275
  - # 2
    frequency:   -0.5858297612
  - # 3
    frequency:    0.8797099670
  - # 4
    frequency:    1.3827289219
  - # 5
    frequency:    1.4281643296
  - # 6
    frequency:    2.0705932812
  - # 7
    frequency:    3.2981251574
  - # 8
    frequency:    5.1875995034
  - # 9
    frequency:    5.6238232828
  - # 10
    frequency:    6.0214628723
  - # 11
    frequency:    7.6049085481
  - # 12
    frequency:    8.1540800634
  - # 13
    frequency:    8.1656219637
  - # 14
    frequency:    8.5657603604
  - # 15
    frequency:    9.6418838270
  - # 16
    frequency:   11.9660574495
  - # 17
    frequency:   16.0847564793
  - # 18
    frequency:   17.2971006533
  - # 19
    frequency:   17.3033546295
  - # 20
    frequency:   17.4530166481
  - # 21
    frequency:   17.4794059444
  - # 22
    frequency:   17.8975240231
  - # 23
    frequency:   17.9536015335
  - # 24
    frequency:   38.5456356101
  - # 25
    frequency:   38.5524350123
  - # 26
    frequency:   68.5846528707
  - # 27
    frequency:   68.7143825406

- q-position: [    0.1212121,    0.0000000,    0.0000000 ]
  distance:    0.0441042
  band:
  - # 1
    frequency:   -0.5873635043
  - # 2
    frequency:   -0.5322785179
  - # 3
    frequency:    0.9611483862
  - # 4
    frequency:    1.4705959023
  - # 5
    frequency:    1.5104359861
  - # 6
    frequency:    2.1517657964
  - # 7
    frequency:    3.4255520133
  - # 8
    frequency:    5.1961094256
  - # 9
    frequency:    5.6610435162
  - # 10
    frequency:    6.0145179830