nqpoint: 300    
npath: 3      
segment_nqpoint:
- 100
- 100
- 100
labels:
- [ 'G', 'M' ]
- [ 'M', 'K' ]
- [ 'K', 'G' ]
reciprocal_lattice:
- [   0.31327270,   0.18086808,   0.00000000 ] # a*
- [   0.00000000,   0.36173615,   0.00000000 ] # b*
- [   0.00000000,   0.00000000,   0.04190616 ] # c*
natom: 6      
lattice:
- [     3.192107089445498,     0.000000000000000,     0.000000000000000 ] # a
- [    -1.596053544722749,     2.764445831059051,     0.000000000000000 ] # b
- [     0.000000000000000,     0.000000000000000,    23.862842876253666 ] # c
points:
- symbol: F # 1
  coordinates: [  0.666666984744047,  0.333332985985145,  0.377155397899219 ]
  mass: 18.998403
- symbol: N # 2
  coordinates: [  0.000000000000000,  0.000000000000000,  0.470039488015788 ]
  mass: 14.006700
- symbol: N # 3
  coordinates: [  0.333332985432215,  0.666666983183674,  0.568475382297396 ]
  mass: 14.006700
- symbol: O # 4
  coordinates: [  0.333332985432215,  0.666666983183674,  0.622844602100781 ]
  mass: 15.999400
- symbol: Ti # 5
  coordinates: [  0.333332985432215,  0.666666983183674,  0.428152071579438 ]
  mass: 47.867000
- symbol: Ti # 6
  coordinates: [  0.666666984744047,  0.333332985985145,  0.518474823987083 ]
  mass: 47.867000

phonon:
- q-position: [    0.0000000,    0.0000000,    0.0000000 ]
  distance:    0.0000000
  band:
  - # 1
    frequency:   -8.0327981634
  - # 2
    frequency:   -8.0327981634
  - # 3
    frequency:   -0.0000066939
  - # 4
    frequency:   -0.0000001493
  - # 5
    frequency:    0.0000053379
  - # 6
    frequency:    4.1409809123
  - # 7
    frequency:    4.1409809123
  - # 8
    frequency:    5.1157539000
  - # 9
    frequency:    5.1157539000
  - # 10
    frequency:    5.8798176205
  - # 11
    frequency:    5.8798176205
  - # 12
    frequency:    6.5533158789
  - # 13
    frequency:    7.3167716405
  - # 14
    frequency:   12.9437825708
  - # 15
    frequency:   14.6384920581
  - # 16
    frequency:   14.6384920581
  - # 17
    frequency:   15.1570464476
  - # 18
    frequency:   42.2609671413

- q-position: [    0.0050505,    0.0000000,    0.0000000 ]
  distance:    0.0018270
  band:
  - # 1
    frequency:   -8.0334011104
  - # 2
    frequency:   -8.0323834504
  - # 3
    frequency:    0.0018484047
  - # 4
    frequency:    0.0740924170
  - # 5
    frequency:    0.1263427053
  - # 6
    frequency:    4.1398335647
  - # 7
    frequency:    4.1407747219
  - # 8
    frequency:    5.1160832218
  - # 9
    frequency:    5.1165253915
  - # 10
    frequency:    5.8798283598
  - # 11
    frequency:    5.8802069016
  - # 12
    frequency:    6.5563815510
  - # 13
    frequency:    7.3173324827
  - # 14
    frequency:   12.9433294406
  - # 15
    frequency:   14.6385951846
  - # 16
    frequency:   14.6389196453
  - # 17
    frequency:   15.1565992365
  - # 18
    frequency:   42.2603771757

- q-position: [    0.0101010,    0.0000000,    0.0000000 ]
  distance:    0.0036539
  band:
  - # 1
    frequency:   -8.0351993903
  - # 2
    frequency:   -8.0311392206
  - # 3
    frequency:    0.0073859500
  - # 4
    frequency:    0.1481197671
  - # 5
    frequency:    0.2525546022
  - # 6
    frequency:    4.1364508299
  - # 7
    frequency:    4.1401487722
  - # 8
    frequency:    5.1170756862
  - # 9
    frequency:    5.1188318535
  - # 10
    frequency:    5.8798609624
  - # 11
    frequency:    5.8813727239
  - # 12
    frequency:    6.5655202205
  - # 13
    frequency:    7.3190133226
  - # 14
    frequency:   12.9419683886
  - # 15
    frequency:   14.6389053719
  - # 16
    frequency:   14.6401993023
  - # 17
    frequency:   15.1552600958
  - # 18
    frequency:   42.2586077155

- q-position: [    0.0151515,    0.0000000,    0.0000000 ]
  distance:    0.0054809
  band:
  - # 1
    frequency:   -8.0381615990
  - # 2
    frequency:   -8.0290651856
  - # 3
    frequency:    0.0165888363
  - # 4
    frequency:    0.2220157547
  - # 5
    frequency:    0.3785059010
  - # 6
    frequency:    4.1310065354
  - # 7
    frequency:    4.1390813309
  - # 8
    frequency:    5.1187444894
  - # 9
    frequency:    5.1226496585
  - # 10
    frequency:    5.8799165862
  - # 11
    frequency:    5.8833094795
  - # 12
    frequency:    6.5805599621
  - # 13
    frequency:    7.3218092059
  - # 14
    frequency:   12.9396944632
  - # 15
    frequency:   14.6394250340
  - # 16
    frequency:   14.6423217699
  - # 17
    frequency:   15.1530364764
  - # 18
    frequency:   42.2556600709

- q-position: [    0.0202020,    0.0000000,    0.0000000 ]
  distance:    0.0073078
  band:
  - # 1
    frequency:   -8.0422363174
  - # 2
    frequency:   -8.0261608135
  - # 3
    frequency:    0.0294180403
  - # 4
    frequency:    0.2957116425
  - # 5
    frequency:    0.5040687924
  - # 6
    frequency:    4.1237773639
  - # 7
    frequency:    4.1375375107
  - # 8
    frequency:    5.1211106342
  - # 9
    frequency:    5.1279407128
  - # 10
    frequency:    5.8799971742
  - # 11
    frequency:    5.8860091868
  - # 12
    frequency:    6.6012242251
  - # 13
    frequency:    7.3257122296
  - # 14
    frequency:   12.9364995202
  - # 15
    frequency:   14.6401581611
  - # 16
    frequency:   14.6452717946
  - # 17
    frequency:   15.1499407069
  - # 18
    frequency:   42.2515364283

- q-position: [    0.0252525,    0.0000000,    0.0000000 ]
  distance:    0.0091348
  band:
  - # 1
    frequency:   -8.0473534524
  - # 2
    frequency:   -8.0224252528
  - # 3
    frequency:    0.0458199242
  - # 4
    frequency:    0.3691350729
  - # 5
    frequency:    0.6291182951
  - # 6
    frequency:    4.1151253188
  - # 7
    frequency:    4.1354712191
  - # 8
    frequency:    5.1242014877
  - # 9
    frequency:    5.1346541430
  - # 10
    frequency:    5.8801054731
  - # 11
    frequency:    5.8894630734
  - # 12
    frequency:    6.6271455082
  - # 13
    frequency:    7.3307120843
  - # 14
    frequency:   12.9323723848
  - # 15
    frequency:   14.6411102703
  - # 16
    frequency:   14.6490283908
  - # 17
    frequency:   15.1459898605
  - # 18
    frequency:   42.2462398551

- q-position: [    0.0303030,    0.0000000,    0.0000000 ]
  distance:    0.0109617
  band:
  - # 1
    frequency:   -8.0534260392
  - # 2
    frequency:   -8.0178572312
  - # 3
    frequency:    0.0657271683
  - # 4
    frequency:    0.4422089350
  - # 5
    frequency:    0.7535329431
  - # 6
    frequency:    4.1054766461
  - # 7
    frequency:    4.1328277840
  - # 8
    frequency:    5.1280488489
  - # 9
    frequency:    5.1427282577
  - # 10
    frequency:    5.8802450601
  - # 11
    frequency:    5.8936630814
  - # 12
    frequency:    6.6578821258
  - # 13
    frequency:    7.3367968371
  - # 14
    frequency:   12.9272990755
  - # 15
    frequency:   14.6422883368
  - # 16
    frequency:   14.6535651980
  - # 17
    frequency:   15.1412055727
  - # 18
    frequency:   42.2397743050

- q-position: [    0.0353535,    0.0000000,    0.0000000 ]
  distance:    0.0127887
  band:
  - # 1
    frequency:   -8.0603524329
  - # 2
    frequency:   -8.0124549309
  - # 3
    frequency:    0.0890598893
  - # 4
    frequency:    0.5148502929
  - # 5
    frequency:    0.8771952778
  - # 6
    frequency:    4.0952996272
  - # 7
    frequency:    4.1295471525
  - # 8
    frequency:    5.1326866197
  - # 9
    frequency:    5.1520925472
  - # 10
    frequency:    5.8804203739
  - # 11
    frequency:    5.8986029519
  - # 12
    frequency:    6.6929362110
  - # 13
    frequency:    7.3439539837
  - # 14
    frequency:   12.9212630884
  - # 15
    frequency:   14.6437007067
  - # 16
    frequency:   14.6588509194
  - # 17
    frequency:   15.1356138121
  - # 18
    frequency:   42.2321446260

- q-position: [    0.0404040,    0.0000000,    0.0000000 ]
  distance:    0.0146156
  band:
  - # 1
    frequency:   -8.0680188090
  - # 2
    frequency:   -8.0062158458
  - # 3
    frequency:    0.1157268902
  - # 4
    frequency:    0.5869693824
  - # 5
    frequency:    0.9999921182
  - # 6
    frequency:    4.0850832986
  - # 7
    frequency:    4.1255675216
  - # 8
    frequency:    5.1381481996
  - # 9
    frequency:    5.1626695554
  - # 10
    frequency:    5.8806367523
  - # 11
    frequency:    5.9042787330
  - # 12
    frequency:    6.7317711947
  - # 13
    frequency:    7.3521718120
  - # 14
    frequency:   12.9142457390
  - # 15
    frequency:   14.6453569917
  - # 16
    frequency:   14.6648498308
  - # 17
    frequency:   15.1292446106
  - # 18
    frequency:   42.2233565692

- q-position: [    0.0454545,    0.0000000,    0.0000000 ]
  distance:    0.0164426
  band:
  - # 1
    frequency:   -8.0763018850
  - # 2
    frequency:   -7.9991366263
  - # 3
    frequency:    0.1456269860
  - # 4
    frequency:    0.6584686849
  - # 5
    frequency:    1.1218146024
  - # 6
    frequency:    4.0753185408
  - # 7
    frequency:    4.1208292385
  - # 8
    frequency:    5.1444637502
  - # 9
    frequency:    5.1743765416
  - # 10
    frequency:    5.8809004721
  - # 11
    frequency:    5.9106887364
  - # 12
    frequency:    6.7738273345
  - # 13
    frequency:    7.3614411385
  - # 14
    frequency:   12.9062265558
  - # 15
    frequency:   14.6472679463
  - # 16
    frequency:   14.6715223399
  - # 17
    frequency:   15.1221317606
  - # 18
    frequency:   42.2134167989

- q-position: [    0.0505051,    0.0000000,    0.0000000 ]
  distance:    0.0182695
  band:
  - # 1
    frequency:   -8.0850717719
  - # 2
    frequency:   -7.9912129164
  - # 3
    frequency:    0.1786503516
  - # 4
    frequency:    0.7292420836
  - # 5
    frequency:    1.2425580019
  - # 6
    frequency:    4.0664823278
  - # 7
    frequency:    4.1152787822
  - # 8
    frequency:    5.1516574947
  - # 9
    frequency:    5.1871269213
  - # 10
    frequency:    5.8812187924
  - # 11
    frequency:    5.9178330724
  - # 12
    frequency:    6.8185343319
  - # 13
    frequency:    7.3717575033
  - # 14
    frequency:   12.8971837241
  - # 15
    frequency:   14.6494453291
  - # 16
    frequency:   14.6788255760
  - # 17
    frequency:   15.1143124890
  - # 18
    frequency:   42.2023329043

- q-position: [    0.0555556,    0.0000000,    0.0000000 ]
  distance:    0.0200965
  band:
  - # 1
    frequency:   -8.0941948713
  - # 2
    frequency:   -7.9824391905
  - # 3
    frequency:    0.2146798405
  - # 4
    frequency:    0.7991741037
  - # 5
    frequency:    1.3621213297
  - # 6
    frequency:    4.0590253723
  - # 7
    frequency:    4.1088726341
  - # 8
    frequency:    5.1597452240
  - # 9
    frequency:    5.2008315089
  - # 10
    frequency:    5.8815999975
  - # 11
    frequency:    5.9257129296
  - # 12
    frequency:    6.8653205405
  - # 13
    frequency:    7.3831239272
  - # 14
    frequency:   12.8870945707
  - # 15
    frequency:   14.6519017491
  - # 16
    frequency:   14.6867139841
  - # 17
    frequency:   15.1058271242
  - # 18
    frequency:   42.1901134120

- q-position: [    0.0606061,    0.0000000,    0.0000000 ]
  distance:    0.0219234
  band:
  - # 1
    frequency:   -8.1035367362
  - # 2
    frequency:   -7.9728085950
  - # 3
    frequency:    0.2535922323
  - # 4
    frequency:    0.8681392410
  - # 5
    frequency:    1.4804067717
  - # 6
    frequency:    4.0533630155
  - # 7
    frequency:    4.1015808494
  - # 8
    frequency:    5.1687321715
  - # 9
    frequency:    5.2153996038
  - # 10
    frequency:    5.8820534398
  - # 11
    frequency:    5.9343297492
  - # 12
    frequency:    6.9136186481
  - # 13
    frequency:    7.3955543553
  - # 14
    frequency:   12.8759360865
  - # 15
    frequency:   14.6546504980
  - # 16
    frequency:   14.6951398922
  - # 17
    frequency:   15.0967187755
  - # 18
    frequency:   42.1767677989

- q-position: [    0.0656566,    0.0000000,    0.0000000 ]
  distance:    0.0237504
  band:
  - # 1
    frequency:   -8.1129648260
  - # 2
    frequency:   -7.9623128021
  - # 3
    frequency:    0.2952593761
  - # 4
    frequency:    0.9360013778
  - # 5
    frequency:    1.5973189870
  - # 6
    frequency:    4.0498689903
  - # 7
    frequency:    4.0933901668
  - # 8
    frequency:    5.1786113941
  - # 9
    frequency:    5.2307399533
  - # 10
    frequency:    5.8825895773
  - # 11
    frequency:    5.9436844030
  - # 12
    frequency:    6.9628680006
  - # 13
    frequency:    7.4090778856
  - # 14
    frequency:   12.8636854763
  - # 15
    frequency:   14.6577053709
  - # 16
    frequency:   14.7040540128
  - # 17
    frequency:   15.0870330541
  - # 18
    frequency:   42.1623065067

- q-position: [    0.0707071,    0.0000000,    0.0000000 ]
  distance:    0.0255773
  band:
  - # 1
    frequency:   -8.1223510970
  - # 2
    frequency:   -7.9509418812
  - # 3
    frequency:    0.3395492084
  - # 4
    frequency:    1.0026132945
  - # 5
    frequency:    1.7127643292
  - # 6
    frequency:    4.0488715943
  - # 7
    frequency:    4.0843065316
  - # 8
    frequency:    5.1893627580
  - # 9
    frequency:    5.2467616162
  - # 10
    frequency:    5.8832200064
  - # 11
    frequency:    5.9537764413
  - # 12
    frequency:    7.0125139790
  - # 13
    frequency:    7.4237437823
  - # 14
    frequency:   12.8503207296
  - # 15
    frequency:   14.6610804767
  - # 16
    frequency:   14.7134058287
  - # 17
    frequency:   15.0768178786
  - # 18
    frequency:   42.1467409557

- q-position: [    0.0757576,    0.0000000,    0.0000000 ]
  distance:    0.0274043
  band:
  - # 1
    frequency:   -8.1315743824
  - # 2
    frequency:   -7.9386841942
  - # 3
    frequency:    0.3863266340
  - # 4
    frequency:    1.0678162804
  - # 5
    frequency:    1.8266500552
  - # 6
    frequency:    4.0506518013
  - # 7
    frequency:    4.0743569529
  - # 8
    frequency:    5.2009525742
  - # 9
    frequency:    5.2633747411
  - # 10
    frequency:    5.8839574842
  - # 11
    frequency:    5.9646034434
  - # 12
    frequency:    7.0620051746
  - # 13
    frequency:    7.4396269745
  - # 14
    frequency:   12.8358212020
  - # 15
    frequency:   14.6647900400
  - # 16
    frequency:   14.7231437942
  - # 17
    frequency:   15.0661234241
  - # 18
    frequency:   42.1300835595

- q-position: [    0.0808081,    0.0000000,    0.0000000 ]
  distance:    0.0292312
  band:
  - # 1
    frequency:   -8.1405225255
  - # 2
    frequency:   -7.9255263197
  - # 3
    frequency:    0.4354542704
  - # 4
    frequency:    1.1314398604
  - # 5
    frequency:    1.9388835895
  - # 6
    frequency:    4.0554428789
  - # 7
    frequency:    4.0635906636
  - # 8
    frequency:    5.2133338824
  - # 9
    frequency:    5.2804912635
  - # 10
    frequency:    5.8848159381
  - # 11
    frequency:    5.9761604808
  - # 12
    frequency:    7.1107897565
  - # 13
    frequency:    7.4568330743
  - # 14
    frequency:   12.8201681971
  - # 15
    frequency:   14.6688481970
  - # 16
    frequency:   14.7332152550
  - # 17
    frequency:   15.0550023091
  - # 18
    frequency:   42.1123477395

- q-position: [    0.0858586,    0.0000000,    0.0000000 ]
  distance:    0.0310582
  band:
  - # 1
    frequency:   -8.1490942455
  - # 2
    frequency:   -7.9114530102
  - # 3
    frequency:    0.4867930641
  - # 4
    frequency:    1.1933016572
  - # 5
    frequency:    2.0493719239
  - # 6
    frequency:    4.0520795959
  - # 7
    frequency:    4.0634311316
  - # 8
    frequency:    5.2264473264
  - # 9
    frequency:    5.2980255227
  - # 10
    frequency:    5.8858104566
  - # 11
    frequency:    5.9884396865
  - # 12
    frequency:    7.1583136711
  - # 13
    frequency:    7.4755006405
  - # 14
    frequency:   12.8033455395
  - # 15
    frequency:   14.6732687877
  - # 16
    frequency:   14.7435659402
  - # 17
    frequency:   15.0435101607
  - # 18
    frequency:   42.0935479384

- q-position: [    0.0909091,    0.0000000,    0.0000000 ]
  distance:    0.0328851
  band:
  - # 1
    frequency:   -8.1572007220
  - # 2
    frequency:   -7.8964471871
  - # 3
    frequency:    0.5402027935
  - # 4
    frequency:    1.2532074238
  - # 5
    frequency:    2.1580212320
  - # 6
    frequency:    4.0399182107
  - # 7
    frequency:    4.0747574412
  - # 8
    frequency:    5.2402225342
  - # 9
    frequency:    5.3158948010
  - # 10
    frequency:    5.8869572579
  - # 11
    frequency:    6.0014299169
  - # 12
    frequency:    7.2040253352
  - # 13
    frequency:    7.4957963268
  - # 14
    frequency:   12.7853401259
  - # 15
    frequency:   14.6780651468
  - # 16
    frequency:   14.7541387928
  - # 17
    frequency:   15.0317067918
  - # 18
    frequency:   42.0736996342

- q-position: [    0.0959596,    0.0000000,    0.0000000 ]
  distance:    0.0347121
  band:
  - # 1
    frequency:   -8.1647668961
  - # 2
    frequency:   -7.8804899750
  - # 3
    frequency:    0.5955424777
  - # 4
    frequency:    1.3109512891
  - # 5
    frequency:    2.2647367799
  - # 6
    frequency:    4.0272227358
  - # 7
    frequency:    4.0895193197
  - # 8
    frequency:    5.2545798851
  - # 9
    frequency:    5.3340197838
  - # 10
    frequency:    5.8882736286
  - # 11
    frequency:    6.0151164908
  - # 12
    frequency:    7.2473936932
  - # 13
    frequency:    7.5178962747
  - # 14
    frequency:   12.7661424461
  - # 15
    frequency:   14.6832498960
  - # 16
    frequency:   14.7648717523
  - # 17
    frequency:   15.0196583767
  - # 18
    frequency:   42.0528193521

- q-position: [    0.1010101,    0.0000000,    0.0000000 ]
  distance:    0.0365390
  band:
  - # 1
    frequency:   -8.1717324902
  - # 2
    frequency:   -7.8635607791
  - # 3
    frequency:    0.6526707117
  - # 4
    frequency:    1.3663162792
  - # 5
    frequency:    2.3694232096
  - # 6
    frequency:    4.0141298632
  - # 7
    frequency:    4.1077732319
  - # 8
    frequency:    5.2694325427
  - # 9
    frequency:    5.3523249485
  - # 10
    frequency:    5.8897778266
  - # 11
    frequency:    6.0294809861
  - # 12
    frequency:    7.2879464260
  - # 13
    frequency:    7.5419471360
  - # 14
    frequency:   12.7457470612
  - # 15
    frequency:   14.6888347406
  - # 16
    frequency:   14.7756938173
  - # 17
    frequency:   15.0074412999
  - # 18
    frequency:   42.0309246765

- q-position: [    0.1060606,    0.0000000,    0.0000000 ]
  distance:    0.0383660
  band:
  - # 1
    frequency:   -8.1780527584
  - # 2
    frequency:   -7.8456374041
  - # 3
    frequency:    0.7114459499
  - # 4
    frequency:    1.4190751882
  - # 5
    frequency:    2.4719852592
  - # 6
    frequency:    4.0007949389
  - # 7
    frequency:    4.1295369741
  - # 8
    frequency:    5.2846886351
  - # 9
    frequency:    5.3707388869
  - # 10
    frequency:    5.8914889410
  - # 11
    frequency:    6.0445010794
  - # 12
    frequency:    7.3253280381
  - # 13
    frequency:    7.5680071202
  - # 14
    frequency:   12.7241530308
  - # 15
    frequency:   14.6948302729
  - # 16
    frequency:   14.7865181760
  - # 17
    frequency:   14.9951488923
  - # 18
    frequency:   42.0080342600

- q-position: [    0.1111111,    0.0000000,    0.0000000 ]
  distance:    0.0401929
  band:
  - # 1
    frequency:   -8.1836989803
  - # 2
    frequency:   -7.8266962178
  - # 3
    frequency:    0.7717267542
  - # 4
    frequency:    1.4689918871
  - # 5
    frequency:    2.5723289628
  - # 6
    frequency:    3.9873896539
  - # 7
    frequency:    4.1547919378
  - # 8
    frequency:    5.3002534763
  - # 9
    frequency:    5.3891945715
  - # 10
    frequency:    5.8934267016
  - # 11
    frequency:    6.0601504112
  - # 12
    frequency:    7.3593612903
  - # 13
    frequency:    7.5959836820
  - # 14
    frequency:   12.7013642802
  - # 15
    frequency:   14.7012457858
  - # 16
    frequency:   14.7972301685
  - # 17
    frequency:   14.9829032989
  - # 18
    frequency:   41.9841678323

- q-position: [    0.1161616,    0.0000000,    0.0000000 ]
  distance:    0.0420199
  band:
  - # 1
    frequency:   -8.1886587154
  - # 2
    frequency:   -7.8067123557
  - # 3
    frequency:    0.8333720242
  - # 4
    frequency:    1.5158231681
  - # 5
    frequency:    2.6703633419
  - # 6
    frequency:    3.9740992194
  - # 7
    frequency:    4.1834851290
  - # 8
    frequency:    5.3160317433
  - # 9
    frequency:    5.4076295762
  - # 10
    frequency:    5.8956112326
  - # 11
    frequency:    6.0763984664
  - # 12
    frequency:    7.3900801576
  - # 13
    frequency:    7.6255997224
  - # 14
    frequency:   12.6773899004
  - # 15
    frequency:   14.7080890990
  - # 16
    frequency:   14.8076659011
  - # 17
    frequency:   14.9708766605
  - # 18
    frequency:   41.9593462058

- q-position: [    0.1212121,    0.0000000,    0.0000000 ]
  distance:    0.0438468
  band:
  - # 1
    frequency:   -8.1929358379
  - # 2
    frequency:   -7.7856599669
  - # 3
    frequency:    0.8962412199
  - # 4
    frequency:    1.5593212203
  - # 5
    frequency:    2.7660025505
  - # 6
    frequency:    3.9611189896
  - # 7
    frequency:    4.2155308716
  - # 8
    frequency:    5.3319295438
  - # 9
    frequency:    5.4259862634
  - # 10
    frequency:    5.8980627446
  - # 11
    frequency:    6.0932104602
  - # 12
    frequency:    7.4177089417
  - # 13
    frequency:    7.6564137030
  - # 14
    frequency:   12.6522443756
  - # 15
    frequency:   14.7153664003
  - # 16
    frequency:   14.8175740072
  - # 17
    frequency:   14.9593291245
  - # 18
    frequency:   41.9335912798

- q-position: [    0.1262626,    0.0000000,    0.0000000 ]
  distance:    0.0456738
  band:
  - # 1
    frequency:   -8.1965503708
  - # 2
    frequency:   -7.7635124984
  - # 3
    frequency:    0.9601945852
  - # 4
    frequency:    1.5992368159
  - # 5
    frequency:    2.8591683832
  - # 6
    frequency:    3.9486504919
  - # 7
    frequency:    4.2508121916
  - # 8
    frequency:    5.3478563256
  - # 9
    frequency:    5.4442119491
  - # 10
    frequency:    5.9008011630
  - # 11
    frequency:    6.1105472238
  - # 12
    frequency:    7.4425938372
  - # 13
    frequency:    7.6878873850
  - # 14
    frequency:   12.6259477358
  - # 15
    frequency:   14.7230821055
  - # 16
    frequency:   14.8265492783
  - # 17
    frequency:   14.9486749662
  - # 18
    frequency:   41.9069260416

- q-position: [    0.1313131,    0.0000000,    0.0000000 ]
  distance:    0.0475007
  band:
  - # 1
    frequency:   -8.1995381409
  - # 2
    frequency:   -7.7402430140
  - # 3
    frequency:    1.0250933772
  - # 4
    frequency:    1.6353232537
  - # 5
    frequency:    2.9497929879
  - # 6
    frequency:    3.9368968428
  - # 7
    frequency:    4.2891819530
  - # 8
    frequency:    5.3637265967
  - # 9
    frequency:    5.4622590574
  - # 10
    frequency:    5.9038456954
  - # 11
    frequency:    6.1283650907
  - # 12
    frequency:    7.4651209270
  - # 13
    frequency:    7.7194672167
  - # 14
    frequency:   12.5985256321
  - # 15
    frequency:   14.7312387388
  - # 16
    frequency:   14.8339333307
  - # 17
    frequency:   14.9395816620
  - # 18
    frequency:   41.8793745656

- q-position: [    0.1363636,    0.0000000,    0.0000000 ]
  distance:    0.0493277
  band:
  - # 1
    frequency:   -8.2019502726
  - # 2
    frequency:   -7.7158245455
  - # 3
    frequency:    1.0908001021
  - # 4
    frequency:    1.6673410412
  - # 5
    frequency:    3.0378215662
  - # 6
    frequency:    3.9260575754
  - # 7
    frequency:    4.3304638945
  - # 8
    frequency:    5.3794614327
  - # 9
    frequency:    5.4800852750
  - # 10
    frequency:    5.9072143440
  - # 11
    frequency:    6.1466157864
  - # 12
    frequency:    7.4856528687
  - # 13
    frequency:    7.7506470941
  - # 14
    frequency:   12.5700093372
  - # 15
    frequency:   14.7398368354
  - # 16
    frequency:   14.8387397446
  - # 17
    frequency:   14.9330444867
  - # 18
    frequency:   41.8509620083

- q-position: [    0.1414141,    0.0000000,    0.0000000 ]
  distance:    0.0511546
  band:
  - # 1
    frequency:   -8.2038525408
  - # 2
    frequency:   -7.6902304715
  - # 3
    frequency:    1.1571787587
  - # 4
    frequency:    1.6950632163
  - # 5
    frequency:    3.1232147938
  - # 6
    frequency:    3.9163229763
  - # 7
    frequency:    4.3744537698
  - # 8
    frequency:    5.3949897552
  - # 9
    frequency:    5.4976537170
  - # 10
    frequency:    5.9109233760
  - # 11
    frequency:    6.1652463322
  - # 12
    frequency:    7.5044955729
  - # 13
    frequency:    7.7810011727
  - # 14
    frequency:   12.5404356721
  - # 15
    frequency:   14.7488748684
  - # 16
    frequency:   14.8398411220
  - # 17
    frequency:   14.9301991922
  - # 18
    frequency:   41.8217146018

- q-position: [    0.1464646,    0.0000000,    0.0000000 ]
  distance:    0.0529816
  band:
  - # 1
    frequency:   -8.2053246004
  - # 2
    frequency:   -7.6634349199
  - # 3
    frequency:    1.2240950866
  - # 4
    frequency:    1.7182810981
  - # 5
    frequency:    3.2059506833
  - # 6
    frequency:    3.9078681337
  - # 7
    frequency:    4.4209208274
  - # 8
    frequency:    5.4102493659
  - # 9
    frequency:    5.5149331109
  - # 10
    frequency:    5.9149867725
  - # 11
    frequency:    6.1841989764
  - # 12
    frequency:    7.5218891788
  - # 13
    frequency:    7.8101923987
  - # 14
    frequency:   12.5098468663
  - # 15
    frequency:   14.7583492024
  - # 16
    frequency:   14.8366402655
  - # 17
    frequency:   14.9316505731
  - # 18
    frequency:   41.7916596424

- q-position: [    0.1515152,    0.0000000,    0.0000000 ]
  distance:    0.0548085
  band:
  - # 1
    frequency:   -8.2064591083
  - # 2
    frequency:   -7.6354131887
  - # 3
    frequency:    1.2914168173
  - # 4
    frequency:    1.7368101458
  - # 5
    frequency:    3.2860256305
  - # 6
    frequency:    3.9008470004
  - # 7
    frequency:    4.4696098501
  - # 8
    frequency:    5.4251877214
  - # 9
    frequency:    5.5318980099
  - # 10
    frequency:    5.9194156800
  - # 11
    frequency:    6.2034111738
  - # 12
    frequency:    7.5380126861
  - # 13
    frequency:    7.8379673681
  - # 14
    frequency:   12.4782903552
  - # 15
    frequency:   14.7682540727
  - # 16
    frequency:   14.8295811940
  - # 17
    frequency:   14.9369612093
  - # 18
    frequency:   41.7608254770

- q-position: [    0.1565657,    0.0000000,    0.0000000 ]
  distance:    0.0566355
  band:
  - # 1
    frequency:   -8.2073607528
  - # 2
    frequency:   -7.6061421817
  - # 3
    frequency:    1.3590139247
  - # 4
    frequency:    1.7504954999
  - # 5
    frequency:    3.3634544632
  - # 6
    frequency:    3.8953868800
  - # 7
    frequency:    4.5202439099
  - # 8
    frequency:    5.4397624337
  - # 9
    frequency:    5.5485290437
  - # 10
    frequency:    5.9242178975
  - # 11
    frequency:    6.2228156381
  - # 12
    frequency:    7.5529938605
  - # 13
    frequency:    7.8641458595
  - # 14
    frequency:   12.4458185235
  - # 15
    frequency:   14.7785815922
  - # 16
    frequency:   14.8197031711
  - # 17
    frequency:   14.9450972128
  - # 18
    frequency:   41.7292414852

- q-position: [    0.1616162,    0.0000000,    0.0000000 ]
  distance:    0.0584624
  band:
  - # 1
    frequency:   -8.2081452043
  - # 2
    frequency:   -7.5756008543
  - # 3
    frequency:    1.4267588725
  - # 4
    frequency:    1.7592167186
  - # 5
    frequency:    3.4382694172
  - # 6
    frequency:    3.8915837976
  - # 7
    frequency:    4.5725278943
  - # 8
    frequency:    5.4539414819
  - # 9
    frequency:    5.5648132153
  - # 10
    frequency:    5.9293974310
  - # 11
    frequency:    6.2423404939
  - # 12
    frequency:    7.5669197331
  - # 13
    frequency:    7.8886096830
  - # 14
    frequency:   12.4124884026
  - # 15
    frequency:   14.7893217859
  - # 16
    frequency:   14.8079582282
  - # 17
    frequency:   14.9551105047
  - # 18
    frequency:   41.6969380584

- q-position: [    0.1666667,    0.0000000,    0.0000000 ]
  distance:    0.0602894
  band:
  - # 1
    frequency:   -8.2089379980
  - # 2
    frequency:   -7.5437706633
  - # 3
    frequency:    1.4945268565
  - # 4
    frequency:    1.7628912204
  - # 5
    frequency:    3.5105180988
  - # 6
    frequency:    3.8894992177
  - # 7
    frequency:    4.6261527313
  - # 8
    frequency:    5.4677031234
  - # 9
    frequency:    5.5807442537
  - # 10
    frequency:    5.9349541486
  - # 11
    frequency:    6.2619095633
  - # 12
    frequency:    7.5798457105
  - # 13
    frequency:    7.9112927904
  - # 14
    frequency:   12.3783613286
  - # 15
    frequency:   14.7949916921
  - # 16
    frequency:   14.8004626511
  - # 17
    frequency:   14.9663581135
  - # 18
    frequency:   41.6639465753

- q-position: [    0.1717172,    0.0000000,    0.0000000 ]
  distance:    0.0621163
  band:
  - # 1
    frequency:   -8.2098733586
  - # 2
    frequency:   -7.5106360183
  - # 3
    frequency:    1.5621960380
  - # 4
    frequency:    1.7614760201
  - # 5
    frequency:    3.5802606146
  - # 6
    frequency:    3.8891584900
  - # 7
    frequency:    4.6808001224
  - # 8
    frequency:    5.4810355031
  - # 9
    frequency:    5.5963230317
  - # 10
    frequency:    5.9408835646
  - # 11
    frequency:    6.2814428163
  - # 12
    frequency:    7.5918027733
  - # 13
    frequency:    7.9321731298
  - # 14
    frequency:   12.3435025703
  - # 15
    frequency:   14.7812004910
  - # 16
    frequency:   14.8119902440
  - # 17
    frequency:   14.9784437285
  - # 18
    frequency:   41.6302993726

- q-position: [    0.1767677,    0.0000000,    0.0000000 ]
  distance:    0.0639433
  band:
  - # 1
    frequency:   -8.2110929761
  - # 2
    frequency:   -7.4761847281
  - # 3
    frequency:    1.6296477681
  - # 4
    frequency:    1.7549674970
  - # 5
    frequency:    3.6475661434
  - # 6
    frequency:    3.8905512469
  - # 7
    frequency:    4.7361474986
  - # 8
    frequency:    5.4939359680
  - # 9
    frequency:    5.6115580583
  - # 10
    frequency:    5.9471767695
  - # 11
    frequency:    6.3008570197
  - # 12
    frequency:    7.6028028852
  - # 13
    frequency:    7.9512660902
  - # 14