nqpoint: 300    
npath: 3      
segment_nqpoint:
- 100
- 100
- 100
labels:
- [ 'G', 'M' ]
- [ 'M', 'K' ]
- [ 'K', 'G' ]
reciprocal_lattice:
- [   0.31327270,   0.18086808,   0.00000000 ] # a*
- [   0.00000000,   0.36173615,   0.00000000 ] # b*
- [   0.00000000,   0.00000000,   0.04190616 ] # c*
natom: 6      
lattice:
- [     3.192107089445498,     0.000000000000000,     0.000000000000000 ] # a
- [    -1.596053544722749,     2.764445831059051,     0.000000000000000 ] # b
- [     0.000000000000000,     0.000000000000000,    23.862842876253666 ] # c
points:
- symbol: F # 1
  coordinates: [  0.666666984744047,  0.333332985985145,  0.377155397899219 ]
  mass: 18.998403
- symbol: N # 2
  coordinates: [  0.000000000000000,  0.000000000000000,  0.470039488015788 ]
  mass: 14.006700
- symbol: N # 3
  coordinates: [  0.333332985432215,  0.666666983183674,  0.568475382297396 ]
  mass: 14.006700
- symbol: O # 4
  coordinates: [  0.333332985432215,  0.666666983183674,  0.622844602100781 ]
  mass: 15.999400
- symbol: Ti # 5
  coordinates: [  0.333332985432215,  0.666666983183674,  0.428152071579438 ]
  mass: 47.867000
- symbol: Ti # 6
  coordinates: [  0.666666984744047,  0.333332985985145,  0.518474823987083 ]
  mass: 47.867000

phonon:
- q-position: [    0.0000000,    0.0000000,    0.0000000 ]
  distance:    0.0000000
  band:
  - # 1
    frequency:   -6.7857947865
  - # 2
    frequency:   -6.7857947865
  - # 3
    frequency:   -0.0000009601
  - # 4
    frequency:   -0.0000003622
  - # 5
    frequency:    0.0000009289
  - # 6
    frequency:    4.0134894396
  - # 7
    frequency:    4.0134894396
  - # 8
    frequency:    4.6986449992
  - # 9
    frequency:    4.6986449992
  - # 10
    frequency:    6.2753782503
  - # 11
    frequency:    6.6213417937
  - # 12
    frequency:    6.6213417937
  - # 13
    frequency:    7.4457915952
  - # 14
    frequency:   13.0026779363
  - # 15
    frequency:   14.8515448495
  - # 16
    frequency:   14.8515448495
  - # 17
    frequency:   15.1648186364
  - # 18
    frequency:   42.2605269967

- q-position: [    0.0050505,    0.0000000,    0.0000000 ]
  distance:    0.0018270
  band:
  - # 1
    frequency:   -6.7899917779
  - # 2
    frequency:   -6.7888766182
  - # 3
    frequency:   -0.1648314993
  - # 4
    frequency:    0.0663007411
  - # 5
    frequency:    0.1915152328
  - # 6
    frequency:    4.0126456286
  - # 7
    frequency:    4.0129206984
  - # 8
    frequency:    4.6982763862
  - # 9
    frequency:    4.6990603365
  - # 10
    frequency:    6.2803757515
  - # 11
    frequency:    6.6212637627
  - # 12
    frequency:    6.6216418118
  - # 13
    frequency:    7.4462467998
  - # 14
    frequency:   13.0021288618
  - # 15
    frequency:   14.8512579166
  - # 16
    frequency:   14.8514226480
  - # 17
    frequency:   15.1642748365
  - # 18
    frequency:   42.2599316669

- q-position: [    0.0101010,    0.0000000,    0.0000000 ]
  distance:    0.0036539
  band:
  - # 1
    frequency:   -6.8025134485
  - # 2
    frequency:   -6.7980926575
  - # 3
    frequency:   -0.2198586530
  - # 4
    frequency:    0.1325602870
  - # 5
    frequency:    0.2940918665
  - # 6
    frequency:    4.0101617031
  - # 7
    frequency:    4.0112159626
  - # 8
    frequency:    4.6972581122
  - # 9
    frequency:    4.7003089909
  - # 10
    frequency:    6.2951839282
  - # 11
    frequency:    6.6210311602
  - # 12
    frequency:    6.6225568954
  - # 13
    frequency:    7.4476096825
  - # 14
    frequency:   13.0004797211
  - # 15
    frequency:   14.8503977790
  - # 16
    frequency:   14.8510587563
  - # 17
    frequency:   15.1626483433
  - # 18
    frequency:   42.2581461478

- q-position: [    0.0151515,    0.0000000,    0.0000000 ]
  distance:    0.0054809
  band:
  - # 1
    frequency:   -6.8231545307
  - # 2
    frequency:   -6.8133549235
  - # 3
    frequency:   -0.2574831869
  - # 4
    frequency:    0.1987363693
  - # 5
    frequency:    0.3906092415
  - # 6
    frequency:    4.0061784972
  - # 7
    frequency:    4.0083799725
  - # 8
    frequency:    4.6958348114
  - # 9
    frequency:    4.7023984809
  - # 10
    frequency:    6.3192652796
  - # 11
    frequency:    6.6206484193
  - # 12
    frequency:    6.6241368963
  - # 13
    frequency:    7.4498721873
  - # 14
    frequency:   12.9977248131
  - # 15
    frequency:   14.8489664619
  - # 16
    frequency:   14.8504612750
  - # 17
    frequency:   15.1599538231
  - # 18
    frequency:   42.2551718513

- q-position: [    0.0202020,    0.0000000,    0.0000000 ]
  distance:    0.0073078
  band:
  - # 1
    frequency:   -6.8515815208
  - # 2
    frequency:   -6.8345180594
  - # 3
    frequency:   -0.2878794535
  - # 4
    frequency:    0.2647845997
  - # 5
    frequency:    0.4871574857
  - # 6
    frequency:    4.0009246591
  - # 7
    frequency:    4.0044215118
  - # 8
    frequency:    4.6943601618
  - # 9
    frequency:    4.7053400223
  - # 10
    frequency:    6.3517665431
  - # 11
    frequency:    6.6201228043
  - # 12
    frequency:    6.6264841241
  - # 13
    frequency:    7.4530213463
  - # 14
    frequency:   12.9938548054
  - # 15
    frequency:   14.8469674803
  - # 16
    frequency:   14.8496435768
  - # 17
    frequency:   15.1562155430
  - # 18
    frequency:   42.2510111338

- q-position: [    0.0252525,    0.0000000,    0.0000000 ]
  distance:    0.0091348
  band:
  - # 1
    frequency:   -6.8873449107
  - # 2
    frequency:   -6.8613812226
  - # 3
    frequency:   -0.3146695115
  - # 4
    frequency:    0.3306574730
  - # 5
    frequency:    0.5851757851
  - # 6
    frequency:    3.9947063408
  - # 7
    frequency:    3.9993546113
  - # 8
    frequency:    4.6932342134
  - # 9
    frequency:    4.7091467081
  - # 10
    frequency:    6.3915498501
  - # 11
    frequency:    6.6194642323
  - # 12
    frequency:    6.6297977352
  - # 13
    frequency:    7.4570399682
  - # 14
    frequency:   12.9888569871
  - # 15
    frequency:   14.8444060441
  - # 16
    frequency:   14.8486241187
  - # 17
    frequency:   15.1514671032
  - # 18
    frequency:   42.2456673013

- q-position: [    0.0303030,    0.0000000,    0.0000000 ]
  distance:    0.0109617
  band:
  - # 1
    frequency:   -6.9298950366
  - # 2
    frequency:   -6.8936906732
  - # 3
    frequency:   -0.3391427251
  - # 4
    frequency:    0.3963034409
  - # 5
    frequency:    0.6849123571
  - # 6
    frequency:    3.9878914834
  - # 7
    frequency:    3.9932000085
  - # 8
    frequency:    4.6928433471
  - # 9
    frequency:    4.7138312451
  - # 10
    frequency:    6.4371582716
  - # 11
    frequency:    6.6186850394
  - # 12
    frequency:    6.6344875960
  - # 13
    frequency:    7.4619076036
  - # 14
    frequency:   12.9827156200
  - # 15
    frequency:   14.8412893359
  - # 16
    frequency:   14.8474261814
  - # 17
    frequency:   15.1457510595
  - # 18
    frequency:   42.2391446161

- q-position: [    0.0353535,    0.0000000,    0.0000000 ]
  distance:    0.0127887
  band:
  - # 1
    frequency:   -6.9786004484
  - # 2
    frequency:   -6.9311430083
  - # 3
    frequency:   -0.3615577047
  - # 4
    frequency:    0.4616660723
  - # 5
    frequency:    0.7862739766
  - # 6
    frequency:    3.9808892693
  - # 7
    frequency:    3.9859866821
  - # 8
    frequency:    4.6935154351
  - # 9
    frequency:    4.7194034837
  - # 10
    frequency:    6.4865640679
  - # 11
    frequency:    6.6177997036
  - # 12
    frequency:    6.6414961288
  - # 13
    frequency:    7.4676018007
  - # 14
    frequency:   12.9754123836
  - # 15
    frequency:   14.8376268543
  - # 16
    frequency:   14.8460775447
  - # 17
    frequency:   15.1391184313
  - # 18
    frequency:   42.2314483052

- q-position: [    0.0404040,    0.0000000,    0.0000000 ]
  distance:    0.0146156
  band:
  - # 1
    frequency:   -7.0327676244
  - # 2
    frequency:   -6.9733889704
  - # 3
    frequency:   -0.3816884351
  - # 4
    frequency:    0.5266833090
  - # 5
    frequency:    0.8890823647
  - # 6
    frequency:    3.9741267158
  - # 7
    frequency:    3.9777532772
  - # 8
    frequency:    4.6954951775
  - # 9
    frequency:    4.7258679861
  - # 10
    frequency:    6.5362450305
  - # 11
    frequency:    6.6168245410
  - # 12
    frequency:    6.6532756692
  - # 13
    frequency:    7.4740996743
  - # 14
    frequency:   12.9669269111
  - # 15
    frequency:   14.8334308095
  - # 16
    frequency:   14.8446101009
  - # 17
    frequency:   15.1316280959
  - # 18
    frequency:   42.2225845700

- q-position: [    0.0454545,    0.0000000,    0.0000000 ]
  distance:    0.0164426
  band:
  - # 1
    frequency:   -7.0916608897
  - # 2
    frequency:   -7.0200377491
  - # 3
    frequency:   -0.3990713095
  - # 4
    frequency:    0.5912868226
  - # 5
    frequency:    0.9931511195
  - # 6
    frequency:    3.9680252869
  - # 7
    frequency:    3.9685492686
  - # 8
    frequency:    4.6989379810
  - # 9
    frequency:    4.7332218570
  - # 10
    frequency:    6.5790432632
  - # 11
    frequency:    6.6157773873
  - # 12
    frequency:    6.6759654823
  - # 13
    frequency:    7.4813798401
  - # 14
    frequency:   12.9572374082
  - # 15
    frequency:   14.8287165594
  - # 16
    frequency:   14.8430594155
  - # 17
    frequency:   15.1233460663
  - # 18
    frequency:   42.2125605978

- q-position: [    0.0505051,    0.0000000,    0.0000000 ]
  distance:    0.0182695
  band:
  - # 1
    frequency:   -7.1545215392
  - # 2
    frequency:   -7.0706616832
  - # 3
    frequency:   -0.4131125946
  - # 4
    frequency:    0.6554014704
  - # 5
    frequency:    1.0983048164
  - # 6
    frequency:    3.9584357514
  - # 7
    frequency:    3.9629804028
  - # 8
    frequency:    4.7039171012
  - # 9
    frequency:    4.7414530103
  - # 10
    frequency:    6.6068563951
  - # 11
    frequency:    6.6146772793
  - # 12
    frequency:    6.7167204553
  - # 13
    frequency:    7.4894247985
  - # 14
    frequency:   12.9463213461
  - # 15
    frequency:   14.8235030678
  - # 16
    frequency:   14.8414642417
  - # 17
    frequency:   15.1143446574
  - # 18
    frequency:   42.2013845736

- q-position: [    0.0555556,    0.0000000,    0.0000000 ]
  distance:    0.0200965
  band:
  - # 1
    frequency:   -7.2205853732
  - # 2
    frequency:   -7.1248012642
  - # 3
    frequency:   -0.4231244240
  - # 4
    frequency:    0.7189448483
  - # 5
    frequency:    1.2043802619
  - # 6
    frequency:    3.9474858085
  - # 7
    frequency:    3.9593459246
  - # 8
    frequency:    4.7104380380
  - # 9
    frequency:    4.7505389882
  - # 10
    frequency:    6.6135441452
  - # 11
    frequency:    6.6225361614
  - # 12
    frequency:    6.7718199687
  - # 13
    frequency:    7.4982239057
  - # 14
    frequency:   12.9341562191
  - # 15
    frequency:   14.8178133646
  - # 16
    frequency:   14.8398659954
  - # 17
    frequency:   15.1047015496
  - # 18
    frequency:   42.1890656933

- q-position: [    0.0606061,    0.0000000,    0.0000000 ]
  distance:    0.0219234
  band:
  - # 1
    frequency:   -7.2890981018
  - # 2
    frequency:   -7.1819703370
  - # 3
    frequency:   -0.4283182493
  - # 4
    frequency:    0.7818269319
  - # 5
    frequency:    1.3112232003
  - # 6
    frequency:    3.9357844621
  - # 7
    frequency:    3.9574245111
  - # 8
    frequency:    4.7184552663
  - # 9
    frequency:    4.7604463786
  - # 10
    frequency:    6.6123985106
  - # 11
    frequency:    6.6330173714
  - # 12
    frequency:    6.8335373641
  - # 13
    frequency:    7.5077771395
  - # 14
    frequency:   12.9207203514
  - # 15
    frequency:   14.8116749812
  - # 16
    frequency:   14.8383082006
  - # 17
    frequency:   15.0944987634
  - # 18
    frequency:   42.1756141762

- q-position: [    0.0656566,    0.0000000,    0.0000000 ]
  distance:    0.0237504
  band:
  - # 1
    frequency:   -7.3593283178
  - # 2
    frequency:   -7.2416613958
  - # 3
    frequency:   -0.4277634700
  - # 4
    frequency:    0.8439498001
  - # 5
    frequency:    1.4186846368
  - # 6
    frequency:    3.9234282606
  - # 7
    frequency:    3.9574636500
  - # 8
    frequency:    4.7278881175
  - # 9
    frequency:    4.7711308195
  - # 10
    frequency:    6.6112612233
  - # 11
    frequency:    6.6416181154
  - # 12
    frequency:    6.8978319096
  - # 13
    frequency:    7.5180999547
  - # 14
    frequency:   12.9059937394
  - # 15
    frequency:   14.8051203313
  - # 16
    frequency:   14.8368359120
  - # 17
    frequency:   15.0838215730
  - # 18
    frequency:   42.1610412789

- q-position: [    0.0707071,    0.0000000,    0.0000000 ]
  distance:    0.0255773
  band:
  - # 1
    frequency:   -7.4305779549
  - # 2
    frequency:   -7.3033508750
  - # 3
    frequency:   -0.4203018553
  - # 4
    frequency:    0.9052074350
  - # 5
    frequency:    1.5266178251
  - # 6
    frequency:    3.9105245868
  - # 7
    frequency:    3.9596564217
  - # 8
    frequency:    4.7386342080
  - # 9
    frequency:    4.7825375338
  - # 10
    frequency:    6.6101531952
  - # 11
    frequency:    6.6495971200
  - # 12
    frequency:    6.9627792230
  - # 13
    frequency:    7.5292296233
  - # 14
    frequency:   12.8899589091
  - # 15
    frequency:   14.7981869951
  - # 16
    frequency:   14.8354951238
  - # 17
    frequency:   15.0727573911
  - # 18
    frequency:   42.1453593078

- q-position: [    0.0757576,    0.0000000,    0.0000000 ]
  distance:    0.0274043
  band:
  - # 1
    frequency:   -7.5021903202
  - # 2
    frequency:   -7.3665043449
  - # 3
    frequency:   -0.4043826428
  - # 4
    frequency:    0.9654855954
  - # 5
    frequency:    1.6348759779
  - # 6
    frequency:    3.8971907832
  - # 7
    frequency:    3.9641457306
  - # 8
    frequency:    4.7505799378
  - # 9
    frequency:    4.7946023071
  - # 10
    frequency:    6.6090951587
  - # 11
    frequency:    6.6574754745
  - # 12
    frequency:    7.0272340215
  - # 13
    frequency:    7.5412335229
  - # 14
    frequency:   12.8726017711
  - # 15
    frequency:   14.7909178644
  - # 16
    frequency:   14.8343321722
  - # 17
    frequency:   15.0613946753
  - # 18
    frequency:   42.1285816314

- q-position: [    0.0808081,    0.0000000,    0.0000000 ]
  distance:    0.0292312
  band:
  - # 1
    frequency:   -7.5735559141
  - # 2
    frequency:   -7.4305815305
  - # 3
    frequency:   -0.3777199345
  - # 4
    frequency:    1.0246617651
  - # 5
    frequency:    1.7433104999
  - # 6
    frequency:    3.8835531860
  - # 7
    frequency:    3.9710307367
  - # 8
    frequency:    4.7636082200
  - # 9
    frequency:    4.8072528110
  - # 10
    frequency:    6.6081074296
  - # 11
    frequency:    6.6654938719
  - # 12
    frequency:    7.0903546714
  - # 13
    frequency:    7.5542197535
  - # 14
    frequency:   12.8539124488
  - # 15
    frequency:   14.7833610921
  - # 16
    frequency:   14.8333931388
  - # 17
    frequency:   15.0498219119
  - # 18
    frequency:   42.1107226921

- q-position: [    0.0858586,    0.0000000,    0.0000000 ]
  distance:    0.0310582
  band:
  - # 1
    frequency:   -7.6441163190
  - # 2
    frequency:   -7.4950410852
  - # 3
    frequency:   -0.3364616912
  - # 4
    frequency:    1.0826051837
  - # 5
    frequency:    1.8517695291
  - # 6
    frequency:    3.8697461413
  - # 7
    frequency:    3.9803744144
  - # 8
    frequency:    4.7776038903
  - # 9
    frequency:    4.8204101733
  - # 10
    frequency:    6.6072096698
  - # 11
    frequency:    6.6737711314
  - # 12
    frequency:    7.1514245202
  - # 13
    frequency:    7.5683499383
  - # 14
    frequency:   12.8338860608
  - # 15
    frequency:   14.7755697905
  - # 16
    frequency:   14.8327232643
  - # 17
    frequency:   15.0381267471
  - # 18
    frequency:   42.0917980154

- q-position: [    0.0909091,    0.0000000,    0.0000000 ]
  distance:    0.0328851
  band:
  - # 1
    frequency:   -7.7133664728
  - # 2
    frequency:   -7.5593450669
  - # 3
    frequency:   -0.2725559681
  - # 4
    frequency:    1.1391769756
  - # 5
    frequency:    1.9600966308
  - # 6
    frequency:    3.8559110499
  - # 7
    frequency:    3.9922114282
  - # 8
    frequency:    4.7924573033
  - # 9
    frequency:    4.8339907063
  - # 10
    frequency:    6.6064206417
  - # 11
    frequency:    6.6823657411
  - # 12
    frequency:    7.2097703975
  - # 13
    frequency:    7.5838524156
  - # 14
    frequency:   12.8125234326
  - # 15
    frequency:   14.7676014158
  - # 16
    frequency:   14.8323663764
  - # 17
    frequency:   15.0263953373
  - # 18
    frequency:   42.0718242186

- q-position: [    0.0959596,    0.0000000,    0.0000000 ]
  distance:    0.0347121
  band:
  - # 1
    frequency:   -7.7808556380
  - # 2
    frequency:   -7.6229630755
  - # 3
    frequency:   -0.1585234003
  - # 4
    frequency:    1.1942304004
  - # 5
    frequency:    2.0681295435
  - # 6
    frequency:    3.8421954575
  - # 7
    frequency:    4.0065557749
  - # 8
    frequency:    4.8080665853
  - # 9
    frequency:    4.8479077185
  - # 10
    frequency:    6.6057579458
  - # 11
    frequency:    6.6913025703
  - # 12
    frequency:    7.2647220093
  - # 13
    frequency:    7.6010301092
  - # 14
    frequency:   12.7898317188
  - # 15
    frequency:   14.7595167826
  - # 16
    frequency:   14.8323643411
  - # 17
    frequency:   15.0147119959
  - # 18
    frequency:   42.0508190172

- q-position: [    0.1010101,    0.0000000,    0.0000000 ]
  distance:    0.0365390
  band:
  - # 1
    frequency:   -7.8461873576
  - # 2
    frequency:   -7.6853760274
  - # 3
    frequency:    0.1870347694
  - # 4
    frequency:    1.2476112560
  - # 5
    frequency:    2.1756989363
  - # 6
    frequency:    3.8287521761
  - # 7
    frequency:    4.0234078531
  - # 8
    frequency:    4.8243389188
  - # 9
    frequency:    4.8620733492
  - # 10
    frequency:    6.6052377374
  - # 11
    frequency:    6.7005856185
  - # 12
    frequency:    7.3156044166
  - # 13
    frequency:    7.6202500749
  - # 14
    frequency:   12.7658249164
  - # 15
    frequency:   14.7513786568
  - # 16
    frequency:   14.8327565425
  - # 17
    frequency:   15.0031592023
  - # 18
    frequency:   42.0288012286

- q-position: [    0.1060606,    0.0000000,    0.0000000 ]
  distance:    0.0383660
  band:
  - # 1
    frequency:   -7.9090186496
  - # 2
    frequency:   -7.7460795551
  - # 3
    frequency:    0.3266362024
  - # 4
    frequency:    1.2991584786
  - # 5
    frequency:    2.2826271764
  - # 6
    frequency:    3.8157383959
  - # 7
    frequency:    4.0427607763
  - # 8
    frequency:    4.8411911497
  - # 9
    frequency:    4.8764003786
  - # 10
    frequency:    6.6048744185
  - # 11
    frequency:    6.7102046061
  - # 12
    frequency:    7.3617772092
  - # 13
    frequency:    7.6418932930
  - # 14
    frequency:   12.7405242532
  - # 15
    frequency:   14.7432498942
  - # 16
    frequency:   14.8335793960
  - # 17
    frequency:   14.9918180331
  - # 18
    frequency:   42.0057907737

- q-position: [    0.1111111,    0.0000000,    0.0000000 ]
  distance:    0.0401929
  band:
  - # 1
    frequency:   -7.9690586552
  - # 2
    frequency:   -7.8045870308
  - # 3
    frequency:    0.4365312992
  - # 4
    frequency:    1.3487049860
  - # 5
    frequency:    2.3887271486
  - # 6
    frequency:    3.8033147279
  - # 7
    frequency:    4.0646058350
  - # 8
    frequency:    4.8585499281
  - # 9
    frequency:    4.8908039764
  - # 10
    frequency:    6.6046803049
  - # 11
    frequency:    6.7201386275
  - # 12
    frequency:    7.4027356197
  - # 13
    frequency:    7.6662461929
  - # 14
    frequency:   12.7139584404
  - # 15
    frequency:   14.7351911093
  - # 16
    frequency:   14.8348659015
  - # 17
    frequency:   14.9807690484
  - # 18
    frequency:   41.9818086755

- q-position: [    0.1161616,    0.0000000,    0.0000000 ]
  distance:    0.0420199
  band:
  - # 1
    frequency:   -8.0260669107
  - # 2
    frequency:   -7.8604322228
  - # 3
    frequency:    0.5357809324
  - # 4
    frequency:    1.3960788217
  - # 5
    frequency:    2.4938012080
  - # 6
    frequency:    3.7916440987
  - # 7
    frequency:    4.0889370579
  - # 8
    frequency:    4.8763515341
  - # 9
    frequency:    4.9052033597
  - # 10
    frequency:    6.6046652739
  - # 11
    frequency:    6.7303583093
  - # 12
    frequency:    7.4382544894
  - # 13
    frequency:    7.6933514854
  - # 14
    frequency:   12.6861637819
  - # 15
    frequency:   14.7272578911
  - # 16
    frequency:   14.8366452412
  - # 17
    frequency:   14.9700936407
  - # 18
    frequency:   41.9568770548

- q-position: [    0.1212121,    0.0000000,    0.0000000 ]
  distance:    0.0438468
  band:
  - # 1
    frequency:   -8.0798513775
  - # 2
    frequency:   -7.9131716025
  - # 3
    frequency:    0.6297437840
  - # 4
    frequency:    1.4411046539
  - # 5
    frequency:    2.5976403908
  - # 6
    frequency:    3.7808904175
  - # 7
    frequency:    4.1157548180
  - # 8
    frequency:    4.8945414934
  - # 9
    frequency:    4.9195233334
  - # 10
    frequency:    6.6048363987
  - # 11
    frequency:    6.7408271656
  - # 12
    frequency:    7.4684941130
  - # 13
    frequency:    7.7228985045
  - # 14
    frequency:   12.6571841367
  - # 15
    frequency:   14.7194976228
  - # 16
    frequency:   14.8389424254
  - # 17
    frequency:   14.9598758153
  - # 18
    frequency:   41.9310191222

- q-position: [    0.1262626,    0.0000000,    0.0000000 ]
  distance:    0.0456738
  band:
  - # 1
    frequency:   -8.1302663298
  - # 2
    frequency:   -7.9623863221
  - # 3
    frequency:    0.7206879294
  - # 4
    frequency:    1.4836056821
  - # 5
    frequency:    2.7000240697
  - # 6
    frequency:    3.7712169365
  - # 7
    frequency:    4.1450683924
  - # 8
    frequency:    4.9130740614
  - # 9
    frequency:    4.9336956926
  - # 10
    frequency:    6.6051975823
  - # 11
    frequency:    6.7515025046
  - # 12
    frequency:    7.4939754871
  - # 13
    frequency:    7.7542450948
  - # 14
    frequency:   12.6270707394
  - # 15
    frequency:   14.7119460099
  - # 16
    frequency:   14.8417779921
  - # 17
    frequency:   14.9502043133
  - # 18
    frequency:   41.9042591678

- q-position: [    0.1313131,    0.0000000,    0.0000000 ]
  distance:    0.0475007
  band:
  - # 1
    frequency:   -8.1772101713
  - # 2
    frequency:   -8.0076838916
  - # 3
    frequency:    0.8097434945
  - # 4
    frequency:    1.5234059848
  - # 5
    frequency:    2.8007202972
  - # 6
    frequency:    3.7627842416
  - # 7
    frequency:    4.1768973210
  - # 8
    frequency:    4.9319116286
  - # 9
    frequency:    4.9476604636
  - # 10
    frequency:    6.6057492033
  - # 11
    frequency:    6.7623360776
  - # 12
    frequency:    7.5154269756
  - # 13
    frequency:    7.7865687621
  - # 14
    frequency:   12.5958818826
  - # 15
    frequency:   14.7046234996
  - # 16
    frequency:   14.8451677617
  - # 17
    frequency:   14.9411749220
  - # 18
    frequency:   41.8766225466

- q-position: [    0.1363636,    0.0000000,    0.0000000 ]
  distance:    0.0493277
  band:
  - # 1
    frequency:   -8.2206232311
  - # 2
    frequency:   -8.0486995817
  - # 3
    frequency:    0.8975156176
  - # 4
    frequency:    1.5603333187
  - # 5
    frequency:    2.8994871582
  - # 6
    frequency:    3.7557478405
  - # 7
    frequency:    4.2112713316
  - # 8
    frequency:    4.9510240919
  - # 9
    frequency:    4.9613669639
  - # 10
    frequency:    6.6064877925
  - # 11
    frequency:    6.7732745806
  - # 12
    frequency:    7.5336035520
  - # 13
    frequency:    7.8190457345
  - # 14
    frequency:   12.5636824752
  - # 15
    frequency:   14.6975318610
  - # 16
    frequency:   14.8491226521
  - # 17
    frequency:   14.9328927179
  - # 18
    frequency:   41.8481356603

- q-position: [    0.1414141,    0.0000000,    0.0000000 ]
  distance:    0.0511546
  band:
  - # 1
    frequency:   -8.2604855675
  - # 2
    frequency:   -8.0850975818
  - # 3
    frequency:    0.9843320078
  - # 4
    frequency:    1.5942223394
  - # 5
    frequency:    2.9960755040
  - # 6
    frequency:    3.7502553561
  - # 7
    frequency:    4.2482285224
  - # 8
    frequency:    4.9703882300
  - # 9
    frequency:    4.9747746618
  - # 10
    frequency:    6.6074057555
  - # 11
    frequency:    6.7842600759
  - # 12
    frequency:    7.5491677436
  - # 13
    frequency:    7.8509686723
  - # 14
    frequency:   12.5305434890
  - # 15
    frequency:   14.6906513183
  - # 16
    frequency:   14.8536485558
  - # 17
    frequency:   14.9254738705
  - # 18
    frequency:   41.8188259364

- q-position: [    0.1464646,    0.0000000,    0.0000000 ]
  distance:    0.0529816
  band:
  - # 1
    frequency:   -8.2968147992
  - # 2
    frequency:   -8.1165719437
  - # 3
    frequency:    1.0703596731
  - # 4
    frequency:    1.6249181621
  - # 5
    frequency:    3.0902334669
  - # 6
    frequency:    3.7464433880
  - # 7
    frequency:    4.2878114562
  - # 8
    frequency:    4.9878538167
  - # 9
    frequency:    4.9899871196
  - # 10
    frequency:    6.6084911593
  - # 11
    frequency:    6.7952303815
  - # 12
    frequency:    7.5626471514
  - # 13
    frequency:    7.8817880349
  - # 14
    frequency:   12.4965413127
  - # 15
    frequency:   14.6839387509
  - # 16
    frequency:   14.8587462799
  - # 17
    frequency:   14.9190465085
  - # 18
    frequency:   41.7887218032

- q-position: [    0.1515152,    0.0000000,    0.0000000 ]
  distance:    0.0548085
  band:
  - # 1
    frequency:   -8.3296639700
  - # 2
    frequency:   -8.1428473364
  - # 3
    frequency:    1.1556661693
  - # 4
    frequency:    1.6522801221
  - # 5
    frequency:    3.1817130914
  - # 6
    frequency:    3.7444341659
  - # 7
    frequency:    4.3300608531
  - # 8
    frequency:    5.0005858863
  - # 9
    frequency:    5.0098096344
  - # 10
    frequency:    6.6097275986
  - # 11
    frequency:    6.8061194636
  - # 12
    frequency:    7.5744399462
  - # 13
    frequency:    7.9111056122
  - # 14
    frequency:   12.4617570295
  - # 15
    frequency:   14.6773275696
  - # 16
    frequency:   14.8644115518
  - # 17
    frequency:   14.9137500531
  - # 18
    frequency:   41.7578526615

- q-position: [    0.1565657,    0.0000000,    0.0000000 ]
  distance:    0.0566355
  band:
  - # 1
    frequency:   -8.3591194464
  - # 2
    frequency:   -8.1636796400
  - # 3
    frequency:    1.2402543952
  - # 4
    frequency:    1.6761855358
  - # 5
    frequency:    3.2702792358
  - # 6
    frequency:    3.7443321849
  - # 7
    frequency:    4.3750067299
  - # 8
    frequency:    5.0129636900
  - # 9
    frequency:    5.0298500824
  - # 10
    frequency:    6.6110941535
  - # 11
    frequency:    6.8168578639
  - # 12
    frequency:    7.5848387104
  - # 13
    frequency:    7.9386497653
  - # 14
    frequency:   12.4262756408
  - # 15
    frequency:   14.6707298641
  - # 16
    frequency:   14.8706350905
  - # 17
    frequency:   14.9097324357
  - # 18
    frequency:   41.7262488530

- q-position: [    0.1616162,    0.0000000,    0.0000000 ]
  distance:    0.0584624
  band:
  - # 1
    frequency:   -8.3852988439
  - # 2
    frequency:   -8.1788564021
  - # 3
    frequency:    1.3240836357
  - # 4
    frequency:    1.6965332133
  - # 5
    frequency:    3.3557205385
  - # 6
    frequency:    3.7462210592
  - # 7
    frequency:    4.4226571543
  - # 8
    frequency:    5.0249913217
  - # 9
    frequency:    5.0501080527
  - # 10
    frequency:    6.6125654478
  - # 11
    frequency:    6.8273731914
  - # 12
    frequency:    7.5940560760
  - # 13
    frequency:    7.9642488538
  - # 14
    frequency:   12.3901852528
  - # 15
    frequency:   14.6640412102
  - # 16
    frequency:   14.8774027425
  - # 17
    frequency:   14.9071448205
  - # 18
    frequency:   41.6939416254

- q-position: [    0.1666667,    0.0000000,    0.0000000 ]
  distance:    0.0602894
  band:
  - # 1
    frequency:   -8.4083489726
  - # 2
    frequency:   -8.1881971787
  - # 3
    frequency:    1.4070829707
  - # 4
    frequency:    1.7132464458
  - # 5
    frequency:    3.4378617315
  - # 6
    frequency:    3.7501608638
  - # 7
    frequency:    4.4729852584
  - # 8
    frequency:    5.0366838153
  - # 9
    frequency:    5.0705885787
  - # 10
    frequency:    6.6141118116
  - # 11
    frequency:    6.8375907092
  - # 12
    frequency:    7.6022459452
  - # 13
    frequency:    7.9878089989
  - # 14
    frequency:   12.3535762462
  - # 15
    frequency:   14.6571480591
  - # 16
    frequency:   14.8846956821
  - # 17
    frequency:   14.9061339180
  - # 18
    frequency:   41.6609630950

- q-position: [    0.1717172,    0.0000000,    0.0000000 ]
  distance:    0.0621163
  band:
  - # 1
    frequency:   -8.4284437929
  - # 2
    frequency:   -8.1915537788
  - # 3
    frequency:    1.4891602265
  - # 4
    frequency:    1.7262751976
  - # 5
    frequency:    3.5165759893
  - # 6
    frequency:    3.7561862272
  - # 7
    frequency:    4.5259156774
  - # 8
    frequency:    5.0480665685
  - # 9
    frequency:    5.0913027766
  - # 10
    frequency:    6.6156995455
  - # 11
    frequency:    6.8474340451
  - # 12
    frequency:    7.6095191801
  - # 13
    frequency:    8.0092972405
  - # 14
    frequency:   12.3165404458
  - # 15
    frequency:   14.6499369582
  - # 16
    frequency:   14.8924906729
  - # 17
    frequency:   14.9068326396
  - # 18
    frequency:   41.6273462058

- q-position: [    0.1767677,    0.0000000,    0.0000000 ]
  distance:    0.0639433
  band:
  - # 1
    frequency:   -8.4457823677
  - # 2
    frequency:   -8.1888104295
  - # 3
    frequency:    1.5702082251
  - # 4
    frequency:    1.7355972772
  - # 5
    frequency:    3.5917955231
  - # 6
    frequency:    3.7643053946
  - # 7
    frequency:    4.5813119715
  - # 8
    frequency:    5.0591745408
  - # 9
    frequency:    5.1122692036
  - # 10
    frequency:    6.6172912814
  - # 11
    frequency:    6.8568260562
  - # 12
    frequency:    7.6159544816
  - # 13
    frequency:    8.0287293211
  - # 14