nqpoint: 300    
npath: 3      
segment_nqpoint:
- 100
- 100
- 100
labels:
- [ 'G', 'M' ]
- [ 'M', 'K' ]
- [ 'K', 'G' ]
reciprocal_lattice:
- [   0.27468355,   0.15858862,   0.00000000 ] # a*
- [   0.00000000,   0.31717725,   0.00000000 ] # b*
- [   0.00000000,   0.00000000,   0.03961462 ] # c*
natom: 6      
lattice:
- [     3.640552862740356,     0.000000000000000,     0.000000000000000 ] # a
- [    -1.820276431370178,     3.152811262984207,     0.000000000000000 ] # b
- [     0.000000000000000,     0.000000000000000,    25.243206285436539 ] # c
points:
- symbol: C # 1
  coordinates: [  0.000000000000000,  0.000000000000000,  0.454874995275940 ]
  mass: 12.010700
- symbol: O # 2
  coordinates: [  0.333332985432215,  0.666666983183674,  0.643468428763254 ]
  mass: 15.999400
- symbol: O # 3
  coordinates: [  0.666666984744047,  0.333332985985145,  0.356531571236746 ]
  mass: 15.999400
- symbol: P # 4
  coordinates: [  0.333332985432215,  0.666666983183674,  0.584289738953857 ]
  mass: 30.973762
- symbol: Y # 5
  coordinates: [  0.333332985432215,  0.666666983183674,  0.382324019162291 ]
  mass: 88.905850
- symbol: Y # 6
  coordinates: [  0.666666984744047,  0.333332985985145,  0.495239921437517 ]
  mass: 88.905850

phonon:
- q-position: [    0.0000000,    0.0000000,    0.0000000 ]
  distance:    0.0000000
  band:
  - # 1
    frequency:   -0.0000303416
  - # 2
    frequency:   -0.0000000648
  - # 3
    frequency:    0.0000262124
  - # 4
    frequency:    1.5074657441
  - # 5
    frequency:    1.5074657441
  - # 6
    frequency:    2.6996623464
  - # 7
    frequency:    2.6996623467
  - # 8
    frequency:    3.5096265239
  - # 9
    frequency:    3.7390726485
  - # 10
    frequency:    3.7390726485
  - # 11
    frequency:    4.9930056420
  - # 12
    frequency:   11.3570884598
  - # 13
    frequency:   11.3570884600
  - # 14
    frequency:   11.5942361957
  - # 15
    frequency:   12.9336802735
  - # 16
    frequency:   12.9336802736
  - # 17
    frequency:   14.5741425942
  - # 18
    frequency:   34.2173948821

- q-position: [    0.0050505,    0.0000000,    0.0000000 ]
  distance:    0.0016019
  band:
  - # 1
    frequency:    0.0013397204
  - # 2
    frequency:    0.0378474716
  - # 3
    frequency:    0.0874550876
  - # 4
    frequency:    1.5069399783
  - # 5
    frequency:    1.5073315656
  - # 6
    frequency:    2.7000677047
  - # 7
    frequency:    2.7011063075
  - # 8
    frequency:    3.5082575144
  - # 9
    frequency:    3.7390722924
  - # 10
    frequency:    3.7404730530
  - # 11
    frequency:    4.9926494160
  - # 12
    frequency:   11.3545194233
  - # 13
    frequency:   11.3571085365
  - # 14
    frequency:   11.5961028345
  - # 15
    frequency:   12.9335723660
  - # 16
    frequency:   12.9337538282
  - # 17
    frequency:   14.5745851418
  - # 18
    frequency:   34.2171589909

- q-position: [    0.0101010,    0.0000000,    0.0000000 ]
  distance:    0.0032038
  band:
  - # 1
    frequency:    0.0053464896
  - # 2
    frequency:    0.0755830222
  - # 3
    frequency:    0.1747062094
  - # 4
    frequency:    1.5053659378
  - # 5
    frequency:    1.5069353043
  - # 6
    frequency:    2.7012833005
  - # 7
    frequency:    2.7054260081
  - # 8
    frequency:    3.5042571734
  - # 9
    frequency:    3.7390709778
  - # 10
    frequency:    3.7445705797
  - # 11
    frequency:    4.9915830765
  - # 12
    frequency:   11.3469355948
  - # 13
    frequency:   11.3571689108
  - # 14
    frequency:   11.6015835879
  - # 15
    frequency:   12.9332488403
  - # 16
    frequency:   12.9339709838
  - # 17
    frequency:   14.5759114870
  - # 18
    frequency:   34.2164516535

- q-position: [    0.0151515,    0.0000000,    0.0000000 ]
  distance:    0.0048057
  band:
  - # 1
    frequency:    0.0119822982
  - # 2
    frequency:    0.1130923122
  - # 3
    frequency:    0.2615404789
  - # 4
    frequency:    1.5027536042
  - # 5
    frequency:    1.5062972927
  - # 6
    frequency:    2.7033076805
  - # 7
    frequency:    2.7125850279
  - # 8
    frequency:    3.4979126710
  - # 9
    frequency:    3.7390679682
  - # 10
    frequency:    3.7510872480
  - # 11
    frequency:    4.9898136197
  - # 12
    frequency:   11.3346527761
  - # 13
    frequency:   11.3572700135
  - # 14
    frequency:   11.6103746322
  - # 15
    frequency:   12.9327102881
  - # 16
    frequency:   12.9343216451
  - # 17
    frequency:   14.5781177197
  - # 18
    frequency:   34.2152738772

- q-position: [    0.0202020,    0.0000000,    0.0000000 ]
  distance:    0.0064076
  band:
  - # 1
    frequency:    0.0211848656
  - # 2
    frequency:    0.1502560906
  - # 3
    frequency:    0.3477260161
  - # 4
    frequency:    1.4991203259
  - # 5
    frequency:    1.5054566772
  - # 6
    frequency:    2.7061383680
  - # 7
    frequency:    2.7225230476
  - # 8
    frequency:    3.4896150367
  - # 9
    frequency:    3.7390620487
  - # 10
    frequency:    3.7596479848
  - # 11
    frequency:    4.9873526420
  - # 12
    frequency:   11.3180635634
  - # 13
    frequency:   11.3574125542
  - # 14
    frequency:   11.6221020997
  - # 15
    frequency:   12.9319576963
  - # 16
    frequency:   12.9347903915
  - # 17
    frequency:   14.5811972650
  - # 18
    frequency:   34.2136273389

- q-position: [    0.0252525,    0.0000000,    0.0000000 ]
  distance:    0.0080095
  band:
  - # 1
    frequency:    0.0328687399
  - # 2
    frequency:    0.1869473753
  - # 3
    frequency:    0.4329993970
  - # 4
    frequency:    1.4944919259
  - # 5
    frequency:    1.5044801475
  - # 6
    frequency:    2.7097717830
  - # 7
    frequency:    2.7351563005
  - # 8
    frequency:    3.4797819358
  - # 9
    frequency:    3.7390515435
  - # 10
    frequency:    3.7698588657
  - # 11
    frequency:    4.9842162474
  - # 12
    frequency:   11.2975402553
  - # 13
    frequency:   11.3575975096
  - # 14
    frequency:   11.6364174004
  - # 15
    frequency:   12.9309924485
  - # 16
    frequency:   12.9353584946
  - # 17
    frequency:   14.5851408022
  - # 18
    frequency:   34.2115143808

- q-position: [    0.0303030,    0.0000000,    0.0000000 ]
  distance:    0.0096114
  band:
  - # 1
    frequency:    0.0469267752
  - # 2
    frequency:    0.2230282233
  - # 3
    frequency:    0.5170487960
  - # 4
    frequency:    1.4889043279
  - # 5
    frequency:    1.5034760174
  - # 6
    frequency:    2.7142031355
  - # 7
    frequency:    2.7503779594
  - # 8
    frequency:    3.4688075012
  - # 9
    frequency:    3.7390343405
  - # 10
    frequency:    3.7813588284
  - # 11
    frequency:    4.9804249237
  - # 12
    frequency:   11.2733912440
  - # 13
    frequency:   11.3578261061
  - # 14
    frequency:   11.6530385009
  - # 15
    frequency:   12.9298163270
  - # 16
    frequency:   12.9360065789
  - # 17
    frequency:   14.5899361630
  - # 18
    frequency:   34.2089380058

- q-position: [    0.0353535,    0.0000000,    0.0000000 ]
  distance:    0.0112133
  band:
  - # 1
    frequency:    0.0632316727
  - # 2
    frequency:    0.2583459019
  - # 3
    frequency:    0.5994902478
  - # 4
    frequency:    1.4824057786
  - # 5
    frequency:    1.5026159253
  - # 6
    frequency:    2.7194262953
  - # 7
    frequency:    2.7680582088
  - # 8
    frequency:    3.4570421003
  - # 9
    frequency:    3.7390079234
  - # 10
    frequency:    3.7938421229
  - # 11
    frequency:    4.9760033916
  - # 12
    frequency:   11.2458588411
  - # 13
    frequency:   11.3580997992
  - # 14
    frequency:   11.6717493254
  - # 15
    frequency:   12.9284315151
  - # 16
    frequency:   12.9367177926
  - # 17
    frequency:   14.5955682207
  - # 18
    frequency:   34.2059018710

- q-position: [    0.0404040,    0.0000000,    0.0000000 ]
  distance:    0.0128152
  band:
  - # 1
    frequency:    0.0816373473
  - # 2
    frequency:    0.2927282708
  - # 3
    frequency:    0.6798333884
  - # 4
    frequency:    1.4750597580
  - # 5
    frequency:    1.5021675802
  - # 6
    frequency:    2.7254336448
  - # 7
    frequency:    2.7880436706
  - # 8
    frequency:    3.4447925027
  - # 9
    frequency:    3.7389694096
  - # 10
    frequency:    3.8070612514
  - # 11
    frequency:    4.9709804351
  - # 12
    frequency:   11.2151351183
  - # 13
    frequency:   11.3584202484
  - # 14
    frequency:   11.6923808181
  - # 15
    frequency:   12.9268405994
  - # 16
    frequency:   12.9374813564
  - # 17
    frequency:   14.6020187810
  - # 18
    frequency:   34.2024102796

- q-position: [    0.0454545,    0.0000000,    0.0000000 ]
  distance:    0.0144171
  band:
  - # 1
    frequency:    0.1019798416
  - # 2
    frequency:    0.3259781632
  - # 3
    frequency:    0.7574319744
  - # 4
    frequency:    1.4669486811
  - # 5
    frequency:    1.5025431150
  - # 6
    frequency:    2.7322159197
  - # 7
    frequency:    2.8101557366
  - # 8
    frequency:    3.4323325023
  - # 9
    frequency:    3.7389155936
  - # 10
    frequency:    3.8208206746
  - # 11
    frequency:    4.9653887200
  - # 12
    frequency:   11.1813803515
  - # 13
    frequency:   11.3587892886
  - # 14
    frequency:   11.7147891757
  - # 15
    frequency:   12.9250465729
  - # 16
    frequency:   12.9382963700
  - # 17
    frequency:   14.6092664881
  - # 18
    frequency:   34.1984681719

- q-position: [    0.0505051,    0.0000000,    0.0000000 ]
  distance:    0.0160191
  band:
  - # 1
    frequency:    0.1240774591
  - # 2
    frequency:    0.3578665438
  - # 3
    frequency:    0.8314148343
  - # 4
    frequency:    1.4581784821
  - # 5
    frequency:    1.5043673351
  - # 6
    frequency:    2.7397620450
  - # 7
    frequency:    2.8341872192
  - # 8
    frequency:    3.4199179468
  - # 9
    frequency:    3.7388429975
  - # 10
    frequency:    3.8349678202
  - # 11
    frequency:    4.9592646073
  - # 12
    frequency:   11.1447378389
  - # 13
    frequency:   11.3592088987
  - # 14
    frequency:   11.7388375547
  - # 15
    frequency:   12.9230528371
  - # 16
    frequency:   12.9391757859
  - # 17
    frequency:   14.6172867587
  - # 18
    frequency:   34.1940811149

- q-position: [    0.0555556,    0.0000000,    0.0000000 ]
  distance:    0.0176210
  band:
  - # 1
    frequency:    0.1477297158
  - # 2
    frequency:    0.3881242357
  - # 3
    frequency:    0.9005991117
  - # 4
    frequency:    1.4488841230
  - # 5
    frequency:    1.5085640232
  - # 6
    frequency:    2.7480589732
  - # 7
    frequency:    2.8598965197
  - # 8
    frequency:    3.4078037612
  - # 9
    frequency:    3.7387479254
  - # 10
    frequency:    3.8493845230
  - # 11
    frequency:    4.9526479734
  - # 12
    frequency:   11.1053439731
  - # 13
    frequency:   11.3596811672
  - # 14
    frequency:   11.7643824229
  - # 15
    frequency:   12.9208632047
  - # 16
    frequency:   12.9401504823
  - # 17
    frequency:   14.6260517547
  - # 18
    frequency:   34.1892552897

- q-position: [    0.0606061,    0.0000000,    0.0000000 ]
  distance:    0.0192229
  band:
  - # 1
    frequency:    0.1727145685
  - # 2
    frequency:    0.4164320692
  - # 3
    frequency:    0.9634105530
  - # 4
    frequency:    1.4392359489
  - # 5
    frequency:    1.5164356832
  - # 6
    frequency:    2.7570915324
  - # 7
    frequency:    2.8869982397
  - # 8
    frequency:    3.3962628682
  - # 9
    frequency:    3.7386265232
  - # 10
    frequency:    3.8639800043
  - # 11
    frequency:    4.9455820421
  - # 12
    frequency:   11.0633343727
  - # 13
    frequency:   11.3602082566
  - # 14
    frequency:   11.7912637741
  - # 15
    frequency:   12.9184819014
  - # 16
    frequency:   12.9412733944
  - # 17
    frequency:   14.6355304044
  - # 18
    frequency:   34.1839974792

- q-position: [    0.0656566,    0.0000000,    0.0000000 ]
  distance:    0.0208248
  band:
  - # 1
    frequency:    0.1987831458
  - # 2
    frequency:    0.4424094489
  - # 3
    frequency:    1.0178903586
  - # 4
    frequency:    1.4294465780
  - # 5
    frequency:    1.5296575014
  - # 6
    frequency:    2.7668422892
  - # 7
    frequency:    2.9151488733
  - # 8
    frequency:    3.3856081675
  - # 9
    frequency:    3.7384748427
  - # 10
    frequency:    3.8786855505
  - # 11
    frequency:    4.9381132408
  - # 12
    frequency:   11.0188472655
  - # 13
    frequency:   11.3607923654
  - # 14
    frequency:   11.8192980407
  - # 15
    frequency:   12.9159135671
  - # 16
    frequency:   12.9426236636
  - # 17
    frequency:   14.6456884770
  - # 18
    frequency:   34.1783150531

- q-position: [    0.0707071,    0.0000000,    0.0000000 ]
  distance:    0.0224267
  band:
  - # 1
    frequency:    0.2256507952
  - # 2
    frequency:    0.4656015967
  - # 3
    frequency:    1.0619387940
  - # 4
    frequency:    1.4197776038
  - # 5
    frequency:    1.5500358927
  - # 6
    frequency:    2.7772914348
  - # 7
    frequency:    2.9439261393
  - # 8
    frequency:    3.3762191859
  - # 9
    frequency:    3.7382889092
  - # 10
    frequency:    3.8934506985
  - # 11
    frequency:    4.9302910868
  - # 12
    frequency:   10.9720251424
  - # 13
    frequency:   11.3614356908
  - # 14
    frequency:   11.8482727349
  - # 15
    frequency:   12.9131632570
  - # 16
    frequency:   12.9443107442
  - # 17
    frequency:   14.6564887176
  - # 18
    frequency:   34.1722159524

- q-position: [    0.0757576,    0.0000000,    0.0000000 ]
  distance:    0.0240286
  band:
  - # 1
    frequency:    0.2529825402
  - # 2
    frequency:    0.4854661047
  - # 3
    frequency:    1.0938970296
  - # 4
    frequency:    1.4105447663
  - # 5
    frequency:    1.5789311606
  - # 6
    frequency:    2.7884166989
  - # 7
    frequency:    2.9728013846
  - # 8
    frequency:    3.3685742371
  - # 9
    frequency:    3.7380647927
  - # 10
    frequency:    3.9082406478
  - # 11
    frequency:    4.9221681140
  - # 12
    frequency:   10.9230154118
  - # 13
    frequency:   11.3621403899
  - # 14
    frequency:   11.8779422029
  - # 15
    frequency:   12.9102364399
  - # 16
    frequency:   12.9464783450
  - # 17
    frequency:   14.6678910397
  - # 18
    frequency:   34.1657086726

- q-position: [    0.0808081,    0.0000000,    0.0000000 ]
  distance:    0.0256305
  band:
  - # 1
    frequency:    0.2803697877
  - # 2
    frequency:    0.5013598382
  - # 3
    frequency:    1.1132224991
  - # 4
    frequency:    1.4021194265
  - # 5
    frequency:    1.6165907473
  - # 6
    frequency:    2.8001932950
  - # 7
    frequency:    3.0011081666
  - # 8
    frequency:    3.3632852400
  - # 9
    frequency:    3.7377986822
  - # 10
    frequency:    3.9230346450
  - # 11
    frequency:    4.9137998463
  - # 12
    frequency:   10.8719705285
  - # 13
    frequency:   11.3629085424
  - # 14
    frequency:   11.9080242521
  - # 15
    frequency:   12.9071389973
  - # 16
    frequency:   12.9493079651
  - # 17
    frequency:   14.6798527764
  - # 18
    frequency:   34.1588022460

- q-position: [    0.0858586,    0.0000000,    0.0000000 ]
  distance:    0.0272324
  band:
  - # 1
    frequency:    0.3072929148
  - # 2
    frequency:    0.5125273002
  - # 3
    frequency:    1.1206897795
  - # 4
    frequency:    1.3949233661
  - # 5
    frequency:    1.6619641470
  - # 6
    frequency:    2.8125939020
  - # 7
    frequency:    3.0280202097
  - # 8
    frequency:    3.3611222034
  - # 9
    frequency:    3.7374869614
  - # 10
    frequency:    3.9378251350
  - # 11
    frequency:    4.9052448245
  - # 12
    frequency:   10.8190478833
  - # 13
    frequency:   11.3637421143
  - # 14
    frequency:   11.9381977858
  - # 15
    frequency:   12.9038772194
  - # 16
    frequency:   12.9530216020
  - # 17
    frequency:   14.6923289856
  - # 18
    frequency:   34.1515062225

- q-position: [    0.0909091,    0.0000000,    0.0000000 ]
  distance:    0.0288343
  band:
  - # 1
    frequency:    0.3330604231
  - # 2
    frequency:    0.5180905097
  - # 3
    frequency:    1.1179382931
  - # 4
    frequency:    1.3894136303
  - # 5
    frequency:    1.7131835395
  - # 6
    frequency:    2.8255886823
  - # 7
    frequency:    3.0525717448
  - # 8
    frequency:    3.3629945075
  - # 9
    frequency:    3.7371262878
  - # 10
    frequency:    3.9526175284
  - # 11
    frequency:    4.8965646948
  - # 12
    frequency:   10.7644096125
  - # 13
    frequency:   11.3646429229
  - # 14
    frequency:   11.9681019539
  - # 15
    frequency:   12.9004578000
  - # 16
    frequency:   12.9578829585
  - # 17
    frequency:   14.7052728024
  - # 18
    frequency:   34.1438306498

- q-position: [    0.0959596,    0.0000000,    0.0000000 ]
  distance:    0.0304362
  band:
  - # 1
    frequency:    0.3567083381
  - # 2
    frequency:    0.5170367402
  - # 3
    frequency:    1.1068553015
  - # 4
    frequency:    1.3860551339
  - # 5
    frequency:    1.7682307596
  - # 6
    frequency:    2.8391453384
  - # 7
    frequency:    3.0737734889
  - # 8
    frequency:    3.3698357945
  - # 9
    frequency:    3.7367136722
  - # 10
    frequency:    3.9674304747
  - # 11
    frequency:    4.8878243622
  - # 12
    frequency:   10.7082224087
  - # 13
    frequency:   11.3656126054
  - # 14
    frequency:   11.9973377081
  - # 15
    frequency:   12.8968878293
  - # 16
    frequency:   12.9641961822
  - # 17
    frequency:   14.7186358340
  - # 18
    frequency:   34.1357860524

- q-position: [    0.1010101,    0.0000000,    0.0000000 ]
  distance:    0.0320381
  band:
  - # 1
    frequency:    0.3768312259
  - # 2
    frequency:    0.5081917267
  - # 3
    frequency:    1.0892590844
  - # 4
    frequency:    1.3852818121
  - # 5
    frequency:    1.8253402102
  - # 6
    frequency:    2.8532292056
  - # 7
    frequency:    3.0908542781
  - # 8
    frequency:    3.3823624552
  - # 9
    frequency:    3.7362465602
  - # 10
    frequency:    3.9822965636
  - # 11
    frequency:    4.8790922155
  - # 12
    frequency:   10.6506573636
  - # 13
    frequency:   11.3666525888
  - # 14
    frequency:   12.0254729549
  - # 15
    frequency:   12.8931747845
  - # 16
    frequency:   12.9723009079
  - # 17
    frequency:   14.7323685881
  - # 18
    frequency:   34.1273834099

- q-position: [    0.1060606,    0.0000000,    0.0000000 ]
  distance:    0.0336400
  band:
  - # 1
    frequency:    0.3912954037
  - # 2
    frequency:    0.4901479398
  - # 3
    frequency:    1.0669352336
  - # 4
    frequency:    1.3874519520
  - # 5
    frequency:    1.8831042154
  - # 6
    frequency:    2.8678033797
  - # 7
    frequency:    3.1035423882
  - # 8
    frequency:    3.4007915923
  - # 9
    frequency:    3.7357229145
  - # 10
    frequency:    3.9972633892
  - # 11
    frequency:    4.8704404274
  - # 12
    frequency:   10.5918898489
  - # 13
    frequency:   11.3677640649
  - # 14
    frequency:   12.0520526155
  - # 15
    frequency:   12.8893265185
  - # 16
    frequency:   12.9825622908
  - # 17
    frequency:   14.7464209289
  - # 18
    frequency:   34.1186341342

- q-position: [    0.1111111,    0.0000000,    0.0000000 ]
  distance:    0.0352419
  band:
  - # 1
    frequency:    0.3967507889
  - # 2
    frequency:    0.4610788105
  - # 3
    frequency:    1.0418900345
  - # 4
    frequency:    1.3928079616
  - # 5
    frequency:    1.9404294315
  - # 6
    frequency:    2.8828288756
  - # 7
    frequency:    3.1121836100
  - # 8
    frequency:    3.4247212270
  - # 9
    frequency:    3.7351412982
  - # 10
    frequency:    4.0123949129
  - # 11
    frequency:    4.8619453333
  - # 12
    frequency:   10.5320994246
  - # 13
    frequency:   11.3689479677
  - # 14
    frequency:   12.0766145907
  - # 15
    frequency:   12.8853512451
  - # 16
    frequency:   12.9953550365
  - # 17
    frequency:   14.7607425541
  - # 18
    frequency:   34.1095500468

- q-position: [    0.1161616,    0.0000000,    0.0000000 ]
  distance:    0.0368438
  band:
  - # 1
    frequency:    0.3877872077
  - # 2
    frequency:    0.4182648659
  - # 3
    frequency:    1.0166678315
  - # 4
    frequency:    1.4014519069
  - # 5
    frequency:    1.9964566903
  - # 6
    frequency:    2.8982648131
  - # 7
    frequency:    3.1175902651
  - # 8
    frequency:    3.4532783012
  - # 9
    frequency:    3.7345009583
  - # 10
    frequency:    4.0277730321
  - # 11
    frequency:    4.8536878926
  - # 12
    frequency:   10.4714697577
  - # 13
    frequency:   11.3702049558
  - # 14
    frequency:   12.0987117024
  - # 15
    frequency:   12.8812575226
  - # 16
    frequency:   13.0110413728
  - # 17
    frequency:   14.7752834875
  - # 18
    frequency:   34.1001433538

- q-position: [    0.1212121,    0.0000000,    0.0000000 ]
  distance:    0.0384457
  band:
  - # 1
    frequency:    0.3552609303
  - # 2
    frequency:    0.3567618139
  - # 3
    frequency:    0.9944913366
  - # 4
    frequency:    1.4133437630
  - # 5
    frequency:    2.0504904726
  - # 6
    frequency:    2.9140686237
  - # 7
    frequency:    3.1207554873
  - # 8
    frequency:    3.4853998203
  - # 9
    frequency:    3.7338019105
  - # 10
    frequency:    4.0434992037
  - # 11
    frequency:    4.8457542366
  - # 12
    frequency:   10.4101885307
  - # 13
    frequency:   11.3715353994
  - # 14
    frequency:   12.1179380728
  - # 15
    frequency:   12.8770542339
  - # 16
    frequency:   13.0299445139
  - # 17
    frequency:   14.7899945827
  - # 18
    frequency:   34.0904266221

- q-position: [    0.1262626,    0.0000000,    0.0000000 ]
  distance:    0.0400476
  band:
  - # 1
    frequency:    0.2643247353
  - # 2
    frequency:    0.2807744391
  - # 3
    frequency:    0.9788351080
  - # 4
    frequency:    1.4283213410
  - # 5
    frequency:    2.1019488924
  - # 6
    frequency:    2.9301962733
  - # 7
    frequency:    3.1226266421
  - # 8
    frequency:    3.5200529262
  - # 9
    frequency:    3.7330450236
  - # 10
    frequency:    4.0596958569
  - # 11
    frequency:    4.8382363042
  - # 12
    frequency:   10.3484473203
  - # 13
    frequency:   11.3729393711
  - # 14
    frequency:   12.1339564791
  - # 15
    frequency:   12.8727505644
  - # 16
    frequency:   13.0523210936
  - # 17
    frequency:   14.8048280375
  - # 18
    frequency:   34.0804127540

- q-position: [    0.1313131,    0.0000000,    0.0000000 ]
  distance:    0.0416495
  band:
  - # 1
    frequency:    0.0566205036
  - # 2
    frequency:    0.0623645120
  - # 3
    frequency:    0.9723107964
  - # 4
    frequency:    1.4461339164
  - # 5
    frequency:    2.1503329257
  - # 6
    frequency:    2.9466024947
  - # 7
    frequency:    3.1240015703
  - # 8
    frequency:    3.5563299989
  - # 9
    frequency:    3.7322321050
  - # 10
    frequency:    4.0765071496
  - # 11
    frequency:    4.8312325711
  - # 12
    frequency:   10.2864414243
  - # 13
    frequency:   11.3744166427
  - # 14
    frequency:   12.1465217704
  - # 15
    frequency:   12.8683559764
  - # 16
    frequency:   13.0783374889
  - # 17
    frequency:   14.8197379155
  - # 18
    frequency:   34.0701149615

- q-position: [    0.1363636,    0.0000000,    0.0000000 ]
  distance:    0.0432514
  band:
  - # 1
    frequency:   -0.3159034632
  - # 2
    frequency:   -0.2684623646
  - # 3
    frequency:    0.9756746552
  - # 4
    frequency:    1.4664792698
  - # 5
    frequency:    2.1952110943
  - # 6
    frequency:    2.9632410238
  - # 7
    frequency:    3.1255088255
  - # 8
    frequency:    3.5934577785
  - # 9
    frequency:    3.7313659865
  - # 10
    frequency:    4.0940983511
  - # 11
    frequency:    4.8248488765
  - # 12
    frequency:   10.2243696186
  - # 13
    frequency:   11.3759666859
  - # 14
    frequency:   12.1554954275
  - # 15
    frequency:   12.8638801810
  - # 16
    frequency:   13.1080549623
  - # 17
    frequency:   14.8346806777
  - # 18
    frequency:   34.0595467401

- q-position: [    0.1414141,    0.0000000,    0.0000000 ]
  distance:    0.0448533
  band:
  - # 1
    frequency:   -0.4802568260
  - # 2
    frequency:   -0.3940370854
  - # 3
    frequency:    0.9879506808
  - # 4
    frequency:    1.4890360575
  - # 5
    frequency:    2.2362159782
  - # 6
    frequency:    2.9800648336
  - # 7
    frequency:    3.1276206577
  - # 8
    frequency:    3.6307726298
  - # 9
    frequency:    3.7304506098
  - # 10
    frequency:    4.1126528009
  - # 11
    frequency:    4.8191993529
  - # 12
    frequency:   10.1624338259
  - # 13
    frequency:   11.3775886779
  - # 14
    frequency:   12.1608481751
  - # 15
    frequency:   12.8593331068
  - # 16
    frequency:   13.1414267140
  - # 17
    frequency:   14.8496157275
  - # 18
    frequency:   34.0487218432

- q-position: [    0.1464646,    0.0000000,    0.0000000 ]
  distance:    0.0464553
  band:
  - # 1
    frequency:   -0.6212714080
  - # 2
    frequency:   -0.4956408841
  - # 3
    frequency:    1.0073665031
  - # 4
    frequency:    1.5134875705
  - # 5
    frequency:    2.2730492357
  - # 6
    frequency:    2.9970263605
  - # 7
    frequency:    3.1306700345
  - # 8
    frequency:    3.6676926095
  - # 9
    frequency:    3.7294911131
  - # 10
    frequency:    4.1323650589
  - # 11
    frequency:    4.8144074668
  - # 12
    frequency:   10.1008386802
  - # 13
    frequency:   11.3792815125
  - # 14
    frequency:   12.1626506544
  - # 15
    frequency:   12.8547248666
  - # 16
    frequency:   13.1783068380
  - # 17
    frequency:   14.8645059705
  - # 18
    frequency:   34.0376542549

- q-position: [    0.1515152,    0.0000000,    0.0000000 ]
  distance:    0.0480572
  band:
  - # 1
    frequency:   -0.7504958496
  - # 2
    frequency:   -0.5852899558
  - # 3
    frequency:    1.0321524437
  - # 4
    frequency:    1.5395365186
  - # 5
    frequency:    2.3054916330
  - # 6
    frequency:    3.0140777180
  - # 7
    frequency:    3.1348623748
  - # 8
    frequency:    3.7036988009
  - # 9
    frequency:    3.7284939164
  - # 10
    frequency:    4.1534287596
  - # 11
    frequency:    4.8106071783
  - # 12
    frequency:   10.0397909699
  - # 13
    frequency:   11.3810438141
  - # 14
    frequency:   12.1610551284
  - # 15
    frequency:   12.8500657201
  - # 16
    frequency:   13.2184682060
  - # 17
    frequency:   14.8793183979
  - # 18
    frequency:   34.0263581637

- q-position: [    0.1565657,    0.0000000,    0.0000000 ]
  distance:    0.0496591
  band:
  - # 1
    frequency:   -0.8720685740
  - # 2
    frequency:   -0.6673289566
  - # 3
    frequency:    1.0608723343
  - # 4
    frequency:    1.5669124684
  - # 5
    frequency:    2.3334140706
  - # 6
    frequency:    3.0311708942
  - # 7
    frequency:    3.1402825738
  - # 8
    frequency:    3.7274668067
  - # 9
    frequency:    3.7383291666
  - # 10
    frequency:    4.1760181347
  - # 11
    frequency:    4.8079442242
  - # 12
    frequency:    9.9794989495
  - # 13
    frequency:   11.3828739573
  - # 14
    frequency:   12.1562727971
  - # 15
    frequency:   12.8453660356
  - # 16
    frequency:   13.2616246971
  - # 17
    frequency:   14.8940246999
  - # 18
    frequency:   34.0148479356

- q-position: [    0.1616162,    0.0000000,    0.0000000 ]
  distance:    0.0512610
  band:
  - # 1
    frequency:   -0.9881416361
  - # 2
    frequency:   -0.7438742131
  - # 3
    frequency:    1.0924563913
  - # 4
    frequency:    1.5953741506
  - # 5
    frequency:    2.3567853375
  - # 6
    frequency:    3.0482579296
  - # 7
    frequency:    3.1469015620
  - # 8
    frequency:    3.7264190216
  - # 9
    frequency:    3.7711838159
  - # 10
    frequency:    4.2002635616
  - # 11
    frequency:    4.8065775161
  - # 12
    frequency:    9.9201715054
  - # 13
    frequency:   11.3847700894
  - # 14
    frequency:   12.1485511655
  - # 15
    frequency:   12.8406362479
  - # 16
    frequency:   13.3074533234
  - # 17
    frequency:   14.9086019170
  - # 18
    frequency:   34.0031380875

- q-position: [    0.1666667,    0.0000000,    0.0000000 ]
  distance:    0.0528629
  band:
  - # 1
    frequency:   -1.1000638130
  - # 2
    frequency:   -0.8161339725
  - # 3
    frequency:    1.1261314755
  - # 4
    frequency:    1.6247086316
  - # 5
    frequency:    2.3756729297
  - # 6
    frequency:    3.0652910738
  - # 7
    frequency:    3.1545868616
  - # 8
    frequency:    3.7253613294
  - # 9
    frequency:    3.8019377042
  - # 10
    frequency:    4.2262238470
  - # 11
    frequency:    4.8066806088
  - # 12
    frequency:    9.8620171699
  - # 13
    frequency:   11.3867301563
  - # 14
    frequency:   12.1381545769
  - # 15
    frequency:   12.8358868157
  - # 16
    frequency:   13.3556131282
  - # 17
    frequency:   14.9230331394
  - # 18
    frequency:   33.9912432607

- q-position: [    0.1717172,    0.0000000,    0.0000000 ]
  distance:    0.0544648
  band:
  - # 1
    frequency:   -1.2087658068
  - # 2
    frequency:   -0.8848724641
  - # 3
    frequency:    1.1613406487
  - # 4
    frequency:    1.6547288363
  - # 5
    frequency:    2.3902350274
  - # 6
    frequency:    3.0822229200
  - # 7
    frequency:    3.1631197919
  - # 8
    frequency:    3.7243061043
  - # 9
    frequency:    3.8303545457
  - # 10
    frequency:    4.2538605129
  - # 11
    frequency:    4.8084431082
  - # 12
    frequency:    9.8052429770
  - # 13
    frequency:   11.3887519312
  - # 14
    frequency:   12.1253493650
  - # 15
    frequency:   12.8311281757
  - # 16
    frequency:   13.4057593951
  - # 17
    frequency:   14.9373082662
  - # 18
    frequency:   33.9791781942

- q-position: [    0.1767677,    0.0000000,    0.0000000 ]
  distance:    0.0560667
  band:
  - # 1
    frequency:   -1.3149239964
  - # 2
    frequency:   -0.9506092691
  - # 3
    frequency:    1.1976787966
  - # 4
    frequency:    1.6852704002
  - # 5
    frequency:    2.4007041901
  - # 6
    frequency:    3.0990065183
  - # 7
    frequency:    3.1722192426
  - # 8
    frequency:    3.7232673946
  - # 9
    frequency:    3.8562950363
  - # 10
    frequency:    4.2830205769
  - # 11
    frequency:    4.8120717249
  - # 12
    frequency:    9.7500531608
  - # 13
    frequency:   11.3908330455
  - # 14