nqpoint: 300    
npath: 3      
segment_nqpoint:
- 100
- 100
- 100
labels:
- [ 'G', 'M' ]
- [ 'M', 'K' ]
- [ 'K', 'G' ]
reciprocal_lattice:
- [   0.32199397,   0.18590330,   0.00000000 ] # a*
- [   0.00000000,   0.37180661,   0.00000000 ] # b*
- [   0.00000000,   0.00000000,   0.03856730 ] # c*
natom: 7      
lattice:
- [     3.105648249197008,     0.000000000000000,     0.000000000000000 ] # a
- [    -1.552824124598504,     2.689570279018350,     0.000000000000000 ] # b
- [     0.000000000000000,     0.000000000000000,    25.928701272878776 ] # c
points:
- symbol: C # 1
  coordinates: [  0.000000000000000,  0.000000000000000,  0.478122707984912 ]
  mass: 12.010700
- symbol: H # 2
  coordinates: [  0.666666984744047,  0.333332985985145,  0.347105699791217 ]
  mass: 1.007940
- symbol: O # 3
  coordinates: [  0.333332985432215,  0.666666983183674,  0.652894300208783 ]
  mass: 15.999400
- symbol: O # 4
  coordinates: [  0.666666984744047,  0.333332985985145,  0.385224776714297 ]
  mass: 15.999400
- symbol: P # 5
  coordinates: [  0.333332985432215,  0.666666983183674,  0.595420799756367 ]
  mass: 30.973762
- symbol: Ti # 6
  coordinates: [  0.333332985432215,  0.666666983183674,  0.433106738906232 ]
  mass: 47.867000
- symbol: Ti # 7
  coordinates: [  0.666666984744047,  0.333332985985145,  0.522926955603621 ]
  mass: 47.867000

phonon:
- q-position: [    0.0000000,    0.0000000,    0.0000000 ]
  distance:    0.0000000
  band:
  - # 1
    frequency:   -0.9885364593
  - # 2
    frequency:   -0.9885364592
  - # 3
    frequency:   -0.0000182599
  - # 4
    frequency:   -0.0000004238
  - # 5
    frequency:    0.0000138008
  - # 6
    frequency:    4.6923441299
  - # 7
    frequency:    4.6923441300
  - # 8
    frequency:    6.3252978281
  - # 9
    frequency:    6.3252978281
  - # 10
    frequency:    6.5252763560
  - # 11
    frequency:    9.2748988699
  - # 12
    frequency:    9.2748988699
  - # 13
    frequency:   11.2793330721
  - # 14
    frequency:   13.8108959469
  - # 15
    frequency:   13.8108959469
  - # 16
    frequency:   15.2261364014
  - # 17
    frequency:   18.2352879121
  - # 18
    frequency:   19.0860744736
  - # 19
    frequency:   19.0860744736
  - # 20
    frequency:   34.6702510999
  - # 21
    frequency:  111.2980053533

- q-position: [    0.0050505,    0.0000000,    0.0000000 ]
  distance:    0.0018778
  band:
  - # 1
    frequency:   -0.9922931843
  - # 2
    frequency:   -0.9818310192
  - # 3
    frequency:    0.0026314186
  - # 4
    frequency:    0.0994462218
  - # 5
    frequency:    0.1453804322
  - # 6
    frequency:    4.6923762857
  - # 7
    frequency:    4.6940434389
  - # 8
    frequency:    6.3178867189
  - # 9
    frequency:    6.3250481351
  - # 10
    frequency:    6.5336733679
  - # 11
    frequency:    9.2745187186
  - # 12
    frequency:    9.2752630705
  - # 13
    frequency:   11.2786702253
  - # 14
    frequency:   13.8101643843
  - # 15
    frequency:   13.8112096627
  - # 16
    frequency:   15.2263735632
  - # 17
    frequency:   18.2351203623
  - # 18
    frequency:   19.0849851876
  - # 19
    frequency:   19.0854321467
  - # 20
    frequency:   34.6699878673
  - # 21
    frequency:  111.2966582703

- q-position: [    0.0101010,    0.0000000,    0.0000000 ]
  distance:    0.0037556
  band:
  - # 1
    frequency:   -1.0030932575
  - # 2
    frequency:   -0.9614420937
  - # 3
    frequency:    0.0105674865
  - # 4
    frequency:    0.1970073882
  - # 5
    frequency:    0.2906022334
  - # 6
    frequency:    4.6924732862
  - # 7
    frequency:    4.6991248898
  - # 8
    frequency:    6.2985855640
  - # 9
    frequency:    6.3243021956
  - # 10
    frequency:    6.5559375876
  - # 11
    frequency:    9.2733805203
  - # 12
    frequency:    9.2763528368
  - # 13
    frequency:   11.2766847568
  - # 14
    frequency:   13.8079700768
  - # 15
    frequency:   13.8121508374
  - # 16
    frequency:   15.2270889509
  - # 17
    frequency:   18.2346160726
  - # 18
    frequency:   19.0817218173
  - # 19
    frequency:   19.0835054728
  - # 20
    frequency:   34.6691986399
  - # 21
    frequency:  111.2926220440

- q-position: [    0.0151515,    0.0000000,    0.0000000 ]
  distance:    0.0056334
  band:
  - # 1
    frequency:   -1.0197416779
  - # 2
    frequency:   -0.9264997346
  - # 3
    frequency:    0.0239543339
  - # 4
    frequency:    0.2913207604
  - # 5
    frequency:    0.4355140367
  - # 6
    frequency:    4.6926367310
  - # 7
    frequency:    4.7075392915
  - # 8
    frequency:    6.2725482841
  - # 9
    frequency:    6.3230694161
  - # 10
    frequency:    6.5869312034
  - # 11
    frequency:    9.2714910152
  - # 12
    frequency:    9.2781596888
  - # 13
    frequency:   11.2733858669
  - # 14
    frequency:   13.8043141493
  - # 15
    frequency:   13.8137195493
  - # 16
    frequency:   15.2282942368
  - # 17
    frequency:   18.2337701421
  - # 18
    frequency:   19.0762978196
  - # 19
    frequency:   19.0802953826
  - # 20
    frequency:   34.6678848284
  - # 21
    frequency:  111.2859117249

- q-position: [    0.0202020,    0.0000000,    0.0000000 ]
  distance:    0.0075112
  band:
  - # 1
    frequency:   -1.0407753237
  - # 2
    frequency:   -0.8753536345
  - # 3
    frequency:    0.0431300852
  - # 4
    frequency:    0.3817477532
  - # 5
    frequency:    0.5799770067
  - # 6
    frequency:    4.6928692856
  - # 7
    frequency:    4.7192054251
  - # 8
    frequency:    6.2434064727
  - # 9
    frequency:    6.3213654333
  - # 10
    frequency:    6.6230495951
  - # 11
    frequency:    9.2688613509
  - # 12
    frequency:    9.2806695835
  - # 13
    frequency:   11.2687888351
  - # 14
    frequency:   13.7991984259
  - # 15
    frequency:   13.8159159139
  - # 16
    frequency:   15.2300087605
  - # 17
    frequency:   18.2325744659
  - # 18
    frequency:   19.0687356013
  - # 19
    frequency:   19.0758034651
  - # 20
    frequency:   34.6660487792
  - # 21
    frequency:  111.2765523365

- q-position: [    0.0252525,    0.0000000,    0.0000000 ]
  distance:    0.0093891
  band:
  - # 1
    frequency:   -1.0648418085
  - # 2
    frequency:   -0.8051577065
  - # 3
    frequency:    0.0688592867
  - # 4
    frequency:    0.4682582047
  - # 5
    frequency:    0.7238671482
  - # 6
    frequency:    4.6931746796
  - # 7
    frequency:    4.7340111274
  - # 8
    frequency:    6.2131612343
  - # 9
    frequency:    6.3192120529
  - # 10
    frequency:    6.6623296871
  - # 11
    frequency:    9.2655069556
  - # 12
    frequency:    9.2838630487
  - # 13
    frequency:   11.2629149382
  - # 14
    frequency:   13.7926253619
  - # 15
    frequency:   13.8187400625
  - # 16
    frequency:   15.2322593532
  - # 17
    frequency:   18.2310178307
  - # 18
    frequency:   19.0590664864
  - # 19
    frequency:   19.0700320219
  - # 20
    frequency:   34.6636937688
  - # 21
    frequency:  111.2645787854

- q-position: [    0.0303030,    0.0000000,    0.0000000 ]
  distance:    0.0112669
  band:
  - # 1
    frequency:   -1.0908714815
  - # 2
    frequency:   -0.7109567921
  - # 3
    frequency:    0.1030231706
  - # 4
    frequency:    0.5511975706
  - # 5
    frequency:    0.8670750161
  - # 6
    frequency:    4.6935577029
  - # 7
    frequency:    4.7518146780
  - # 8
    frequency:    6.1829064608
  - # 9
    frequency:    6.3166371623
  - # 10
    frequency:    6.7037269415
  - # 11
    frequency:    9.2614473636
  - # 12
    frequency:    9.2877153691
  - # 13
    frequency:   11.2557913316
  - # 14
    frequency:   13.7845979640
  - # 15
    frequency:   13.8221921116
  - # 16
    frequency:   15.2350800869
  - # 17
    frequency:   18.2290860445
  - # 18
    frequency:   19.0473306683
  - # 19
    frequency:   19.0629841438
  - # 20
    frequency:   34.6608239947
  - # 21
    frequency:  111.2500357348

- q-position: [    0.0353535,    0.0000000,    0.0000000 ]
  distance:    0.0131447
  band:
  - # 1
    frequency:   -1.1180942493
  - # 2
    frequency:   -0.5836763455
  - # 3
    frequency:    0.1511274149
  - # 4
    frequency:    0.6310868668
  - # 5
    frequency:    1.0095039458
  - # 6
    frequency:    4.6940241964
  - # 7
    frequency:    4.7724463872
  - # 8
    frequency:    6.1532885883
  - # 9
    frequency:    6.3136746186
  - # 10
    frequency:    6.7466559505
  - # 11
    frequency:    9.2567059992
  - # 12
    frequency:    9.2921968220
  - # 13
    frequency:   11.2474508921
  - # 14
    frequency:   13.7751197123
  - # 15
    frequency:   13.8262721238
  - # 16
    frequency:   15.2385119413
  - # 17
    frequency:   18.2267621021
  - # 18
    frequency:   19.0335771452
  - # 19
    frequency:   19.0546638072
  - # 20
    frequency:   34.6574445636
  - # 21
    frequency:  111.2329774432

- q-position: [    0.0404040,    0.0000000,    0.0000000 ]
  distance:    0.0150225
  band:
  - # 1
    frequency:   -1.1459888744
  - # 2
    frequency:   -0.4084513600
  - # 3
    frequency:    0.2340794353
  - # 4
    frequency:    0.7084966673
  - # 5
    frequency:    1.1510679487
  - # 6
    frequency:    4.6945810380
  - # 7
    frequency:    4.7957102684
  - # 8
    frequency:    6.1247316127
  - # 9
    frequency:    6.3103641081
  - # 10
    frequency:    6.7907658462
  - # 11
    frequency:    9.2513099207
  - # 12
    frequency:    9.2972729604
  - # 13
    frequency:   11.2379320181
  - # 14
    frequency:   13.7641945001
  - # 15
    frequency:   13.8309800595
  - # 16
    frequency:   15.2426023857
  - # 17
    frequency:   18.2240263816
  - # 18
    frequency:   19.0178636360
  - # 19
    frequency:   19.0450759880
  - # 20
    frequency:   34.6535614785
  - # 21
    frequency:  111.2134675677

- q-position: [    0.0454545,    0.0000000,    0.0000000 ]
  distance:    0.0169003
  band:
  - # 1
    frequency:   -1.1742193577
  - # 2
    frequency:   -0.2100310520
  - # 3
    frequency:    0.4088133334
  - # 4
    frequency:    0.7839814068
  - # 5
    frequency:    1.2916900064
  - # 6
    frequency:    4.6952361187
  - # 7
    frequency:    4.8213856980
  - # 8
    frequency:    6.0975450256
  - # 9
    frequency:    6.3067509794
  - # 10
    frequency:    6.8358328531
  - # 11
    frequency:    9.2452895325
  - # 12
    frequency:    9.3029049402
  - # 13
    frequency:   11.2272783851
  - # 14
    frequency:   13.7518266066
  - # 15
    frequency:   13.8363157211
  - # 16
    frequency:   15.2474048695
  - # 17
    frequency:   18.2208568729
  - # 18
    frequency:   19.0002564732
  - # 19
    frequency:   19.0342267943
  - # 20
    frequency:   34.6491816220
  - # 21
    frequency:  111.1915789329

- q-position: [    0.0505051,    0.0000000,    0.0000000 ]
  distance:    0.0187781
  band:
  - # 1
    frequency:   -1.2025800493
  - # 2
    frequency:    0.0431564505
  - # 3
    frequency:    0.6212055070
  - # 4
    frequency:    0.8580504181
  - # 5
    frequency:    1.4313010337
  - # 6
    frequency:    4.6959983083
  - # 7
    frequency:    4.8492289869
  - # 8
    frequency:    6.0719777832
  - # 9
    frequency:    6.3028860469
  - # 10
    frequency:    6.8817068449
  - # 11
    frequency:    9.2386782697
  - # 12
    frequency:    9.3090498894
  - # 13
    frequency:   11.2155386518
  - # 14
    frequency:   13.7380207200
  - # 15
    frequency:   13.8422786884
  - # 16
    frequency:   15.2529782215
  - # 17
    frequency:   18.2172294332
  - # 18
    frequency:   18.9808304686
  - # 19
    frequency:   19.0221236128
  - # 20
    frequency:   34.6443127379
  - # 21
    frequency:  111.1673932658

- q-position: [    0.0555556,    0.0000000,    0.0000000 ]
  distance:    0.0206559
  band:
  - # 1
    frequency:   -1.2309540555
  - # 2
    frequency:    0.1735947276
  - # 3
    frequency:    0.8077399876
  - # 4
    frequency:    0.9311581444
  - # 5
    frequency:    1.5698394584
  - # 6
    frequency:    4.6968774080
  - # 7
    frequency:    4.8789748380
  - # 8
    frequency:    6.0482468667
  - # 9
    frequency:    6.2988253639
  - # 10
    frequency:    6.9282832902
  - # 11
    frequency:    9.2315122608
  - # 12
    frequency:    9.3156613127
  - # 13
    frequency:   11.2027661157
  - # 14
    frequency:   13.7227820221
  - # 15
    frequency:   13.8488682468
  - # 16
    frequency:   15.2593859562
  - # 17
    frequency:   18.2131180733
  - # 18
    frequency:   18.9596687459
  - # 19
    frequency:   19.0087752696
  - # 20
    frequency:   34.6389634105
  - # 21
    frequency:  111.1410008979

- q-position: [    0.0606061,    0.0000000,    0.0000000 ]
  distance:    0.0225337
  band:
  - # 1
    frequency:   -1.2592833298
  - # 2
    frequency:    0.2418228916
  - # 3
    frequency:    0.9743333946
  - # 4
    frequency:    1.0037032630
  - # 5
    frequency:    1.7072512249
  - # 6
    frequency:    4.6978840871
  - # 7
    frequency:    4.9103377256
  - # 8
    frequency:    6.0265532553
  - # 9
    frequency:    6.2946299651
  - # 10
    frequency:    6.9754876726
  - # 11
    frequency:    9.2238299765
  - # 12
    frequency:    9.3226895300
  - # 13
    frequency:   11.1890183150
  - # 14
    frequency:   13.7061163457
  - # 15
    frequency:   13.8560833086
  - # 16
    frequency:   15.2666954936
  - # 17
    frequency:   18.2084952704
  - # 18
    frequency:   18.9368625344
  - # 19
    frequency:   18.9941922011
  - # 20
    frequency:   34.6331430416
  - # 21
    frequency:  111.1125004351

- q-position: [    0.0656566,    0.0000000,    0.0000000 ]
  distance:    0.0244115
  band:
  - # 1
    frequency:   -1.2875475234
  - # 2
    frequency:    0.3019711184
  - # 3
    frequency:    1.0760314274
  - # 4
    frequency:    1.1280517738
  - # 5
    frequency:    1.8434900025
  - # 6
    frequency:    4.6990298025
  - # 7
    frequency:    4.9430133241
  - # 8
    frequency:    6.0070912067
  - # 9
    frequency:    6.2903655757
  - # 10
    frequency:    7.0232663323
  - # 11
    frequency:    9.2156718679
  - # 12
    frequency:    9.3300821414
  - # 13
    frequency:   11.1743565759
  - # 14
    frequency:   13.6880304102
  - # 15
    frequency:   13.8639223280
  - # 16
    frequency:   15.2749772970
  - # 17
    frequency:   18.2033323137
  - # 18
    frequency:   18.9125109131
  - # 19
    frequency:   18.9783866349
  - # 20
    frequency:   34.6268618251
  - # 21
    frequency:  111.0819983956

- q-position: [    0.0707071,    0.0000000,    0.0000000 ]
  distance:    0.0262894
  band:
  - # 1
    frequency:   -1.3157490104
  - # 2
    frequency:    0.3606988497
  - # 3
    frequency:    1.1484391438
  - # 4
    frequency:    1.2729076076
  - # 5
    frequency:    1.9785174101
  - # 6
    frequency:    4.7003267007
  - # 7
    frequency:    4.9766802205
  - # 8
    frequency:    5.9900535714
  - # 9
    frequency:    6.2861022875
  - # 10
    frequency:    7.0715807539
  - # 11
    frequency:    9.2070800027
  - # 12
    frequency:    9.3377845159
  - # 13
    frequency:   11.1588455068
  - # 14
    frequency:   13.6685321363
  - # 15
    frequency:   13.8723832119
  - # 16
    frequency:   15.2843039440
  - # 17
    frequency:   18.1975996842
  - # 18
    frequency:   18.8867204972
  - # 19
    frequency:   18.9613727758
  - # 20
    frequency:   34.6201307204
  - # 21
    frequency:  111.0496088181

- q-position: [    0.0757576,    0.0000000,    0.0000000 ]
  distance:    0.0281672
  band:
  - # 1
    frequency:   -1.3439021881
  - # 2
    frequency:    0.4200109641
  - # 3
    frequency:    1.2211777413
  - # 4
    frequency:    1.4112392617
  - # 5
    frequency:    2.1123031179
  - # 6
    frequency:    4.7017874982
  - # 7
    frequency:    5.0110022866
  - # 8
    frequency:    5.9756343125
  - # 9
    frequency:    6.2819141992
  - # 10
    frequency:    7.1204037696
  - # 11
    frequency:    9.1980977020
  - # 12
    frequency:    9.3457402963
  - # 13
    frequency:   11.1425524398
  - # 14
    frequency:   13.6476310371
  - # 15
    frequency:   13.8814632267
  - # 16
    frequency:   15.2947491426
  - # 17
    frequency:   18.1912674779
  - # 18
    frequency:   18.8596050511
  - # 19
    frequency:   18.9431669970
  - # 20
    frequency:   34.6129614225
  - # 21
    frequency:  111.0154528408

- q-position: [    0.0808081,    0.0000000,    0.0000000 ]
  distance:    0.0300450
  band:
  - # 1
    frequency:   -1.3720257591
  - # 2
    frequency:    0.4806546337
  - # 3
    frequency:    1.2944570823
  - # 4
    frequency:    1.5444898486
  - # 5
    frequency:    2.2448247334
  - # 6
    frequency:    4.7034253448
  - # 7
    frequency:    5.0456322318
  - # 8
    frequency:    5.9640285562
  - # 9
    frequency:    6.2778790210
  - # 10
    frequency:    7.1697168511
  - # 11
    frequency:    9.1887691849
  - # 12
    frequency:    9.3538919165
  - # 13
    frequency:   11.1255468229
  - # 14
    frequency:   13.6253386756
  - # 15
    frequency:   13.8911589033
  - # 16
    frequency:   15.3063867128
  - # 17
    frequency:   18.1843058815
  - # 18
    frequency:   18.8312850132
  - # 19
    frequency:   18.9237880319
  - # 20
    frequency:   34.6053663314
  - # 21
    frequency:  110.9796582525

- q-position: [    0.0858586,    0.0000000,    0.0000000 ]
  distance:    0.0319228
  band:
  - # 1
    frequency:   -1.4001371514
  - # 2
    frequency:    0.5429163252
  - # 3
    frequency:    1.3684489610
  - # 4
    frequency:    1.6735924023
  - # 5
    frequency:    2.3760674103
  - # 6
    frequency:    4.7052536658
  - # 7
    frequency:    5.0802169990
  - # 8
    frequency:    5.9554300116
  - # 9
    frequency:    6.2740776416
  - # 10
    frequency:    7.2195080329
  - # 11
    frequency:    9.1791392227
  - # 12
    frequency:    9.3621811245
  - # 13
    frequency:   11.1078995679
  - # 14
    frequency:   13.6016691778
  - # 15
    frequency:   13.9014659422
  - # 16
    frequency:   15.3192895541
  - # 17
    frequency:   18.1766857164
  - # 18
    frequency:   18.8018869132
  - # 19
    frequency:   18.9032571650
  - # 20
    frequency:   34.5973585190
  - # 21
    frequency:  110.9423590170

- q-position: [    0.0909091,    0.0000000,    0.0000000 ]
  distance:    0.0338006
  band:
  - # 1
    frequency:   -1.4282485273
  - # 2
    frequency:    0.6068827402
  - # 3
    frequency:    1.4432902484
  - # 4
    frequency:    1.7991707682
  - # 5
    frequency:    2.5060231532
  - # 6
    frequency:    4.7072859879
  - # 7
    frequency:    5.1144057165
  - # 8
    frequency:    5.9500253478
  - # 9
    frequency:    6.2705936570
  - # 10
    frequency:    7.2697702036
  - # 11
    frequency:    9.1692528084
  - # 12
    frequency:    9.3705495061
  - # 13
    frequency:   11.0896823609
  - # 14
    frequency:   13.5766397849
  - # 15
    frequency:   13.9123791192
  - # 16
    frequency:   15.3335286193
  - # 17
    frequency:   18.1683790687
  - # 18
    frequency:   18.7715426577
  - # 19
    frequency:   18.8815984196
  - # 20
    frequency:   34.5889516948
  - # 21
    frequency:  110.9036947729

- q-position: [    0.0959596,    0.0000000,    0.0000000 ]
  distance:    0.0356784
  band:
  - # 1
    frequency:   -1.4563640263
  - # 2
    frequency:    0.6725446019
  - # 3
    frequency:    1.5190858613
  - # 4
    frequency:    1.9216516221
  - # 5
    frequency:    2.6346898079
  - # 6
    frequency:    4.7095357487
  - # 7
    frequency:    5.1478608032
  - # 8
    frequency:    5.9479851325
  - # 9
    frequency:    6.2675128604
  - # 10
    frequency:    7.3204996128
  - # 11
    frequency:    9.1591548429
  - # 12
    frequency:    9.3789390047
  - # 13
    frequency:   11.0709669412
  - # 14
    frequency:   13.5502714275
  - # 15
    frequency:   13.9238921959
  - # 16
    frequency:   15.3491719175
  - # 17
    frequency:   18.1593600289
  - # 18
    frequency:   18.7403886590
  - # 19
    frequency:   18.8588387383
  - # 20
    frequency:   34.5801601696
  - # 21
    frequency:  110.8638103091

- q-position: [    0.1010101,    0.0000000,    0.0000000 ]
  distance:    0.0375562
  band:
  - # 1
    frequency:   -1.4844779938
  - # 2
    frequency:    0.7398437372
  - # 3
    frequency:    1.5959116187
  - # 4
    frequency:    2.0413308583
  - # 5
    frequency:    2.7620697493
  - # 6
    frequency:    4.7120160953
  - # 7
    frequency:    5.1802723902
  - # 8
    frequency:    5.9494512936
  - # 9
    frequency:    6.2649226930
  - # 10
    frequency:    7.3716945081
  - # 11
    frequency:    9.1488898404
  - # 12
    frequency:    9.3872924312
  - # 13
    frequency:   11.0518243596
  - # 14
    frequency:   13.5225893024
  - # 15
    frequency:   13.9359978345
  - # 16
    frequency:   15.3662835667
  - # 17
    frequency:   18.1496055681
  - # 18
    frequency:   18.7085647769
  - # 19
    frequency:   18.8350081554
  - # 20
    frequency:   34.5709988182
  - # 21
    frequency:  110.8228550198

- q-position: [    0.1060606,    0.0000000,    0.0000000 ]
  distance:    0.0394340
  band:
  - # 1
    frequency:   -1.5125740178
  - # 2
    frequency:    0.8086965386
  - # 3
    frequency:    1.6738170217
  - # 4
    frequency:    2.1584150936
  - # 5
    frequency:    2.8881682936
  - # 6
    frequency:    4.7147396736
  - # 7
    frequency:    5.2113754091
  - # 8
    frequency:    5.9545218410
  - # 9
    frequency:    6.2629116548
  - # 10
    frequency:    7.4233538569
  - # 11
    frequency:    9.1385016552
  - # 12
    frequency:    9.3955539606
  - # 13
    frequency:   11.0323242248
  - # 14
    frequency:   13.4936234349
  - # 15
    frequency:   13.9486875201
  - # 16
    frequency:   15.3849229132
  - # 17
    frequency:   18.1390965776
  - # 18
    frequency:   18.6762130459
  - # 19
    frequency:   18.8101399586
  - # 20
    frequency:   34.5614830402
  - # 21
    frequency:  110.7809823386

- q-position: [    0.1111111,    0.0000000,    0.0000000 ]
  distance:    0.0413118
  band:
  - # 1
    frequency:   -1.5406246265
  - # 2
    frequency:    0.8790064699
  - # 3
    frequency:    1.7528279643
  - # 4
    frequency:    2.2730488571
  - # 5
    frequency:    3.0129918763
  - # 6
    frequency:    4.7177184169
  - # 7
    frequency:    5.2409675484
  - # 8
    frequency:    5.9632346943
  - # 9
    frequency:    6.2615686765
  - # 10
    frequency:    7.4754761335
  - # 11
    frequency:    9.1280332301
  - # 12
    frequency:    9.4036696107
  - # 13
    frequency:   11.0125339508
  - # 14
    frequency:   13.4634092074
  - # 15
    frequency:   13.9619514922
  - # 16
    frequency:   15.4051437325
  - # 17
    frequency:   18.1278190977
  - # 18
    frequency:   18.6434761617
  - # 19
    frequency:   18.7842708356
  - # 20
    frequency:   34.5516287203
  - # 21
    frequency:  110.7383491544

- q-position: [    0.1161616,    0.0000000,    0.0000000 ]
  distance:    0.0431897
  band:
  - # 1
    frequency:   -1.5685915234
  - # 2
    frequency:    0.9506710367
  - # 3
    frequency:    1.8329493670
  - # 4
    frequency:    2.3853331516
  - # 5
    frequency:    3.1365460504
  - # 6
    frequency:    4.7209633376
  - # 7
    frequency:    5.2689251568
  - # 8
    frequency:    5.9755535683
  - # 9
    frequency:    6.2609824543
  - # 10
    frequency:    7.5280581693
  - # 11
    frequency:    9.1175263672
  - # 12
    frequency:    9.4115877015
  - # 13
    frequency:   10.9925180154
  - # 14
    frequency:   13.4319878398
  - # 15
    frequency:   13.9757786864
  - # 16
    frequency:   15.4269935237
  - # 17
    frequency:   18.1157657552
  - # 18
    frequency:   18.6104957087
  - # 19
    frequency:   18.7574410064
  - # 20
    frequency:   34.5414521871
  - # 21
    frequency:  110.6951152125

- q-position: [    0.1212121,    0.0000000,    0.0000000 ]
  distance:    0.0450675
  band:
  - # 1
    frequency:   -1.5964262435
  - # 2
    frequency:    1.0235857634
  - # 3
    frequency:    1.9141677066
  - # 4
    frequency:    2.4953385803
  - # 5
    frequency:    3.2588333656
  - # 6
    frequency:    4.7244843307
  - # 7
    frequency:    5.2952136350
  - # 8
    frequency:    5.9913593790
  - # 9
    frequency:    6.2612407472
  - # 10
    frequency:    7.5810940776
  - # 11
    frequency:    9.1070215218
  - # 12
    frequency:    9.4192592903
  - # 13
    frequency:   10.9723372437
  - # 14
    frequency:   13.3994068071
  - # 15
    frequency:   13.9901566884
  - # 16
    frequency:   15.4505129015
  - # 17
    frequency:   18.1029374090
  - # 18
    frequency:   18.5774101313
  - # 19
    frequency:   18.7296943362
  - # 20
    frequency:   34.5309701708
  - # 21
    frequency:  110.6514425000

- q-position: [    0.1262626,    0.0000000,    0.0000000 ]
  distance:    0.0469453
  band:
  - # 1
    frequency:   -1.6240711272
  - # 2
    frequency:    1.0976464537
  - # 3
    frequency:    1.9964534163
  - # 4
    frequency:    2.6031149067
  - # 5
    frequency:    3.3798511952
  - # 6
    frequency:    4.7282899998
  - # 7
    frequency:    5.3198894701
  - # 8
    frequency:    6.0104500134
  - # 9
    frequency:    6.2624296425
  - # 10
    frequency:    7.6345742685
  - # 11
    frequency:    9.0965576177
  - # 12
    frequency:    9.4266385837
  - # 13
    frequency:   10.9520481301
  - # 14
    frequency:   13.3657201830
  - # 15
    frequency:   14.0050717007
  - # 16
    frequency:   15.4757350900
  - # 17
    frequency:   18.0893449809
  - # 18
    frequency:   18.5443524761
  - # 19
    frequency:   18.7010784283
  - # 20
    frequency:   34.5201997610
  - # 21
    frequency:  110.6074946213

- q-position: [    0.1313131,    0.0000000,    0.0000000 ]
  distance:    0.0488231
  band:
  - # 1
    frequency:   -1.6514605171
  - # 2
    frequency:    1.1727504237
  - # 3
    frequency:    2.0797631234
  - # 4
    frequency:    2.7086981696
  - # 5
    frequency:    3.4995895715
  - # 6
    frequency:    4.7323875122
  - # 7
    frequency:    5.3430928883
  - # 8
    frequency:    6.0325494731
  - # 9
    frequency:    6.2646327908
  - # 10
    frequency:    7.6884845750
  - # 11
    frequency:    9.0861718850
  - # 12
    frequency:    9.4336833255
  - # 13
    frequency:   10.9317022115
  - # 14
    frequency:   13.3309889003
  - # 15
    frequency:   14.0205085241
  - # 16
    frequency:   15.5026855149
  - # 17
    frequency:   18.0750114085
  - # 18
    frequency:   18.5114479729
  - # 19
    frequency:   18.6716446948
  - # 20
    frequency:   34.5091583625
  - # 21
    frequency:  110.5634361622

- q-position: [    0.1363636,    0.0000000,    0.0000000 ]
  distance:    0.0507009
  band:
  - # 1
    frequency:   -1.6785220908
  - # 2
    frequency:    1.2487970960
  - # 3
    frequency:    2.1640416999
  - # 4
    frequency:    2.8121160521
  - # 5
    frequency:    3.6180290852
  - # 6
    frequency:    4.7367824982
  - # 7
    frequency:    5.3650324959
  - # 8
    frequency:    6.0573250076
  - # 9
    frequency:    6.2679306178
  - # 10
    frequency:    7.7428055115
  - # 11
    frequency:    9.0758997176
  - # 12
    frequency:    9.4403551588
  - # 13
    frequency:   10.9113455058
  - # 14
    frequency:   13.2952809187
  - # 15
    frequency:   14.0364505526
  - # 16
    frequency:   15.5313814877
  - # 17
    frequency:   18.0599736102
  - # 18
    frequency:   18.4788115699
  - # 19
    frequency:   18.6414484019
  - # 20
    frequency:   34.4978636521
  - # 21
    frequency:  110.5194320487

- q-position: [    0.1414141,    0.0000000,    0.0000000 ]
  distance:    0.0525787
  band:
  - # 1
    frequency:   -1.7051782593
  - # 2
    frequency:    1.3256881888
  - # 3
    frequency:    2.2492241030
  - # 4
    frequency:    2.9133919511
  - # 5
    frequency:    3.7351388827
  - # 6
    frequency:    4.7414790039
  - # 7
    frequency:    5.3859652015
  - # 8
    frequency:    6.0844089315
  - # 9
    frequency:    6.2723995186
  - # 10
    frequency:    7.7975116822
  - # 11
    frequency:    9.0657745509
  - # 12
    frequency:    9.4466199677
  - # 13
    frequency:   10.8910180306
  - # 14
    frequency:   13.2586712954
  - # 15
    frequency:   14.0528797845
  - # 16
    frequency:   15.5618319749
  - # 17
    frequency:   18.0442842994
  - # 18
    frequency:   18.4465455951
  - # 19
    frequency:   18.6105486899
  - # 20
    frequency:   34.4863335337
  - # 21
    frequency:  110.4756469000

- q-position: [    0.1464646,    0.0000000,    0.0000000 ]
  distance:    0.0544565
  band:
  - # 1
    frequency:   -1.7313475693
  - # 2
    frequency:    1.4033276447
  - # 3
    frequency:    2.3352369902
  - # 4
    frequency:    3.0125480462
  - # 5
    frequency:    3.8508747786
  - # 6
    frequency:    4.7464795117
  - # 7
    frequency:    5.4061753841
  - # 8
    frequency:    6.1134211596
  - # 9
    frequency:    6.2781110424
  - # 10
    frequency:    7.8525713525
  - # 11
    frequency:    9.0558277582
  - # 12
    frequency:    9.4524481974
  - # 13
    frequency:   10.8707534136
  - # 14
    frequency:   13.2212421511
  - # 15
    frequency:   14.0697768478
  - # 16
    frequency:   15.5940374383
  - # 17
    frequency:   18.0280134404
  - # 18
    frequency:   18.4147377578
  - # 19
    frequency:   18.5790085638
  - # 20
    frequency:   34.4745860945
  - # 21
    frequency:  110.4322443798

- q-position: [    0.1515152,    0.0000000,    0.0000000 ]
  distance:    0.0563343
  band:
  - # 1
    frequency:   -1.7569460624
  - # 2
    frequency:    1.4816213960
  - # 3
    frequency:    2.4220000960
  - # 4
    frequency:    3.1096075794
  - # 5
    frequency:    3.9651774693
  - # 6
    frequency:    4.7517850430
  - # 7
    frequency:    5.4259566422
  - # 8
    frequency:    6.1439891360
  - # 9
    frequency:    6.2851310795
  - # 10
    frequency:    7.9079461896
  - # 11
    frequency:    9.0460885633
  - # 12
    frequency:    9.4578151589
  - # 13
    frequency:   10.8505786115
  - # 14
    frequency:   13.1830825262
  - # 15
    frequency:   14.0871210401
  - # 16
    frequency:   15.6279897356
  - # 17
    frequency:   18.0112491107
  - # 18
    frequency:   18.3834597375
  - # 19
    frequency:   18.5468948548
  - # 20
    frequency:   34.4626395599
  - # 21
    frequency:  110.3893865480
