nqpoint: 300    
npath: 3      
segment_nqpoint:
- 100
- 100
- 100
labels:
- [ 'G', 'M' ]
- [ 'M', 'K' ]
- [ 'K', 'G' ]
reciprocal_lattice:
- [   0.32199397,   0.18590330,   0.00000000 ] # a*
- [   0.00000000,   0.37180661,   0.00000000 ] # b*
- [   0.00000000,   0.00000000,   0.03856730 ] # c*
natom: 7      
lattice:
- [     3.105648249197008,     0.000000000000000,     0.000000000000000 ] # a
- [    -1.552824124598504,     2.689570279018350,     0.000000000000000 ] # b
- [     0.000000000000000,     0.000000000000000,    25.928701272878776 ] # c
points:
- symbol: C # 1
  coordinates: [  0.000000000000000,  0.000000000000000,  0.478122707984912 ]
  mass: 12.010700
- symbol: H # 2
  coordinates: [  0.666666984744047,  0.333332985985145,  0.347105699791217 ]
  mass: 1.007940
- symbol: O # 3
  coordinates: [  0.333332985432215,  0.666666983183674,  0.652894300208783 ]
  mass: 15.999400
- symbol: O # 4
  coordinates: [  0.666666984744047,  0.333332985985145,  0.385224776714297 ]
  mass: 15.999400
- symbol: P # 5
  coordinates: [  0.333332985432215,  0.666666983183674,  0.595420799756367 ]
  mass: 30.973762
- symbol: Ti # 6
  coordinates: [  0.333332985432215,  0.666666983183674,  0.433106738906232 ]
  mass: 47.867000
- symbol: Ti # 7
  coordinates: [  0.666666984744047,  0.333332985985145,  0.522926955603621 ]
  mass: 47.867000

phonon:
- q-position: [    0.0000000,    0.0000000,    0.0000000 ]
  distance:    0.0000000
  band:
  - # 1
    frequency:   -2.3130880367
  - # 2
    frequency:   -2.3130880367
  - # 3
    frequency:   -0.0000019720
  - # 4
    frequency:   -0.0000009595
  - # 5
    frequency:    0.0000019055
  - # 6
    frequency:    4.7108544044
  - # 7
    frequency:    4.7108544044
  - # 8
    frequency:    6.2460048122
  - # 9
    frequency:    6.2460048122
  - # 10
    frequency:    6.4977284518
  - # 11
    frequency:    8.8842300485
  - # 12
    frequency:    8.8842300485
  - # 13
    frequency:   11.2508200229
  - # 14
    frequency:   13.3011092269
  - # 15
    frequency:   13.3011092269
  - # 16
    frequency:   15.0853949971
  - # 17
    frequency:   18.1319004958
  - # 18
    frequency:   18.4875796191
  - # 19
    frequency:   18.4875796191
  - # 20
    frequency:   34.6826196011
  - # 21
    frequency:  110.9140199403

- q-position: [    0.0050505,    0.0000000,    0.0000000 ]
  distance:    0.0018778
  band:
  - # 1
    frequency:   -2.3120399699
  - # 2
    frequency:   -2.3057821994
  - # 3
    frequency:   -0.1465026592
  - # 4
    frequency:    0.0970341307
  - # 5
    frequency:    0.1998831562
  - # 6
    frequency:    4.7113289931
  - # 7
    frequency:    4.7128822746
  - # 8
    frequency:    6.2411241391
  - # 9
    frequency:    6.2464872115
  - # 10
    frequency:    6.5029647306
  - # 11
    frequency:    8.8844936020
  - # 12
    frequency:    8.8850140811
  - # 13
    frequency:   11.2502025968
  - # 14
    frequency:   13.3015680646
  - # 15
    frequency:   13.3017322753
  - # 16
    frequency:   15.0855767354
  - # 17
    frequency:   18.1320304367
  - # 18
    frequency:   18.4880644992
  - # 19
    frequency:   18.4880865097
  - # 20
    frequency:   34.6823329463
  - # 21
    frequency:  110.9134720355

- q-position: [    0.0101010,    0.0000000,    0.0000000 ]
  distance:    0.0037556
  band:
  - # 1
    frequency:   -2.3089050741
  - # 2
    frequency:   -2.2838280378
  - # 3
    frequency:   -0.1722676627
  - # 4
    frequency:    0.1940553671
  - # 5
    frequency:    0.3223773392
  - # 6
    frequency:    4.7127474490
  - # 7
    frequency:    4.7189480953
  - # 8
    frequency:    6.2275752674
  - # 9
    frequency:    6.2479339621
  - # 10
    frequency:    6.5175947776
  - # 11
    frequency:    8.8852816010
  - # 12
    frequency:    8.8873603298
  - # 13
    frequency:   11.2483539084
  - # 14
    frequency:   13.3029339606
  - # 15
    frequency:   13.3036009874
  - # 16
    frequency:   15.0861294142
  - # 17
    frequency:   18.1324156566
  - # 18
    frequency:   18.4895119896
  - # 19
    frequency:   18.4896010496
  - # 20
    frequency:   34.6814736038
  - # 21
    frequency:  110.9118280311

- q-position: [    0.0151515,    0.0000000,    0.0000000 ]
  distance:    0.0056334
  band:
  - # 1
    frequency:   -2.3037112035
  - # 2
    frequency:   -2.2471162634
  - # 3
    frequency:   -0.1684132939
  - # 4
    frequency:    0.2910502063
  - # 5
    frequency:    0.4433222725
  - # 6
    frequency:    4.7150939502
  - # 7
    frequency:    4.7289985820
  - # 8
    frequency:    6.2077475531
  - # 9
    frequency:    6.2503436747
  - # 10
    frequency:    6.5392723525
  - # 11
    frequency:    8.8865861066
  - # 12
    frequency:    8.8912513328
  - # 13
    frequency:   11.2452846744
  - # 14
    frequency:   13.3051751514
  - # 15
    frequency:   13.3067140444
  - # 16
    frequency:   15.0870753832
  - # 17
    frequency:   18.1330425108
  - # 18
    frequency:   18.4919007204
  - # 19
    frequency:   18.4921048110
  - # 20
    frequency:   34.6800434374
  - # 21
    frequency:  110.9090870801

- q-position: [    0.0202020,    0.0000000,    0.0000000 ]
  distance:    0.0075112
  band:
  - # 1
    frequency:   -2.2965045767
  - # 2
    frequency:   -2.1954674963
  - # 3
    frequency:   -0.1394721212
  - # 4
    frequency:    0.3880039051
  - # 5
    frequency:    0.5667921066
  - # 6
    frequency:    4.7183424872
  - # 7
    frequency:    4.7429451885
  - # 8
    frequency:    6.1839542758
  - # 9
    frequency:    6.2537138791
  - # 10
    frequency:    6.5657561807
  - # 11
    frequency:    8.8883940396
  - # 12
    frequency:    8.8966582730
  - # 13
    frequency:   11.2410125832
  - # 14
    frequency:   13.3082389925
  - # 15
    frequency:   13.3110691849
  - # 16
    frequency:   15.0884517482
  - # 17
    frequency:   18.1338887953
  - # 18
    frequency:   18.4951953416
  - # 19
    frequency:   18.4955669888
  - # 20
    frequency:   34.6780455445
  - # 21
    frequency:  110.9052478461

- q-position: [    0.0252525,    0.0000000,    0.0000000 ]
  distance:    0.0093891
  band:
  - # 1
    frequency:   -2.2873494495
  - # 2
    frequency:   -2.1286385674
  - # 3
    frequency:   -0.0588084797
  - # 4
    frequency:    0.4848998063
  - # 5
    frequency:    0.6934788309
  - # 6
    frequency:    4.7224573958
  - # 7
    frequency:    4.7606644171
  - # 8
    frequency:    6.1578945126
  - # 9
    frequency:    6.2580407990
  - # 10
    frequency:    6.5954483237
  - # 11
    frequency:    8.8906874033
  - # 12
    frequency:    8.9035414006
  - # 13
    frequency:   11.2355620417
  - # 14
    frequency:   13.3120524125
  - # 15
    frequency:   13.3166631122
  - # 16
    frequency:   15.0903101407
  - # 17
    frequency:   18.1349245039
  - # 18
    frequency:   18.4993469189
  - # 19
    frequency:   18.4999443003
  - # 20
    frequency:   34.6754842447
  - # 21
    frequency:  110.9003086154

- q-position: [    0.0303030,    0.0000000,    0.0000000 ]
  distance:    0.0112669
  band:
  - # 1
    frequency:   -2.2763276204
  - # 2
    frequency:   -2.0463363316
  - # 3
    frequency:    0.1418189356
  - # 4
    frequency:    0.5817186162
  - # 5
    frequency:    0.8235705776
  - # 6
    frequency:    4.7273940833
  - # 7
    frequency:    4.7819980984
  - # 8
    frequency:    6.1307135466
  - # 9
    frequency:    6.2633190535
  - # 10
    frequency:    6.6273341600
  - # 11
    frequency:    8.8934435864
  - # 12
    frequency:    8.9118506121
  - # 13
    frequency:   11.2289638305
  - # 14
    frequency:   13.3165225710
  - # 15
    frequency:   13.3234913681
  - # 16
    frequency:   15.0927163621
  - # 17
    frequency:   18.1361128031
  - # 18
    frequency:   18.5042934812
  - # 19
    frequency:   18.5051809162
  - # 20
    frequency:   34.6723650616
  - # 21
    frequency:  110.8942674526

- q-position: [    0.0353535,    0.0000000,    0.0000000 ]
  distance:    0.0131447
  band:
  - # 1
    frequency:   -2.2635377404
  - # 2
    frequency:   -1.9482458462
  - # 3
    frequency:    0.2292823029
  - # 4
    frequency:    0.6784376415
  - # 5
    frequency:    0.9573034385
  - # 6
    frequency:    4.7330999340
  - # 7
    frequency:    4.8067535041
  - # 8
    frequency:    6.1031906630
  - # 9
    frequency:    6.2695412974
  - # 10
    frequency:    6.6607951734
  - # 11
    frequency:    8.8966357358
  - # 12
    frequency:    8.9215261725
  - # 13
    frequency:   11.2212546787
  - # 14
    frequency:   13.3215377430
  - # 15
    frequency:   13.3315481778
  - # 16
    frequency:   15.0957498752
  - # 17
    frequency:   18.1374111494
  - # 18
    frequency:   18.5099607120
  - # 19
    frequency:   18.5112084826
  - # 20
    frequency:   34.6686947019
  - # 21
    frequency:  110.8871223961

- q-position: [    0.0404040,    0.0000000,    0.0000000 ]
  distance:    0.0150225
  band:
  - # 1
    frequency:   -2.2490944013
  - # 2
    frequency:   -1.8340853300
  - # 3
    frequency:    0.3099679885
  - # 4
    frequency:    0.7750300079
  - # 5
    frequency:    1.0950559176
  - # 6
    frequency:    4.7395153682
  - # 7
    frequency:    4.8347031375
  - # 8
    frequency:    6.0758871827
  - # 9
    frequency:    6.2766978217
  - # 10
    frequency:    6.6954617588
  - # 11
    frequency:    8.9002331884
  - # 12
    frequency:    8.9324995665
  - # 13
    frequency:   11.2124767681
  - # 14
    frequency:   13.3269684603
  - # 15
    frequency:   13.3408262701
  - # 16
    frequency:   15.0995031023
  - # 17
    frequency:   18.1387724724
  - # 18
    frequency:   18.5162627764
  - # 19
    frequency:   18.5179462904
  - # 20
    frequency:   34.6644810278
  - # 21
    frequency:  110.8788716932

- q-position: [    0.0454545,    0.0000000,    0.0000000 ]
  distance:    0.0169003
  band:
  - # 1
    frequency:   -2.2331269827
  - # 2
    frequency:   -1.7037113320
  - # 3
    frequency:    0.3923515453
  - # 4
    frequency:    0.8714638999
  - # 5
    frequency:    1.2373202900
  - # 6
    frequency:    4.7465750297
  - # 7
    frequency:    4.8655840529
  - # 8
    frequency:    6.0492402465
  - # 9
    frequency:    6.2847761327
  - # 10
    frequency:    6.7311205938
  - # 11
    frequency:    8.9042019498
  - # 12
    frequency:    8.9446944582
  - # 13
    frequency:   11.2026771787
  - # 14
    frequency:   13.3326689394
  - # 15
    frequency:   13.3513166791
  - # 16
    frequency:   15.1040804899
  - # 17
    frequency:   18.1401463516
  - # 18
    frequency:   18.5231032738
  - # 19
    frequency:   18.5253016464
  - # 20
    frequency:   34.6597330270
  - # 21
    frequency:  110.8695140707

- q-position: [    0.0505051,    0.0000000,    0.0000000 ]
  distance:    0.0187781
  band:
  - # 1
    frequency:   -2.2157782532
  - # 2
    frequency:   -1.5573209809
  - # 3
    frequency:    0.4807895981
  - # 4
    frequency:    0.9677018742
  - # 5
    frequency:    1.3846136828
  - # 6
    frequency:    4.7542090704
  - # 7
    frequency:    4.8990965704
  - # 8
    frequency:    6.0236194690
  - # 9
    frequency:    6.2937605357
  - # 10
    frequency:    6.7676595192
  - # 11
    frequency:    8.9085052067
  - # 12
    frequency:    8.9580277382
  - # 13
    frequency:   11.1919072884
  - # 14
    frequency:   13.3384788342
  - # 15
    frequency:   13.3630085329
  - # 16
    frequency:   15.1095972942
  - # 17
    frequency:   18.1414801274
  - # 18
    frequency:   18.5303763032
  - # 19
    frequency:   18.5331704808
  - # 20
    frequency:   34.6544607767
  - # 21
    frequency:  110.8590490377

- q-position: [    0.0555556,    0.0000000,    0.0000000 ]
  distance:    0.0206559
  band:
  - # 1
    frequency:   -2.1972027380
  - # 2
    frequency:   -1.3958433751
  - # 3
    frequency:    0.5791571911
  - # 4
    frequency:    1.0637003020
  - # 5
    frequency:    1.5373330590
  - # 6
    frequency:    4.7623444979
  - # 7
    frequency:    4.9349023139
  - # 8
    frequency:    5.9993617604
  - # 9
    frequency:    6.3036317457
  - # 10
    frequency:    6.8050346564
  - # 11
    frequency:    8.9131038591
  - # 12
    frequency:    8.9724106357
  - # 13
    frequency:   11.1802221362
  - # 14
    frequency:   13.3442253430
  - # 15
    frequency:   13.3758888362
  - # 16
    frequency:   15.1161780478
  - # 17
    frequency:   18.1427199021
  - # 18
    frequency:   18.5379676308
  - # 19
    frequency:   18.5414382110
  - # 20
    frequency:   34.6486754052
  - # 21
    frequency:  110.8474772176

- q-position: [    0.0606061,    0.0000000,    0.0000000 ]
  distance:    0.0225337
  band:
  - # 1
    frequency:   -2.1775648825
  - # 2
    frequency:   -1.2216416355
  - # 3
    frequency:    0.6915610252
  - # 4
    frequency:    1.1594089994
  - # 5
    frequency:    1.6955661483
  - # 6
    frequency:    4.7709065500
  - # 7
    frequency:    4.9726216020
  - # 8
    frequency:    5.9767938402
  - # 9
    frequency:    6.3143665519
  - # 10
    frequency:    6.8432501885
  - # 11
    frequency:    8.9179570595
  - # 12
    frequency:    8.9877498685
  - # 13
    frequency:   11.1676797610
  - # 14
    frequency:   13.3497256943
  - # 15
    frequency:   13.3899422533
  - # 16
    frequency:   15.1239546737
  - # 17
    frequency:   18.1438114075
  - # 18
    frequency:   18.5457559424
  - # 19
    frequency:   18.5499808592
  - # 20
    frequency:   34.6423890484
  - # 21
    frequency:  110.8348007037

- q-position: [    0.0656566,    0.0000000,    0.0000000 ]
  distance:    0.0244115
  band:
  - # 1
    frequency:   -2.1570370618
  - # 2
    frequency:   -1.0393334630
  - # 3
    frequency:    0.8215481460
  - # 4
    frequency:    1.2547710939
  - # 5
    frequency:    1.8589125824
  - # 6
    frequency:    4.7798200596
  - # 7
    frequency:    5.0118304186
  - # 8
    frequency:    5.9562477377
  - # 9
    frequency:    6.3259375580
  - # 10
    frequency:    6.8823452969
  - # 11
    frequency:    8.9230227468
  - # 12
    frequency:    9.0039488086
  - # 13
    frequency:   11.1543405257
  - # 14
    frequency:   13.3547900195
  - # 15
    frequency:   13.4051508982
  - # 16
    frequency:   15.1330642338
  - # 17
    frequency:   18.1447007334
  - # 18
    frequency:   18.5536141702
  - # 19
    frequency:   18.5586664057
  - # 20
    frequency:   34.6356148036
  - # 21
    frequency:  110.8210234360

- q-position: [    0.0707071,    0.0000000,    0.0000000 ]
  distance:    0.0262894
  band:
  - # 1
    frequency:   -2.1357974972
  - # 2
    frequency:   -0.8550625640
  - # 3
    frequency:    0.9693493523
  - # 4
    frequency:    1.3497231595
  - # 5
    frequency:    2.0264076515
  - # 6
    frequency:    4.7890107741
  - # 7
    frequency:    5.0520575375
  - # 8
    frequency:    5.9380718779
  - # 9
    frequency:    6.3383130200
  - # 10
    frequency:    6.9223851299
  - # 11
    frequency:    8.9282581647
  - # 12
    frequency:    9.0209086352
  - # 13
    frequency:   11.1402664336
  - # 14
    frequency:   13.3592245973
  - # 15
    frequency:   13.4214941379
  - # 16
    frequency:   15.1436463170
  - # 17
    frequency:   18.1453349238
  - # 18
    frequency:   18.5614108751
  - # 19
    frequency:   18.5673563436
  - # 20
    frequency:   34.6283666799
  - # 21
    frequency:  110.8061515920

- q-position: [    0.0757576,    0.0000000,    0.0000000 ]
  distance:    0.0281672
  band:
  - # 1
    frequency:   -2.1140281485
  - # 2
    frequency:   -0.6710517918
  - # 3
    frequency:    1.1293207373
  - # 4
    frequency:    1.4441956333
  - # 5
    frequency:    2.1966167116
  - # 6
    frequency:    4.7984065957
  - # 7
    frequency:    5.0927829518
  - # 8
    frequency:    5.9226384808
  - # 9
    frequency:    6.3514567996
  - # 10
    frequency:    6.9634539939
  - # 11
    frequency:    8.9336203529
  - # 12
    frequency:    9.0385294540
  - # 13
    frequency:   11.1255204464
  - # 14
    frequency:   13.3628354224
  - # 15
    frequency:   13.4389484154
  - # 16
    frequency:   15.1558401111
  - # 17
    frequency:   18.1456624597
  - # 18
    frequency:   18.5690116724
  - # 19
    frequency:   18.5759073912
  - # 20
    frequency:   34.6206595457
  - # 21
    frequency:  110.7901939888

- q-position: [    0.0808081,    0.0000000,    0.0000000 ]
  distance:    0.0300450
  band:
  - # 1
    frequency:   -2.0919126494
  - # 2
    frequency:   -0.4747157895
  - # 3
    frequency:    1.2924544400
  - # 4
    frequency:    1.5381135023
  - # 5
    frequency:    2.3678716281
  - # 6
    frequency:    4.8079387134
  - # 7
    frequency:    5.1334396693
  - # 8
    frequency:    5.9103463859
  - # 9
    frequency:    6.3653284439
  - # 10
    frequency:    7.0056497005
  - # 11
    frequency:    8.9390666063
  - # 12
    frequency:    9.0567113589
  - # 13
    frequency:   11.1101658104
  - # 14
    frequency:   13.3654320177
  - # 15
    frequency:   13.4574870980
  - # 16
    frequency:   15.1697812316
  - # 17
    frequency:   18.1456336531
  - # 18
    frequency:   18.5762806833
  - # 19
    frequency:   18.5841733155
  - # 20
    frequency:   34.6125090731
  - # 21
    frequency:  110.7731624889

- q-position: [    0.0858586,    0.0000000,    0.0000000 ]
  distance:    0.0319228
  band:
  - # 1
    frequency:   -2.0696343446
  - # 2
    frequency:   -0.1908568583
  - # 3
    frequency:    1.4517974726
  - # 4
    frequency:    1.6313972289
  - # 5
    frequency:    2.5385360171
  - # 6
    frequency:    4.8175426024
  - # 7
    frequency:    5.1734221556
  - # 8
    frequency:    5.9016167887
  - # 9
    frequency:    6.3798834004
  - # 10
    frequency:    7.0490784173
  - # 11
    frequency:    8.9445548946
  - # 12
    frequency:    9.0753554178
  - # 13
    frequency:   11.0942653985
  - # 14
    frequency:   13.3668313699
  - # 15
    frequency:   13.4770803540
  - # 16
    frequency:   15.1855984230
  - # 17
    frequency:   18.1452009743
  - # 18
    frequency:   18.5830819978
  - # 19
    frequency:   18.5920068194
  - # 20
    frequency:   34.6039316813
  - # 21
    frequency:  110.7550724067

- q-position: [    0.0909091,    0.0000000,    0.0000000 ]
  distance:    0.0338006
  band:
  - # 1
    frequency:   -2.0473744721
  - # 2
    frequency:    0.3654678440
  - # 3
    frequency:    1.6042949036
  - # 4
    frequency:    1.7239638640
  - # 5
    frequency:    2.7071936943
  - # 6
    frequency:    4.8271588726
  - # 7
    frequency:    5.2121059499
  - # 8
    frequency:    5.8968778904
  - # 9
    frequency:    6.3950733658
  - # 10
    frequency:    7.0938496288
  - # 11
    frequency:    8.9500442394
  - # 12
    frequency:    9.0943645655
  - # 13
    frequency:   11.0778810729
  - # 14
    frequency:   13.3668618368
  - # 15
    frequency:   13.4976950639
  - # 16
    frequency:   15.2034102790
  - # 17
    frequency:   18.1443193380
  - # 18
    frequency:   18.5892811347
  - # 19
    frequency:   18.5992614470
  - # 20
    frequency:   34.5949444763
  - # 21
    frequency:  110.7359429079

- q-position: [    0.0959596,    0.0000000,    0.0000000 ]
  distance:    0.0356784
  band:
  - # 1
    frequency:   -2.0253105124
  - # 2
    frequency:    0.5443305495
  - # 3
    frequency:    1.7494838444
  - # 4
    frequency:    1.8157282865
  - # 5
    frequency:    2.8727271799
  - # 6
    frequency:    4.8367339570
  - # 7
    frequency:    5.2488832740
  - # 8
    frequency:    5.8965339909
  - # 9
    frequency:    6.4108467640
  - # 10
    frequency:    7.1400709889
  - # 11
    frequency:    8.9554950466
  - # 12
    frequency:    9.1136443918
  - # 13
    frequency:   11.0610730780
  - # 14
    frequency:   13.3653668508
  - # 15
    frequency:   13.5192947672
  - # 16
    frequency:   15.2233221500
  - # 17
    frequency:   18.1429463654
  - # 18
    frequency:   18.5947464831
  - # 19
    frequency:   18.6057934705
  - # 20
    frequency:   34.5855651905
  - # 21
    frequency:  110.7157973980

- q-position: [    0.1010101,    0.0000000,    0.0000000 ]
  distance:    0.0375562
  band:
  - # 1
    frequency:   -2.0036147107
  - # 2
    frequency:    0.6776178968
  - # 3
    frequency:    1.8879963008
  - # 4
    frequency:    1.9066045044
  - # 5
    frequency:    3.0343126572
  - # 6
    frequency:    4.8462206342
  - # 7
    frequency:    5.2832170383
  - # 8
    frequency:    5.9009168271
  - # 9
    frequency:    6.4271493403
  - # 10
    frequency:    7.1878429862
  - # 11
    frequency:    8.9608693945
  - # 12
    frequency:    9.1331038132
  - # 13
    frequency:   11.0438994679
  - # 14
    frequency:   13.3622082390
  - # 15
    frequency:   13.5418396482
  - # 16
    frequency:   15.2454234122
  - # 17
    frequency:   18.1410426345
  - # 18
    frequency:   18.5993507122
  - # 19
    frequency:   18.6114637266
  - # 20
    frequency:   34.5758121197
  - # 21
    frequency:  110.6946638929

- q-position: [    0.1060606,    0.0000000,    0.0000000 ]
  distance:    0.0394340
  band:
  - # 1
    frequency:   -1.9824527563
  - # 2
    frequency:    0.7917515824
  - # 3
    frequency:    1.9965069541
  - # 4
    frequency:    2.0207472580
  - # 5
    frequency:    3.1913735415
  - # 6
    frequency:    4.8555783906
  - # 7
    frequency:    5.3147087572
  - # 8
    frequency:    5.9102237046
  - # 9
    frequency:    6.4439248547
  - # 10
    frequency:    7.2372534608
  - # 11
    frequency:    8.9661312778
  - # 12
    frequency:    9.1526556259
  - # 13
    frequency:   11.0264155777
  - # 14
    frequency:   13.3572689920
  - # 15
    frequency:   13.5652865601
  - # 16
    frequency:   15.2697852586
  - # 17
    frequency:   18.1385719290
  - # 18
    frequency:   18.6029721369
  - # 19
    frequency:   18.6161393770
  - # 20
    frequency:   34.5657040603
  - # 21
    frequency:  110.6725753678

- q-position: [    0.1111111,    0.0000000,    0.0000000 ]
  distance:    0.0413118
  band:
  - # 1
    frequency:   -1.9619825921
  - # 2
    frequency:    0.8958034319
  - # 3
    frequency:    2.0853517433
  - # 4
    frequency:    2.1486080983
  - # 5
    frequency:    3.3435237579
  - # 6
    frequency:    4.8647736307
  - # 7
    frequency:    5.3431653738
  - # 8
    frequency:    5.9244573376
  - # 9
    frequency:    6.4611158522
  - # 10
    frequency:    7.2883721309
  - # 11
    frequency:    8.9712468121
  - # 12
    frequency:    9.1722169345
  - # 13
    frequency:   11.0086735451
  - # 14
    frequency:   13.3504553474
  - # 15
    frequency:   13.5895890894
  - # 16
    frequency:   15.2964591390
  - # 17
    frequency:   18.1355014863
  - # 18
    frequency:   18.6054960248
  - # 19
    frequency:   18.6196955764
  - # 20
    frequency:   34.5552602451
  - # 21
    frequency:  110.6495700769

- q-position: [    0.1161616,    0.0000000,    0.0000000 ]
  distance:    0.0431897
  band:
  - # 1
    frequency:   -1.9423533202
  - # 2
    frequency:    0.9939813648
  - # 3
    frequency:    2.1730577948
  - # 4
    frequency:    2.2723072124
  - # 5
    frequency:    3.4905162457
  - # 6
    frequency:    4.8737797500
  - # 7
    frequency:    5.3686420495
  - # 8
    frequency:    5.9433901135
  - # 9
    frequency:    6.4786644847
  - # 10
    frequency:    7.3412453798
  - # 11
    frequency:    8.9761843998
  - # 12
    frequency:    9.1917094620
  - # 13
    frequency:   10.9907218886
  - # 14
    frequency:   13.3416981035
  - # 15
    frequency:   13.6146976581
  - # 16
    frequency:   15.3254759225
  - # 17
    frequency:   18.1318022457
  - # 18
    frequency:   18.6068158365
  - # 19
    frequency:   18.6220170346
  - # 20
    frequency:   34.5445002785
  - # 21
    frequency:  110.6256918402

- q-position: [    0.1212121,    0.0000000,    0.0000000 ]
  distance:    0.0450675
  band:
  - # 1
    frequency:   -1.9237041675
  - # 2
    frequency:    1.0885285054
  - # 3
    frequency:    2.2595478616
  - # 4
    frequency:    2.3924193597
  - # 5
    frequency:    3.6322016415
  - # 6
    frequency:    4.8825770901
  - # 7
    frequency:    5.3914415400
  - # 8
    frequency:    5.9665717971
  - # 9
    frequency:    6.4965133584
  - # 10
    frequency:    7.3958916338
  - # 11
    frequency:    8.9809148635
  - # 12
    frequency:    9.2110597431
  - # 13
    frequency:   10.9726051518
  - # 14
    frequency:   13.3309531389
  - # 15
    frequency:   13.6405596633
  - # 16
    frequency:   15.3568458007
  - # 17
    frequency:   18.1274490893
  - # 18
    frequency:   18.6068343846
  - # 19
    frequency:   18.6229994668
  - # 20
    frequency:   34.5334440727
  - # 21
    frequency:  110.6009902920

- q-position: [    0.1262626,    0.0000000,    0.0000000 ]
  distance:    0.0469453
  band:
  - # 1
    frequency:   -1.9061634802
  - # 2
    frequency:    1.1807391440
  - # 3
    frequency:    2.3447493957
  - # 4
    frequency:    2.5093841394
  - # 5
    frequency:    3.7684970057
  - # 6
    frequency:    4.8911527956
  - # 7
    frequency:    5.4120678760
  - # 8
    frequency:    5.9933824954
  - # 9
    frequency:    6.5146063799
  - # 10
    frequency:    7.4522976868
  - # 11
    frequency:    8.9854115497
  - # 12
    frequency:    9.2301992124
  - # 13
    frequency:   10.9543636180
  - # 14
    frequency:   13.3182011711
  - # 15
    frequency:   13.6671196511
  - # 16
    frequency:   15.3905588845
  - # 17
    frequency:   18.1224210710
  - # 18
    frequency:   18.6054649058
  - # 19
    frequency:   18.6225509290
  - # 20
    frequency:   34.5221117831
  - # 21
    frequency:  110.5755210861

- q-position: [    0.1313131,    0.0000000,    0.0000000 ]
  distance:    0.0488231
  band:
  - # 1
    frequency:   -1.8898477261
  - # 2
    frequency:    1.2713962001
  - # 3
    frequency:    2.4285952654
  - # 4
    frequency:    2.6235305422
  - # 5
    frequency:    3.8993627606
  - # 6
    frequency:    4.8995005968
  - # 7
    frequency:    5.4311517911
  - # 8
    frequency:    6.0231129184
  - # 9
    frequency:    6.5328895748
  - # 10
    frequency:    7.5104163129
  - # 11
    frequency:    8.9896504078
  - # 12
    frequency:    9.2490641975
  - # 13
    frequency:   10.9360331023
  - # 14
    frequency:   13.3034468431
  - # 15
    frequency:   13.6943195221
  - # 16
    frequency:   15.4265863980
  - # 17
    frequency:   18.1167016218
  - # 18
    frequency:   18.6026320338
  - # 19
    frequency:   18.6205930389
  - # 20
    frequency:   34.5105237444
  - # 21
    frequency:  110.5493460534

- q-position: [    0.1363636,    0.0000000,    0.0000000 ]
  distance:    0.0507009
  band:
  - # 1
    frequency:   -1.8748604952
  - # 2
    frequency:    1.3609853054
  - # 3
    frequency:    2.5110243237
  - # 4
    frequency:    2.7350996730
  - # 5
    frequency:    4.0247858967
  - # 6
    frequency:    4.9076205382
  - # 7
    frequency:    5.4493734742
  - # 8
    frequency:    6.0550458232
  - # 9
    frequency:    6.5513118554
  - # 10
    frequency:    7.5701654225
  - # 11
    frequency:    8.9936100477
  - # 12
    frequency:    9.2675958341
  - # 13
    frequency:   10.9176448262
  - # 14
    frequency:   13.2867172600
  - # 15
    frequency:   13.7220987660
  - # 16
    frequency:   15.4648823320
  - # 17
    frequency:   18.1102787221
  - # 18
    frequency:   18.5982726677
  - # 19
    frequency:   18.6170620878
  - # 20
    frequency:   34.4987004085
  - # 21
    frequency:  110.5225333075

- q-position: [    0.1414141,    0.0000000,    0.0000000 ]
  distance:    0.0525787
  band:
  - # 1
    frequency:   -1.8612915026
  - # 2
    frequency:    1.4498093183
  - # 3
    frequency:    2.5919818356
  - # 4
    frequency:    2.8442635901
  - # 5
    frequency:    4.1447679620
  - # 6
    frequency:    4.9155186763
  - # 7
    frequency:    5.4674016852
  - # 8
    frequency:    6.0885190834
  - # 9
    frequency:    6.5698257179
  - # 10
    frequency:    7.6314288902
  - # 11
    frequency:    8.9972717787
  - # 12
    frequency:    9.2857399187
  - # 13
    frequency:   10.8992253777
  - # 14
    frequency:   13.2680601205
  - # 15
    frequency:   13.7503947204
  - # 16
    frequency:   15.5053854025
  - # 17
    frequency:   18.1031450283
  - # 18
    frequency:   18.5923367285
  - # 19
    frequency:   18.6119100481
  - # 20
    frequency:   34.4866622821
  - # 21
    frequency:  110.4951572956

- q-position: [    0.1464646,    0.0000000,    0.0000000 ]
  distance:    0.0544565
  band:
  - # 1
    frequency:   -1.8492156102
  - # 2
    frequency:    1.5380537822
  - # 3
    frequency:    2.6714197788
  - # 4
    frequency:    2.9511402909
  - # 5
    frequency:    4.2593169286
  - # 6
    frequency:    4.9232067640
  - # 7
    frequency:    5.4858555940
  - # 8
    frequency:    6.1229635420
  - # 9
    frequency:    6.5883878520
  - # 10
    frequency:    7.6940590226
  - # 11
    frequency:    9.0006196336
  - # 12
    frequency:    9.3034467206
  - # 13
    frequency:   10.8807967608
  - # 14
    frequency:   13.2475415896
  - # 15
    frequency:   13.7791428513
  - # 16
    frequency:   15.5480211532
  - # 17
    frequency:   18.0952979412
  - # 18
    frequency:   18.5847877965
  - # 19
    frequency:   18.6051054879
  - # 20
    frequency:   34.4744298662
  - # 21
    frequency:  110.4672987897

- q-position: [    0.1515152,    0.0000000,    0.0000000 ]
  distance:    0.0563343
  band:
  - # 1
    frequency:   -1.8386918969
  - # 2
    frequency:    1.6258263333
  - # 3
    frequency:    2.7492970291
  - # 4
    frequency:    3.0558055007
  - # 5
    frequency:    4.3684425723
  - # 6
    frequency:    4.9307019418
  - # 7
    frequency:    5.5052859384
  - # 8
    frequency:    6.1579185820
  - # 9
    frequency:    6.6069596504
  - # 10
    frequency:    7.7578804715
  - # 11
    frequency:    9.0036403782
  - # 12
    frequency:    9.3206707741
  - # 13
    frequency:   10.8623765350
  - # 14
    frequency:   13.2252440444
  - # 15
    frequency:   13.8082770512
  - # 16
    frequency:   15.5927040561
  - # 17
    frequency:   18.0867396032
  - # 18
    frequency:   18.5756036261
  - # 19
    frequency:   18.5966344029
  - # 20
    frequency:   34.4620235976
  - # 21
    frequency:  110.4390448180
