nqpoint: 300    
npath: 3      
segment_nqpoint:
- 100
- 100
- 100
labels:
- [ 'G', 'M' ]
- [ 'M', 'K' ]
- [ 'K', 'G' ]
reciprocal_lattice:
- [   0.30105931,   0.17381667,   0.00000000 ] # a*
- [   0.00000000,   0.34763335,   0.00000000 ] # b*
- [   0.00000000,   0.00000000,   0.03798691 ] # c*
natom: 6      
lattice:
- [     3.321604640527070,     0.000000000000000,     0.000000000000000 ] # a
- [    -1.660802320263535,     2.876594000024401,     0.000000000000000 ] # b
- [     0.000000000000000,     0.000000000000000,    26.324859616344295 ] # c
points:
- symbol: C # 1
  coordinates: [  0.000000000000000,  0.000000000000000,  0.430469337944909 ]
  mass: 12.010700
- symbol: Cl # 2
  coordinates: [  0.333332985432215,  0.666666983183674,  0.658117834960374 ]
  mass: 35.453000
- symbol: O # 3
  coordinates: [  0.333332985432215,  0.666666983183674,  0.518490012722809 ]
  mass: 15.999400
- symbol: O # 4
  coordinates: [  0.666666984744047,  0.333332985985145,  0.341882165039626 ]
  mass: 15.999400
- symbol: Zr # 5
  coordinates: [  0.333332985432215,  0.666666983183674,  0.377149046415430 ]
  mass: 91.224000
- symbol: Zr # 6
  coordinates: [  0.666666984744047,  0.333332985985145,  0.484693145669157 ]
  mass: 91.224000

phonon:
- q-position: [    0.0000000,    0.0000000,    0.0000000 ]
  distance:    0.0000000
  band:
  - # 1
    frequency:   -0.4594316080
  - # 2
    frequency:   -0.4594316080
  - # 3
    frequency:   -0.0000040848
  - # 4
    frequency:   -0.0000001483
  - # 5
    frequency:    0.0000032355
  - # 6
    frequency:    0.8187179484
  - # 7
    frequency:    2.9027017658
  - # 8
    frequency:    2.9027017658
  - # 9
    frequency:    6.4953629636
  - # 10
    frequency:    8.9768115215
  - # 11
    frequency:    8.9768115215
  - # 12
    frequency:   11.6625631565
  - # 13
    frequency:   11.6625631565
  - # 14
    frequency:   14.1640845031
  - # 15
    frequency:   14.3691187398
  - # 16
    frequency:   14.3691187398
  - # 17
    frequency:   14.8920060403
  - # 18
    frequency:   19.8691116336

- q-position: [    0.0050505,    0.0000000,    0.0000000 ]
  distance:    0.0017557
  band:
  - # 1
    frequency:   -0.4724637172
  - # 2
    frequency:   -0.4664045126
  - # 3
    frequency:   -0.0023364403
  - # 4
    frequency:    0.0767281496
  - # 5
    frequency:    0.1263038041
  - # 6
    frequency:    0.8193528899
  - # 7
    frequency:    2.9031632705
  - # 8
    frequency:    2.9052322725
  - # 9
    frequency:    6.4946895270
  - # 10
    frequency:    8.9769469125
  - # 11
    frequency:    8.9861954578
  - # 12
    frequency:   11.6615352325
  - # 13
    frequency:   11.6625447650
  - # 14
    frequency:   14.1628820167
  - # 15
    frequency:   14.3692212606
  - # 16
    frequency:   14.3698183819
  - # 17
    frequency:   14.8917220671
  - # 18
    frequency:   19.8688597662

- q-position: [    0.0101010,    0.0000000,    0.0000000 ]
  distance:    0.0035114
  band:
  - # 1
    frequency:   -0.5135948188
  - # 2
    frequency:   -0.4875796094
  - # 3
    frequency:   -0.0072598172
  - # 4
    frequency:    0.1561718566
  - # 5
    frequency:    0.2607668639
  - # 6
    frequency:    0.8212892360
  - # 7
    frequency:    2.9045479468
  - # 8
    frequency:    2.9128067372
  - # 9
    frequency:    6.4926896071
  - # 10
    frequency:    8.9773550252
  - # 11
    frequency:    9.0142247855
  - # 12
    frequency:   11.6584657150
  - # 13
    frequency:   11.6624895223
  - # 14
    frequency:   14.1593188308
  - # 15
    frequency:   14.3695279940
  - # 16
    frequency:   14.3718711156
  - # 17
    frequency:   14.8908759343
  - # 18
    frequency:   19.8681041074

- q-position: [    0.0151515,    0.0000000,    0.0000000 ]
  distance:    0.0052672
  band:
  - # 1
    frequency:   -0.5805819928
  - # 2
    frequency:   -0.5226345819
  - # 3
    frequency:   -0.0097603476
  - # 4
    frequency:    0.2387403548
  - # 5
    frequency:    0.4006009029
  - # 6
    frequency:    0.8246435142
  - # 7
    frequency:    2.9068562626
  - # 8
    frequency:    2.9253744118
  - # 9
    frequency:    6.4894215328
  - # 10
    frequency:    8.9780416654
  - # 11
    frequency:    9.0605368384
  - # 12
    frequency:   11.6533981861
  - # 13
    frequency:   11.6623972263
  - # 14
    frequency:   14.1535168606
  - # 15
    frequency:   14.3700364578
  - # 16
    frequency:   14.3751493625
  - # 17
    frequency:   14.8894850822
  - # 18
    frequency:   19.8668444835

- q-position: [    0.0202020,    0.0000000,    0.0000000 ]
  distance:    0.0070229
  band:
  - # 1
    frequency:   -0.6657588557
  - # 2
    frequency:   -0.5696754085
  - # 3
    frequency:    0.0105753842
  - # 4
    frequency:    0.3232709681
  - # 5
    frequency:    0.5414365437
  - # 6
    frequency:    0.8297409728
  - # 7
    frequency:    2.9100889337
  - # 8
    frequency:    2.9428521234
  - # 9
    frequency:    6.4849737952
  - # 10
    frequency:    8.9790164641
  - # 11
    frequency:    9.1245419631
  - # 12
    frequency:   11.6464081554
  - # 13
    frequency:   11.6622675479
  - # 14
    frequency:   14.1456487243
  - # 15
    frequency:   14.3707425293
  - # 16
    frequency:   14.3794713826
  - # 17
    frequency:   14.8875788514
  - # 18
    frequency:   19.8650805881

- q-position: [    0.0252525,    0.0000000,    0.0000000 ]
  distance:    0.0087786
  band:
  - # 1
    frequency:   -0.7623594336
  - # 2
    frequency:   -0.6259814937
  - # 3
    frequency:    0.0312629988
  - # 4
    frequency:    0.4085741189
  - # 5
    frequency:    0.6803666757
  - # 6
    frequency:    0.8378940916
  - # 7
    frequency:    2.9142468327
  - # 8
    frequency:    2.9651264189
  - # 9
    frequency:    6.4794542627
  - # 10
    frequency:    8.9802928098
  - # 11
    frequency:    9.2054420395
  - # 12
    frequency:   11.6376079268
  - # 13
    frequency:   11.6621000427
  - # 14
    frequency:   14.1359072557
  - # 15
    frequency:   14.3716404676
  - # 16
    frequency:   14.3846322392
  - # 17
    frequency:   14.8851989097
  - # 18
    frequency:   19.8628119586

- q-position: [    0.0303030,    0.0000000,    0.0000000 ]
  distance:    0.0105343
  band:
  - # 1
    frequency:   -0.8660094274
  - # 2
    frequency:   -0.6890069035
  - # 3
    frequency:    0.0549867849
  - # 4
    frequency:    0.4939288944
  - # 5
    frequency:    0.8024643235
  - # 6
    frequency:    0.8636301475
  - # 7
    frequency:    2.9193308682
  - # 8
    frequency:    2.9920565887
  - # 9
    frequency:    6.4729787627
  - # 10
    frequency:    8.9818877542
  - # 11
    frequency:    9.3022499588
  - # 12
    frequency:   11.6271546782
  - # 13
    frequency:   11.6618941666
  - # 14
    frequency:   14.1244817771
  - # 15
    frequency:   14.3727229437
  - # 16
    frequency:   14.3904282058
  - # 17
    frequency:   14.8823998863
  - # 18
    frequency:   19.8600379445

- q-position: [    0.0353535,    0.0000000,    0.0000000 ]
  distance:    0.0122901
  band:
  - # 1
    frequency:   -0.9740293077
  - # 2
    frequency:   -0.7567585214
  - # 3
    frequency:    0.0828147277
  - # 4
    frequency:    0.5789697563
  - # 5
    frequency:    0.8396583877
  - # 6
    frequency:    0.9749681972
  - # 7
    frequency:    2.9253418418
  - # 8
    frequency:    3.0234785105
  - # 9
    frequency:    6.4656610664
  - # 10
    frequency:    8.9838218909
  - # 11
    frequency:    9.4138050669
  - # 12
    frequency:   11.6152634413
  - # 13
    frequency:   11.6616492957
  - # 14
    frequency:   14.1115448993
  - # 15
    frequency:   14.3739810793
  - # 16
    frequency:   14.3966708630
  - # 17
    frequency:   14.8792502485
  - # 18
    frequency:   19.8567576673

- q-position: [    0.0404040,    0.0000000,    0.0000000 ]
  distance:    0.0140458
  band:
  - # 1
    frequency:   -1.0847380303
  - # 2
    frequency:   -0.8277759600
  - # 3
    frequency:    0.1147011665
  - # 4
    frequency:    0.6635155977
  - # 5
    frequency:    0.8526632100
  - # 6
    frequency:    1.1112146180
  - # 7
    frequency:    2.9322802883
  - # 8
    frequency:    3.0592091671
  - # 9
    frequency:    6.4576055094
  - # 10
    frequency:    8.9861192091
  - # 11
    frequency:    9.5387790365
  - # 12
    frequency:   11.6022279343
  - # 13
    frequency:   11.6613647498
  - # 14
    frequency:   14.0972485184
  - # 15
    frequency:   14.3754044936
  - # 16
    frequency:   14.4031922489
  - # 17
    frequency:   14.8758334681
  - # 18
    frequency:   19.8529699765

- q-position: [    0.0454545,    0.0000000,    0.0000000 ]
  distance:    0.0158015
  band:
  - # 1
    frequency:   -1.1970313558
  - # 2
    frequency:   -0.9010039911
  - # 3
    frequency:    0.1504699228
  - # 4
    frequency:    0.7474684793
  - # 5
    frequency:    0.8647813757
  - # 6
    frequency:    1.2490839083
  - # 7
    frequency:    2.9401463088
  - # 8
    frequency:    3.0990516238
  - # 9
    frequency:    6.4489025985
  - # 10
    frequency:    8.9888069207
  - # 11
    frequency:    9.6756652708
  - # 12
    frequency:   11.5884544752
  - # 13
    frequency:   11.6610398193
  - # 14
    frequency:   14.0817258542
  - # 15
    frequency:   14.3769813582
  - # 16
    frequency:   14.4098442780
  - # 17
    frequency:   14.8722495374
  - # 18
    frequency:   19.8486734009

- q-position: [    0.0505051,    0.0000000,    0.0000000 ]
  distance:    0.0175572
  band:
  - # 1
    frequency:   -1.3101462263
  - # 2
    frequency:   -0.9756723733
  - # 3
    frequency:    0.1899101515
  - # 4
    frequency:    0.8307653792
  - # 5
    frequency:    0.8777499147
  - # 6
    frequency:    1.3868336794
  - # 7
    frequency:    2.9489393987
  - # 8
    frequency:    3.1428002023
  - # 9
    frequency:    6.4396272922
  - # 10
    frequency:    8.9919152635
  - # 11
    frequency:    9.8227415087
  - # 12
    frequency:   11.5745184224
  - # 13
    frequency:   11.6606737946
  - # 14
    frequency:   14.0650967178
  - # 15
    frequency:   14.3786984592
  - # 16
    frequency:   14.4164953437
  - # 17
    frequency:   14.8686169016
  - # 18
    frequency:   19.8438660981

- q-position: [    0.0555556,    0.0000000,    0.0000000 ]
  distance:    0.0193130
  band:
  - # 1
    frequency:   -1.4235286746
  - # 2
    frequency:   -1.0512069308
  - # 3
    frequency:    0.2327964253
  - # 4
    frequency:    0.8919164732
  - # 5
    frequency:    0.9133569694
  - # 6
    frequency:    1.5240861969
  - # 7
    frequency:    2.9586582804
  - # 8
    frequency:    3.1902455903
  - # 9
    frequency:    6.4298392974
  - # 10
    frequency:    8.9954772796
  - # 11
    frequency:    9.9779878562
  - # 12
    frequency:   11.5612605391
  - # 13
    frequency:   11.6602659982
  - # 14
    frequency:   14.0474742351
  - # 15
    frequency:   14.3805412666
  - # 16
    frequency:   14.4230260415
  - # 17
    frequency:   14.8650748901
  - # 18
    frequency:   19.8385458054

- q-position: [    0.0606061,    0.0000000,    0.0000000 ]
  distance:    0.0210687
  band:
  - # 1
    frequency:   -1.5367577935
  - # 2
    frequency:   -1.1271685416
  - # 3
    frequency:    0.2788959567
  - # 4
    frequency:    0.9073783950
  - # 5
    frequency:    0.9951986848
  - # 6
    frequency:    1.6606917218
  - # 7
    frequency:    2.9693007401
  - # 8
    frequency:    3.2411796605
  - # 9
    frequency:    6.4195846529
  - # 10
    frequency:    8.9995285705
  - # 11
    frequency:   10.1389278892
  - # 12
    frequency:   11.5499554693
  - # 13
    frequency:   11.6598158181
  - # 14
    frequency:   14.0289722088
  - # 15
    frequency:   14.3824940106
  - # 16
    frequency:   14.4293250957
  - # 17
    frequency:   14.8617867331
  - # 18
    frequency:   19.8327097925

- q-position: [    0.0656566,    0.0000000,    0.0000000 ]
  distance:    0.0228244
  band:
  - # 1
    frequency:   -1.6495005288
  - # 2
    frequency:   -1.2032121959
  - # 3
    frequency:    0.3279728714
  - # 4
    frequency:    0.9241560502
  - # 5
    frequency:    1.0762471815
  - # 6
    frequency:    1.7965587593
  - # 7
    frequency:    2.9808634743
  - # 8
    frequency:    3.2953998330
  - # 9
    frequency:    6.4088979682
  - # 10
    frequency:    9.0041070302
  - # 11
    frequency:   10.3023352014
  - # 12
    frequency:   11.5426097761
  - # 13
    frequency:   11.6593227434
  - # 14
    frequency:   14.0097129802
  - # 15
    frequency:   14.3845397637
  - # 16
    frequency:   14.4352860323
  - # 17
    frequency:   14.8589432689
  - # 18
    frequency:   19.8263548202

- q-position: [    0.0707071,    0.0000000,    0.0000000 ]
  distance:    0.0245801
  band:
  - # 1
    frequency:   -1.7614838969
  - # 2
    frequency:   -1.2790595462
  - # 3
    frequency:    0.3797912288
  - # 4
    frequency:    0.9422390205
  - # 5
    frequency:    1.1564591263
  - # 6
    frequency:    1.9316114998
  - # 7
    frequency:    2.9933419457
  - # 8
    frequency:    3.3527128848
  - # 9
    frequency:    6.3978048531
  - # 10
    frequency:    9.0092525560
  - # 11
    frequency:   10.4637182759
  - # 12
    frequency:   11.5424762997
  - # 13
    frequency:   11.6587863995
  - # 14
    frequency:   13.9898361045
  - # 15
    frequency:   14.3866605292
  - # 16
    frequency:   14.4408048870
  - # 17
    frequency:   14.8567674614
  - # 18
    frequency:   19.8194771071

- q-position: [    0.0757576,    0.0000000,    0.0000000 ]
  distance:    0.0263359
  band:
  - # 1
    frequency:   -1.8724773625
  - # 2
    frequency:   -1.3544803425
  - # 3
    frequency:    0.4341169052
  - # 4
    frequency:    0.9616039577
  - # 5
    frequency:    1.2357909794
  - # 6
    frequency:    2.0657753585
  - # 7
    frequency:    3.0067302494
  - # 8
    frequency:    3.4129381675
  - # 9
    frequency:    6.3863242433
  - # 10
    frequency:    9.0150067392
  - # 11
    frequency:   10.6165363589
  - # 12
    frequency:   11.5548314602
  - # 13
    frequency:   11.6582065853
  - # 14
    frequency:   13.9695085189
  - # 15
    frequency:   14.3888373345
  - # 16
    frequency:   14.4457791518
  - # 17
    frequency:   14.8555199014
  - # 18
    frequency:   19.8120723065

- q-position: [    0.0808081,    0.0000000,    0.0000000 ]
  distance:    0.0280916
  band:
  - # 1
    frequency:   -1.9822813256
  - # 2
    frequency:   -1.4292797193
  - # 3
    frequency:    0.4907181545
  - # 4
    frequency:    0.9822240770
  - # 5
    frequency:    1.3141991885
  - # 6
    frequency:    2.1989707469
  - # 7
    frequency:    3.0210209892
  - # 8
    frequency:    3.4759102428
  - # 9
    frequency:    6.3744704652
  - # 10
    frequency:    9.0214125370
  - # 11
    frequency:   10.7515331416
  - # 12
    frequency:   11.5876275117
  - # 13
    frequency:   11.6575833086
  - # 14
    frequency:   13.9489372535
  - # 15
    frequency:   14.3910503294
  - # 16
    frequency:   14.4501081590
  - # 17
    frequency:   14.8555055525
  - # 18
    frequency:   19.8041354963

- q-position: [    0.0858586,    0.0000000,    0.0000000 ]
  distance:    0.0298473
  band:
  - # 1
    frequency:   -2.0907193946
  - # 2
    frequency:   -1.5032893672
  - # 3
    frequency:    0.5493645720
  - # 4
    frequency:    1.0040759526
  - # 5
    frequency:    1.3916405398
  - # 6
    frequency:    2.3311097492
  - # 7
    frequency:    3.0362051629
  - # 8
    frequency:    3.5414809676
  - # 9
    frequency:    6.3622549815
  - # 10
    frequency:    9.0285139264
  - # 11
    frequency:   10.8579470355
  - # 12
    frequency:   11.6502590736
  - # 13
    frequency:   11.6569168222
  - # 14
    frequency:   13.9283862300
  - # 15
    frequency:   14.3932788882
  - # 16
    frequency:   14.4536950922
  - # 17
    frequency:   14.8570821941
  - # 18
    frequency:   19.7956611852

- q-position: [    0.0909091,    0.0000000,    0.0000000 ]
  distance:    0.0316030
  band:
  - # 1
    frequency:   -2.1976330728
  - # 2
    frequency:   -1.5763613129
  - # 3
    frequency:    0.6098240380
  - # 4
    frequency:    1.0271459364
  - # 5
    frequency:    1.4680725573
  - # 6
    frequency:    2.4620940128
  - # 7
    frequency:    3.0522720561
  - # 8
    frequency:    3.6095210598
  - # 9
    frequency:    6.3496878205
  - # 10
    frequency:    9.0363555418
  - # 11
    frequency:   10.9287728621
  - # 12
    frequency:   11.6562076585
  - # 13
    frequency:   11.7482662716
  - # 14
    frequency:   13.9081993864
  - # 15
    frequency:   14.3955017163
  - # 16
    frequency:   14.4564507428
  - # 17
    frequency:   14.8606713246
  - # 18
    frequency:   19.7866433366

- q-position: [    0.0959596,    0.0000000,    0.0000000 ]
  distance:    0.0333588
  band:
  - # 1
    frequency:   -2.3028780262
  - # 2
    frequency:   -1.6483634785
  - # 3
    frequency:    0.6718568658
  - # 4
    frequency:    1.0514378275
  - # 5
    frequency:    1.5434539056
  - # 6
    frequency:    2.5918132798
  - # 7
    frequency:    3.0692091448
  - # 8
    frequency:    3.6799211546
  - # 9
    frequency:    6.3367787278
  - # 10
    frequency:    9.0449822987
  - # 11
    frequency:   10.9659218678
  - # 12
    frequency:   11.6554566634
  - # 13
    frequency:   11.8781235007
  - # 14
    frequency:   13.8888333090
  - # 15
    frequency:   14.3976969583
  - # 16
    frequency:   14.4582989361
  - # 17
    frequency:   14.8667727360
  - # 18
    frequency:   19.7770754133

- q-position: [    0.1010101,    0.0000000,    0.0000000 ]
  distance:    0.0351145
  band:
  - # 1
    frequency:   -2.4063214132
  - # 2
    frequency:   -1.7191764682
  - # 3
    frequency:    0.7352056827
  - # 4
    frequency:    1.0769837518
  - # 5
    frequency:    1.6177447784
  - # 6
    frequency:    2.7201444072
  - # 7
    frequency:    3.0870020051
  - # 8
    frequency:    3.7525923157
  - # 9
    frequency:    6.3235380923
  - # 10
    frequency:    9.0544390056
  - # 11
    frequency:   10.9776160720
  - # 12
    frequency:   11.6546650281
  - # 13
    frequency:   12.0297724468
  - # 14
    frequency:   13.8709036180
  - # 15
    frequency:   14.3998423101
  - # 16
    frequency:   14.4591832529
  - # 17
    frequency:   14.8759844648
  - # 18
    frequency:   19.7669504458

- q-position: [    0.1060606,    0.0000000,    0.0000000 ]
  distance:    0.0368702
  band:
  - # 1
    frequency:   -2.5078399443
  - # 2
    frequency:   -1.7886912153
  - # 3
    frequency:    0.7995782212
  - # 4
    frequency:    1.1038613968
  - # 5
    frequency:    1.6909072681
  - # 6
    frequency:    2.8469509220
  - # 7
    frequency:    3.1056342312
  - # 8
    frequency:    3.8274659022
  - # 9
    frequency:    6.3099777100
  - # 10
    frequency:    9.0647699655
  - # 11
    frequency:   10.9722759810
  - # 12
    frequency:   11.6538343192
  - # 13
    frequency:   12.1926346383
  - # 14
    frequency:   13.8552497706
  - # 15
    frequency:   14.4019151313
  - # 16
    frequency:   14.4590743439
  - # 17
    frequency:   14.8890300448
  - # 18
    frequency:   19.7562611260

- q-position: [    0.1111111,    0.0000000,    0.0000000 ]
  distance:    0.0386259
  band:
  - # 1
    frequency:   -2.6073184560
  - # 2
    frequency:   -1.8568072408
  - # 3
    frequency:    0.8646176887
  - # 4
    frequency:    1.1322231686
  - # 5
    frequency:    1.7629057141
  - # 6
    frequency:    2.9720832835
  - # 7
    frequency:    3.1250873622
  - # 8
    frequency:    3.9044926124
  - # 9
    frequency:    6.2961114433
  - # 10
    frequency:    9.0760185712
  - # 11
    frequency:   10.9559106541
  - # 12
    frequency:   11.6529665074
  - # 13
    frequency:   12.3580926046
  - # 14
    frequency:   13.8430200707
  - # 15
    frequency:   14.4038925598
  - # 16
    frequency:   14.4579769225
  - # 17
    frequency:   14.9067942871
  - # 18
    frequency:   19.7449999304

- q-position: [    0.1161616,    0.0000000,    0.0000000 ]
  distance:    0.0403817
  band:
  - # 1
    frequency:   -2.7046488504
  - # 2
    frequency:   -1.9234313510
  - # 3
    frequency:    0.9298510677
  - # 4
    frequency:    1.1623470943
  - # 5
    frequency:    1.8337070300
  - # 6
    frequency:    3.0953801162
  - # 7
    frequency:    3.1453408187
  - # 8
    frequency:    3.9836404395
  - # 9
    frequency:    6.2819558404
  - # 10
    frequency:    9.0882268960
  - # 11
    frequency:   10.9323217046
  - # 12
    frequency:   11.6520639927
  - # 13
    frequency:   12.5191426672
  - # 14
    frequency:   13.8357648268
  - # 15
    frequency:   14.4057516263
  - # 16
    frequency:   14.4559356076
  - # 17
    frequency:   14.9303660105
  - # 18
    frequency:   19.7331592731

- q-position: [    0.1212121,    0.0000000,    0.0000000 ]
  distance:    0.0421374
  band:
  - # 1
    frequency:   -2.7997293041
  - # 2
    frequency:   -1.9884766548
  - # 3
    frequency:    0.9946004528
  - # 4
    frequency:    1.1947244913
  - # 5
    frequency:    1.9032810089
  - # 6
    frequency:    3.1663718509
  - # 7
    frequency:    3.2166707422
  - # 8
    frequency:    4.0648912073
  - # 9
    frequency:    6.2675307777
  - # 10
    frequency:    9.1014352839
  - # 11
    frequency:   10.9038770348
  - # 12
    frequency:   11.6511296283
  - # 13
    frequency:   12.6695266058
  - # 14
    frequency:   13.8354833890
  - # 15
    frequency:   14.4074693693
  - # 16
    frequency:   14.4530392048
  - # 17
    frequency:   14.9610794733
  - # 18
    frequency:   19.7207316951

- q-position: [    0.1262626,    0.0000000,    0.0000000 ]
  distance:    0.0438931
  band:
  - # 1
    frequency:   -2.8924636741
  - # 2
    frequency:   -2.0518618171
  - # 3
    frequency:    1.0578477872
  - # 4
    frequency:    1.2301941405
  - # 5
    frequency:    1.9716006051
  - # 6
    frequency:    3.1881555007
  - # 7
    frequency:    3.3357793442
  - # 8
    frequency:    4.1482353272
  - # 9
    frequency:    6.2528601967
  - # 10
    frequency:    9.1156819432
  - # 11
    frequency:   10.8720950780
  - # 12
    frequency:   11.6501667412
  - # 13
    frequency:   12.8032694307
  - # 14
    frequency:   13.8444775851
  - # 15
    frequency:   14.4090229485
  - # 16
    frequency:   14.4494236367
  - # 17
    frequency:   15.0005338658
  - # 18
    frequency:   19.7077100903

- q-position: [    0.1313131,    0.0000000,    0.0000000 ]
  distance:    0.0456488
  band:
  - # 1
    frequency:   -2.9827610519
  - # 2
    frequency:   -2.1135104876
  - # 3
    frequency:    1.1181115452
  - # 4
    frequency:    1.2700644850
  - # 5
    frequency:    2.0386421902
  - # 6
    frequency:    3.2106645790
  - # 7
    frequency:    3.4525310022
  - # 8
    frequency:    4.2336644846
  - # 9
    frequency:    6.2379730243
  - # 10
    frequency:    9.1310025461
  - # 11
    frequency:   10.8379960855
  - # 12
    frequency:   11.6491791499
  - # 13
    frequency:   12.9149614891
  - # 14
    frequency:   13.8647544078
  - # 15
    frequency:   14.4103897581
  - # 16
    frequency:   14.4452742337
  - # 17
    frequency:   15.0505526099
  - # 18
    frequency:   19.6940879748

- q-position: [    0.1363636,    0.0000000,    0.0000000 ]
  distance:    0.0474045
  band:
  - # 1
    frequency:   -3.0705354304
  - # 2
    frequency:   -2.1733508619
  - # 3
    frequency:    1.1736224815
  - # 4
    frequency:    1.3159367853
  - # 5
    frequency:    2.1043857795
  - # 6
    frequency:    3.2338696619
  - # 7
    frequency:    3.5667596110
  - # 8
    frequency:    4.3211621584
  - # 9
    frequency:    6.2229043890
  - # 10
    frequency:    9.1474298402
  - # 11
    frequency:   10.8023023931
  - # 12
    frequency:   11.6481711795
  - # 13
    frequency:   13.0008839325
  - # 14
    frequency:   13.8968481809
  - # 15
    frequency:   14.4115475376
  - # 16
    frequency:   14.4408280589
  - # 17
    frequency:   15.1130306534
  - # 18
    frequency:   19.6798598034

- q-position: [    0.1414141,    0.0000000,    0.0000000 ]
  distance:    0.0491603
  band:
  - # 1
    frequency:   -3.1557054561
  - # 2
    frequency:   -2.2313153425
  - # 3
    frequency:    1.2231972670
  - # 4
    frequency:    1.3688304473
  - # 5
    frequency:    2.1688152259
  - # 6
    frequency:    3.2577391073
  - # 7
    frequency:    3.6783172924
  - # 8
    frequency:    4.4106922186
  - # 9
    frequency:    6.2076972946
  - # 10
    frequency:    9.1649932743
  - # 11
    frequency:   10.7655527926
  - # 12
    frequency:   11.6471476730
  - # 13
    frequency:   13.0603601783
  - # 14
    frequency:   13.9386508684
  - # 15
    frequency:   14.4124744802
  - # 16
    frequency:   14.4363759277
  - # 17
    frequency:   15.1896337193
  - # 18
    frequency:   19.6650213404

- q-position: [    0.1464646,    0.0000000,    0.0000000 ]
  distance:    0.0509160
  band:
  - # 1
    frequency:   -3.2381942480
  - # 2
    frequency:   -2.2873402774
  - # 3
    frequency:    1.2671779558
  - # 4
    frequency:    1.4282426037
  - # 5
    frequency:    2.2319183757
  - # 6
    frequency:    3.2822390951
  - # 7
    frequency:    3.7870844088
  - # 8
    frequency:    4.5021862675
  - # 9
    frequency:    6.1924049882
  - # 10
    frequency:    9.1837186445
  - # 11
    frequency:   10.7281692248
  - # 12
    frequency:   11.6461140000
  - # 13
    frequency:   13.0960019142
  - # 14
    frequency:   13.9855077986
  - # 15
    frequency:   14.4131493392
  - # 16
    frequency:   14.4322612809
  - # 17
    frequency:   15.2813883362
  - # 18
    frequency:   19.6495700928

- q-position: [    0.1515152,    0.0000000,    0.0000000 ]
  distance:    0.0526717
  band:
  - # 1
    frequency:   -3.3179292679
  - # 2
    frequency:   -2.3413657581
  - # 3
    frequency:    1.3070437845
  - # 4
    frequency:    1.4925354658
  - # 5
    frequency:    2.2936871832
  - # 6
    frequency:    3.3073336922
  - # 7
    frequency:    3.8929788084
  - # 8
    frequency:    4.5955307410
  - # 9
    frequency:    6.1770943836
  - # 10
    frequency:    9.2036277642
  - # 11
    frequency:   10.6904967012
  - # 12
    frequency:   11.6450760612
  - # 13
    frequency:   13.1123802280
  - # 14
    frequency:   14.0318805950
  - # 15
    frequency:   14.4135515300
  - # 16
    frequency:   14.4288687894
  - # 17
    frequency:   15.3883165052
  - # 18
    frequency:   19.6335058162

- q-position: [    0.1565657,    0.0000000,    0.0000000 ]
  distance:    0.0544274
  band:
  - # 1
    frequency:   -3.3948422310
  - # 2
    frequency:   -2.3933354643
  - # 3
    frequency:    1.3443186890
  - # 4
    frequency:    1.5600280738
  - # 5
    frequency:    2.3541177794
  - # 6
    frequency:    3.3329849450
  - # 7
    frequency:    3.9959626953
  - # 8
    frequency:    4.6905548013
  - # 9
    frequency:    6.1618511139
  - # 10
    frequency:    9.2247381621
  - # 11
    frequency:   10.6528278185
  - # 12
    frequency:   11.6440402890
  - # 13
    frequency:   13.1142856485
  - # 14
    frequency:   14.0732144008
  - # 15
    frequency:   14.4136612293
  - # 16
    frequency:   14.4265908180
  - # 17
    frequency:   15.5093146420
  - # 18
    frequency:   19.6168311062

- q-position: [    0.1616162,    0.0000000,    0.0000000 ]
  distance:    0.0561832
  band:
  - # 1
    frequency:   -3.4688690477
  - # 2
    frequency:   -2.4431965452
  - # 3
    frequency:    1.3800765413
  - # 4
    frequency:    1.6294904512
  - # 5
    frequency:    2.4132104912
  - # 6
    frequency:    3.3591529986
  - # 7
    frequency:    4.0960457231
  - # 8
    frequency:    4.7870194927
  - # 9
    frequency:    6.1467871421
  - # 10
    frequency:    9.2470628130
  - # 11
    frequency:   10.6154181431
  - # 12
    frequency:   11.6430136446
  - # 13
    frequency:   13.1057172592
  - # 14
    frequency:   14.1067943248
  - # 15
    frequency:   14.4134594696
  - # 16
    frequency:   14.4257606699
  - # 17
    frequency:   15.6423564990
  - # 18
    frequency:   19.5995520948

- q-position: [    0.1666667,    0.0000000,    0.0000000 ]
  distance:    0.0579389
  band:
  - # 1
    frequency:   -3.5399497910
  - # 2
    frequency:   -2.4908995298
  - # 3
    frequency:    1.4149741598
  - # 4
    frequency:    1.7001101184
  - # 5
    frequency:    2.4709698095
  - # 6
    frequency:    3.3857962441
  - # 7
    frequency:    4.1932835865
  - # 8
    frequency:    4.8846073280
  - # 9
    frequency:    6.1320524820
  - # 10
    frequency:    9.2706099043
  - # 11
    frequency:   10.5784960196
  - # 12
    frequency:   11.6420036110
  - # 13
    frequency:   13.0896622476
  - # 14
    frequency:   14.1316379626
  - # 15
    frequency:   14.4129282297
  - # 16
    frequency:   14.4265590798
  - # 17
    frequency:   15.7849018130
  - # 18
    frequency:   19.5816792701

- q-position: [    0.1717172,    0.0000000,    0.0000000 ]
  distance:    0.0596946
  band:
  - # 1
    frequency:   -3.6080286833
  - # 2
    frequency:   -2.5363982601
  - # 3
    frequency:    1.4493971744
  - # 4
    frequency:    1.7713458897
  - # 5
    frequency:    2.5274043037
  - # 6
    frequency:    3.4128714928
  - # 7
    frequency:    4.2877723499
  - # 8
    frequency:    4.9829094133
  - # 9
    frequency:    6.1178536736
  - # 10
    frequency:    9.2953826430
  - # 11
    frequency:   10.5422688724
  - # 12
    frequency:   11.6410181804
  - # 13
    frequency:   13.0682510947
  - # 14
    frequency:   14.1479977329
  - # 15
    frequency:   14.4120505200
  - # 16
    frequency:   14.4289358382
  - # 17
    frequency:   15.9343077550
  - # 18
    frequency:   19.5632284524

- q-position: [    0.1767677,    0.0000000,    0.0000000 ]
  distance:    0.0614503
  band:
  - # 1
    frequency:   -3.6730540991
  - # 2
    frequency:   -2.5796498436
  - # 3
    frequency:    1.4835710491
  - # 4
    frequency:    1.8428166555
  - # 5
    frequency:    2.5825264841
  - # 6
    frequency:    3.4403341738
  - # 7
    frequency:    4.3796396389
  - # 8
    frequency:    5.0814043642
  - # 9
    frequency:    6.1044836245
  - # 10
    frequency:    9.3213791039
  - # 11
    frequency:   10.5069272398
  - # 12
    frequency:   11.6400658384
  - # 13
    frequency:   13.0429892280
  - # 14