nqpoint: 300    
npath: 3      
segment_nqpoint:
- 100
- 100
- 100
labels:
- [ 'G', 'M' ]
- [ 'M', 'K' ]
- [ 'K', 'G' ]
reciprocal_lattice:
- [   0.30442706,   0.17576105,   0.00000000 ] # a*
- [   0.00000000,   0.35152209,   0.00000000 ] # b*
- [   0.00000000,   0.00000000,   0.03398462 ] # c*
natom: 8      
lattice:
- [     3.284859089370942,     0.000000000000000,     0.000000000000000 ] # a
- [    -1.642429544685471,     2.844771419252762,     0.000000000000000 ] # b
- [     0.000000000000000,     0.000000000000000,    29.425079293879730 ] # c
points:
- symbol: C # 1
  coordinates: [  0.666666984744047,  0.333332985985145,  0.346310335634174 ]
  mass: 12.010700
- symbol: Cl # 2
  coordinates: [  0.333332985432215,  0.666666983183674,  0.694138462292200 ]
  mass: 35.453000
- symbol: Hf # 3
  coordinates: [  0.333332985432215,  0.666666983183674,  0.460465738516056 ]
  mass: 178.490000
- symbol: Hf # 4
  coordinates: [  0.666666984744047,  0.333332985985145,  0.551415368322712 ]
  mass: 178.490000
- symbol: N # 5
  coordinates: [  0.000000000000000,  0.000000000000000,  0.508449846573846 ]
  mass: 14.006700
- symbol: N # 6
  coordinates: [  0.666666984744047,  0.333332985985145,  0.305861537707800 ]
  mass: 14.006700
- symbol: O # 7
  coordinates: [  0.333332985432215,  0.666666983183674,  0.580936903219630 ]
  mass: 15.999400
- symbol: S # 8
  coordinates: [  0.666666984744047,  0.333332985985145,  0.404488821933459 ]
  mass: 32.065000

phonon:
- q-position: [    0.0000000,    0.0000000,    0.0000000 ]
  distance:    0.0000000
  band:
  - # 1
    frequency:   -0.0000099700
  - # 2
    frequency:    0.0000002698
  - # 3
    frequency:    0.0000106373
  - # 4
    frequency:    0.6445918544
  - # 5
    frequency:    0.6445918544
  - # 6
    frequency:    1.0223589879
  - # 7
    frequency:    1.0691644074
  - # 8
    frequency:    1.0691644074
  - # 9
    frequency:    2.0201822617
  - # 10
    frequency:    2.0201822617
  - # 11
    frequency:    3.8678066614
  - # 12
    frequency:    6.1609128115
  - # 13
    frequency:    6.1609128115
  - # 14
    frequency:    7.8467297229
  - # 15
    frequency:   10.3625044244
  - # 16
    frequency:   10.3625044244
  - # 17
    frequency:   10.8117168614
  - # 18
    frequency:   10.8117168614
  - # 19
    frequency:   14.2237524249
  - # 20
    frequency:   14.2237524249
  - # 21
    frequency:   14.2760155784
  - # 22
    frequency:   15.8301737982
  - # 23
    frequency:   17.4787183356
  - # 24
    frequency:   64.5220390912

- q-position: [    0.0050505,    0.0000000,    0.0000000 ]
  distance:    0.0017754
  band:
  - # 1
    frequency:   -0.0012825257
  - # 2
    frequency:    0.0501208841
  - # 3
    frequency:    0.0799654439
  - # 4
    frequency:    0.6346405601
  - # 5
    frequency:    0.6408999369
  - # 6
    frequency:    1.0232445772
  - # 7
    frequency:    1.0708221838
  - # 8
    frequency:    1.0729763947
  - # 9
    frequency:    2.0208903804
  - # 10
    frequency:    2.0223069918
  - # 11
    frequency:    3.8675424186
  - # 12
    frequency:    6.1613285106
  - # 13
    frequency:    6.1618882961
  - # 14
    frequency:    7.8462696488
  - # 15
    frequency:   10.3628295699
  - # 16
    frequency:   10.3631673179
  - # 17
    frequency:   10.8119780054
  - # 18
    frequency:   10.8122520178
  - # 19
    frequency:   14.2084381744
  - # 20
    frequency:   14.2240365862
  - # 21
    frequency:   14.2903190374
  - # 22
    frequency:   15.8306677606
  - # 23
    frequency:   17.4785388199
  - # 24
    frequency:   64.5219484670

- q-position: [    0.0101010,    0.0000000,    0.0000000 ]
  distance:    0.0035507
  band:
  - # 1
    frequency:   -0.0064192898
  - # 2
    frequency:    0.0995330955
  - # 3
    frequency:    0.1556935564
  - # 4
    frequency:    0.6048636820
  - # 5
    frequency:    0.6298053888
  - # 6
    frequency:    1.0259093859
  - # 7
    frequency:    1.0757841368
  - # 8
    frequency:    1.0843838689
  - # 9
    frequency:    2.0230105008
  - # 10
    frequency:    2.0286545011
  - # 11
    frequency:    3.8667538952
  - # 12
    frequency:    6.1625738193
  - # 13
    frequency:    6.1648096189
  - # 14
    frequency:    7.8448911867
  - # 15
    frequency:   10.3638027579
  - # 16
    frequency:   10.3651484982
  - # 17
    frequency:   10.8127528778
  - # 18
    frequency:   10.8138572880
  - # 19
    frequency:   14.1797552614
  - # 20
    frequency:   14.2248874216
  - # 21
    frequency:   14.3159806648
  - # 22
    frequency:   15.8321489405
  - # 23
    frequency:   17.4780005431
  - # 24
    frequency:   64.5216767702

- q-position: [    0.0151515,    0.0000000,    0.0000000 ]
  distance:    0.0053261
  band:
  - # 1
    frequency:   -0.0201083153
  - # 2
    frequency:    0.1472060811
  - # 3
    frequency:    0.2166549693
  - # 4
    frequency:    0.5581258897
  - # 5
    frequency:    0.6113292272
  - # 6
    frequency:    1.0303671914
  - # 7
    frequency:    1.0840124305
  - # 8
    frequency:    1.1032583945
  - # 9
    frequency:    2.0265299998
  - # 10
    frequency:    2.0391463083
  - # 11
    frequency:    3.8654536458
  - # 12
    frequency:    6.1646433842
  - # 13
    frequency:    6.1696614643
  - # 14
    frequency:    7.8425995861
  - # 15
    frequency:   10.3654172766
  - # 16
    frequency:   10.3684256705
  - # 17
    frequency:   10.8140157943
  - # 18
    frequency:   10.8165320596
  - # 19
    frequency:   14.1477821173
  - # 20
    frequency:   14.2262999886
  - # 21
    frequency:   14.3429552294
  - # 22
    frequency:   15.8346151812
  - # 23
    frequency:   17.4771043166
  - # 24
    frequency:   64.5212245274

- q-position: [    0.0202020,    0.0000000,    0.0000000 ]
  distance:    0.0071015
  band:
  - # 1
    frequency:   -0.0591789465
  - # 2
    frequency:    0.1911705591
  - # 3
    frequency:    0.2230842260
  - # 4
    frequency:    0.5165631811
  - # 5
    frequency:    0.5858700259
  - # 6
    frequency:    1.0366274293
  - # 7
    frequency:    1.0954344593
  - # 8
    frequency:    1.1292946715
  - # 9
    frequency:    2.0314281156
  - # 10
    frequency:    2.0536566354
  - # 11
    frequency:    3.8636623972
  - # 12
    frequency:    6.1675283220
  - # 13
    frequency:    6.1764185617
  - # 14
    frequency:    7.8394034910
  - # 15
    frequency:   10.3676620515
  - # 16
    frequency:   10.3729623482
  - # 17
    frequency:   10.8157239495
  - # 18
    frequency:   10.8202752619
  - # 19
    frequency:   14.1144479177
  - # 20
    frequency:   14.2282660600
  - # 21
    frequency:   14.3693686609
  - # 22
    frequency:   15.8380627746
  - # 23
    frequency:   17.4758514912
  - # 24
    frequency:   64.5205926148

- q-position: [    0.0252525,    0.0000000,    0.0000000 ]
  distance:    0.0088768
  band:
  - # 1
    frequency:   -0.2122172204
  - # 2
    frequency:    0.1374534568
  - # 3
    frequency:    0.2268869119
  - # 4
    frequency:    0.5307058995
  - # 5
    frequency:    0.5552964942
  - # 6
    frequency:    1.0446982426
  - # 7
    frequency:    1.1099359233
  - # 8
    frequency:    1.1619885213
  - # 9
    frequency:    2.0376763507
  - # 10
    frequency:    2.0720193344
  - # 11
    frequency:    3.8614087617
  - # 12
    frequency:    6.1712162785
  - # 13
    frequency:    6.1850460592
  - # 14
    frequency:    7.8353147889
  - # 15
    frequency:   10.3705218110
  - # 16
    frequency:   10.3787088078
  - # 17
    frequency:   10.8178174801
  - # 18
    frequency:   10.8250852928
  - # 19
    frequency:   14.0803740545
  - # 20
    frequency:   14.2307741395
  - # 21
    frequency:   14.3946761968
  - # 22
    frequency:   15.8424863092
  - # 23
    frequency:   17.4742439551
  - # 24
    frequency:   64.5197822555

- q-position: [    0.0303030,    0.0000000,    0.0000000 ]
  distance:    0.0106522
  band:
  - # 1
    frequency:   -0.4220078174
  - # 2
    frequency:    0.1223710521
  - # 3
    frequency:    0.2426647792
  - # 4
    frequency:    0.5260935206
  - # 5
    frequency:    0.5906439308
  - # 6
    frequency:    1.0545909496
  - # 7
    frequency:    1.1273597967
  - # 8
    frequency:    1.2006860572
  - # 9
    frequency:    2.0452390105
  - # 10
    frequency:    2.0940364555
  - # 11
    frequency:    3.8587288507
  - # 12
    frequency:    6.1756915074
  - # 13
    frequency:    6.1955000269
  - # 14
    frequency:    7.8303484090
  - # 15
    frequency:   10.3739773101
  - # 16
    frequency:   10.3856033220
  - # 17
    frequency:   10.8202196752
  - # 18
    frequency:   10.8309599204
  - # 19
    frequency:   14.0458984713
  - # 20
    frequency:   14.2338094841
  - # 21
    frequency:   14.4186374437
  - # 22
    frequency:   15.8478784911
  - # 23
    frequency:   17.4722841313
  - # 24
    frequency:   64.5187950158

- q-position: [    0.0353535,    0.0000000,    0.0000000 ]
  distance:    0.0124275
  band:
  - # 1
    frequency:   -0.5983462774
  - # 2
    frequency:    0.1361342254
  - # 3
    frequency:    0.2103798949
  - # 4
    frequency:    0.5130506680
  - # 5
    frequency:    0.6662920710
  - # 6
    frequency:    1.0663225788
  - # 7
    frequency:    1.1475118327
  - # 8
    frequency:    1.2446582908
  - # 9
    frequency:    2.0540738561
  - # 10
    frequency:    2.1194875449
  - # 11
    frequency:    3.8556658065
  - # 12
    frequency:    6.1809349697
  - # 13
    frequency:    6.2077280734
  - # 14
    frequency:    7.8245220810
  - # 15
    frequency:   10.3780056076
  - # 16
    frequency:   10.3935735701
  - # 17
    frequency:   10.8228374524
  - # 18
    frequency:   10.8378961647
  - # 19
    frequency:   14.0112747138
  - # 20
    frequency:   14.2373541351
  - # 21
    frequency:   14.4411164335
  - # 22
    frequency:   15.8542299675
  - # 23
    frequency:   17.4699749738
  - # 24
    frequency:   64.5176328007

- q-position: [    0.0404040,    0.0000000,    0.0000000 ]
  distance:    0.0142029
  band:
  - # 1
    frequency:   -0.7557447333
  - # 2
    frequency:   -0.0464802621
  - # 3
    frequency:    0.1583207344
  - # 4
    frequency:    0.5269848648
  - # 5
    frequency:    0.7472872863
  - # 6
    frequency:    1.0799230810
  - # 7
    frequency:    1.1701703503
  - # 8
    frequency:    1.2931637589
  - # 9
    frequency:    2.0641328466
  - # 10
    frequency:    2.1481387901
  - # 11
    frequency:    3.8522692670
  - # 12
    frequency:    6.1869244492
  - # 13
    frequency:    6.2216700541
  - # 14
    frequency:    7.8178560642
  - # 15
    frequency:   10.3825803885
  - # 16
    frequency:   10.4025380978
  - # 17
    frequency:   10.8255622477
  - # 18
    frequency:   10.8458901618
  - # 19
    frequency:   13.9767260673
  - # 20
    frequency:   14.2413869562
  - # 21
    frequency:   14.4620262318
  - # 22
    frequency:   15.8615291849
  - # 23
    frequency:   17.4673199635
  - # 24
    frequency:   64.5162978484

- q-position: [    0.0454545,    0.0000000,    0.0000000 ]
  distance:    0.0159783
  band:
  - # 1
    frequency:   -0.9019293251
  - # 2
    frequency:   -0.2723285906
  - # 3
    frequency:    0.1852129800
  - # 4
    frequency:    0.5606640110
  - # 5
    frequency:    0.8302132401
  - # 6
    frequency:    1.0954596079
  - # 7
    frequency:    1.1950973443
  - # 8
    frequency:    1.3454889850
  - # 9
    frequency:    2.0753629438
  - # 10
    frequency:    2.1797513008
  - # 11
    frequency:    3.8485947824
  - # 12
    frequency:    6.1936346835
  - # 13
    frequency:    6.2372588501
  - # 14
    frequency:    7.8103728587
  - # 15
    frequency:   10.3876723212
  - # 16
    frequency:   10.4124076723
  - # 17
    frequency:   10.8282714957
  - # 18
    frequency:   10.8549370205
  - # 19
    frequency:   13.9424633135
  - # 20
    frequency:   14.2458836822
  - # 21
    frequency:   14.4813094859
  - # 22
    frequency:   15.8697623134
  - # 23
    frequency:   17.4643231032
  - # 24
    frequency:   64.5147927238

- q-position: [    0.0505051,    0.0000000,    0.0000000 ]
  distance:    0.0177536
  band:
  - # 1
    frequency:   -1.0406284911
  - # 2
    frequency:   -0.4041944030
  - # 3
    frequency:    0.2155456588
  - # 4
    frequency:    0.6042159822
  - # 5
    frequency:    0.9135021432
  - # 6
    frequency:    1.1131121315
  - # 7
    frequency:    1.2220487254
  - # 8
    frequency:    1.4009703056
  - # 9
    frequency:    2.0877069526
  - # 10
    frequency:    2.2140880585
  - # 11
    frequency:    3.8447032022
  - # 12
    frequency:    6.2010375061
  - # 13
    frequency:    6.2544211937
  - # 14
    frequency:    7.8020969105
  - # 15
    frequency:   10.3932494405
  - # 16
    frequency:   10.4230863553
  - # 17
    frequency:   10.8308308986
  - # 18
    frequency:   10.8650306737
  - # 19
    frequency:   13.9086906997
  - # 20
    frequency:   14.2508169773
  - # 21
    frequency:   14.4989302521
  - # 22
    frequency:   15.8789132616
  - # 23
    frequency:   17.4609889122
  - # 24
    frequency:   64.5131203108

- q-position: [    0.0555556,    0.0000000,    0.0000000 ]
  distance:    0.0195290
  band:
  - # 1
    frequency:   -1.1738348998
  - # 2
    frequency:   -0.5151296338
  - # 3
    frequency:    0.2486894474
  - # 4
    frequency:    0.6525624588
  - # 5
    frequency:    0.9958616782
  - # 6
    frequency:    1.1334449670
  - # 7
    frequency:    1.2507825952
  - # 8
    frequency:    1.4590032395
  - # 9
    frequency:    2.1011043735
  - # 10
    frequency:    2.2509193233
  - # 11
    frequency:    3.8406600476
  - # 12
    frequency:    6.2091019976
  - # 13
    frequency:    6.2730785199
  - # 14
    frequency:    7.7930543194
  - # 15
    frequency:   10.3992775439
  - # 16
    frequency:   10.4344720856
  - # 17
    frequency:   10.8330977040
  - # 18
    frequency:   10.8761637350
  - # 19
    frequency:   13.8756072245
  - # 20
    frequency:   14.2561565057
  - # 21
    frequency:   14.5148699412
  - # 22
    frequency:   15.8889638015
  - # 23
    frequency:   17.4573224202
  - # 24
    frequency:   64.5112838042

- q-position: [    0.0606061,    0.0000000,    0.0000000 ]
  distance:    0.0213044
  band:
  - # 1
    frequency:   -1.3026967004
  - # 2
    frequency:   -0.6147433399
  - # 3
    frequency:    0.2842440733
  - # 4
    frequency:    0.7034120692
  - # 5
    frequency:    1.0745801297
  - # 6
    frequency:    1.1587020540
  - # 7
    frequency:    1.2810652997
  - # 8
    frequency:    1.5190444548
  - # 9
    frequency:    2.1154922437
  - # 10
    frequency:    2.2900264859
  - # 11
    frequency:    3.8365348849
  - # 12
    frequency:    6.2177946432
  - # 13
    frequency:    6.2931478216
  - # 14
    frequency:    7.7832725597
  - # 15
    frequency:   10.4057205913
  - # 16
    frequency:   10.4464565295
  - # 17
    frequency:   10.8349252360
  - # 18
    frequency:   10.8883273656
  - # 19
    frequency:   13.8434056854
  - # 20
    frequency:   14.2618690140
  - # 21
    frequency:   14.5291249067
  - # 22
    frequency:   15.8998938075
  - # 23
    frequency:   17.4533291610
  - # 24
    frequency:   64.5092867002

- q-position: [    0.0656566,    0.0000000,    0.0000000 ]
  distance:    0.0230797
  band:
  - # 1
    frequency:   -1.4279088996
  - # 2
    frequency:   -0.7069108307
  - # 3
    frequency:    0.3219120551
  - # 4
    frequency:    0.7556482163
  - # 5
    frequency:    1.1391061390
  - # 6
    frequency:    1.1990810062
  - # 7
    frequency:    1.3126754571
  - # 8
    frequency:    1.5806098093
  - # 9
    frequency:    2.1308059474
  - # 10
    frequency:    2.3312044906
  - # 11
    frequency:    3.8324007110
  - # 12
    frequency:    6.2270794940
  - # 13
    frequency:    6.3145424909
  - # 14
    frequency:    7.7727802200
  - # 15
    frequency:   10.4125410972
  - # 16
    frequency:   10.4589239034
  - # 17
    frequency:   10.8361689526
  - # 18
    frequency:   10.9015111587
  - # 19
    frequency:   13.8122704587
  - # 20
    frequency:   14.2679184280
  - # 21
    frequency:   14.5417047115
  - # 22
    frequency:   15.9116816059
  - # 23
    frequency:   17.4490151658
  - # 24
    frequency:   64.5071327866

- q-position: [    0.0707071,    0.0000000,    0.0000000 ]
  distance:    0.0248551
  band:
  - # 1
    frequency:   -1.5499043408
  - # 2
    frequency:   -0.7936427132
  - # 3
    frequency:    0.3614507995
  - # 4
    frequency:    0.8086609962
  - # 5
    frequency:    1.1779003521
  - # 6
    frequency:    1.2658201108
  - # 7
    frequency:    1.3454063339
  - # 8
    frequency:    1.6432707145
  - # 9
    frequency:    2.1469799793
  - # 10
    frequency:    2.3742630118
  - # 11
    frequency:    3.8283333611
  - # 12
    frequency:    6.2369183295
  - # 13
    frequency:    6.3371731299
  - # 14
    frequency:    7.7616067676
  - # 15
    frequency:   10.4197005040
  - # 16
    frequency:   10.4717483917
  - # 17
    frequency:   10.8366943545
  - # 18
    frequency:   10.9157030464
  - # 19
    frequency:   13.7823744662
  - # 20
    frequency:   14.2742659630
  - # 21
    frequency:   14.5526306660
  - # 22
    frequency:   15.9243044158
  - # 23
    frequency:   17.4443869564
  - # 24
    frequency:   64.5048261315

- q-position: [    0.0757576,    0.0000000,    0.0000000 ]
  distance:    0.0266305
  band:
  - # 1
    frequency:   -1.6689551116
  - # 2
    frequency:   -0.8761142034
  - # 3
    frequency:    0.4026516650
  - # 4
    frequency:    0.8620775289
  - # 5
    frequency:    1.2064637939
  - # 6
    frequency:    1.3431410948
  - # 7
    frequency:    1.3790669651
  - # 8
    frequency:    1.7066502526
  - # 9
    frequency:    2.1639486494
  - # 10
    frequency:    2.4190265802
  - # 11
    frequency:    3.8244109457
  - # 12
    frequency:    6.2472708193
  - # 13
    frequency:    6.3609483178
  - # 14
    frequency:    7.7497823399
  - # 15
    frequency:   10.4271595300
  - # 16
    frequency:   10.4847896665
  - # 17
    frequency:   10.8363871536
  - # 18
    frequency:   10.9308892340
  - # 19
    frequency:   13.7538756021
  - # 20
    frequency:   14.2808702510
  - # 21
    frequency:   14.5619344648
  - # 22
    frequency:   15.9377388531
  - # 23
    frequency:   17.4394515382
  - # 24
    frequency:   64.5023710719

- q-position: [    0.0808081,    0.0000000,    0.0000000 ]
  distance:    0.0284058
  band:
  - # 1
    frequency:   -1.7852301424
  - # 2
    frequency:   -0.9550619506
  - # 3
    frequency:    0.4453296986
  - # 4
    frequency:    0.9156452149
  - # 5
    frequency:    1.2333961867
  - # 6
    frequency:    1.4134823693
  - # 7
    frequency:    1.4221755631
  - # 8
    frequency:    1.7704199393
  - # 9
    frequency:    2.1816467185
  - # 10
    frequency:    2.4653338297
  - # 11
    frequency:    3.8207133249
  - # 12
    frequency:    6.2580946827
  - # 13
    frequency:    6.3857753230
  - # 14
    frequency:    7.7373375658
  - # 15
    frequency:   10.4348784840
  - # 16
    frequency:   10.4978858367
  - # 17
    frequency:   10.8351662387
  - # 18
    frequency:   10.9470541649
  - # 19
    frequency:   13.7269128396
  - # 20
    frequency:   14.2876874819
  - # 21
    frequency:   14.5696568527
  - # 22
    frequency:   15.9519614613
  - # 23
    frequency:   17.4342163938
  - # 24
    frequency:   64.4997722012

- q-position: [    0.0858586,    0.0000000,    0.0000000 ]
  distance:    0.0301812
  band:
  - # 1
    frequency:   -1.8988297596
  - # 2
    frequency:   -1.0309688209
  - # 3
    frequency:    0.4893180226
  - # 4
    frequency:    0.9691771084
  - # 5
    frequency:    1.2604913683
  - # 6
    frequency:    1.4484931420
  - # 7
    frequency:    1.5008602925
  - # 8
    frequency:    1.8342976781
  - # 9
    frequency:    2.2000099598
  - # 10
    frequency:    2.5130359966
  - # 11
    frequency:    3.8173216270
  - # 12
    frequency:    6.2693458453
  - # 13
    frequency:    6.4115607515
  - # 14
    frequency:    7.7243034163
  - # 15
    frequency:   10.4428175424
  - # 16
    frequency:   10.5108429473
  - # 17
    frequency:   10.8330001432
  - # 18
    frequency:   10.9641805156
  - # 19
    frequency:   13.7016022403
  - # 20
    frequency:   14.2946715629
  - # 21
    frequency:   14.5758463048
  - # 22
    frequency:   15.9669492284
  - # 23
    frequency:   17.4286894763
  - # 24
    frequency:   64.4970343557

- q-position: [    0.0909091,    0.0000000,    0.0000000 ]
  distance:    0.0319566
  band:
  - # 1
    frequency:   -2.0098073690
  - # 2
    frequency:   -1.1041605909
  - # 3
    frequency:    0.5344643942
  - # 4
    frequency:    1.0225245866
  - # 5
    frequency:    1.2881935760
  - # 6
    frequency:    1.4839546465
  - # 7
    frequency:    1.5784742432
  - # 8
    frequency:    1.8980471865
  - # 9
    frequency:    2.2189756416
  - # 10
    frequency:    2.5619947666
  - # 11
    frequency:    3.8143178254
  - # 12
    frequency:    6.2809785909
  - # 13
    frequency:    6.4382111254
  - # 14
    frequency:    7.7107110840
  - # 15
    frequency:   10.4509369864
  - # 16
    frequency:   10.5234199789
  - # 17
    frequency:   10.8299278473
  - # 18
    frequency:   10.9822492220
  - # 19
    frequency:   13.6780331041
  - # 20
    frequency:   14.3017742934
  - # 21
    frequency:   14.5805577252
  - # 22
    frequency:   15.9826800478
  - # 23
    frequency:   17.4228792036
  - # 24
    frequency:   64.4941626017

- q-position: [    0.0959596,    0.0000000,    0.0000000 ]
  distance:    0.0337319
  band:
  - # 1
    frequency:   -2.1181835915
  - # 2
    frequency:   -1.1748608236
  - # 3
    frequency:    0.5806288389
  - # 4
    frequency:    1.0755629401
  - # 5
    frequency:    1.3166181461
  - # 6
    frequency:    1.5197359611
  - # 7
    frequency:    1.6546122389
  - # 8
    frequency:    1.9614789278
  - # 9
    frequency:    2.2384829325
  - # 10
    frequency:    2.6120795348
  - # 11
    frequency:    3.8117843926
  - # 12
    frequency:    6.2929457097
  - # 13
    frequency:    6.4656333869
  - # 14
    frequency:    7.6965918905
  - # 15
    frequency:   10.4591973986
  - # 16
    frequency:   10.5353084635
  - # 17
    frequency:   10.8260845542
  - # 18
    frequency:   11.0012395325
  - # 19
    frequency:   13.6562645185
  - # 20
    frequency:   14.3089455569
  - # 21
    frequency:   14.5838511837
  - # 22
    frequency:   15.9991330846
  - # 23
    frequency:   17.4167944534
  - # 24
    frequency:   64.4911622203

- q-position: [    0.1010101,    0.0000000,    0.0000000 ]
  distance:    0.0355073
  band:
  - # 1
    frequency:   -2.2239557814
  - # 2
    frequency:   -1.2432239673
  - # 3
    frequency:    0.6276818438
  - # 4
    frequency:    1.1281834875
  - # 5
    frequency:    1.3457746096
  - # 6
    frequency:    1.5557186993
  - # 7
    frequency:    1.7289568520
  - # 8
    frequency:    2.0244522667
  - # 9
    frequency:    2.2584732286
  - # 10
    frequency:    2.6631641290
  - # 11
    frequency:    3.8098040668
  - # 12
    frequency:    6.3051986427
  - # 13
    frequency:    6.4937353228
  - # 14
    frequency:    7.6819772200
  - # 15
    frequency:   10.4675598219
  - # 16
    frequency:   10.5461070741
  - # 17
    frequency:   10.8217318265
  - # 18
    frequency:   11.0211290861
  - # 19
    frequency:   13.6363225653
  - # 20
    frequency:   14.3161335289
  - # 21
    frequency:   14.5857907080
  - # 22
    frequency:   16.0162890147
  - # 23
    frequency:   17.4104445588
  - # 24
    frequency:   64.4880386929

- q-position: [    0.1060606,    0.0000000,    0.0000000 ]
  distance:    0.0372826
  band:
  - # 1
    frequency:   -2.3271046207
  - # 2
    frequency:   -1.3093563019
  - # 3
    frequency:    0.6755028649
  - # 4
    frequency:    1.1802891691
  - # 5
    frequency:    1.3756321123
  - # 6
    frequency:    1.5917957819
  - # 7
    frequency:    1.8012088257
  - # 8
    frequency:    2.0868781157
  - # 9
    frequency:    2.2788904056
  - # 10
    frequency:    2.7151230485
  - # 11
    frequency:    3.8084597823
  - # 12
    frequency:    6.3176876219
  - # 13
    frequency:    6.5224259076
  - # 14
    frequency:    7.6668984790
  - # 15
    frequency:   10.4759858832
  - # 16
    frequency:   10.5552954444
  - # 17
    frequency:   10.8172875896
  - # 18
    frequency:   11.0418940081
  - # 19
    frequency:   13.6181984277
  - # 20
    frequency:   14.3232849005
  - # 21
    frequency:   14.5864431495
  - # 22
    frequency:   16.0341301110
  - # 23
    frequency:   17.4038393051
  - # 24
    frequency:   64.4847976857

- q-position: [    0.1111111,    0.0000000,    0.0000000 ]
  distance:    0.0390580
  band:
  - # 1
    frequency:   -2.4275988029
  - # 2
    frequency:   -1.3733297228
  - # 3
    frequency:    0.7239790250
  - # 4
    frequency:    1.2317920774
  - # 5
    frequency:    1.4061430808
  - # 6
    frequency:    1.6278702160
  - # 7
    frequency:    1.8710611053
  - # 8
    frequency:    2.1487207277
  - # 9
    frequency:    2.2996810013
  - # 10
    frequency:    2.7678272771
  - # 11
    frequency:    3.8078348451
  - # 12
    frequency:    6.3303618093
  - # 13
    frequency:    6.5516155606
  - # 14
    frequency:    7.6513870809
  - # 15
    frequency:   10.4844378863
  - # 16
    frequency:   10.5622202392
  - # 17
    frequency:   10.8133427793
  - # 18
    frequency:   11.0635090196
  - # 19
    frequency:   13.6018475895
  - # 20
    frequency:   14.3303451170
  - # 21
    frequency:   14.5858771349
  - # 22
    frequency:   16.0526401619
  - # 23
    frequency:   17.3969889281
  - # 24
    frequency:   64.4814450341

- q-position: [    0.1161616,    0.0000000,    0.0000000 ]
  distance:    0.0408334
  band:
  - # 1
    frequency:   -2.5253984347
  - # 2
    frequency:   -1.4351911153
  - # 3
    frequency:    0.7730039418
  - # 4
    frequency:    1.2826121054
  - # 5
    frequency:    1.4372531169
  - # 6
    frequency:    1.6638539151
  - # 7
    frequency:    1.9381901987
  - # 8
    frequency:    2.2099966080
  - # 9
    frequency:    2.3207943315
  - # 10
    frequency:    2.8211397432
  - # 11
    frequency:    3.8080134688
  - # 12
    frequency:    6.3431694346
  - # 13
    frequency:    6.5812163144
  - # 14
    frequency:    7.6354744597
  - # 15
    frequency:   10.4928788810
  - # 16
    frequency:   10.5661198451
  - # 17
    frequency:   10.8106381325
  - # 18
    frequency:   11.0859475541
  - # 19
    frequency:   13.5871902548
  - # 20
    frequency:   14.3372586296
  - # 21
    frequency:   14.5841621118
  - # 22
    frequency:   16.0718042167
  - # 23
    frequency:   17.3899041139
  - # 24
    frequency:   64.4779867264

- q-position: [    0.1212121,    0.0000000,    0.0000000 ]
  distance:    0.0426087
  band:
  - # 1
    frequency:   -2.6204575580
  - # 2
    frequency:   -1.4949689102
  - # 3
    frequency:    0.8224766536
  - # 4
    frequency:    1.3326762522
  - # 5
    frequency:    1.4689055549
  - # 6
    frequency:    1.6996665864
  - # 7
    frequency:    2.0022585597
  - # 8
    frequency:    2.2707680976
  - # 9
    frequency:    2.3421825461
  - # 10
    frequency:    2.8749104950
  - # 11
    frequency:    3.8090818294
  - # 12
    frequency:    6.3560579327
  - # 13
    frequency:    6.6111418880
  - # 14
    frequency:    7.6191921149
  - # 15
    frequency:   10.5012727120
  - # 16
    frequency:   10.5662201042
  - # 17
    frequency:   10.8099686437
  - # 18
    frequency:   11.1091818751
  - # 19
    frequency:   13.5741130242
  - # 20
    frequency:   14.3439691596
  - # 21
    frequency:   14.5813674919
  - # 22
    frequency:   16.0916081626
  - # 23
    frequency:   17.3825959999
  - # 24
    frequency:   64.4744288871

- q-position: [    0.1262626,    0.0000000,    0.0000000 ]
  distance:    0.0443841
  band:
  - # 1
    frequency:   -2.7127260543
  - # 2
    frequency:   -1.5526777815
  - # 3
    frequency:    0.8723006231
  - # 4
    frequency:    1.3819183142
  - # 5
    frequency:    1.5010436774
  - # 6
    frequency:    1.7352346982
  - # 7
    frequency:    2.0629266620
  - # 8
    frequency:    2.3311296348
  - # 9
    frequency:    2.3638006316
  - # 10
    frequency:    2.9289716434
  - # 11
    frequency:    3.8111298454
  - # 12
    frequency:    6.3689740847
  - # 13
    frequency:    6.6413076567
  - # 14
    frequency:    7.6025716977
  - # 15
    frequency:   10.5095840552
  - # 16
    frequency:   10.5619039125
  - # 17
    frequency:   10.8120129031
  - # 18
    frequency:   11.1331831898
  - # 19
    frequency:   13.5624717736
  - # 20
    frequency:   14.3504199735
  - # 21
    frequency:   14.5775618897
  - # 22
    frequency:   16.1120381479
  - # 23
    frequency:   17.3750761786
  - # 24
    frequency:   64.4707777605

- q-position: [    0.1313131,    0.0000000,    0.0000000 ]
  distance:    0.0461595
  band:
  - # 1
    frequency:   -2.8021511077
  - # 2
    frequency:   -1.6083220845
  - # 3
    frequency:    0.9223828078
  - # 4
    frequency:    1.4302787982
  - # 5
    frequency:    1.5336117989
  - # 6
    frequency:    1.7704905403
  - # 7
    frequency:    2.1198732716
  - # 8
    frequency:    2.3856063644
  - # 9
    frequency:    2.3911866697
  - # 10
    frequency:    2.9831320763
  - # 11
    frequency:    3.8142539322
  - # 12
    frequency:    6.3818641623
  - # 13
    frequency:    6.6716305060
  - # 14
    frequency:    7.5856451520
  - # 15
    frequency:   10.5177784453
  - # 16
    frequency:   10.5528843787
  - # 17
    frequency:   10.8171577362
  - # 18
    frequency:   11.1579217559
  - # 19
    frequency:   13.5520955916
  - # 20
    frequency:   14.3565541661
  - # 21
    frequency:   14.5728124564
  - # 22
    frequency:   16.1330798734
  - # 23
    frequency:   17.3673567023
  - # 24
    frequency:   64.4670396933

- q-position: [    0.1363636,    0.0000000,    0.0000000 ]
  distance:    0.0479348
  band:
  - # 1
    frequency:   -2.8886783478
  - # 2
    frequency:   -1.6618984207
  - # 3
    frequency:    0.9726327845
  - # 4
    frequency:    1.4777049459
  - # 5
    frequency:    1.5665557533
  - # 6
    frequency:    1.8053713845
  - # 7