nqpoint: 300    
npath: 3      
segment_nqpoint:
- 100
- 100
- 100
labels:
- [ 'G', 'M' ]
- [ 'M', 'K' ]
- [ 'K', 'G' ]
reciprocal_lattice:
- [   0.30040573,   0.17343933,   0.00000000 ] # a*
- [   0.00000000,   0.34687866,   0.00000000 ] # b*
- [   0.00000000,   0.00000000,   0.03813302 ] # c*
natom: 7      
lattice:
- [     3.328831309328802,     0.000000000000000,     0.000000000000000 ] # a
- [    -1.664415654664401,     2.882852478787680,     0.000000000000000 ] # b
- [     0.000000000000000,     0.000000000000000,    26.223994007036914 ] # c
points:
- symbol: C # 1
  coordinates: [  0.000000000000000,  0.000000000000000,  0.476126053212225 ]
  mass: 12.010700
- symbol: H # 2
  coordinates: [  0.666666984744047,  0.333332985985145,  0.343197149815736 ]
  mass: 1.007940
- symbol: O # 3
  coordinates: [  0.333332985432215,  0.666666983183674,  0.656802850184264 ]
  mass: 15.999400
- symbol: O # 4
  coordinates: [  0.666666984744047,  0.333332985985145,  0.380703192025059 ]
  mass: 15.999400
- symbol: P # 5
  coordinates: [  0.333332985432215,  0.666666983183674,  0.599791613202916 ]
  mass: 30.973762
- symbol: Sc # 6
  coordinates: [  0.333332985432215,  0.666666983183674,  0.427247702436915 ]
  mass: 44.955912
- symbol: Sc # 7
  coordinates: [  0.666666984744047,  0.333332985985145,  0.522025578561095 ]
  mass: 44.955912

phonon:
- q-position: [    0.0000000,    0.0000000,    0.0000000 ]
  distance:    0.0000000
  band:
  - # 1
    frequency:   -0.0000128836
  - # 2
    frequency:   -0.0000004583
  - # 3
    frequency:    0.0000118077
  - # 4
    frequency:    2.0995193066
  - # 5
    frequency:    2.0995193066
  - # 6
    frequency:    5.1352149198
  - # 7
    frequency:    5.1352149198
  - # 8
    frequency:    5.3743910395
  - # 9
    frequency:    5.8101017842
  - # 10
    frequency:    5.8101017842
  - # 11
    frequency:    6.8419389259
  - # 12
    frequency:    6.8419389259
  - # 13
    frequency:    9.2529249833
  - # 14
    frequency:   10.5075770755
  - # 15
    frequency:   10.5075770756
  - # 16
    frequency:   13.4868438167
  - # 17
    frequency:   13.4868438167
  - # 18
    frequency:   13.7430104334
  - # 19
    frequency:   17.9508296285
  - # 20
    frequency:   34.1310945809
  - # 21
    frequency:  115.1799975699

- q-position: [    0.0050505,    0.0000000,    0.0000000 ]
  distance:    0.0017519
  band:
  - # 1
    frequency:    0.0022829662
  - # 2
    frequency:    0.0834713246
  - # 3
    frequency:    0.1269690637
  - # 4
    frequency:    2.0999648324
  - # 5
    frequency:    2.1026569846
  - # 6
    frequency:    5.1350373644
  - # 7
    frequency:    5.1350734404
  - # 8
    frequency:    5.3729886593
  - # 9
    frequency:    5.8104062582
  - # 10
    frequency:    5.8124888999
  - # 11
    frequency:    6.8426687865
  - # 12
    frequency:    6.8427360300
  - # 13
    frequency:    9.2529743591
  - # 14
    frequency:   10.5081784377
  - # 15
    frequency:   10.5081926104
  - # 16
    frequency:   13.4868513008
  - # 17
    frequency:   13.4871197128
  - # 18
    frequency:   13.7458287422
  - # 19
    frequency:   17.9501871017
  - # 20
    frequency:   34.1308704329
  - # 21
    frequency:  115.1800037906

- q-position: [    0.0101010,    0.0000000,    0.0000000 ]
  distance:    0.0035038
  band:
  - # 1
    frequency:    0.0091000256
  - # 2
    frequency:    0.1668372022
  - # 3
    frequency:    0.2536960874
  - # 4
    frequency:    2.1013026678
  - # 5
    frequency:    2.1120395279
  - # 6
    frequency:    5.1344911855
  - # 7
    frequency:    5.1346490214
  - # 8
    frequency:    5.3688987707
  - # 9
    frequency:    5.8113208482
  - # 10
    frequency:    5.8195418896
  - # 11
    frequency:    6.8448541057
  - # 12
    frequency:    6.8451230497
  - # 13
    frequency:    9.2531251752
  - # 14
    frequency:   10.5099817050
  - # 15
    frequency:   10.5100280842
  - # 16
    frequency:   13.4869545045
  - # 17
    frequency:   13.4879460922
  - # 18
    frequency:   13.7542001044
  - # 19
    frequency:   17.9482613406
  - # 20
    frequency:   34.1301982648
  - # 21
    frequency:  115.1800222541

- q-position: [    0.0151515,    0.0000000,    0.0000000 ]
  distance:    0.0052557
  band:
  - # 1
    frequency:    0.0203575719
  - # 2
    frequency:    0.2499902240
  - # 3
    frequency:    0.3799347069
  - # 4
    frequency:    2.1035368127
  - # 5
    frequency:    2.1275784599
  - # 6
    frequency:    5.1335355944
  - # 7
    frequency:    5.1339417293
  - # 8
    frequency:    5.3624475205
  - # 9
    frequency:    5.8128489864
  - # 10
    frequency:    5.8309616280
  - # 11
    frequency:    6.8484821683
  - # 12
    frequency:    6.8490871527
  - # 13
    frequency:    9.2533853683
  - # 14
    frequency:   10.5129844150
  - # 15
    frequency:   10.5130503251
  - # 16
    frequency:   13.4873724232
  - # 17
    frequency:   13.4893190401
  - # 18
    frequency:   13.7678970265
  - # 19
    frequency:   17.9450578067
  - # 20
    frequency:   34.1290789034
  - # 21
    frequency:  115.1800523646

- q-position: [    0.0202020,    0.0000000,    0.0000000 ]
  distance:    0.0070076
  band:
  - # 1
    frequency:    0.0359073409
  - # 2
    frequency:    0.3328189775
  - # 3
    frequency:    0.5054299182
  - # 4
    frequency:    2.1066746971
  - # 5
    frequency:    2.1491358522
  - # 6
    frequency:    5.1321019503
  - # 7
    frequency:    5.1329517007
  - # 8
    frequency:    5.3541063980
  - # 9
    frequency:    5.8149961612
  - # 10
    frequency:    5.8463226082
  - # 11
    frequency:    6.8535320231
  - # 12
    frequency:    6.8546071024
  - # 13
    frequency:    9.2537677474
  - # 14
    frequency:   10.5171824475
  - # 15
    frequency:   10.5172047717
  - # 16
    frequency:   13.4884065865
  - # 17
    frequency:   13.4912320733
  - # 18
    frequency:   13.7866036189
  - # 19
    frequency:   17.9405856160
  - # 20
    frequency:   34.1275137254
  - # 21
    frequency:  115.1800931327

- q-position: [    0.0252525,    0.0000000,    0.0000000 ]
  distance:    0.0087596
  band:
  - # 1
    frequency:    0.0555565406
  - # 2
    frequency:    0.4152058524
  - # 3
    frequency:    0.6299138065
  - # 4
    frequency:    2.1107283471
  - # 5
    frequency:    2.1765371527
  - # 6
    frequency:    5.1300934394
  - # 7
    frequency:    5.1316791795
  - # 8
    frequency:    5.3444192518
  - # 9
    frequency:    5.8177695838
  - # 10
    frequency:    5.8651466625
  - # 11
    frequency:    6.8599748317
  - # 12
    frequency:    6.8616534852
  - # 13
    frequency:    9.2542893936
  - # 14
    frequency:   10.5224165371
  - # 15
    frequency:   10.5225700015
  - # 16
    frequency:   13.4903816702
  - # 17
    frequency:   13.4936762005
  - # 18
    frequency:   13.8099746835
  - # 19
    frequency:   17.9348575602
  - # 20
    frequency:   34.1255046556
  - # 21
    frequency:  115.1801431801

- q-position: [    0.0303030,    0.0000000,    0.0000000 ]
  distance:    0.0105115
  band:
  - # 1
    frequency:    0.0790798514
  - # 2
    frequency:    0.4970246077
  - # 3
    frequency:    0.7531014423
  - # 4
    frequency:    2.1157160622
  - # 5
    frequency:    2.2095865499
  - # 6
    frequency:    5.1273861215
  - # 7
    frequency:    5.1301245621
  - # 8
    frequency:    5.3339428041
  - # 9
    frequency:    5.8211777504
  - # 10
    frequency:    5.8869619628
  - # 11
    frequency:    6.8677743361
  - # 12
    frequency:    6.8701890272
  - # 13
    frequency:    9.2549708751
  - # 14
    frequency:   10.5285918509
  - # 15
    frequency:   10.5291395621
  - # 16
    frequency:   13.4936031489
  - # 17
    frequency:   13.4966400067
  - # 18
    frequency:   13.8376776316
  - # 19
    frequency:   17.9278901374
  - # 20
    frequency:   34.1230541641
  - # 21
    frequency:  115.1802007465

- q-position: [    0.0353535,    0.0000000,    0.0000000 ]
  distance:    0.0122634
  band:
  - # 1
    frequency:    0.1062317034
  - # 2
    frequency:    0.5781376156
  - # 3
    frequency:    0.8746871893
  - # 4
    frequency:    2.1216646438
  - # 5
    frequency:    2.2480829314
  - # 6
    frequency:    5.1238330664
  - # 7
    frequency:    5.1282884469
  - # 8
    frequency:    5.3232078015
  - # 9
    frequency:    5.8252299259
  - # 10
    frequency:    5.9113384166
  - # 11
    frequency:    6.8768874234
  - # 12
    frequency:    6.8801690025
  - # 13
    frequency:    9.2558353251
  - # 14
    frequency:   10.5356198390
  - # 15
    frequency:   10.5368818604
  - # 16
    frequency:   13.4983364802
  - # 17
    frequency:   13.5001097587
  - # 18
    frequency:   13.8694127354
  - # 19
    frequency:   17.9197035947
  - # 20
    frequency:   34.1201652629
  - # 21
    frequency:  115.1802636979

- q-position: [    0.0404040,    0.0000000,    0.0000000 ]
  distance:    0.0140153
  band:
  - # 1
    frequency:    0.1367575529
  - # 2
    frequency:    0.6583926980
  - # 3
    frequency:    0.9943418508
  - # 4
    frequency:    2.1286122232
  - # 5
    frequency:    2.2918345737
  - # 6
    frequency:    5.1192736925
  - # 7
    frequency:    5.1261716817
  - # 8
    frequency:    5.3126957112
  - # 9
    frequency:    5.8299355780
  - # 10
    frequency:    5.9379024144
  - # 11
    frequency:    6.8872647666
  - # 12
    frequency:    6.8915417288
  - # 13
    frequency:    9.2569074340
  - # 14
    frequency:   10.5433745940
  - # 15
    frequency:   10.5457858257
  - # 16
    frequency:   13.5040695303
  - # 17
    frequency:   13.5048022783
  - # 18
    frequency:   13.9049172460
  - # 19
    frequency:   17.9103219839
  - # 20
    frequency:   34.1168415017
  - # 21
    frequency:  115.1803295376

- q-position: [    0.0454545,    0.0000000,    0.0000000 ]
  distance:    0.0157672
  band:
  - # 1
    frequency:    0.1704033136
  - # 2
    frequency:    0.7376194748
  - # 3
    frequency:    1.1117113140
  - # 4
    frequency:    2.1366117304
  - # 5
    frequency:    2.3406708979
  - # 6
    frequency:    5.1135498753
  - # 7
    frequency:    5.1237754058
  - # 8
    frequency:    5.3028221053
  - # 9
    frequency:    5.8353037904
  - # 10
    frequency:    5.9663381917
  - # 11
    frequency:    6.8988515184
  - # 12
    frequency:    6.9042491487
  - # 13
    frequency:    9.2582124098
  - # 14
    frequency:   10.5517174866
  - # 15
    frequency:   10.5558385305
  - # 16
    frequency:   13.5085013470
  - # 17
    frequency:   13.5131800271
  - # 18
    frequency:   13.9439608253
  - # 19
    frequency:   17.8997732331
  - # 20
    frequency:   34.1130869625
  - # 21
    frequency:  115.1803954185

- q-position: [    0.0505051,    0.0000000,    0.0000000 ]
  distance:    0.0175191
  band:
  - # 1
    frequency:    0.2069225508
  - # 2
    frequency:    0.8156251749
  - # 3
    frequency:    1.2264176045
  - # 4
    frequency:    2.1457350285
  - # 5
    frequency:    2.3944498430
  - # 6
    frequency:    5.1065281070
  - # 7
    frequency:    5.1211010794
  - # 8
    frequency:    5.2939208365
  - # 9
    frequency:    5.8413426867
  - # 10
    frequency:    5.9963823994
  - # 11
    frequency:    6.9115880333
  - # 12
    frequency:    6.9182274901
  - # 13
    frequency:    9.2597749535
  - # 14
    frequency:   10.5604996688
  - # 15
    frequency:   10.5670251313
  - # 16
    frequency:   13.5133853448
  - # 17
    frequency:   13.5236148593
  - # 18
    frequency:   13.9863377636
  - # 19
    frequency:   17.8880892376
  - # 20
    frequency:   34.1089062545
  - # 21
    frequency:  115.1804581570

- q-position: [    0.0555556,    0.0000000,    0.0000000 ]
  distance:    0.0192710
  band:
  - # 1
    frequency:    0.2460814250
  - # 2
    frequency:    0.8921899108
  - # 3
    frequency:    1.3380634495
  - # 4
    frequency:    2.1560776788
  - # 5
    frequency:    2.4530596059
  - # 6
    frequency:    5.0981230276
  - # 7
    frequency:    5.1181504989
  - # 8
    frequency:    5.2862293066
  - # 9
    frequency:    5.8480588885
  - # 10
    frequency:    6.0278162368
  - # 11
    frequency:    6.9254105996
  - # 12
    frequency:    6.9334079986
  - # 13
    frequency:    9.2616182914
  - # 14
    frequency:   10.5695647181
  - # 15
    frequency:   10.5793288043
  - # 16
    frequency:   13.5186999446
  - # 17
    frequency:   13.5362244039
  - # 18
    frequency:   14.0318589835
  - # 19
    frequency:   17.8753059728
  - # 20
    frequency:   34.1043045068
  - # 21
    frequency:  115.1805142492

- q-position: [    0.0606061,    0.0000000,    0.0000000 ]
  distance:    0.0210229
  band:
  - # 1
    frequency:    0.2876616232
  - # 2
    frequency:    0.9670615352
  - # 3
    frequency:    1.4462414277
  - # 4
    frequency:    2.1677641964
  - # 5
    frequency:    2.5164137982
  - # 6
    frequency:    5.0883142864
  - # 7
    frequency:    5.1149257963
  - # 8
    frequency:    5.2798805173
  - # 9
    frequency:    5.8554570299
  - # 10
    frequency:    6.0604574856
  - # 11
    frequency:    6.9402521600
  - # 12
    frequency:    6.9497177323
  - # 13
    frequency:    9.2637632977
  - # 14
    frequency:   10.5787513761
  - # 15
    frequency:   10.5927306782
  - # 16
    frequency:   13.5244220366
  - # 17
    frequency:   13.5511044271
  - # 18
    frequency:   14.0803451198
  - # 19
    frequency:   17.8614636331
  - # 20
    frequency:   34.0992873611
  - # 21
    frequency:  115.1805598879

- q-position: [    0.0656566,    0.0000000,    0.0000000 ]
  distance:    0.0227749
  band:
  - # 1
    frequency:    0.3314616461
  - # 2
    frequency:    1.0399503934
  - # 3
    frequency:    1.5505483408
  - # 4
    frequency:    2.1809534585
  - # 5
    frequency:    2.5844396554
  - # 6
    frequency:    5.0771494684
  - # 7
    frequency:    5.1114294216
  - # 8
    frequency:    5.2749081351
  - # 9
    frequency:    5.8635393458
  - # 10
    frequency:    6.0941534643
  - # 11
    frequency:    6.9560430088
  - # 12
    frequency:    6.9670804053
  - # 13
    frequency:    9.2662277291
  - # 14
    frequency:   10.5878963301
  - # 15
    frequency:   10.6072097658
  - # 16
    frequency:   13.5305271737
  - # 17
    frequency:   13.5683329344
  - # 18
    frequency:   14.1316210247
  - # 19
    frequency:   17.8466068028
  - # 20
    frequency:   34.0938609638
  - # 21
    frequency:  115.1805909821

- q-position: [    0.0707071,    0.0000000,    0.0000000 ]
  distance:    0.0245268
  band:
  - # 1
    frequency:    0.3772968533
  - # 2
    frequency:    1.1105246066
  - # 3
    frequency:    1.6506044112
  - # 4
    frequency:    2.1958436068
  - # 5
    frequency:    2.6570600200
  - # 6
    frequency:    5.0647317027
  - # 7
    frequency:    5.1076641094
  - # 8
    frequency:    5.2712656519
  - # 9
    frequency:    5.8723053435
  - # 10
    frequency:    6.1287752052
  - # 11
    frequency:    6.9727114515
  - # 12
    frequency:    6.9854172687
  - # 13
    frequency:    9.2690255861
  - # 14
    frequency:   10.5968369894
  - # 15
    frequency:   10.6227428950
  - # 16
    frequency:   13.5369897721
  - # 17
    frequency:   13.5879728312
  - # 18
    frequency:   14.1855116314
  - # 19
    frequency:   17.8307846625
  - # 20
    frequency:   34.0880319563
  - # 21
    frequency:  115.1806031769

- q-position: [    0.0757576,    0.0000000,    0.0000000 ]
  distance:    0.0262787
  band:
  - # 1
    frequency:    0.4249986402
  - # 2
    frequency:    1.1784069965
  - # 3
    frequency:    1.7460753345
  - # 4
    frequency:    2.2126753171
  - # 5
    frequency:    2.7341713853
  - # 6
    frequency:    5.0511975550
  - # 7
    frequency:    5.1036328353
  - # 8
    frequency:    5.2688540790
  - # 9
    frequency:    5.8817515641
  - # 10
    frequency:    6.1642128152
  - # 11
    frequency:    6.9901844203
  - # 12
    frequency:    7.0046480123
  - # 13
    frequency:    9.2721666068
  - # 14
    frequency:   10.6054142032
  - # 15
    frequency:   10.6393046409
  - # 16
    frequency:   13.5437833142
  - # 17
    frequency:   13.6100733998
  - # 18
    frequency:   14.2418389554
  - # 19
    frequency:   17.8140512377
  - # 20
    frequency:   34.0818074657
  - # 21
    frequency:  115.1805918761

- q-position: [    0.0808081,    0.0000000,    0.0000000 ]
  distance:    0.0280306
  band:
  - # 1
    frequency:    0.4744130589
  - # 2
    frequency:    1.2431753575
  - # 3
    frequency:    1.8366935165
  - # 4
    frequency:    2.2317317069
  - # 5
    frequency:    2.8156219353
  - # 6
    frequency:    5.0366936963
  - # 7
    frequency:    5.0993387624
  - # 8
    frequency:    5.2675498688
  - # 9
    frequency:    5.8918714343
  - # 10
    frequency:    6.2003718515
  - # 11
    frequency:    7.0083880401
  - # 12
    frequency:    7.0246916725
  - # 13
    frequency:    9.2756558915
  - # 14
    frequency:   10.6134748666
  - # 15
    frequency:   10.6568672612
  - # 16
    frequency:   13.5508805545
  - # 17
    frequency:   13.6346708785
  - # 18
    frequency:   14.3004199919
  - # 19
    frequency:   17.7964656956
  - # 20
    frequency:   34.0751950935
  - # 21
    frequency:  115.1805522647

- q-position: [    0.0858586,    0.0000000,    0.0000000 ]
  distance:    0.0297825
  band:
  - # 1
    frequency:    0.5253991229
  - # 2
    frequency:    1.3043683766
  - # 3
    frequency:    1.9222738540
  - # 4
    frequency:    2.2533325668
  - # 5
    frequency:    2.9011944268
  - # 6
    frequency:    5.0213586706
  - # 7
    frequency:    5.0947851868
  - # 8
    frequency:    5.2672269620
  - # 9
    frequency:    5.9026552062
  - # 10
    frequency:    6.2371705158
  - # 11
    frequency:    7.0272481423
  - # 12
    frequency:    7.0454675316
  - # 13
    frequency:    9.2794936538
  - # 14
    frequency:   10.6208743598
  - # 15
    frequency:   10.6754006355
  - # 16
    frequency:   13.5582537232
  - # 17
    frequency:   13.6617884145
  - # 18
    frequency:   14.3610652867
  - # 19
    frequency:   17.7780926976
  - # 20
    frequency:   34.0682029046
  - # 21
    frequency:  115.1804793337

- q-position: [    0.0909091,    0.0000000,    0.0000000 ]
  distance:    0.0315344
  band:
  - # 1
    frequency:    0.5778269691
  - # 2
    frequency:    1.3614997307
  - # 3
    frequency:    2.0027199786
  - # 4
    frequency:    2.2778203680
  - # 5
    frequency:    2.9905981339
  - # 6
    frequency:    5.0053119491
  - # 7
    frequency:    5.0899754850
  - # 8
    frequency:    5.2677709932
  - # 9
    frequency:    5.9140899767
  - # 10
    frequency:    6.2745374819
  - # 11
    frequency:    7.0466907263
  - # 12
    frequency:    7.0668959927
  - # 13
    frequency:    9.2836750858
  - # 14
    frequency:   10.6274787661
  - # 15
    frequency:   10.6948722104
  - # 16
    frequency:   13.5658747278
  - # 17
    frequency:   13.6914356216
  - # 18
    frequency:   14.4235780013
  - # 19
    frequency:   17.7590028132
  - # 20
    frequency:   34.0608394142
  - # 21
    frequency:  115.1803679051

- q-position: [    0.0959596,    0.0000000,    0.0000000 ]
  distance:    0.0332863
  band:
  - # 1
    frequency:    0.6315759895
  - # 2
    frequency:    1.4140821877
  - # 3
    frequency:    2.0780191395
  - # 4
    frequency:    2.3055362031
  - # 5
    frequency:    3.0834717607
  - # 6
    frequency:    4.9886494059
  - # 7
    frequency:    5.0849130699
  - # 8
    frequency:    5.2690867274
  - # 9
    frequency:    5.9261597817
  - # 10
    frequency:    6.3124102047
  - # 11
    frequency:    7.0666423709
  - # 12
    frequency:    7.0888994193
  - # 13
    frequency:    9.2881903279
  - # 14
    frequency:   10.6331668175
  - # 15
    frequency:   10.7152469520
  - # 16
    frequency:   13.5737153495
  - # 17
    frequency:   13.7236079361
  - # 18
    frequency:   14.4877533265
  - # 19
    frequency:   17.7392730046
  - # 20
    frequency:   34.0531135752
  - # 21
    frequency:  115.1802126589

- q-position: [    0.1010101,    0.0000000,    0.0000000 ]
  distance:    0.0350382
  band:
  - # 1
    frequency:    0.6865329964
  - # 2
    frequency:    1.4616613139
  - # 3
    frequency:    2.1482269891
  - # 4
    frequency:    2.3367860424
  - # 5
    frequency:    3.1793960853
  - # 6
    frequency:    4.9714432046
  - # 7
    frequency:    5.0796013603
  - # 8
    frequency:    5.2711009304
  - # 9
    frequency:    5.9388457509
  - # 10
    frequency:    6.3507335840
  - # 11
    frequency:    7.0870305968
  - # 12
    frequency:    7.1114029263
  - # 13
    frequency:    9.2930245281
  - # 14
    frequency:   10.6378315256
  - # 15
    frequency:   10.7364873080
  - # 16
    frequency:   13.5817474327
  - # 17
    frequency:   13.7582859236
  - # 18
    frequency:   14.5533781331
  - # 19
    frequency:   17.7189871873
  - # 20
    frequency:   34.0450347637
  - # 21
    frequency:  115.1800081599

- q-position: [    0.1060606,    0.0000000,    0.0000000 ]
  distance:    0.0367902
  band:
  - # 1
    frequency:    0.7425904502
  - # 2
    frequency:    1.5038546068
  - # 3
    frequency:    2.2134460368
  - # 4
    frequency:    2.3718014688
  - # 5
    frequency:    3.2779125433
  - # 6
    frequency:    4.9537442249
  - # 7
    frequency:    5.0740437684
  - # 8
    frequency:    5.2737627340
  - # 9
    frequency:    5.9521263167
  - # 10
    frequency:    6.3894588898
  - # 11
    frequency:    7.1077841847
  - # 12
    frequency:    7.1343351141
  - # 13
    frequency:    9.2981579792
  - # 14
    frequency:   10.6413814622
  - # 15
    frequency:   10.7585531802
  - # 16
    frequency:   13.5899430663
  - # 17
    frequency:   13.7954346536
  - # 18
    frequency:   14.6202307779
  - # 19
    frequency:   17.6982368734
  - # 20
    frequency:   34.0366127645
  - # 21
    frequency:  115.1797488859

- q-position: [    0.1111111,    0.0000000,    0.0000000 ]
  distance:    0.0385421
  band:
  - # 1
    frequency:    0.7996447459
  - # 2
    frequency:    1.5403878102
  - # 3
    frequency:    2.2738024265
  - # 4
    frequency:    2.4107031196
  - # 5
    frequency:    3.3785430211
  - # 6
    frequency:    4.9355857572
  - # 7
    frequency:    5.0682437084
  - # 8
    frequency:    5.2770429701
  - # 9
    frequency:    5.9659774639
  - # 10
    frequency:    6.4285428736
  - # 11
    frequency:    7.1288334521
  - # 12
    frequency:    7.1576287380
  - # 13
    frequency:    9.3035663191
  - # 14
    frequency:   10.6437416712
  - # 15
    frequency:   10.7814019086
  - # 16
    frequency:   13.5982747551
  - # 17
    frequency:   13.8350032226
  - # 18
    frequency:   14.6880810021
  - # 19
    frequency:   17.6771219018
  - # 20
    frequency:   34.0278577552
  - # 21
    frequency:  115.1794292563

- q-position: [    0.1161616,    0.0000000,    0.0000000 ]
  distance:    0.0402940
  band:
  - # 1
    frequency:    0.8575945334
  - # 2
    frequency:    1.5711183266
  - # 3
    frequency:    2.3294249309
  - # 4
    frequency:    2.4534768976
  - # 5
    frequency:    3.4808068262
  - # 6
    frequency:    4.9169877918
  - # 7
    frequency:    5.0622046308
  - # 8
    frequency:    5.2809333796
  - # 9
    frequency:    5.9803730100
  - # 10
    frequency:    6.4679470118
  - # 11
    frequency:    7.1501104925
  - # 12
    frequency:    7.1812213088
  - # 13
    frequency:    9.3092207832
  - # 14
    frequency:   10.6448542041
  - # 15
    frequency:   10.8049882711
  - # 16
    frequency:   13.6067155811
  - # 17
    frequency:   13.8769244731
  - # 18
    frequency:   14.7566898839
  - # 19
    frequency:   17.6557512567
  - # 20
    frequency:   34.0187802900
  - # 21
    frequency:  115.1790436615

- q-position: [    0.1212121,    0.0000000,    0.0000000 ]
  distance:    0.0420459
  band:
  - # 1
    frequency:    0.9163390252
  - # 2
    frequency:    1.5960382073
  - # 3
    frequency:    2.3804284052
  - # 4
    frequency:    2.4999704517
  - # 5
    frequency:    3.5842323722
  - # 6
    frequency:    4.8979616785
  - # 7
    frequency:    5.0559300808
  - # 8
    frequency:    5.2854462189
  - # 9
    frequency:    5.9952849081
  - # 10
    frequency:    6.5076368383
  - # 11
    frequency:    7.1715493808
  - # 12
    frequency:    7.2050556206
  - # 13
    frequency:    9.3150884972
  - # 14
    frequency:   10.6446782905
  - # 15
    frequency:   10.8292644969
  - # 16
    frequency:   13.6152393519
  - # 17
    frequency:   13.9211149288
  - # 18
    frequency:   14.8258098220
  - # 19
    frequency:   17.6342439689
  - # 20
    frequency:   34.0093912826
  - # 21
    frequency:  115.1785864920

- q-position: [    0.1262626,    0.0000000,    0.0000000 ]
  distance:    0.0437978
  band:
  - # 1
    frequency:    0.9757762216
  - # 2
    frequency:    1.6152557087
  - # 3
    frequency:    2.4269022830
  - # 4
    frequency:    2.5499109102
  - # 5
    frequency:    3.6883626417
  - # 6
    frequency:    4.8785152687
  - # 7
    frequency:    5.0494237850
  - # 8
    frequency:    5.2906145763
  - # 9
    frequency:    6.0106835618
  - # 10
    frequency:    6.5475813370
  - # 11
    frequency:    7.1930863486
  - # 12
    frequency:    7.2290802065
  - # 13
    frequency:    9.3211328017
  - # 14
    frequency:   10.6431901663
  - # 15
    frequency:   10.8541802990
  - # 16
    frequency:   13.6238207371
  - # 17
    frequency:   13.9674749347
  - # 18
    frequency:   14.8951845495
  - # 19
    frequency:   17.6127300882
  - # 20
    frequency:   33.9997019881
  - # 21
    frequency:  115.1780521686

- q-position: [    0.1313131,    0.0000000,    0.0000000 ]
  distance:    0.0455497
  band:
  - # 1
    frequency:    1.0358009588
  - # 2
    frequency:    1.6289613950
  - # 3
    frequency:    2.4689035670
  - # 4
    frequency:    2.6029378556
  - # 5
    frequency:    3.7927543882
  - # 6
    frequency:    4.8586589652
  - # 7
    frequency:    5.0426897641
  - # 8
    frequency:    5.2964936321
  - # 9
    frequency:    6.0265381435
  - # 10
    frequency:    6.5877523710
  - # 11
    frequency:    7.2146599313
  - # 12
    frequency:    7.2532497217
  - # 13
    frequency:    9.3273135979
  - # 14
    frequency:   10.6403825982
  - # 15
    frequency:   10.8796829239
  - # 16
    frequency:   13.6324353911
  - # 17
    frequency:   14.0158889721
  - # 18
    frequency:   14.9645491957
  - # 19
    frequency:   17.5913517018
  - # 20
    frequency:   33.9897239850
  - # 21
    frequency:  115.1774351723

- q-position: [    0.1363636,    0.0000000,    0.0000000 ]
  distance:    0.0473016
  band:
  - # 1
    frequency:    1.0963026470
  - # 2
    frequency:    1.6373884282
  - # 3
    frequency:    2.5064532666
  - # 4
    frequency:    2.6586418567
  - # 5
    frequency:    3.8969710827
  - # 6
    frequency:    4.8384135648
  - # 7
    frequency:    5.0357324711
  - # 8
    frequency:    5.3031631104
  - # 9
    frequency:    6.0428169108
  - # 10
    frequency:    6.6281241290
  - # 11
    frequency:    7.2362110922
  - # 12
    frequency:    7.2775252585
  - # 13
    frequency:    9.3335877103
  - # 14
    frequency:   10.6362641491
  - # 15
    frequency:   10.9057172231
  - # 16
    frequency:   13.6410600620
  - # 17
    frequency:   14.0662260982
  - # 18
    frequency:   15.0336304432
  - # 19
    frequency:   17.5702639566
  - # 20
    frequency:   33.9794691560
  - # 21
    frequency:  115.1767300737

- q-position: [    0.1414141,    0.0000000,    0.0000000 ]
  distance:    0.0490535
  band:
  - # 1
    frequency:    1.1571625113
  - # 2
    frequency:    1.6407758135
  - # 3
    frequency:    2.5395352148
  - # 4
    frequency:    2.7165997383
  - # 5
    frequency:    4.0005686368
  - # 6
    frequency:    4.8178217308
  - # 7
    frequency:    5.0285569533
  - # 8
    frequency:    5.3107312487
  - # 9
    frequency:    6.0594875124
  - # 10
    frequency:    6.6686725786
  - # 11
    frequency:    7.2576833226
  - # 12
    frequency:    7.3018745962
  - # 13
    frequency:    9.3399092579
  - # 14
    frequency:   10.6308582369
  - # 15
    frequency:   10.9322257452
  - # 16
    frequency:   13.6496726859
  - # 17
    frequency:   14.1183404442
  - # 18
    frequency:   15.1021468562
  - # 19
    frequency:   17.5496360184
  - # 20
    frequency:   33.9689496681
  - # 21
    frequency:  115.1759315637

- q-position: [    0.1464646,    0.0000000,    0.0000000 ]
  distance:    0.0508055
  band:
  - # 1
    frequency:    1.2182500651
  - # 2
    frequency:    1.6393397001
  - # 3
    frequency:    2.5680964589
  - # 4
    frequency:    2.7764014157
  - # 5
    frequency:    4.1030702817
  - # 6
    frequency:    4.7969672604
  - # 7
    frequency:    5.0211690373
  - # 8
    frequency:    5.3193407303
  - # 9
    frequency:    6.0765172797
  - # 10
    frequency:    6.7093749119
  - # 11
    frequency:    7.2790227224
  - # 12
    frequency:    7.3262723930
  - # 13
    frequency:    9.3462300316
  - # 14
    frequency:   10.6242020419
  - # 15
    frequency:   10.9591488523
  - # 16
    frequency:   13.6582524669
  - # 17
    frequency:   14.1720716978
  - # 18
    frequency:   15.1698094993
  - # 19
    frequency:   17.5296518699
  - # 20
    frequency:   33.9581779527
  - # 21
    frequency:  115.1750344822

- q-position: [    0.1515152,    0.0000000,    0.0000000 ]
  distance:    0.0525574
  band:
  - # 1
    frequency:    1.2794184100
  - # 2
    frequency:    1.6332539254
  - # 3
    frequency:    2.5920488140
  - # 4
    frequency:    2.8376670124
  - # 5
    frequency:    4.2039200908
  - # 6
    frequency:    4.7760127762
  - # 7
    frequency:    5.0135755323
  - # 8
    frequency:    5.3291771754
  - # 9
    frequency:    6.0938734978
  - # 10
    frequency:    6.7502089751
  - # 11
    frequency:    7.3001780626
  - # 12
    frequency:    7.3507003259
  - # 13
    frequency:    9.3524998742
  - # 14
    frequency:   10.6163453130
  - # 15
    frequency:   10.9864248601
  - # 16
    frequency:   13.6667799418
  - # 17
    frequency:   14.2272454877
  - # 18
    frequency:   15.2363230148
  - # 19
    frequency:   17.5105108059
  - # 20
    frequency:   33.9471666852
  - # 21
    frequency:  115.1740338476
