nqpoint: 300    
npath: 3      
segment_nqpoint:
- 100
- 100
- 100
labels:
- [ 'G', 'M' ]
- [ 'M', 'K' ]
- [ 'K', 'G' ]
reciprocal_lattice:
- [   0.30040573,   0.17343933,   0.00000000 ] # a*
- [   0.00000000,   0.34687866,   0.00000000 ] # b*
- [   0.00000000,   0.00000000,   0.03813302 ] # c*
natom: 7      
lattice:
- [     3.328831309328802,     0.000000000000000,     0.000000000000000 ] # a
- [    -1.664415654664401,     2.882852478787680,     0.000000000000000 ] # b
- [     0.000000000000000,     0.000000000000000,    26.223994007036914 ] # c
points:
- symbol: C # 1
  coordinates: [  0.000000000000000,  0.000000000000000,  0.476126053212225 ]
  mass: 12.010700
- symbol: H # 2
  coordinates: [  0.666666984744047,  0.333332985985145,  0.343197149815736 ]
  mass: 1.007940
- symbol: O # 3
  coordinates: [  0.333332985432215,  0.666666983183674,  0.656802850184264 ]
  mass: 15.999400
- symbol: O # 4
  coordinates: [  0.666666984744047,  0.333332985985145,  0.380703192025059 ]
  mass: 15.999400
- symbol: P # 5
  coordinates: [  0.333332985432215,  0.666666983183674,  0.599791613202916 ]
  mass: 30.973762
- symbol: Sc # 6
  coordinates: [  0.333332985432215,  0.666666983183674,  0.427247702436915 ]
  mass: 44.955912
- symbol: Sc # 7
  coordinates: [  0.666666984744047,  0.333332985985145,  0.522025578561095 ]
  mass: 44.955912

phonon:
- q-position: [    0.0000000,    0.0000000,    0.0000000 ]
  distance:    0.0000000
  band:
  - # 1
    frequency:   -0.0000018409
  - # 2
    frequency:    0.0000003350
  - # 3
    frequency:    0.0000017253
  - # 4
    frequency:    2.4642416030
  - # 5
    frequency:    2.4642416030
  - # 6
    frequency:    5.2126710175
  - # 7
    frequency:    5.2126710175
  - # 8
    frequency:    5.3498730858
  - # 9
    frequency:    5.7225774944
  - # 10
    frequency:    5.7225774944
  - # 11
    frequency:    6.9628347376
  - # 12
    frequency:    6.9628347376
  - # 13
    frequency:    9.2050591090
  - # 14
    frequency:   10.3023807189
  - # 15
    frequency:   10.3023807189
  - # 16
    frequency:   12.8956099273
  - # 17
    frequency:   12.8956099273
  - # 18
    frequency:   13.8145128239
  - # 19
    frequency:   17.9512680208
  - # 20
    frequency:   34.1563211281
  - # 21
    frequency:  115.2230005389

- q-position: [    0.0050505,    0.0000000,    0.0000000 ]
  distance:    0.0017519
  band:
  - # 1
    frequency:   -0.0659968655
  - # 2
    frequency:    0.0803103047
  - # 3
    frequency:    0.1364333308
  - # 4
    frequency:    2.4649372751
  - # 5
    frequency:    2.4650692831
  - # 6
    frequency:    5.2118013979
  - # 7
    frequency:    5.2125095707
  - # 8
    frequency:    5.3483252427
  - # 9
    frequency:    5.7227825789
  - # 10
    frequency:    5.7251374175
  - # 11
    frequency:    6.9634157460
  - # 12
    frequency:    6.9635086780
  - # 13
    frequency:    9.2050517860
  - # 14
    frequency:   10.3035222458
  - # 15
    frequency:   10.3039865218
  - # 16
    frequency:   12.8957461980
  - # 17
    frequency:   12.8976032882
  - # 18
    frequency:   13.8153488822
  - # 19
    frequency:   17.9506046124
  - # 20
    frequency:   34.1560411376
  - # 21
    frequency:  115.2229423825

- q-position: [    0.0101010,    0.0000000,    0.0000000 ]
  distance:    0.0035038
  band:
  - # 1
    frequency:   -0.0713621835
  - # 2
    frequency:    0.1605454967
  - # 3
    frequency:    0.2489552467
  - # 4
    frequency:    2.4670210131
  - # 5
    frequency:    2.4675770395
  - # 6
    frequency:    5.2091830191
  - # 7
    frequency:    5.2120259428
  - # 8
    frequency:    5.3438431850
  - # 9
    frequency:    5.7233981161
  - # 10
    frequency:    5.7326690618
  - # 11
    frequency:    6.9651563004
  - # 12
    frequency:    6.9655273877
  - # 13
    frequency:    9.2050375879
  - # 14
    frequency:   10.3069425226
  - # 15
    frequency:   10.3087743649
  - # 16
    frequency:   12.8961543158
  - # 17
    frequency:   12.9035709308
  - # 18
    frequency:   13.8178724149
  - # 19
    frequency:   17.9486163191
  - # 20
    frequency:   34.1552018270
  - # 21
    frequency:  115.2227680844

- q-position: [    0.0151515,    0.0000000,    0.0000000 ]
  distance:    0.0052557
  band:
  - # 1
    frequency:   -0.0707635023
  - # 2
    frequency:    0.2406295792
  - # 3
    frequency:    0.3639228160
  - # 4
    frequency:    2.4704831085
  - # 5
    frequency:    2.4718404042
  - # 6
    frequency:    5.2047893140
  - # 7
    frequency:    5.2112222052
  - # 8
    frequency:    5.3368649696
  - # 9
    frequency:    5.7244249938
  - # 10
    frequency:    5.7447723612
  - # 11
    frequency:    6.9680489942
  - # 12
    frequency:    6.9688815656
  - # 13
    frequency:    9.2050392008
  - # 14
    frequency:   10.3126286623
  - # 15
    frequency:   10.3166565173
  - # 16
    frequency:   12.8968322197
  - # 17
    frequency:   12.9134754285
  - # 18
    frequency:   13.8221294316
  - # 19
    frequency:   17.9453089302
  - # 20
    frequency:   34.1538051750
  - # 21
    frequency:  115.2224781563

- q-position: [    0.0202020,    0.0000000,    0.0000000 ]
  distance:    0.0070076
  band:
  - # 1
    frequency:   -0.0663236860
  - # 2
    frequency:    0.3204847701
  - # 3
    frequency:    0.4790818955
  - # 4
    frequency:    2.4753078003
  - # 5
    frequency:    2.4779898219
  - # 6
    frequency:    5.1985832048
  - # 7
    frequency:    5.2101015914
  - # 8
    frequency:    5.3279935614
  - # 9
    frequency:    5.7258648120
  - # 10
    frequency:    5.7609002844
  - # 11
    frequency:    6.9720815049
  - # 12
    frequency:    6.9735558218
  - # 13
    frequency:    9.2050924345
  - # 14
    frequency:   10.3205592676
  - # 15
    frequency:   10.3274898924
  - # 16
    frequency:   12.8977765474
  - # 17
    frequency:   12.9272540702
  - # 18
    frequency:   13.8281963769
  - # 19
    frequency:   17.9406920720
  - # 20
    frequency:   34.1518544679
  - # 21
    frequency:  115.2220734449

- q-position: [    0.0252525,    0.0000000,    0.0000000 ]
  distance:    0.0087596
  band:
  - # 1
    frequency:   -0.0559706789
  - # 2
    frequency:    0.4000305660
  - # 3
    frequency:    0.5932487051
  - # 4
    frequency:    2.4814739023
  - # 5
    frequency:    2.4862172634
  - # 6
    frequency:    5.1905292491
  - # 7
    frequency:    5.2086681838
  - # 8
    frequency:    5.3178748057
  - # 9
    frequency:    5.7277200518
  - # 10
    frequency:    5.7804684457
  - # 11
    frequency:    6.9772366275
  - # 12
    frequency:    6.9795288408
  - # 13
    frequency:    9.2052435054
  - # 14
    frequency:   10.3307045502
  - # 15
    frequency:   10.3410804453
  - # 16
    frequency:   12.8989827418
  - # 17
    frequency:   12.9448184478
  - # 18
    frequency:   13.8361796869
  - # 19
    frequency:   17.9347791743
  - # 20
    frequency:   34.1493542822
  - # 21
    frequency:  115.2215551240

- q-position: [    0.0303030,    0.0000000,    0.0000000 ]
  distance:    0.0105115
  band:
  - # 1
    frequency:   -0.0307806631
  - # 2
    frequency:    0.4791827539
  - # 3
    frequency:    0.7056182943
  - # 4
    frequency:    2.4889556769
  - # 5
    frequency:    2.4967848971
  - # 6
    frequency:    5.1806111899
  - # 7
    frequency:    5.2069265059
  - # 8
    frequency:    5.3071035741
  - # 9
    frequency:    5.7299942912
  - # 10
    frequency:    5.8029310460
  - # 11
    frequency:    6.9834923257
  - # 12
    frequency:    6.9867736035
  - # 13
    frequency:    9.2055457351
  - # 14
    frequency:   10.3430264937
  - # 15
    frequency:   10.3571887983
  - # 16
    frequency:   12.9004451971
  - # 17
    frequency:   12.9660540546
  - # 18
    frequency:   13.8462149933
  - # 19
    frequency:   17.9275874285
  - # 20
    frequency:   34.1463104607
  - # 21
    frequency:  115.2209246823

- q-position: [    0.0353535,    0.0000000,    0.0000000 ]
  distance:    0.0122634
  band:
  - # 1
    frequency:    0.0498834961
  - # 2
    frequency:    0.5578523513
  - # 3
    frequency:    0.8154845120
  - # 4
    frequency:    2.4977239512
  - # 5
    frequency:    2.5100348735
  - # 6
    frequency:    5.1688512689
  - # 7
    frequency:    5.2048810439
  - # 8
    frequency:    5.2961681438
  - # 9
    frequency:    5.7326924479
  - # 10
    frequency:    5.8278167351
  - # 11
    frequency:    6.9908218016
  - # 12
    frequency:    6.9952576612
  - # 13
    frequency:    9.2060560385
  - # 14
    frequency:   10.3574790541
  - # 15
    frequency:   10.3755366921
  - # 16
    frequency:   12.9021574394
  - # 17
    frequency:   12.9908200863
  - # 18
    frequency:   13.8584657842
  - # 19
    frequency:   17.9191377373
  - # 20
    frequency:   34.1427300812
  - # 21
    frequency:  115.2201839087

- q-position: [    0.0404040,    0.0000000,    0.0000000 ]
  distance:    0.0140153
  band:
  - # 1
    frequency:    0.0869272422
  - # 2
    frequency:    0.6359444535
  - # 3
    frequency:    0.9221374092
  - # 4
    frequency:    2.5077474703
  - # 5
    frequency:    2.5263984482
  - # 6
    frequency:    5.1553240019
  - # 7
    frequency:    5.2025357308
  - # 8
    frequency:    5.2854285513
  - # 9
    frequency:    5.7358210285
  - # 10
    frequency:    5.8547359713
  - # 11
    frequency:    6.9991935889
  - # 12
    frequency:    7.0049434535
  - # 13
    frequency:    9.2068315415
  - # 14
    frequency:   10.3740083962
  - # 15
    frequency:   10.3958138838
  - # 16
    frequency:   12.9041123372
  - # 17
    frequency:   13.0189497026
  - # 18
    frequency:   13.8731212709
  - # 19
    frequency:   17.9094546622
  - # 20
    frequency:   34.1386214202
  - # 21
    frequency:  115.2193348739

- q-position: [    0.0454545,    0.0000000,    0.0000000 ]
  distance:    0.0157672
  band:
  - # 1
    frequency:    0.1211477545
  - # 2
    frequency:    0.7133569697
  - # 3
    frequency:    1.0248214779
  - # 4
    frequency:    2.5189944839
  - # 5
    frequency:    2.5464013847
  - # 6
    frequency:    5.1401572785
  - # 7
    frequency:    5.1998934250
  - # 8
    frequency:    5.2751222230
  - # 9
    frequency:    5.7393883607
  - # 10
    frequency:    5.8833737307
  - # 11
    frequency:    7.0085716727
  - # 12
    frequency:    7.0157886631
  - # 13
    frequency:    9.2079265926
  - # 14
    frequency:   10.3925531577
  - # 15
    frequency:   10.4176851854
  - # 16
    frequency:   12.9063023373
  - # 17
    frequency:   13.0502510735
  - # 18
    frequency:   13.8903931415
  - # 19
    frequency:   17.8985663724
  - # 20
    frequency:   34.1339939093
  - # 21
    frequency:  115.2183799104

- q-position: [    0.0505051,    0.0000000,    0.0000000 ]
  distance:    0.0175191
  band:
  - # 1
    frequency:    0.1558810959
  - # 2
    frequency:    0.7899792260
  - # 3
    frequency:    1.1227229725
  - # 4
    frequency:    2.5314345582
  - # 5
    frequency:    2.5706608991
  - # 6
    frequency:    5.1235194602
  - # 7
    frequency:    5.1969554162
  - # 8
    frequency:    5.2653886998
  - # 9
    frequency:    5.7434047853
  - # 10
    frequency:    5.9134770946
  - # 11
    frequency:    7.0189156405
  - # 12
    frequency:    7.0277465996
  - # 13
    frequency:    9.2093903316
  - # 14
    frequency:   10.4130447378
  - # 15
    frequency:   10.4407974232
  - # 16
    frequency:   12.9087197183
  - # 17
    frequency:   13.0845095920
  - # 18
    frequency:   13.9105108350
  - # 19
    frequency:   17.8865045997
  - # 20
    frequency:   34.1288580866
  - # 21
    frequency:  115.2173215882

- q-position: [    0.0555556,    0.0000000,    0.0000000 ]
  distance:    0.0192710
  band:
  - # 1
    frequency:    0.1920722857
  - # 2
    frequency:    0.8656904205
  - # 3
    frequency:    1.2149804511
  - # 4
    frequency:    2.5450406051
  - # 5
    frequency:    2.5998677852
  - # 6
    frequency:    5.1055984490
  - # 7
    frequency:    5.1937209889
  - # 8
    frequency:    5.2563025703
  - # 9
    frequency:    5.7478827892
  - # 10
    frequency:    5.9448426455
  - # 11
    frequency:    7.0301808668
  - # 12
    frequency:    7.0407666054
  - # 13
    frequency:    9.2112648871
  - # 14
    frequency:   10.4354076053
  - # 15
    frequency:   10.4647861872
  - # 16
    frequency:   12.9113568551
  - # 17
    frequency:   13.1214916477
  - # 18
    frequency:   13.9337149597
  - # 19
    frequency:   17.8733046068
  - # 20
    frequency:   34.1232255424
  - # 21
    frequency:  115.2161626900

- q-position: [    0.0606061,    0.0000000,    0.0000000 ]
  distance:    0.0210229
  band:
  - # 1
    frequency:    0.2300759077
  - # 2
    frequency:    0.9403579174
  - # 3
    frequency:    1.3007206205
  - # 4
    frequency:    2.5597911133
  - # 5
    frequency:    2.6347470018
  - # 6
    frequency:    5.0865813912
  - # 7
    frequency:    5.1901870733
  - # 8
    frequency:    5.2479040010
  - # 9
    frequency:    5.7528370600
  - # 10
    frequency:    5.9773056408
  - # 11
    frequency:    7.0423187368
  - # 12
    frequency:    7.0547944772
  - # 13
    frequency:    9.2135841911
  - # 14
    frequency:   10.4595596221
  - # 15
    frequency:   10.4892823067
  - # 16
    frequency:   12.9142064873
  - # 17
    frequency:   13.1609503046
  - # 18
    frequency:   13.9602485460
  - # 19
    frequency:   17.8590051751
  - # 20
    frequency:   34.1171088599
  - # 21
    frequency:  115.2149061827

- q-position: [    0.0656566,    0.0000000,    0.0000000 ]
  distance:    0.0227749
  band:
  - # 1
    frequency:    0.2700173764
  - # 2
    frequency:    1.0138353826
  - # 3
    frequency:    1.3791213349
  - # 4
    frequency:    2.5756725573
  - # 5
    frequency:    2.6759929046
  - # 6
    frequency:    5.0666407732
  - # 7
    frequency:    5.1863480041
  - # 8
    frequency:    5.2402206692
  - # 9
    frequency:    5.7582844494
  - # 10
    frequency:    6.0107314165
  - # 11
    frequency:    7.0552769092
  - # 12
    frequency:    7.0697729005
  - # 13
    frequency:    9.2163733503
  - # 14
    frequency:   10.4854123805
  - # 15
    frequency:   10.5139180295
  - # 16
    frequency:   12.9172619829
  - # 17
    frequency:   13.2026330518
  - # 18
    frequency:   13.9903460050
  - # 19
    frequency:   17.8436486174
  - # 20
    frequency:   34.1105215518
  - # 21
    frequency:  115.2135551880

- q-position: [    0.0707071,    0.0000000,    0.0000000 ]
  distance:    0.0245268
  band:
  - # 1
    frequency:    0.3119104386
  - # 2
    frequency:    1.0859607785
  - # 3
    frequency:    1.4494967443
  - # 4
    frequency:    2.5926819406
  - # 5
    frequency:    2.7241832122
  - # 6
    frequency:    5.0459280437
  - # 7
    frequency:    5.1821954060
  - # 8
    frequency:    5.2332801613
  - # 9
    frequency:    5.7642438345
  - # 10
    frequency:    6.0450088497
  - # 11
    frequency:    7.0689996224
  - # 12
    frequency:    7.0856418913
  - # 13
    frequency:    9.2196484786
  - # 14
    frequency:   10.5128715512
  - # 15
    frequency:   10.5383328999
  - # 16
    frequency:   12.9205175901
  - # 17
    frequency:   13.2462914885
  - # 18
    frequency:   14.0242199930
  - # 19
    frequency:   17.8272808250
  - # 20
    frequency:   34.1034779920
  - # 21
    frequency:  115.2121129517

- q-position: [    0.0757576,    0.0000000,    0.0000000 ]
  distance:    0.0262787
  band:
  - # 1
    frequency:    0.3557054854
  - # 2
    frequency:    1.1565542683
  - # 3
    frequency:    1.5113881577
  - # 4
    frequency:    2.6108294034
  - # 5
    frequency:    2.7796876922
  - # 6
    frequency:    5.0245729600
  - # 7
    frequency:    5.1777182172
  - # 8
    frequency:    5.2271150311
  - # 9
    frequency:    5.7707358752
  - # 10
    frequency:    6.0800455011
  - # 11
    frequency:    7.0834280425
  - # 12
    frequency:    7.1023392472
  - # 13
    frequency:    9.2234168888
  - # 14
    frequency:   10.5418372448
  - # 15
    frequency:   10.5621793233
  - # 16
    frequency:   12.9239686669
  - # 17
    frequency:   13.2916923512
  - # 18
    frequency:   14.0620468493
  - # 19
    frequency:   17.8099513561
  - # 20
    frequency:   34.0959933449
  - # 21
    frequency:  115.2105828107

- q-position: [    0.0808081,    0.0000000,    0.0000000 ]
  distance:    0.0280306
  band:
  - # 1
    frequency:    0.4013121640
  - # 2
    frequency:    1.2254161218
  - # 3
    frequency:    1.5646346122
  - # 4
    frequency:    2.6301407816
  - # 5
    frequency:    2.8425973637
  - # 6
    frequency:    5.0026861498
  - # 7
    frequency:    5.1729028538
  - # 8
    frequency:    5.2217634330
  - # 9
    frequency:    5.7777826659
  - # 10
    frequency:    6.1157640547
  - # 11
    frequency:    7.0985006532
  - # 12
    frequency:    7.1198010040
  - # 13
    frequency:    9.2276775406
  - # 14
    frequency:   10.5722043859
  - # 15
    frequency:   10.5851277883
  - # 16
    frequency:   12.9276118832
  - # 17
    frequency:   13.3386287821
  - # 18
    frequency:   14.1039518046
  - # 19
    frequency:   17.7917135729
  - # 20
    frequency:   34.0880834903
  - # 21
    frequency:  115.2089681609

- q-position: [    0.0858586,    0.0000000,    0.0000000 ]
  distance:    0.0297825
  band:
  - # 1
    frequency:    0.4486105014
  - # 2
    frequency:    1.2923247737
  - # 3
    frequency:    1.6093983615
  - # 4
    frequency:    2.6506599486
  - # 5
    frequency:    2.9126989271
  - # 6
    frequency:    4.9803628990
  - # 7
    frequency:    5.1677335148
  - # 8
    frequency:    5.2172676782
  - # 9
    frequency:    5.7854072898
  - # 10
    frequency:    6.1520997184
  - # 11
    frequency:    7.1141536840
  - # 12
    frequency:    7.1379619025
  - # 13
    frequency:    9.2324216591
  - # 14
    frequency:   10.6038631052
  - # 15
    frequency:   10.6068716902
  - # 16
    frequency:   12.9314453847
  - # 17
    frequency:   13.3869303195
  - # 18
    frequency:   14.1499955950
  - # 19
    frequency:   17.7726248360
  - # 20
    frequency:   34.0797649474
  - # 21
    frequency:  115.2072724229

- q-position: [    0.0909091,    0.0000000,    0.0000000 ]
  distance:    0.0315344
  band:
  - # 1
    frequency:    0.4974560107
  - # 2
    frequency:    1.3570352646
  - # 3
    frequency:    1.6461358817
  - # 4
    frequency:    2.6724506917
  - # 5
    frequency:    2.9895038504
  - # 6
    frequency:    4.9576869672
  - # 7
    frequency:    5.1621926158
  - # 8
    frequency:    5.2136722014
  - # 9
    frequency:    5.7936332867
  - # 10
    frequency:    6.1889983191
  - # 11
    frequency:    7.1303215741
  - # 12
    frequency:    7.1567558640
  - # 13
    frequency:    9.2376334458
  - # 14
    frequency:   10.6271316706
  - # 15
    frequency:   10.6366991532
  - # 16
    frequency:   12.9354689117
  - # 17
    frequency:   13.4364699486
  - # 18
    frequency:   14.2001642698
  - # 19
    frequency:   17.7527467650
  - # 20
    frequency:   34.0710547951
  - # 21
    frequency:  115.2054990090

- q-position: [    0.0959596,    0.0000000,    0.0000000 ]
  distance:    0.0332863
  band:
  - # 1
    frequency:    0.5476810680
  - # 2
    frequency:    1.4192783795
  - # 3
    frequency:    1.6755263951
  - # 4
    frequency:    2.6955977939
  - # 5
    frequency:    3.0723202360
  - # 6
    frequency:    4.9347338669
  - # 7
    frequency:    5.1562613391
  - # 8
    frequency:    5.2110217404
  - # 9
    frequency:    5.8024840516
  - # 10
    frequency:    6.2264148842
  - # 11
    frequency:    7.1469374648
  - # 12
    frequency:    7.1761164793
  - # 13
    frequency:    9.2432908292
  - # 14
    frequency:   10.6456593751
  - # 15
    frequency:   10.6705943412
  - # 16
    frequency:   12.9396838665
  - # 17
    frequency:   13.4871668456
  - # 18
    frequency:   14.2543636968
  - # 19
    frequency:   17.7321455720
  - # 20
    frequency:   34.0619705928
  - # 21
    frequency:  115.2036512894

- q-position: [    0.1010101,    0.0000000,    0.0000000 ]
  distance:    0.0350382
  band:
  - # 1
    frequency:    0.5990934725
  - # 2
    frequency:    1.4787608881
  - # 3
    frequency:    1.6983836577
  - # 4
    frequency:    2.7202069024
  - # 5
    frequency:    3.1603419559
  - # 6
    frequency:    4.9115734389
  - # 7
    frequency:    5.1499202774
  - # 8
    frequency:    5.2093600887
  - # 9
    frequency:    5.8119821834
  - # 10
    frequency:    6.2643125544
  - # 11
    frequency:    7.1639337139
  - # 12
    frequency:    7.1959775098
  - # 13
    frequency:    9.2493662072
  - # 14
    frequency:   10.6622405160
  - # 15
    frequency:   10.7054270169
  - # 16
    frequency:   12.9440933207
  - # 17
    frequency:   13.5389841580
  - # 18
    frequency:   14.3124195551
  - # 19
    frequency:   17.7108924764
  - # 20
    frequency:   34.0525302986
  - # 21
    frequency:  115.2017325598

- q-position: [    0.1060606,    0.0000000,    0.0000000 ]
  distance:    0.0367902
  band:
  - # 1
    frequency:    0.6514723883
  - # 2
    frequency:    1.5351673431
  - # 3
    frequency:    1.7155762094
  - # 4
    frequency:    2.7464027104
  - # 5
    frequency:    3.2527302264
  - # 6
    frequency:    4.8882717620
  - # 7
    frequency:    5.1431501473
  - # 8
    frequency:    5.2087295490
  - # 9
    frequency:    5.8221488092
  - # 10
    frequency:    6.3026617083
  - # 11
    frequency:    7.1812424244
  - # 12
    frequency:    7.2162734043
  - # 13
    frequency:    9.2558271555
  - # 14
    frequency:   10.6766971409
  - # 15
    frequency:   10.7410725805
  - # 16
    frequency:   12.9487019584
  - # 17
    frequency:   13.5919221124
  - # 18
    frequency:   14.3740826411
  - # 19
    frequency:   17.6890642086
  - # 20
    frequency:   34.0427521891
  - # 21
    frequency:  115.1997460099

- q-position: [    0.1111111,    0.0000000,    0.0000000 ]
  distance:    0.0385421
  band:
  - # 1
    frequency:    0.7045613836
  - # 2
    frequency:    1.5881638835
  - # 3
    frequency:    1.7279710388
  - # 4
    frequency:    2.7743249944
  - # 5
    frequency:    3.3486732259
  - # 6
    frequency:    4.8648925238
  - # 7
    frequency:    5.1359325447
  - # 8
    frequency:    5.2091711107
  - # 9
    frequency:    5.8330029080
  - # 10
    frequency:    6.3414392143
  - # 11
    frequency:    7.1987959776
  - # 12
    frequency:    7.2369398297
  - # 13
    frequency:    9.2626370792
  - # 14
    frequency:   10.6888890261
  - # 15
    frequency:   10.7774040500
  - # 16
    frequency:   12.9535159496
  - # 17
    frequency:   13.6460076045
  - # 18
    frequency:   14.4390384173
  - # 19
    frequency:   17.6667436076
  - # 20
    frequency:   34.0326547779
  - # 21
    frequency:  115.1976946923

- q-position: [    0.1161616,    0.0000000,    0.0000000 ]
  distance:    0.0402940
  band:
  - # 1
    frequency:    0.7580578675
  - # 2
    frequency:    1.6374043445
  - # 3
    frequency:    1.7364044328
  - # 4
    frequency:    2.8041221879
  - # 5
    frequency:    3.4474207860
  - # 6
    frequency:    4.8414980126
  - # 7
    frequency:    5.1282507135
  - # 8
    frequency:    5.2107253458
  - # 9
    frequency:    5.8445606607
  - # 10
    frequency:    6.3806277459
  - # 11
    frequency:    7.2165275609
  - # 12
    frequency:    7.2579142145
  - # 13
    frequency:    9.2697557979
  - # 14
    frequency:   10.6987141527
  - # 15
    frequency:   10.8142926795
  - # 16
    frequency:   12.9585427502
  - # 17
    frequency:   13.7012819479
  - # 18
    frequency:   14.5069191794
  - # 19
    frequency:   17.6440203164
  - # 20
    frequency:   34.0222567365
  - # 21
    frequency:  115.1955814947

- q-position: [    0.1212121,    0.0000000,    0.0000000 ]
  distance:    0.0420459
  band:
  - # 1
    frequency:    0.8115977978
  - # 2
    frequency:    1.6825386736
  - # 3
    frequency:    1.7416770058
  - # 4
    frequency:    2.8359424742
  - # 5
    frequency:    3.5482982534
  - # 6
    frequency:    4.8181498866
  - # 7
    frequency:    5.1200902994
  - # 8
    frequency:    5.2134340407
  - # 9
    frequency:    5.8568348492
  - # 10
    frequency:    6.4202151154
  - # 11
    frequency:    7.2343716806
  - # 12
    frequency:    7.2791363034
  - # 13
    frequency:    9.2771400573
  - # 14
    frequency:   10.7061082712
  - # 15
    frequency:   10.8516086382
  - # 16
    frequency:   12.9637908273
  - # 17
    frequency:   13.7577885112
  - # 18
    frequency:   14.5773171081
  - # 19
    frequency:   17.6209915777
  - # 20
    frequency:   34.0115768158
  - # 21
    frequency:  115.1934091125

- q-position: [    0.1262626,    0.0000000,    0.0000000 ]
  distance:    0.0437978
  band:
  - # 1
    frequency:    0.8647341062
  - # 2
    frequency:    1.7232231724
  - # 3
    frequency:    1.7445679619
  - # 4
    frequency:    2.8699228605
  - # 5
    frequency:    3.6507058731
  - # 6
    frequency:    4.7949098814
  - # 7
    frequency:    5.1114400615
  - # 8
    frequency:    5.2173426248
  - # 9
    frequency:    5.8698343273
  - # 10
    frequency:    6.4601935974
  - # 11
    frequency:    7.2522646506
  - # 12
    frequency:    7.3005487179
  - # 13
    frequency:    9.2847439684
  - # 14
    frequency:   10.7110436067
  - # 15
    frequency:   10.8892217516
  - # 16
    frequency:   12.9692693084
  - # 17
    frequency:   13.8155616378
  - # 18
    frequency:   14.6497967660
  - # 19
    frequency:   17.5977631242
  - # 20
    frequency:   34.0006337696
  - # 21
    frequency:  115.1911800249

- q-position: [    0.1313131,    0.0000000,    0.0000000 ]
  distance:    0.0455497
  band:
  - # 1
    frequency:    0.9169070226
  - # 2
    frequency:    1.7458644702
  - # 3
    frequency:    1.7591315102
  - # 4
    frequency:    2.9061772603
  - # 5
    frequency:    3.7541093161
  - # 6
    frequency:    4.7718406317
  - # 7
    frequency:    5.1022925209
  - # 8
    frequency:    5.2225035348
  - # 9
    frequency:    5.8835635789
  - # 10
    frequency:    6.5005592211
  - # 11
    frequency:    7.2701450458
  - # 12
    frequency:    7.3220975189
  - # 13
    frequency:    9.2925193735
  - # 14
    frequency:   10.7135268078
  - # 15
    frequency:   10.9270023070
  - # 16
    frequency:   12.9749875593
  - # 17
    frequency:   13.8746177110
  - # 18
    frequency:   14.7239060861
  - # 19
    frequency:   17.5744501549
  - # 20
    frequency:   33.9894462815
  - # 21
    frequency:  115.1888964728

- q-position: [    0.1363636,    0.0000000,    0.0000000 ]
  distance:    0.0473016
  band:
  - # 1
    frequency:    0.9674048606
  - # 2
    frequency:    1.7464032571
  - # 3
    frequency:    1.7899649464
  - # 4
    frequency:    2.9447851166
  - # 5
    frequency:    3.8580251387
  - # 6
    frequency:    4.7490068581
  - # 7
    frequency:    5.0926445238
  - # 8
    frequency:    5.2289807511
  - # 9
    frequency:    5.8980223762
  - # 10
    frequency:    6.5413110207
  - # 11
    frequency:    7.2879541138
  - # 12
    frequency:    7.3437327661
  - # 13
    frequency:    9.3004161471
  - # 14
    frequency:   10.7135962774
  - # 15
    frequency:   10.9648219214
  - # 16
    frequency:   12.9809546920
  - # 17
    frequency:   13.9349486774
  - # 18
    frequency:   14.7991854228
  - # 19
    frequency:   17.5511783756
  - # 20
    frequency:   33.9780328943
  - # 21
    frequency:  115.1865604398

- q-position: [    0.1414141,    0.0000000,    0.0000000 ]
  distance:    0.0490535
  band:
  - # 1
    frequency:    1.0153160365
  - # 2
    frequency:    1.7471208617
  - # 3
    frequency:    1.8154599692
  - # 4
    frequency:    2.9857823160
  - # 5
    frequency:    3.9620029708
  - # 6
    frequency:    4.7264773874
  - # 7
    frequency:    5.0824977084
  - # 8
    frequency:    5.2368558756
  - # 9
    frequency:    5.9132055454
  - # 10
    frequency:    6.5824502389
  - # 11
    frequency:    7.3056361361
  - # 12
    frequency:    7.3654090682
  - # 13
    frequency:    9.3083824350
  - # 14
    frequency:   10.7113190499
  - # 15
    frequency:   11.0025544653
  - # 16
    frequency:   12.9871790138
  - # 17
    frequency:   13.9965179101
  - # 18
    frequency:   14.8751746527
  - # 19
    frequency:   17.5280850705
  - # 20
    frequency:   33.9664119424
  - # 21
    frequency:  115.1841736368

- q-position: [    0.1464646,    0.0000000,    0.0000000 ]
  distance:    0.0508055
  band:
  - # 1
    frequency:    1.0594793696
  - # 2
    frequency:    1.7491038214
  - # 3
    frequency:    1.8353917736
  - # 4
    frequency:    3.0291559145
  - # 5
    frequency:    4.0656042342
  - # 6
    frequency:    4.7043290825
  - # 7
    frequency:    5.0718588629
  - # 8
    frequency:    5.2462362958
  - # 9
    frequency:    5.9291028387
  - # 10
    frequency:    6.6239794808
  - # 11
    frequency:    7.3231387337
  - # 12
    frequency:    7.3870861195
  - # 13
    frequency:    9.3163648400
  - # 14
    frequency:   10.7067873875
  - # 15
    frequency:   11.0400770356
  - # 16
    frequency:   12.9936674261
  - # 17
    frequency:   14.0592580226
  - # 18
    frequency:   14.9514185983
  - # 19
    frequency:   17.5053201476
  - # 20
    frequency:   33.9546014892
  - # 21
    frequency:  115.1817374891

- q-position: [    0.1515152,    0.0000000,    0.0000000 ]
  distance:    0.0525574
  band:
  - # 1
    frequency:    1.0984528776
  - # 2
    frequency:    1.7536175103
  - # 3
    frequency:    1.8495726571
  - # 4
    frequency:    3.0748435205
  - # 5
    frequency:    4.1683742744
  - # 6
    frequency:    4.6826556785
  - # 7
    frequency:    5.0607401713
  - # 8
    frequency:    5.2572661946
  - # 9
    frequency:    5.9456989117
  - # 10
    frequency:    6.6659018205
  - # 11
    frequency:    7.3404131120
  - # 12
    frequency:    7.4087292193
  - # 13
    frequency:    9.3243085631
  - # 14
    frequency:   10.7001152631
  - # 15
    frequency:   11.0772709611
  - # 16
    frequency:   13.0004247890
  - # 17
    frequency:   14.1230701162
  - # 18
    frequency:   15.0274712027
  - # 19
    frequency:   17.4830470788
  - # 20
    frequency:   33.9426192682
  - # 21
    frequency:  115.1792531273
