nqpoint: 300    
npath: 3      
segment_nqpoint:
- 100
- 100
- 100
labels:
- [ 'G', 'M' ]
- [ 'M', 'K' ]
- [ 'K', 'G' ]
reciprocal_lattice:
- [   0.30517326,   0.17619187,   0.00000000 ] # a*
- [   0.00000000,   0.35238373,   0.00000000 ] # b*
- [   0.00000000,   0.00000000,   0.03388803 ] # c*
natom: 8      
lattice:
- [     3.276827031556375,     0.000000000000000,     0.000000000000000 ] # a
- [    -1.638413515778188,     2.837815453134573,     0.000000000000000 ] # b
- [     0.000000000000000,     0.000000000000000,    29.508943890436605 ] # c
points:
- symbol: C # 1
  coordinates: [  0.666666984744047,  0.333332985985145,  0.345787857789593 ]
  mass: 12.010700
- symbol: Cl # 2
  coordinates: [  0.333332985432215,  0.666666983183674,  0.695007722627554 ]
  mass: 35.453000
- symbol: N # 3
  coordinates: [  0.000000000000000,  0.000000000000000,  0.469772689182678 ]
  mass: 14.006700
- symbol: N # 4
  coordinates: [  0.666666984744047,  0.333332985985145,  0.387934850895161 ]
  mass: 14.006700
- symbol: O # 5
  coordinates: [  0.333332985432215,  0.666666983183674,  0.547856762711579 ]
  mass: 15.999400
- symbol: O # 6
  coordinates: [  0.666666984744047,  0.333332985985145,  0.304992277372446 ]
  mass: 15.999400
- symbol: Sc # 7
  coordinates: [  0.333332985432215,  0.666666983183674,  0.435133173066922 ]
  mass: 44.955912
- symbol: Sc # 8
  coordinates: [  0.666666984744047,  0.333332985985145,  0.524325587432160 ]
  mass: 44.955912

phonon:
- q-position: [    0.0000000,    0.0000000,    0.0000000 ]
  distance:    0.0000000
  band:
  - # 1
    frequency:   -0.2898967152
  - # 2
    frequency:   -0.2898967152
  - # 3
    frequency:   -0.0000076595
  - # 4
    frequency:    0.0000005919
  - # 5
    frequency:    0.0000051013
  - # 6
    frequency:    0.3199226451
  - # 7
    frequency:    0.8202824270
  - # 8
    frequency:    0.8202824270
  - # 9
    frequency:    3.4570844390
  - # 10
    frequency:    3.4570844390
  - # 11
    frequency:    5.8326665689
  - # 12
    frequency:    6.6290727584
  - # 13
    frequency:    6.6290727584
  - # 14
    frequency:   10.4054835139
  - # 15
    frequency:   12.6260150936
  - # 16
    frequency:   12.6260150936
  - # 17
    frequency:   14.2250070846
  - # 18
    frequency:   14.7805098388
  - # 19
    frequency:   14.7805098388
  - # 20
    frequency:   17.6613571164
  - # 21
    frequency:   17.6613571164
  - # 22
    frequency:   17.7486653392
  - # 23
    frequency:   39.2497907785
  - # 24
    frequency:   69.6818464964

- q-position: [    0.0050505,    0.0000000,    0.0000000 ]
  distance:    0.0017797
  band:
  - # 1
    frequency:   -0.2884362039
  - # 2
    frequency:   -0.2808621939
  - # 3
    frequency:   -0.0036080288
  - # 4
    frequency:    0.0507811210
  - # 5
    frequency:    0.1047082197
  - # 6
    frequency:    0.3229476208
  - # 7
    frequency:    0.8151591903
  - # 8
    frequency:    0.8162690194
  - # 9
    frequency:    3.4577549662
  - # 10
    frequency:    3.4606716307
  - # 11
    frequency:    5.8319456071
  - # 12
    frequency:    6.6292104546
  - # 13
    frequency:    6.6313148652
  - # 14
    frequency:   10.4046991684
  - # 15
    frequency:   12.6257241650
  - # 16
    frequency:   12.6298884555
  - # 17
    frequency:   14.2216955305
  - # 18
    frequency:   14.7802216594
  - # 19
    frequency:   14.7833706585
  - # 20
    frequency:   17.6593463930
  - # 21
    frequency:   17.6613839830
  - # 22
    frequency:   17.7512869219
  - # 23
    frequency:   39.2497330374
  - # 24
    frequency:   69.6806063427

- q-position: [    0.0101010,    0.0000000,    0.0000000 ]
  distance:    0.0035594
  band:
  - # 1
    frequency:   -0.2842619029
  - # 2
    frequency:   -0.2544020066
  - # 3
    frequency:   -0.0156862735
  - # 4
    frequency:    0.0986092277
  - # 5
    frequency:    0.1975323657
  - # 6
    frequency:    0.3341332951
  - # 7
    frequency:    0.8026673049
  - # 8
    frequency:    0.8045861821
  - # 9
    frequency:    3.4597668106
  - # 10
    frequency:    3.4713967651
  - # 11
    frequency:    5.8298059007
  - # 12
    frequency:    6.6296233720
  - # 13
    frequency:    6.6380085557
  - # 14
    frequency:   10.4023474367
  - # 15
    frequency:   12.6248522398
  - # 16
    frequency:   12.6414323507
  - # 17
    frequency:   14.2120564037
  - # 18
    frequency:   14.7793575595
  - # 19
    frequency:   14.7917033056
  - # 20
    frequency:   17.6539596457
  - # 21
    frequency:   17.6614646398
  - # 22
    frequency:   17.7585119516
  - # 23
    frequency:   39.2495599385
  - # 24
    frequency:   69.6768883931

- q-position: [    0.0151515,    0.0000000,    0.0000000 ]
  distance:    0.0053391
  band:
  - # 1
    frequency:   -0.2778301206
  - # 2
    frequency:   -0.2085359409
  - # 3
    frequency:   -0.0411450930
  - # 4
    frequency:    0.1387220936
  - # 5
    frequency:    0.2525637134
  - # 6
    frequency:    0.3593778183
  - # 7
    frequency:    0.7865548452
  - # 8
    frequency:    0.7944199802
  - # 9
    frequency:    3.4631207444
  - # 10
    frequency:    3.4891522223
  - # 11
    frequency:    5.8263144811
  - # 12
    frequency:    6.6303109967
  - # 13
    frequency:    6.6490587837
  - # 14
    frequency:   10.3984322135
  - # 15
    frequency:   12.6234018993
  - # 16
    frequency:   12.6604146070
  - # 17
    frequency:   14.1969031011
  - # 18
    frequency:   14.7779188527
  - # 19
    frequency:   14.8048354420
  - # 20
    frequency:   17.6465024524
  - # 21
    frequency:   17.6615992560
  - # 22
    frequency:   17.7690519652
  - # 23
    frequency:   39.2492718537
  - # 24
    frequency:   69.6707001753

- q-position: [    0.0202020,    0.0000000,    0.0000000 ]
  distance:    0.0071189
  band:
  - # 1
    frequency:   -0.2695670297
  - # 2
    frequency:   -0.1422682713
  - # 3
    frequency:   -0.0790414820
  - # 4
    frequency:    0.1618280961
  - # 5
    frequency:    0.2517181339
  - # 6
    frequency:    0.3840408554
  - # 7
    frequency:    0.7652837172
  - # 8
    frequency:    0.8146585170
  - # 9
    frequency:    3.4678180011
  - # 10
    frequency:    3.5137641213
  - # 11
    frequency:    5.8215753202
  - # 12
    frequency:    6.6312724740
  - # 13
    frequency:    6.6643159904
  - # 14
    frequency:   10.3929599290
  - # 15
    frequency:   12.6213774456
  - # 16
    frequency:   12.6864358824
  - # 17
    frequency:   14.1773976442
  - # 18
    frequency:   14.7759077249
  - # 19
    frequency:   14.8218534882
  - # 20
    frequency:   17.6381047670
  - # 21
    frequency:   17.6617881118
  - # 22
    frequency:   17.7818055399
  - # 23
    frequency:   39.2488694016
  - # 24
    frequency:   69.6620542118

- q-position: [    0.0252525,    0.0000000,    0.0000000 ]
  distance:    0.0088986
  band:
  - # 1
    frequency:   -0.2598777068
  - # 2
    frequency:   -0.2475118217
  - # 3
    frequency:    0.1337182842
  - # 4
    frequency:    0.1466265639
  - # 5
    frequency:    0.2238142835
  - # 6
    frequency:    0.3945082080
  - # 7
    frequency:    0.7469431690
  - # 8
    frequency:    0.8808005567
  - # 9
    frequency:    3.4738601953
  - # 10
    frequency:    3.5449999291
  - # 11
    frequency:    5.8157195952
  - # 12
    frequency:    6.6325066093
  - # 13
    frequency:    6.6835874352
  - # 14
    frequency:   10.3859394694
  - # 15
    frequency:   12.6187849012
  - # 16
    frequency:   12.7189097726
  - # 17
    frequency:   14.1548853516
  - # 18
    frequency:   14.7733272294
  - # 19
    frequency:   14.8417892615
  - # 20
    frequency:   17.6295209064
  - # 21
    frequency:   17.6620315944
  - # 22
    frequency:   17.7960583123
  - # 23
    frequency:   39.2483534447
  - # 24
    frequency:   69.6509679837

- q-position: [    0.0303030,    0.0000000,    0.0000000 ]
  distance:    0.0106783
  band:
  - # 1
    frequency:   -0.4312444210
  - # 2
    frequency:   -0.2505853092
  - # 3
    frequency:   -0.0814255030
  - # 4
    frequency:    0.1792727405
  - # 5
    frequency:    0.2721888730
  - # 6
    frequency:    0.4072855701
  - # 7
    frequency:    0.7406501199
  - # 8
    frequency:    0.9818101023
  - # 9
    frequency:    3.4812492146
  - # 10
    frequency:    3.5825779946
  - # 11
    frequency:    5.8088950993
  - # 12
    frequency:    6.6340118713
  - # 13
    frequency:    6.7066499049
  - # 14
    frequency:   10.3773820827
  - # 15
    frequency:   12.6156320076
  - # 16
    frequency:   12.7570325750
  - # 17
    frequency:   14.1308001890
  - # 18
    frequency:   14.7701812796
  - # 19
    frequency:   14.8637468153
  - # 20
    frequency:   17.6212338496
  - # 21
    frequency:   17.6623301937
  - # 22
    frequency:   17.8113786850
  - # 23
    frequency:   39.2477250862
  - # 24
    frequency:   69.6374638821

- q-position: [    0.0353535,    0.0000000,    0.0000000 ]
  distance:    0.0124580
  band:
  - # 1
    frequency:   -0.6093943234
  - # 2
    frequency:   -0.2856554227
  - # 3
    frequency:   -0.2122242017
  - # 4
    frequency:    0.1991766444
  - # 5
    frequency:    0.3503590781
  - # 6
    frequency:    0.4261582534
  - # 7
    frequency:    0.7536173182
  - # 8
    frequency:    1.1009588062
  - # 9
    frequency:    3.4899870835
  - # 10
    frequency:    3.6261781223
  - # 11
    frequency:    5.8012565419
  - # 12
    frequency:    6.6357863950
  - # 13
    frequency:    6.7332619557
  - # 14
    frequency:   10.3673012866
  - # 15
    frequency:   12.6119282241
  - # 16
    frequency:   12.7997412310
  - # 17
    frequency:   14.1066507666
  - # 18
    frequency:   14.7664746402
  - # 19
    frequency:   14.8869609603
  - # 20
    frequency:   17.6135712039
  - # 21
    frequency:   17.6626844956
  - # 22
    frequency:   17.8275018567
  - # 23
    frequency:   39.2469856658
  - # 24
    frequency:   69.6215691433

- q-position: [    0.0404040,    0.0000000,    0.0000000 ]
  distance:    0.0142377
  band:
  - # 1
    frequency:   -0.7751640842
  - # 2
    frequency:   -0.4201748015
  - # 3
    frequency:   -0.2051950665
  - # 4
    frequency:    0.2257731040
  - # 5
    frequency:    0.4241787660
  - # 6
    frequency:    0.4502722284
  - # 7
    frequency:    0.7857781190
  - # 8
    frequency:    1.2290417451
  - # 9
    frequency:    3.5000758042
  - # 10
    frequency:    3.6754523212
  - # 11
    frequency:    5.7929578714
  - # 12
    frequency:    6.6378279864
  - # 13
    frequency:    6.7631744454
  - # 14
    frequency:   10.3557127885
  - # 15
    frequency:   12.6076847241
  - # 16
    frequency:   12.8456599754
  - # 17
    frequency:   14.0840649453
  - # 18
    frequency:   14.7622129162
  - # 19
    frequency:   14.9108089418
  - # 20
    frequency:   17.6067774583
  - # 21
    frequency:   17.6630951757
  - # 22
    frequency:   17.8442575548
  - # 23
    frequency:   39.2461367548
  - # 24
    frequency:   69.6033157723

- q-position: [    0.0454545,    0.0000000,    0.0000000 ]
  distance:    0.0160174
  band:
  - # 1
    frequency:   -0.9311719171
  - # 2
    frequency:   -0.5537757451
  - # 3
    frequency:   -0.1836690346
  - # 4
    frequency:    0.2582597881
  - # 5
    frequency:    0.4720288248
  - # 6
    frequency:    0.4999693833
  - # 7
    frequency:    0.8321708015
  - # 8
    frequency:    1.3617658129
  - # 9
    frequency:    3.5115171766
  - # 10
    frequency:    3.7300349767
  - # 11
    frequency:    5.7841470728
  - # 12
    frequency:    6.6401341273
  - # 13
    frequency:    6.7961387909
  - # 14
    frequency:   10.3426344276
  - # 15
    frequency:   12.6029143911
  - # 16
    frequency:   12.8930424970
  - # 17
    frequency:   14.0648622465
  - # 18
    frequency:   14.7574025394
  - # 19
    frequency:   14.9347992338
  - # 20
    frequency:   17.6010539152
  - # 21
    frequency:   17.6635629900
  - # 22
    frequency:   17.8615300674
  - # 23
    frequency:   39.2451801499
  - # 24
    frequency:   69.5827404515

- q-position: [    0.0505051,    0.0000000,    0.0000000 ]
  distance:    0.0177972
  band:
  - # 1
    frequency:   -1.0798282803
  - # 2
    frequency:   -0.6801269423
  - # 3
    frequency:   -0.1544438548
  - # 4
    frequency:    0.2955073429
  - # 5
    frequency:    0.5009574573
  - # 6
    frequency:    0.5684320211
  - # 7
    frequency:    0.8878063143
  - # 8
    frequency:    1.4970199014
  - # 9
    frequency:    3.5243126020
  - # 10
    frequency:    3.7895518749
  - # 11
    frequency:    5.7749633583
  - # 12
    frequency:    6.6427019825
  - # 13
    frequency:    6.8319129354
  - # 14
    frequency:   10.3280861446
  - # 15
    frequency:   12.5976318110
  - # 16
    frequency:   12.9397307929
  - # 17
    frequency:   14.0511169170
  - # 18
    frequency:   14.7520507544
  - # 19
    frequency:   14.9585533670
  - # 20
    frequency:   17.5965804834
  - # 21
    frequency:   17.6640887664
  - # 22
    frequency:   17.8792363856
  - # 23
    frequency:   39.2441178670
  - # 24
    frequency:   69.5598844366

- q-position: [    0.0555556,    0.0000000,    0.0000000 ]
  distance:    0.0195769
  band:
  - # 1
    frequency:   -1.2227611179
  - # 2
    frequency:   -0.7999605492
  - # 3
    frequency:   -0.1130799606
  - # 4
    frequency:    0.3367970752
  - # 5
    frequency:    0.5307051709
  - # 6
    frequency:    0.6360965938
  - # 7
    frequency:    0.9492727446
  - # 8
    frequency:    1.6336608326
  - # 9
    frequency:    3.5384628745
  - # 10
    frequency:    3.8536277015
  - # 11
    frequency:    5.7655363655
  - # 12
    frequency:    6.6455284067
  - # 13
    frequency:    6.8702653313
  - # 14
    frequency:   10.3120899788
  - # 15
    frequency:   12.5918532631
  - # 16
    frequency:   12.9831769732
  - # 17
    frequency:   14.0451572138
  - # 18
    frequency:   14.7461656011
  - # 19
    frequency:   14.9817889219
  - # 20
    frequency:   17.5935278028
  - # 21
    frequency:   17.6646733941
  - # 22
    frequency:   17.8973139735
  - # 23
    frequency:   39.2429521336
  - # 24
    frequency:   69.5347934399

- q-position: [    0.0606061,    0.0000000,    0.0000000 ]
  distance:    0.0213566
  band:
  - # 1
    frequency:   -1.3610321646
  - # 2
    frequency:   -0.9142985652
  - # 3
    frequency:   -0.0244275521
  - # 4
    frequency:    0.3816208828
  - # 5
    frequency:    0.5616730015
  - # 6
    frequency:    0.7026480705
  - # 7
    frequency:    1.0144713928
  - # 8
    frequency:    1.7710061447
  - # 9
    frequency:    3.5539679641
  - # 10
    frequency:    3.9218918163
  - # 11
    frequency:    5.7559868846
  - # 12
    frequency:    6.6486099537
  - # 13
    frequency:    6.9109773693
  - # 14
    frequency:   10.2946700932
  - # 15
    frequency:   12.5855967062
  - # 16
    frequency:   13.0206007838
  - # 17
    frequency:   14.0494246591
  - # 18
    frequency:   14.7397558968
  - # 19
    frequency:   15.0043071117
  - # 20
    frequency:   17.5920641427
  - # 21
    frequency:   17.6653178129
  - # 22
    frequency:   17.9157137087
  - # 23
    frequency:   39.2416853812
  - # 24
    frequency:   69.5075175002

- q-position: [    0.0656566,    0.0000000,    0.0000000 ]
  distance:    0.0231363
  band:
  - # 1
    frequency:   -1.4953364559
  - # 2
    frequency:   -1.0239974917
  - # 3
    frequency:    0.1127450954
  - # 4
    frequency:    0.4295769866
  - # 5
    frequency:    0.5937258997
  - # 6
    frequency:    0.7682545708
  - # 7
    frequency:    1.0821205917
  - # 8
    frequency:    1.9086094000
  - # 9
    frequency:    3.5708267969
  - # 10
    frequency:    3.9939822429
  - # 11
    frequency:    5.7464286789
  - # 12
    frequency:    6.6519428868
  - # 13
    frequency:    6.9538446788
  - # 14
    frequency:   10.2758528227
  - # 15
    frequency:   12.5788817617
  - # 16
    frequency:   13.0493447778
  - # 17
    frequency:   14.0661299716
  - # 18
    frequency:   14.7328312157
  - # 19
    frequency:   15.0259862656
  - # 20
    frequency:   17.5923593506
  - # 21
    frequency:   17.6660230012
  - # 22
    frequency:   17.9343957000
  - # 23
    frequency:   39.2403202370
  - # 24
    frequency:   69.4781108414

- q-position: [    0.0707071,    0.0000000,    0.0000000 ]
  distance:    0.0249160
  band:
  - # 1
    frequency:   -1.6261321819
  - # 2
    frequency:   -1.1297055222
  - # 3
    frequency:    0.1647604816
  - # 4
    frequency:    0.4803217168
  - # 5
    frequency:    0.6267229533
  - # 6
    frequency:    0.8330659613
  - # 7
    frequency:    1.1514157785
  - # 8
    frequency:    2.0461526993
  - # 9
    frequency:    3.5890370353
  - # 10
    frequency:    4.0695479001
  - # 11
    frequency:    5.7369710835
  - # 12
    frequency:    6.6555231901
  - # 13
    frequency:    6.9986776538
  - # 14
    frequency:   10.2556667431
  - # 15
    frequency:   12.5717296911
  - # 16
    frequency:   13.0673838513
  - # 17
    frequency:   14.0967481396
  - # 18
    frequency:   14.7254018671
  - # 19
    frequency:   15.0467819825
  - # 20
    frequency:   17.5945870173
  - # 21
    frequency:   17.6667899644
  - # 22
    frequency:   17.9533267840
  - # 23
    frequency:   39.2388595146
  - # 24
    frequency:   69.4466317188

- q-position: [    0.0757576,    0.0000000,    0.0000000 ]
  distance:    0.0266957
  band:
  - # 1
    frequency:   -1.7537215200
  - # 2
    frequency:   -1.2318964385
  - # 3
    frequency:    0.2066902909
  - # 4
    frequency:    0.5335428154
  - # 5
    frequency:    0.6605578638
  - # 6
    frequency:    0.8971936260
  - # 7
    frequency:    1.2218322972
  - # 8
    frequency:    2.1833913889
  - # 9
    frequency:    3.6085948637
  - # 10
    frequency:    4.1482491376
  - # 11
    frequency:    5.7277222108
  - # 12
    frequency:    6.6593465818
  - # 13
    frequency:    7.0453014671
  - # 14
    frequency:   10.2341427563
  - # 15
    frequency:   12.5641633686
  - # 16
    frequency:   13.0737712907
  - # 17
    frequency:   14.1415692911
  - # 18
    frequency:   14.7174788723
  - # 19
    frequency:   15.0667351153
  - # 20
    frequency:   17.5989254557
  - # 21
    frequency:   17.6676197218
  - # 22
    frequency:   17.9724790699
  - # 23
    frequency:   39.2373062055
  - # 24
    frequency:   69.4131422545

- q-position: [    0.0808081,    0.0000000,    0.0000000 ]
  distance:    0.0284755
  band:
  - # 1
    frequency:   -1.8783014206
  - # 2
    frequency:   -1.3309115390
  - # 3
    frequency:    0.2438275122
  - # 4
    frequency:    0.5889360732
  - # 5
    frequency:    0.6951711853
  - # 6
    frequency:    0.9607186048
  - # 7
    frequency:    1.2930141440
  - # 8
    frequency:    2.3201237166
  - # 9
    frequency:    3.6294947835
  - # 10
    frequency:    4.2297566191
  - # 11
    frequency:    5.7187927491
  - # 12
    frequency:    6.6634085285
  - # 13
    frequency:    7.0935557582
  - # 14
    frequency:   10.2113141912
  - # 15
    frequency:   12.5562072472
  - # 16
    frequency:   13.0687520477
  - # 17
    frequency:   14.1995724168
  - # 18
    frequency:   14.7090739395
  - # 19
    frequency:   15.0859897975
  - # 20
    frequency:   17.6055577703
  - # 21
    frequency:   17.6685132944
  - # 22
    frequency:   17.9918291936
  - # 23
    frequency:   39.2356634687
  - # 24
    frequency:   69.3777082620

- q-position: [    0.0858586,    0.0000000,    0.0000000 ]
  distance:    0.0302552
  band:
  - # 1
    frequency:   -1.9999962540
  - # 2
    frequency:   -1.4269943721
  - # 3
    frequency:    0.2781283080
  - # 4
    frequency:    0.6461657087
  - # 5
    frequency:    0.7305793338
  - # 6
    frequency:    1.0237000632
  - # 7
    frequency:    1.3647102830
  - # 8
    frequency:    2.4561731824
  - # 9
    frequency:    3.6517294206
  - # 10
    frequency:    4.3137485237
  - # 11
    frequency:    5.7103005043
  - # 12
    frequency:    6.6677042608
  - # 13
    frequency:    7.1432941134
  - # 14
    frequency:   10.1872169164
  - # 15
    frequency:   12.5478873174
  - # 16
    frequency:   13.0534854144
  - # 17
    frequency:   14.2686758945
  - # 18
    frequency:   14.7001994379
  - # 19
    frequency:   15.1048254042
  - # 20
    frequency:   17.6146711073
  - # 21
    frequency:   17.6694716916
  - # 22
    frequency:   18.0113581135
  - # 23
    frequency:   39.2339346218
  - # 24
    frequency:   69.3403990601

- q-position: [    0.0909091,    0.0000000,    0.0000000 ]
  distance:    0.0320349
  band:
  - # 1
    frequency:   -2.1188793476
  - # 2
    frequency:   -1.5203167554
  - # 3
    frequency:    0.3105603694
  - # 4
    frequency:    0.7047510963
  - # 5
    frequency:    0.7669796132
  - # 6
    frequency:    1.0861815811
  - # 7
    frequency:    1.4367371473
  - # 8
    frequency:    2.5913776977
  - # 9
    frequency:    3.6752893490
  - # 10
    frequency:    4.3999058907
  - # 11
    frequency:    5.7023760294
  - # 12
    frequency:    6.6722287907
  - # 13
    frequency:    7.1943834150
  - # 14
    frequency:   10.1618894674
  - # 15
    frequency:   12.5392310598
  - # 16
    frequency:   13.0295863038
  - # 17
    frequency:   14.3461495743
  - # 18
    frequency:   14.6908683706
  - # 19
    frequency:   15.1237085360
  - # 20
    frequency:   17.6264550370
  - # 21
    frequency:   17.6704958986
  - # 22
    frequency:   18.0310513848
  - # 23
    frequency:   39.2321231304
  - # 24
    frequency:   69.3012872783

- q-position: [    0.0959596,    0.0000000,    0.0000000 ]
  distance:    0.0338146
  band:
  - # 1
    frequency:   -2.2349875579
  - # 2
    frequency:   -1.6109976751
  - # 3
    frequency:    0.3416796856
  - # 4
    frequency:    0.7636044805
  - # 5
    frequency:    0.8052061718
  - # 6
    frequency:    1.1481956008
  - # 7
    frequency:    1.5089558465
  - # 8
    frequency:    2.7255825381
  - # 9
    frequency:    3.7001629341
  - # 10
    frequency:    4.4879057033
  - # 11
    frequency:    5.6951699451
  - # 12
    frequency:    6.6769769295
  - # 13
    frequency:    7.2467031026
  - # 14
    frequency:   10.1353731896
  - # 15
    frequency:   12.5302673882
  - # 16
    frequency:   12.9987331611
  - # 17
    frequency:   14.4289326838
  - # 18
    frequency:   14.6810943464
  - # 19
    frequency:   15.1433728414
  - # 20
    frequency:   17.6410989033
  - # 21
    frequency:   17.6715868633
  - # 22
    frequency:   18.0508999251
  - # 23
    frequency:   39.2302325983
  - # 24
    frequency:   69.2604486517

- q-position: [    0.1010101,    0.0000000,    0.0000000 ]
  distance:    0.0355943
  band:
  - # 1
    frequency:   -2.3483313682
  - # 2
    frequency:   -1.6991169362
  - # 3
    frequency:    0.3718366992
  - # 4
    frequency:    0.8189834090
  - # 5
    frequency:    0.8487726228
  - # 6
    frequency:    1.2097665878
  - # 7
    frequency:    1.5812578744
  - # 8
    frequency:    2.8586354561
  - # 9
    frequency:    3.7263361971
  - # 10
    frequency:    4.5774109159
  - # 11
    frequency:    5.6888629495
  - # 12
    frequency:    6.6819433071
  - # 13
    frequency:    7.3001443724
  - # 14
    frequency:   10.1077123987
  - # 15
    frequency:   12.5210265846
  - # 16
    frequency:   12.9624449617
  - # 17
    frequency:   14.5137505374
  - # 18
    frequency:   14.6708915505
  - # 19
    frequency:   15.1649313900
  - # 20
    frequency:   17.6587878634
  - # 21
    frequency:   17.6727454838
  - # 22
    frequency:   18.0709013631
  - # 23
    frequency:   39.2282667573
  - # 24
    frequency:   69.2179618088

- q-position: [    0.1060606,    0.0000000,    0.0000000 ]
  distance:    0.0373740
  band:
  - # 1
    frequency:   -2.4589020417
  - # 2
    frequency:   -1.7847250704
  - # 3
    frequency:    0.4012666194
  - # 4
    frequency:    0.8647503870
  - # 5
    frequency:    0.9036084335
  - # 6
    frequency:    1.2709133260
  - # 7
    frequency:    1.6535558804
  - # 8
    frequency:    2.9903830063
  - # 9
    frequency:    3.7537927023
  - # 10
    frequency:    4.6680560068
  - # 11
    frequency:    5.6836801415
  - # 12
    frequency:    6.6871223918
  - # 13
    frequency:    7.3546093253
  - # 14
    frequency:   10.0789545667
  - # 15
    frequency:   12.5115402258
  - # 16
    frequency:   12.9220020786
  - # 17
    frequency:   14.5970724754
  - # 18
    frequency:   14.6602747150
  - # 19
    frequency:   15.1900045882
  - # 20
    frequency:   17.6739725963
  - # 21
    frequency:   17.6796972086
  - # 22
    frequency:   18.0910621498
  - # 23
    frequency:   39.2262294568
  - # 24
    frequency:   69.1739080511

- q-position: [    0.1111111,    0.0000000,    0.0000000 ]
  distance:    0.0391537
  band:
  - # 1
    frequency:   -2.5666767922
  - # 2
    frequency:   -1.8678505982
  - # 3
    frequency:    0.4301345595
  - # 4
    frequency:    0.9046139773
  - # 5
    frequency:    0.9658145893
  - # 6
    frequency:    1.3316506413
  - # 7
    frequency:    1.7257775514
  - # 8
    frequency:    3.1206674919
  - # 9
    frequency:    3.7825134708
  - # 10
    frequency:    4.7594255932
  - # 11
    frequency:    5.6799123194
  - # 12
    frequency:    6.6925085110
  - # 13
    frequency:    7.4100100665
  - # 14
    frequency:   10.0491505387
  - # 15
    frequency:   12.5018410999
  - # 16
    frequency:   12.8784485172
  - # 17
    frequency:   14.6492590886
  - # 18
    frequency:   14.6750608748
  - # 19
    frequency:   15.2207765253
  - # 20
    frequency:   17.6752689630
  - # 21
    frequency:   17.7039844153
  - # 22
    frequency:   18.1114007416
  - # 23
    frequency:   39.2241246541
  - # 24
    frequency:   69.1283711257

- q-position: [    0.1161616,    0.0000000,    0.0000000 ]
  distance:    0.0409335
  band:
  - # 1
    frequency:   -2.6716225931
  - # 2
    frequency:   -1.9485054153
  - # 3
    frequency:    0.4585603047
  - # 4
    frequency:    0.9429619460
  - # 5
    frequency:    1.0308277389
  - # 6
    frequency:    1.3919907489
  - # 7
    frequency:    1.7978614568
  - # 8
    frequency:    3.2493241324
  - # 9
    frequency:    3.8124769173
  - # 10
    frequency:    4.8510219440
  - # 11
    frequency:    5.6779486231
  - # 12
    frequency:    6.6980958715
  - # 13
    frequency:    7.4662677501
  - # 14
    frequency:   10.0183547910
  - # 15
    frequency:   12.4919631132
  - # 16
    frequency:   12.8326269676
  - # 17
    frequency:   14.6378604061
  - # 18
    frequency:   14.7437803979
  - # 19
    frequency:   15.2597593603
  - # 20
    frequency:   17.6766352608
  - # 21
    frequency:   17.7317781858
  - # 22
    frequency:   18.1319523631
  - # 23
    frequency:   39.2219564037
  - # 24
    frequency:   69.0814369915

- q-position: [    0.1212121,    0.0000000,    0.0000000 ]
  distance:    0.0427132
  band:
  - # 1
    frequency:   -2.7736990332
  - # 2
    frequency:   -2.0266888373
  - # 3
    frequency:    0.4866328897
  - # 4
    frequency:    0.9809592826
  - # 5
    frequency:    1.0973198474
  - # 6
    frequency:    1.4519443644
  - # 7
    frequency:    1.8697541658
  - # 8
    frequency:    3.3761781396
  - # 9
    frequency:    3.8436588155
  - # 10
    frequency:    4.9422146073
  - # 11
    frequency:    5.6783275037
  - # 12
    frequency:    6.7038785800
  - # 13
    frequency:    7.5233115556
  - # 14
    frequency:    9.9866257431
  - # 15
    frequency:   12.4819411881
  - # 16
    frequency:   12.7852205256
  - # 17
    frequency:   14.6260948572
  - # 18
    frequency:   14.7999490022
  - # 19
    frequency:   15.3090105358
  - # 20
    frequency:   17.6780720708
  - # 21
    frequency:   17.7631634995
  - # 22
    frequency:   18.1527761730
  - # 23
    frequency:   39.2197288478
  - # 24
    frequency:   69.0331935803

- q-position: [    0.1262626,    0.0000000,    0.0000000 ]
  distance:    0.0444929
  band:
  - # 1
    frequency:   -2.8728604917
  - # 2
    frequency:   -2.1023906764
  - # 3
    frequency:    0.5144196625
  - # 4
    frequency:    1.0189206740
  - # 5
    frequency:    1.1648236706
  - # 6
    frequency:    1.5115216760
  - # 7
    frequency:    1.9414082091
  - # 8
    frequency:    3.5010414438
  - # 9
    frequency:    3.8760322865
  - # 10
    frequency:    5.0321621384
  - # 11
    frequency:    5.6818162498
  - # 12
    frequency:    6.7098506633
  - # 13
    frequency:    7.5810775755
  - # 14
    frequency:    9.9540261417
  - # 15
    frequency:   12.4718111510
  - # 16
    frequency:   12.7367902598
  - # 17
    frequency:   14.6139790565
  - # 18
    frequency:   14.8420155506
  - # 19
    frequency:   15.3690288187
  - # 20
    frequency:   17.6795798678
  - # 21
    frequency:   17.7981613262
  - # 22
    frequency:   18.1739661707
  - # 23
    frequency:   39.2174462056
  - # 24
    frequency:   68.9837305528

- q-position: [    0.1313131,    0.0000000,    0.0000000 ]
  distance:    0.0462726
  band:
  - # 1
    frequency:   -2.9690578222
  - # 2
    frequency:   -2.1755936107
  - # 3
    frequency:    0.5419721751
  - # 4
    frequency:    1.0569482843
  - # 5
    frequency:    1.2330931062
  - # 6
    frequency:    1.5707332559
  - # 7
    frequency:    2.0127806158
  - # 8
    frequency:    3.6237088234
  - # 9
    frequency:    3.9095678141
  - # 10
    frequency:    5.1196952819
  - # 11
    frequency:    5.6895299364
  - # 12
    frequency:    6.7160060871
  - # 13
    frequency:    7.6395075836
  - # 14
    frequency:    9.9206235382
  - # 15
    frequency:   12.4616096101
  - # 16
    frequency:   12.6878055881
  - # 17
    frequency:   14.6015300117
  - # 18
    frequency:   14.8705955911
  - # 19
    frequency:   15.4383004264
  - # 20
    frequency:   17.6811590108
  - # 21
    frequency:   17.8367010854
  - # 22
    frequency:   18.1956679891
  - # 23
    frequency:   39.2151127643
  - # 24
    frequency:   68.9331390508

- q-position: [    0.1363636,    0.0000000,    0.0000000 ]
  distance:    0.0480523
  band:
  - # 1
    frequency:   -3.0622396738
  - # 2
    frequency:   -2.2462750307
  - # 3
    frequency:    0.5693301545
  - # 4
    frequency:    1.0950763849
  - # 5
    frequency:    1.3019567998
  - # 6
    frequency:    1.6295909747
  - # 7