nqpoint: 300    
npath: 3      
segment_nqpoint:
- 100
- 100
- 100
labels:
- [ 'G', 'M' ]
- [ 'M', 'K' ]
- [ 'K', 'G' ]
reciprocal_lattice:
- [   0.28144145,   0.16249029,   0.00000000 ] # a*
- [   0.00000000,   0.32498059,   0.00000000 ] # b*
- [   0.00000000,   0.00000000,   0.03531874 ] # c*
natom: 9      
lattice:
- [     3.553136947045153,     0.000000000000000,     0.000000000000000 ] # a
- [    -1.776568473522576,     3.077106859263803,     0.000000000000000 ] # b
- [     0.000000000000000,     0.000000000000000,    28.313578777800977 ] # c
points:
- symbol: C # 1
  coordinates: [  0.333332985432215,  0.666666983183674,  0.640144355794958 ]
  mass: 12.010700
- symbol: C # 2
  coordinates: [  0.666666984744048,  0.333332985985145,  0.359855643814983 ]
  mass: 12.010700
- symbol: N # 3
  coordinates: [  0.000000000000000,  0.000000000000000,  0.500000026133931 ]
  mass: 14.006700
- symbol: N # 4
  coordinates: [  0.333332985432215,  0.666666983183674,  0.682131316898153 ]
  mass: 14.006700
- symbol: N # 5
  coordinates: [  0.666666984744048,  0.333332985985145,  0.317868683101847 ]
  mass: 14.006700
- symbol: O # 6
  coordinates: [  0.333332985432215,  0.666666983183674,  0.592951419518153 ]
  mass: 15.999400
- symbol: O # 7
  coordinates: [  0.666666984744048,  0.333332985985145,  0.407048580481847 ]
  mass: 15.999400
- symbol: Y # 8
  coordinates: [  0.333332985432215,  0.666666983183674,  0.453509938807593 ]
  mass: 88.905850
- symbol: Y # 9
  coordinates: [  0.666666984744048,  0.333332985985145,  0.546490060802342 ]
  mass: 88.905850

phonon:
- q-position: [    0.0000000,    0.0000000,    0.0000000 ]
  distance:    0.0000000
  band:
  - # 1
    frequency:   -1.8041572486
  - # 2
    frequency:   -1.8041572486
  - # 3
    frequency:   -1.4605703352
  - # 4
    frequency:   -1.4605703352
  - # 5
    frequency:   -0.0000079457
  - # 6
    frequency:    0.0000004729
  - # 7
    frequency:    0.0000034878
  - # 8
    frequency:    3.6883312676
  - # 9
    frequency:    3.6883312676
  - # 10
    frequency:    4.8196198243
  - # 11
    frequency:    6.2936602910
  - # 12
    frequency:    6.2936602910
  - # 13
    frequency:    6.5048014304
  - # 14
    frequency:    6.5048014304
  - # 15
    frequency:    7.5059052142
  - # 16
    frequency:    8.6079553289
  - # 17
    frequency:   11.5105121032
  - # 18
    frequency:   12.3235040979
  - # 19
    frequency:   12.3235040979
  - # 20
    frequency:   13.7830357041
  - # 21
    frequency:   13.7830357042
  - # 22
    frequency:   13.9317194412
  - # 23
    frequency:   13.9317194413
  - # 24
    frequency:   32.0127628850
  - # 25
    frequency:   32.0466309257
  - # 26
    frequency:   67.8583386273
  - # 27
    frequency:   67.8634797116

- q-position: [    0.0050505,    0.0000000,    0.0000000 ]
  distance:    0.0016413
  band:
  - # 1
    frequency:   -1.8050432610
  - # 2
    frequency:   -1.8044087744
  - # 3
    frequency:   -1.4625396741
  - # 4
    frequency:   -1.4617479158
  - # 5
    frequency:    0.0014253773
  - # 6
    frequency:    0.1299025294
  - # 7
    frequency:    0.1405125616
  - # 8
    frequency:    3.6880293319
  - # 9
    frequency:    3.6883053747
  - # 10
    frequency:    4.8193064110
  - # 11
    frequency:    6.2932309528
  - # 12
    frequency:    6.2935585989
  - # 13
    frequency:    6.5043656886
  - # 14
    frequency:    6.5050535491
  - # 15
    frequency:    7.5054112343
  - # 16
    frequency:    8.6067423244
  - # 17
    frequency:   11.5100916601
  - # 18
    frequency:   12.3221352445
  - # 19
    frequency:   12.3232555409
  - # 20
    frequency:   13.7830565664
  - # 21
    frequency:   13.7831018256
  - # 22
    frequency:   13.9317953295
  - # 23
    frequency:   13.9319094267
  - # 24
    frequency:   32.0122215175
  - # 25
    frequency:   32.0460866742
  - # 26
    frequency:   67.8580689219
  - # 27
    frequency:   67.8632104956

- q-position: [    0.0101010,    0.0000000,    0.0000000 ]
  distance:    0.0032826
  band:
  - # 1
    frequency:   -1.8076899497
  - # 2
    frequency:   -1.8052055696
  - # 3
    frequency:   -1.4680780619
  - # 4
    frequency:   -1.4649513801
  - # 5
    frequency:    0.0051446781
  - # 6
    frequency:    0.2582329480
  - # 7
    frequency:    0.2790252867
  - # 8
    frequency:    3.6871278256
  - # 9
    frequency:    3.6882285507
  - # 10
    frequency:    4.8183683491
  - # 11
    frequency:    6.2919495753
  - # 12
    frequency:    6.2932574351
  - # 13
    frequency:    6.5030540577
  - # 14
    frequency:    6.5058028597
  - # 15
    frequency:    7.5039308062
  - # 16
    frequency:    8.6031058618
  - # 17
    frequency:   11.5088304874
  - # 18
    frequency:   12.3180284967
  - # 19
    frequency:   12.3225082128
  - # 20
    frequency:   13.7831201120
  - # 21
    frequency:   13.7833037876
  - # 22
    frequency:   13.9320222466
  - # 23
    frequency:   13.9324767426
  - # 24
    frequency:   32.0105987998
  - # 25
    frequency:   32.0444553233
  - # 26
    frequency:   67.8572604429
  - # 27
    frequency:   67.8624034832

- q-position: [    0.0151515,    0.0000000,    0.0000000 ]
  distance:    0.0049239
  band:
  - # 1
    frequency:   -1.8120570013
  - # 2
    frequency:   -1.8066644948
  - # 3
    frequency:   -1.4762171414
  - # 4
    frequency:   -1.4692878012
  - # 5
    frequency:    0.0113293702
  - # 6
    frequency:    0.3836791865
  - # 7
    frequency:    0.4139155202
  - # 8
    frequency:    3.6856396345
  - # 9
    frequency:    3.6881033199
  - # 10
    frequency:    4.8168121423
  - # 11
    frequency:    6.2898354546
  - # 12
    frequency:    6.2927679518
  - # 13
    frequency:    6.5008538664
  - # 14
    frequency:    6.5070288625
  - # 15
    frequency:    7.5014684792
  - # 16
    frequency:    8.5970535921
  - # 17
    frequency:   11.5067290487
  - # 18
    frequency:   12.3111833953
  - # 19
    frequency:   12.3212571530
  - # 20
    frequency:   13.7832291908
  - # 21
    frequency:   13.7836521439
  - # 22
    frequency:   13.9323979682
  - # 23
    frequency:   13.9334136295
  - # 24
    frequency:   32.0078988826
  - # 25
    frequency:   32.0417410803
  - # 26
    frequency:   67.8559150999
  - # 27
    frequency:   67.8610605789

- q-position: [    0.0202020,    0.0000000,    0.0000000 ]
  distance:    0.0065653
  band:
  - # 1
    frequency:   -1.8180589332
  - # 2
    frequency:   -1.8089473349
  - # 3
    frequency:   -1.4857146313
  - # 4
    frequency:   -1.4735332424
  - # 5
    frequency:    0.0199875023
  - # 6
    frequency:    0.5053378292
  - # 7
    frequency:    0.5441304088
  - # 8
    frequency:    3.6835861816
  - # 9
    frequency:    3.6879337529
  - # 10
    frequency:    4.8146485300
  - # 11
    frequency:    6.2869188342
  - # 12
    frequency:    6.2921067764
  - # 13
    frequency:    6.4977458272
  - # 14
    frequency:    6.5086993829
  - # 15
    frequency:    7.4980318805
  - # 16
    frequency:    8.5885982604
  - # 17
    frequency:   11.5037880946
  - # 18
    frequency:   12.3015995148
  - # 19
    frequency:   12.3194941320
  - # 20
    frequency:   13.7833884650
  - # 21
    frequency:   13.7841637136
  - # 22
    frequency:   13.9329188479
  - # 23
    frequency:   13.9347076760
  - # 24
    frequency:   32.0041286683
  - # 25
    frequency:   32.0379509420
  - # 26
    frequency:   67.8540360681
  - # 27
    frequency:   67.8591849495

- q-position: [    0.0252525,    0.0000000,    0.0000000 ]
  distance:    0.0082066
  band:
  - # 1
    frequency:   -1.8255462053
  - # 2
    frequency:   -1.8122123896
  - # 3
    frequency:   -1.4953755526
  - # 4
    frequency:   -1.4763952032
  - # 5
    frequency:    0.0311209494
  - # 6
    frequency:    0.6227224373
  - # 7
    frequency:    0.6691639668
  - # 8
    frequency:    3.6809973443
  - # 9
    frequency:    3.6877252607
  - # 10
    frequency:    4.8118923377
  - # 11
    frequency:    6.2832384419
  - # 12
    frequency:    6.2912930252
  - # 13
    frequency:    6.4937068383
  - # 14
    frequency:    6.5107731439
  - # 15
    frequency:    7.4936317810
  - # 16
    frequency:    8.5777576968
  - # 17
    frequency:   11.5000086250
  - # 18
    frequency:   12.2892769614
  - # 19
    frequency:   12.3172077068
  - # 20
    frequency:   13.7836042818
  - # 21
    frequency:   13.7848605140
  - # 22
    frequency:   13.9335799042
  - # 23
    frequency:   13.9363425289
  - # 24
    frequency:   31.9992977900
  - # 25
    frequency:   32.0330946734
  - # 26
    frequency:   67.8516277769
  - # 27
    frequency:   67.8567810126

- q-position: [    0.0303030,    0.0000000,    0.0000000 ]
  distance:    0.0098479
  band:
  - # 1
    frequency:   -1.8342933228
  - # 2
    frequency:   -1.8165553281
  - # 3
    frequency:   -1.5042511176
  - # 4
    frequency:   -1.4767212361
  - # 5
    frequency:    0.0447297694
  - # 6
    frequency:    0.7356797297
  - # 7
    frequency:    0.7889135597
  - # 8
    frequency:    3.6779113377
  - # 9
    frequency:    3.6874843035
  - # 10
    frequency:    4.8085622703
  - # 11
    frequency:    6.2788387207
  - # 12
    frequency:    6.2903439886
  - # 13
    frequency:    6.4887140613
  - # 14
    frequency:    6.5132026847
  - # 15
    frequency:    7.4882821833
  - # 16
    frequency:    8.5645548062
  - # 17
    frequency:   11.4953918248
  - # 18
    frequency:   12.2742170458
  - # 19
    frequency:   12.3143833003
  - # 20
    frequency:   13.7838845034
  - # 21
    frequency:   13.7857684237
  - # 22
    frequency:   13.9343749352
  - # 23
    frequency:   13.9382987623
  - # 24
    frequency:   31.9934185797
  - # 25
    frequency:   32.0271847768
  - # 26
    frequency:   67.8486958945
  - # 27
    frequency:   67.8538544211

- q-position: [    0.0353535,    0.0000000,    0.0000000 ]
  distance:    0.0114892
  band:
  - # 1
    frequency:   -1.8440017169
  - # 2
    frequency:   -1.8219566092
  - # 3
    frequency:   -1.5117040030
  - # 4
    frequency:   -1.4736212843
  - # 5
    frequency:    0.0608118232
  - # 6
    frequency:    0.8442786190
  - # 7
    frequency:    0.9035194188
  - # 8
    frequency:    3.6743745589
  - # 9
    frequency:    3.6872180106
  - # 10
    frequency:    4.8046806504
  - # 11
    frequency:    6.2737671661
  - # 12
    frequency:    6.2892692592
  - # 13
    frequency:    6.4827505193
  - # 14
    frequency:    6.5159372093
  - # 15
    frequency:    7.4820004269
  - # 16
    frequency:    8.5490175590
  - # 17
    frequency:   11.4899389611
  - # 18
    frequency:   12.2564231126
  - # 19
    frequency:   12.3110033013
  - # 20
    frequency:   13.7842383007
  - # 21
    frequency:   13.7869157006
  - # 22
    frequency:   13.9352966542
  - # 23
    frequency:   13.9405548127
  - # 24
    frequency:   31.9865060293
  - # 25
    frequency:   32.0202364523
  - # 26
    frequency:   67.8452473077
  - # 27
    frequency:   67.8504120431

- q-position: [    0.0404040,    0.0000000,    0.0000000 ]
  distance:    0.0131305
  band:
  - # 1
    frequency:   -1.8543189047
  - # 2
    frequency:   -1.8282559340
  - # 3
    frequency:   -1.5173833148
  - # 4
    frequency:   -1.4665045746
  - # 5
    frequency:    0.0793617941
  - # 6
    frequency:    0.9487132679
  - # 7
    frequency:    1.0132396904
  - # 8
    frequency:    3.6704413880
  - # 9
    frequency:    3.6869337094
  - # 10
    frequency:    4.8002731041
  - # 11
    frequency:    6.2680720625
  - # 12
    frequency:    6.2880628707
  - # 13
    frequency:    6.4758126728
  - # 14
    frequency:    6.5189250672
  - # 15
    frequency:    7.4748073084
  - # 16
    frequency:    8.5311789839
  - # 17
    frequency:   11.4836512264
  - # 18
    frequency:   12.2359015084
  - # 19
    frequency:   12.3070471877
  - # 20
    frequency:   13.7846759190
  - # 21
    frequency:   13.7883314726
  - # 22
    frequency:   13.9363368393
  - # 23
    frequency:   13.9430878944
  - # 24
    frequency:   31.9785777428
  - # 25
    frequency:   32.0122675497
  - # 26
    frequency:   67.8412900977
  - # 27
    frequency:   67.8464619380

- q-position: [    0.0454545,    0.0000000,    0.0000000 ]
  distance:    0.0147718
  band:
  - # 1
    frequency:   -1.8648682054
  - # 2
    frequency:   -1.8351639647
  - # 3
    frequency:   -1.5211577170
  - # 4
    frequency:   -1.4550482664
  - # 5
    frequency:    0.1003700164
  - # 6
    frequency:    1.0492338023
  - # 7
    frequency:    1.1183701869
  - # 8
    frequency:    3.6661739388
  - # 9
    frequency:    3.6866383593
  - # 10
    frequency:    4.7953681986
  - # 11
    frequency:    6.2618007635
  - # 12
    frequency:    6.2866927173
  - # 13
    frequency:    6.4679207290
  - # 14
    frequency:    6.5221157171
  - # 15
    frequency:    7.4667272088
  - # 16
    frequency:    8.5110771661
  - # 17
    frequency:   11.4765295048
  - # 18
    frequency:   12.2126626723
  - # 19
    frequency:   12.3024916695
  - # 20
    frequency:   13.7852084234
  - # 21
    frequency:   13.7900443032
  - # 22
    frequency:   13.9374864902
  - # 23
    frequency:   13.9458748274
  - # 24
    frequency:   31.9696538792
  - # 25
    frequency:   32.0032985119
  - # 26
    frequency:   67.8368335118
  - # 27
    frequency:   67.8420133275

- q-position: [    0.0505051,    0.0000000,    0.0000000 ]
  distance:    0.0164132
  band:
  - # 1
    frequency:   -1.8752797166
  - # 2
    frequency:   -1.8423032960
  - # 3
    frequency:   -1.5230412639
  - # 4
    frequency:   -1.4391254084
  - # 5
    frequency:    0.1238212167
  - # 6
    frequency:    1.1461027688
  - # 7
    frequency:    1.2191994438
  - # 8
    frequency:    3.6616417497
  - # 9
    frequency:    3.6863378889
  - # 10
    frequency:    4.7899970354
  - # 11
    frequency:    6.2549985373
  - # 12
    frequency:    6.2850861517
  - # 13
    frequency:    6.4591328204
  - # 14
    frequency:    6.5254611461
  - # 15
    frequency:    7.4577882250
  - # 16
    frequency:    8.4887552527
  - # 17
    frequency:   11.4685740289
  - # 18
    frequency:   12.1867223463
  - # 19
    frequency:   12.2973108536
  - # 20
    frequency:   13.7858474318
  - # 21
    frequency:   13.7920809090
  - # 22
    frequency:   13.9387359851
  - # 23
    frequency:   13.9488927364
  - # 24
    frequency:   31.9597570889
  - # 25
    frequency:   31.9933523099
  - # 26
    frequency:   67.8318879309
  - # 27
    frequency:   67.8370765640

- q-position: [    0.0555556,    0.0000000,    0.0000000 ]
  distance:    0.0180545
  band:
  - # 1
    frequency:   -1.8852148194
  - # 2
    frequency:   -1.8492589031
  - # 3
    frequency:   -1.5231305709
  - # 4
    frequency:   -1.4187222610
  - # 5
    frequency:    0.1496932334
  - # 6
    frequency:    1.2395704345
  - # 7
    frequency:    1.3159868016
  - # 8
    frequency:    3.6569213994
  - # 9
    frequency:    3.6860364328
  - # 10
    frequency:    4.7841928049
  - # 11
    frequency:    6.2477079128
  - # 12
    frequency:    6.2831103632
  - # 13
    frequency:    6.4495644830
  - # 14
    frequency:    6.5289168042
  - # 15
    frequency:    7.4480222995
  - # 16
    frequency:    8.4642614657
  - # 17
    frequency:   11.4597838881
  - # 18
    frequency:   12.1581029148
  - # 19
    frequency:   12.2914764266
  - # 20
    frequency:   13.7866048433
  - # 21
    frequency:   13.7944650783
  - # 22
    frequency:   13.9400752325
  - # 23
    frequency:   13.9521195987
  - # 24
    frequency:   31.9489124403
  - # 25
    frequency:   31.9824543697
  - # 26
    frequency:   67.8264648334
  - # 27
    frequency:   67.8316630934

- q-position: [    0.0606061,    0.0000000,    0.0000000 ]
  distance:    0.0196958
  band:
  - # 1
    frequency:   -1.8943808615
  - # 2
    frequency:   -1.8556202826
  - # 3
    frequency:   -1.5215597015
  - # 4
    frequency:   -1.3938667622
  - # 5
    frequency:    0.1779557687
  - # 6
    frequency:    1.3298622236
  - # 7
    frequency:    1.4089539405
  - # 8
    frequency:    3.6520960310
  - # 9
    frequency:    3.6857354686
  - # 10
    frequency:    4.7779903054
  - # 11
    frequency:    6.2399684249
  - # 12
    frequency:    6.2805464967
  - # 13
    frequency:    6.4394145107
  - # 14
    frequency:    6.5324421484
  - # 15
    frequency:    7.4374653438
  - # 16
    frequency:    8.4376491253
  - # 17
    frequency:   11.4501563263
  - # 18
    frequency:   12.1268349049
  - # 19
    frequency:   12.2849578562
  - # 20
    frequency:   13.7874925676
  - # 21
    frequency:   13.7972168177
  - # 22
    frequency:   13.9414938140
  - # 23
    frequency:   13.9555346405
  - # 24
    frequency:   31.9371473399
  - # 25
    frequency:   31.9706324905
  - # 26
    frequency:   67.8205767552
  - # 27
    frequency:   67.8257854162

- q-position: [    0.0656566,    0.0000000,    0.0000000 ]
  distance:    0.0213371
  band:
  - # 1
    frequency:   -1.9025366292
  - # 2
    frequency:   -1.8610074175
  - # 3
    frequency:   -1.5184718189
  - # 4
    frequency:   -1.3645766314
  - # 5
    frequency:    0.2085692307
  - # 6
    frequency:    1.4171733287
  - # 7
    frequency:    1.4982836807
  - # 8
    frequency:    3.6472547602
  - # 9
    frequency:    3.6854328530
  - # 10
    frequency:    4.7714254351
  - # 11
    frequency:    6.2318166528
  - # 12
    frequency:    6.2770590197
  - # 13
    frequency:    6.4289957181
  - # 14
    frequency:    6.5360008987
  - # 15
    frequency:    7.4261573506
  - # 16
    frequency:    8.4089766824
  - # 17
    frequency:   11.4396857485
  - # 18
    frequency:   12.0929587120
  - # 19
    frequency:   12.2777226083
  - # 20
    frequency:   13.7885222606
  - # 21
    frequency:   13.8003517321
  - # 22
    frequency:   13.9429811140
  - # 23
    frequency:   13.9591185926
  - # 24
    frequency:   31.9244914441
  - # 25
    frequency:   31.9579167554
  - # 26
    frequency:   67.8142372462
  - # 27
    frequency:   67.8194570434

- q-position: [    0.0707071,    0.0000000,    0.0000000 ]
  distance:    0.0229784
  band:
  - # 1
    frequency:   -1.9094912141
  - # 2
    frequency:   -1.8650814423
  - # 3
    frequency:   -1.5140036038
  - # 4
    frequency:   -1.3308252852
  - # 5
    frequency:    0.2414837198
  - # 6
    frequency:    1.5016672474
  - # 7
    frequency:    1.5841224228
  - # 8
    frequency:    3.6424919394
  - # 9
    frequency:    3.6851217610
  - # 10
    frequency:    4.7645346589
  - # 11
    frequency:    6.2232864542
  - # 12
    frequency:    6.2721696379
  - # 13
    frequency:    6.4187613519
  - # 14
    frequency:    6.5395610961
  - # 15
    frequency:    7.4141424920
  - # 16
    frequency:    8.3783077597
  - # 17
    frequency:   11.4283623154
  - # 18
    frequency:   12.0565266556
  - # 19
    frequency:   12.2697363775
  - # 20
    frequency:   13.7897050725
  - # 21
    frequency:   13.8038806279
  - # 22
    frequency:   13.9445264351
  - # 23
    frequency:   13.9628538260
  - # 24
    frequency:   31.9109765646
  - # 25
    frequency:   31.9443394345
  - # 26
    frequency:   67.8074608238
  - # 27
    frequency:   67.8126924500

- q-position: [    0.0757576,    0.0000000,    0.0000000 ]
  distance:    0.0246197
  band:
  - # 1
    frequency:   -1.9150991210
  - # 2
    frequency:   -1.8675447302
  - # 3
    frequency:   -1.5082781049
  - # 4
    frequency:   -1.2925191526
  - # 5
    frequency:    0.2766382110
  - # 6
    frequency:    1.5834762617
  - # 7
    frequency:    1.6665842443
  - # 8
    frequency:    3.6379062444
  - # 9
    frequency:    3.6847895313
  - # 10
    frequency:    4.7573544585
  - # 11
    frequency:    6.2144093214
  - # 12
    frequency:    6.2652605163
  - # 13
    frequency:    6.4093024360
  - # 14
    frequency:    6.5430950332
  - # 15
    frequency:    7.4014691985
  - # 16
    frequency:    8.3457112003
  - # 17
    frequency:   11.4161699523
  - # 18
    frequency:   12.0176055337
  - # 19
    frequency:   12.2609633292
  - # 20
    frequency:   13.7910514104
  - # 21
    frequency:   13.8078093232
  - # 22
    frequency:   13.9461190983
  - # 23
    frequency:   13.9667243882
  - # 24
    frequency:   31.8966365656
  - # 25
    frequency:   31.9299348800
  - # 26
    frequency:   67.8002629227
  - # 27
    frequency:   67.8055070255

- q-position: [    0.0808081,    0.0000000,    0.0000000 ]
  distance:    0.0262611
  band:
  - # 1
    frequency:   -1.9192538295
  - # 2
    frequency:   -1.8681352278
  - # 3
    frequency:   -1.5014025665
  - # 4
    frequency:   -1.2494793430
  - # 5
    frequency:    0.3139599764
  - # 6
    frequency:    1.6627027000
  - # 7
    frequency:    1.7457556305
  - # 8
    frequency:    3.6335995442
  - # 9
    frequency:    3.6844164291
  - # 10
    frequency:    4.7499207669
  - # 11
    frequency:    6.2052148052
  - # 12
    frequency:    6.2556452265
  - # 13
    frequency:    6.4012776730
  - # 14
    frequency:    6.5465791062
  - # 15
    frequency:    7.3881902154
  - # 16
    frequency:    8.3112611216
  - # 17
    frequency:   11.4030835143
  - # 18
    frequency:   11.9762799334
  - # 19
    frequency:   12.2513663489
  - # 20
    frequency:   13.7925707197
  - # 21
    frequency:   13.8121386367
  - # 22
    frequency:   13.9477485277
  - # 23
    frequency:   13.9707159642
  - # 24
    frequency:   31.8815072556
  - # 25
    frequency:   31.9147394144
  - # 26
    frequency:   67.7926598426
  - # 27
    frequency:   67.7979170206

- q-position: [    0.0858586,    0.0000000,    0.0000000 ]
  distance:    0.0279024
  band:
  - # 1
    frequency:   -1.9218812017
  - # 2
    frequency:   -1.8666184783
  - # 3
    frequency:   -1.4934688800
  - # 4
    frequency:   -1.2014212324
  - # 5
    frequency:    0.3533642851
  - # 6
    frequency:    1.7394203165
  - # 7
    frequency:    1.8217003592
  - # 8
    frequency:    3.6296755147
  - # 9
    frequency:    3.6839743388
  - # 10
    frequency:    4.7422683932
  - # 11
    frequency:    6.1957309677
  - # 12
    frequency:    6.2427221994
  - # 13
    frequency:    6.3952611697
  - # 14
    frequency:    6.5499936216
  - # 15
    frequency:    7.3743626300
  - # 16
    frequency:    8.2750369710
  - # 17
    frequency:   11.3890647201
  - # 18
    frequency:   11.9326566880
  - # 19
    frequency:   12.2409072971
  - # 20
    frequency:   13.7942712868
  - # 21
    frequency:   13.8168645302
  - # 22
    frequency:   13.9494043211
  - # 23
    frequency:   13.9748157815
  - # 24
    frequency:   31.8656262722
  - # 25
    frequency:   31.8987912121
  - # 26
    frequency:   67.7846686930
  - # 27
    frequency:   67.7899394928

- q-position: [    0.0909091,    0.0000000,    0.0000000 ]
  distance:    0.0295437
  band:
  - # 1
    frequency:   -1.9229334685
  - # 2
    frequency:   -1.8627793212
  - # 3
    frequency:   -1.4845552266
  - # 4
    frequency:   -1.1479255135
  - # 5
    frequency:    0.3947544035
  - # 6
    frequency:    1.8136754110
  - # 7
    frequency:    1.8944643472
  - # 8
    frequency:    3.6262379552
  - # 9
    frequency:    3.6834254090
  - # 10
    frequency:    4.7344304397
  - # 11
    frequency:    6.1859848423
  - # 12
    frequency:    6.2261424793
  - # 13
    frequency:    6.3915762364
  - # 14
    frequency:    6.5533225769
  - # 15
    frequency:    7.3600478640
  - # 16
    frequency:    8.2371235826
  - # 17
    frequency:   11.3740562764
  - # 18
    frequency:   11.8868710686
  - # 19
    frequency:   12.2295472643
  - # 20
    frequency:   13.7961600653
  - # 21
    frequency:   13.8219783748
  - # 22
    frequency:   13.9510763070
  - # 23
    frequency:   13.9790124768
  - # 24
    frequency:   31.8490329609
  - # 25
    frequency:   31.8821301735
  - # 26
    frequency:   67.7763073348
  - # 27
    frequency:   67.7815922481

- q-position: [    0.0959596,    0.0000000,    0.0000000 ]
  distance:    0.0311850
  band:
  - # 1
    frequency:   -1.9223840883
  - # 2
    frequency:   -1.8564142149
  - # 3
    frequency:   -1.4747281119
  - # 4
    frequency:   -1.0883922814
  - # 5
    frequency:    0.4380219050
  - # 6
    frequency:    1.8854874625
  - # 7
    frequency:    1.9640804080
  - # 8
    frequency:    3.6233887740
  - # 9
    frequency:    3.6827206834
  - # 10
    frequency:    4.7264377121
  - # 11
    frequency:    6.1760028864
  - # 12
    frequency:    6.2058712326
  - # 13
    frequency:    6.3902358548
  - # 14
    frequency:    6.5565534245
  - # 15
    frequency:    7.3453116199
  - # 16
    frequency:    8.1976112309
  - # 17
    frequency:   11.3579733208
  - # 18
    frequency:   11.8390955883
  - # 19
    frequency:   12.2172468251
  - # 20
    frequency:   13.7982425286
  - # 21
    frequency:   13.8274673129
  - # 22
    frequency:   13.9527545901
  - # 23
    frequency:   13.9832959392
  - # 24
    frequency:   31.8317682490
  - # 25
    frequency:   31.8647977942
  - # 26
    frequency:   67.7675943213
  - # 27
    frequency:   67.7728937815

- q-position: [    0.1010101,    0.0000000,    0.0000000 ]
  distance:    0.0328263
  band:
  - # 1
    frequency:   -1.9202235233
  - # 2
    frequency:   -1.8473245136
  - # 3
    frequency:   -1.4640443868
  - # 4
    frequency:   -1.0219639814
  - # 5
    frequency:    0.4830472841
  - # 6
    frequency:    1.9548491233
  - # 7
    frequency:    2.0305729360
  - # 8
    frequency:    3.6212256237
  - # 9
    frequency:    3.6817987681
  - # 10
    frequency:    4.7183181240
  - # 11
    frequency:    6.1658114172
  - # 12
    frequency:    6.1821107822
  - # 13
    frequency:    6.3910220897
  - # 14
    frequency:    6.5596768251
  - # 15
    frequency:    7.3302237691
  - # 16
    frequency:    8.1565956827
  - # 17
    frequency:   11.3406909110
  - # 18
    frequency:   11.7895527019
  - # 19
    frequency:   12.2039662847
  - # 20
    frequency:   13.8005225497
  - # 21
    frequency:   13.8333146913
  - # 22
    frequency:   13.9544295867
  - # 23
    frequency:   13.9876571407
  - # 24
    frequency:   31.8138745135
  - # 25
    frequency:   31.8468370272
  - # 26
    frequency:   67.7585488359
  - # 27
    frequency:   67.7638632155

- q-position: [    0.1060606,    0.0000000,    0.0000000 ]
  distance:    0.0344676
  band:
  - # 1
    frequency:   -1.9164558598
  - # 2
    frequency:   -1.8353107036
  - # 3
    frequency:   -1.4525530725
  - # 4
    frequency:   -0.9473889821
  - # 5
    frequency:    0.5297008509
  - # 6
    frequency:    2.0217254408
  - # 7
    frequency:    2.0939625398
  - # 8
    frequency:    3.6198391884
  - # 9
    frequency:    3.6805846109
  - # 10
    frequency:    4.7100960970
  - # 11
    frequency:    6.1551734254
  - # 12
    frequency:    6.1554370273
  - # 13
    frequency:    6.3936162294
  - # 14
    frequency:    6.5626863885
  - # 15
    frequency:    7.3148581631
  - # 16
    frequency:    8.1141782492
  - # 17
    frequency:   11.3220258001
  - # 18
    frequency:   11.7385331702
  - # 19
    frequency:   12.1896659169
  - # 20
    frequency:   13.8030023099
  - # 21
    frequency:   13.8395005423
  - # 22
    frequency:   13.9560920518
  - # 23
    frequency:   13.9920879627
  - # 24
    frequency:   31.7953954449
  - # 25
    frequency:   31.8282921406
  - # 26
    frequency:   67.7491906291
  - # 27
    frequency:   67.7545202368

- q-position: [    0.1111111,    0.0000000,    0.0000000 ]
  distance:    0.0361090
  band:
  - # 1
    frequency:   -1.9110961494
  - # 2
    frequency:   -1.8201674482
  - # 3
    frequency:   -1.4402969291
  - # 4
    frequency:   -0.8627618075
  - # 5
    frequency:    0.5778438679
  - # 6
    frequency:    2.0860521649
  - # 7
    frequency:    2.1542706277
  - # 8
    frequency:    3.6193101620
  - # 9
    frequency:    3.6789885084
  - # 10
    frequency:    4.7017919567
  - # 11
    frequency:    6.1253905312
  - # 12
    frequency:    6.1449069748
  - # 13
    frequency:    6.3976931923
  - # 14
    frequency:    6.5655784038
  - # 15
    frequency:    7.2992923474
  - # 16
    frequency:    8.0704658429
  - # 17
    frequency:   11.3017103997
  - # 18
    frequency:   11.6864221951
  - # 19
    frequency:   12.1743061895
  - # 20
    frequency:   13.8056822381
  - # 21
    frequency:   13.8460020916
  - # 22
    frequency:   13.9577330995
  - # 23
    frequency:   13.9965810257
  - # 24
    frequency:   31.7763759066
  - # 25
    frequency:   31.8092085705
  - # 26
    frequency:   67.7395399538
  - # 27
    frequency:   67.7448850318

- q-position: [    0.1161616,    0.0000000,    0.0000000 ]
  distance:    0.0377503
  band:
  - # 1
    frequency:   -1.9041683424
  - # 2
    frequency:   -1.8016792154
  - # 3
    frequency:   -1.4273137648
  - # 4
    frequency:   -0.7649733809
  - # 5
    frequency:    0.6273298779
  - # 6
    frequency:    2.1477329565
  - # 7
    frequency:    2.2115239066
  - # 8
    frequency:    3.6197060014
  - # 9
    frequency:    3.6769055085
  - # 10
    frequency:    4.6934213303
  - # 11
    frequency:    6.0930754993
  - # 12
    frequency:    6.1342495453
  - # 13
    frequency:    6.4029626320
  - # 14
    frequency:    6.5683515564
  - # 15
    frequency:    7.2836071520
  - # 16
    frequency:    8.0255710518
  - # 17
    frequency:   11.2793574894
  - # 18
    frequency:   11.6337347699
  - # 19
    frequency:   12.1578479743
  - # 20
    frequency:   13.8085609810
  - # 21
    frequency:   13.8527942778
  - # 22
    frequency:   13.9593442181
  - # 23
    frequency:   14.0011295260
  - # 24
    frequency:   31.7568617902
  - # 25
    frequency:   31.7896327690
  - # 26
    frequency:   67.7296174994
  - # 27
    frequency:   67.7349782209

- q-position: [    0.1212121,    0.0000000,    0.0000000 ]
  distance:    0.0393916
  band:
  - # 1
    frequency:   -1.8957036939
  - # 2
    frequency:   -1.7796162209
  - # 3
    frequency:   -1.4136375096
  - # 4
    frequency:   -0.6483448832
  - # 5
    frequency:    0.6780061594
  - # 6
    frequency:    2.2066352595
  - # 7
    frequency:    2.2657586977
  - # 8
    frequency:    3.6210775972
  - # 9
    frequency:    3.6742154587
  - # 10
    frequency:    4.6849945538