nqpoint: 300    
npath: 3      
segment_nqpoint:
- 100
- 100
- 100
labels:
- [ 'G', 'M' ]
- [ 'M', 'K' ]
- [ 'K', 'G' ]
reciprocal_lattice:
- [   0.29665724,   0.17127514,   0.00000000 ] # a*
- [   0.00000000,   0.34255027,   0.00000000 ] # b*
- [   0.00000000,   0.00000000,   0.03819032 ] # c*
natom: 7      
lattice:
- [     3.370893669559118,     0.000000000000000,     0.000000000000000 ] # a
- [    -1.685446834779559,     2.919279551287105,     0.000000000000000 ] # b
- [     0.000000000000000,     0.000000000000000,    26.184644554368379 ] # c
points:
- symbol: C # 1
  coordinates: [  0.333332985432215,  0.666666983183674,  0.597076701637610 ]
  mass: 12.010700
- symbol: Cl # 2
  coordinates: [  0.666666984744047,  0.333332985985145,  0.343712895598521 ]
  mass: 35.453000
- symbol: Hf # 3
  coordinates: [  0.333332985432215,  0.666666983183674,  0.411769513631134 ]
  mass: 178.490000
- symbol: Hf # 4
  coordinates: [  0.666666984744047,  0.333332985985145,  0.498114349211529 ]
  mass: 178.490000
- symbol: N # 5
  coordinates: [  0.000000000000000,  0.000000000000000,  0.454611429509445 ]
  mass: 14.006700
- symbol: N # 6
  coordinates: [  0.333332985432215,  0.666666983183674,  0.548764802563145 ]
  mass: 14.006700
- symbol: S # 7
  coordinates: [  0.333332985432215,  0.666666983183674,  0.656287104401479 ]
  mass: 32.065000

phonon:
- q-position: [    0.0000000,    0.0000000,    0.0000000 ]
  distance:    0.0000000
  band:
  - # 1
    frequency:   -0.0000122683
  - # 2
    frequency:   -0.0000001553
  - # 3
    frequency:    0.0000102021
  - # 4
    frequency:    1.2443362502
  - # 5
    frequency:    1.2443362502
  - # 6
    frequency:    3.0540722012
  - # 7
    frequency:    3.0540722012
  - # 8
    frequency:    4.8021259418
  - # 9
    frequency:    5.2475314756
  - # 10
    frequency:    5.2475314756
  - # 11
    frequency:    6.8324172156
  - # 12
    frequency:    7.5155787985
  - # 13
    frequency:    7.5155787985
  - # 14
    frequency:    8.2397704115
  - # 15
    frequency:   13.1781963692
  - # 16
    frequency:   13.1781963692
  - # 17
    frequency:   14.1962751072
  - # 18
    frequency:   16.3289204334
  - # 19
    frequency:   16.3289204334
  - # 20
    frequency:   26.7346405367
  - # 21
    frequency:   54.5220418062

- q-position: [    0.0050505,    0.0000000,    0.0000000 ]
  distance:    0.0017301
  band:
  - # 1
    frequency:   -0.0260934070
  - # 2
    frequency:   -0.0180295163
  - # 3
    frequency:    0.0022348592
  - # 4
    frequency:    1.2459958147
  - # 5
    frequency:    1.2477794889
  - # 6
    frequency:    3.0541312494
  - # 7
    frequency:    3.0541810089
  - # 8
    frequency:    4.8018159522
  - # 9
    frequency:    5.2475777521
  - # 10
    frequency:    5.2484542361
  - # 11
    frequency:    6.8317349311
  - # 12
    frequency:    7.5154721499
  - # 13
    frequency:    7.5162110049
  - # 14
    frequency:    8.2393305145
  - # 15
    frequency:   13.1780328835
  - # 16
    frequency:   13.1783013359
  - # 17
    frequency:   14.1957307911
  - # 18
    frequency:   16.3288454668
  - # 19
    frequency:   16.3290493575
  - # 20
    frequency:   26.7343036852
  - # 21
    frequency:   54.5215785977

- q-position: [    0.0101010,    0.0000000,    0.0000000 ]
  distance:    0.0034601
  band:
  - # 1
    frequency:   -0.0515792626
  - # 2
    frequency:   -0.0347519579
  - # 3
    frequency:    0.0091068033
  - # 4
    frequency:    1.2509335219
  - # 5
    frequency:    1.2579982019
  - # 6
    frequency:    3.0543098282
  - # 7
    frequency:    3.0545056823
  - # 8
    frequency:    4.8008944260
  - # 9
    frequency:    5.2477172703
  - # 10
    frequency:    5.2512123321
  - # 11
    frequency:    6.8296990013
  - # 12
    frequency:    7.5151522073
  - # 13
    frequency:    7.5180937818
  - # 14
    frequency:    8.2380117900
  - # 15
    frequency:   13.1775443794
  - # 16
    frequency:   13.1786173306
  - # 17
    frequency:   14.1940986359
  - # 18
    frequency:   16.3286187765
  - # 19
    frequency:   16.3294339145
  - # 20
    frequency:   26.7332941451
  - # 21
    frequency:   54.5201899382

- q-position: [    0.0151515,    0.0000000,    0.0000000 ]
  distance:    0.0051902
  band:
  - # 1
    frequency:   -0.0758668968
  - # 2
    frequency:   -0.0491309336
  - # 3
    frequency:    0.0210824695
  - # 4
    frequency:    1.2590304968
  - # 5
    frequency:    1.2746766631
  - # 6
    frequency:    3.0546122041
  - # 7
    frequency:    3.0550409952
  - # 8
    frequency:    4.7993859906
  - # 9
    frequency:    5.2479520897
  - # 10
    frequency:    5.2557759220
  - # 11
    frequency:    6.8263414386
  - # 12
    frequency:    7.5146189819
  - # 13
    frequency:    7.5211864155
  - # 14
    frequency:    8.2358171353
  - # 15
    frequency:   13.1767366859
  - # 16
    frequency:   13.1791475975
  - # 17
    frequency:   14.1913810142
  - # 18
    frequency:   16.3282350231
  - # 19
    frequency:   16.3300674858
  - # 20
    frequency:   26.7316149554
  - # 21
    frequency:   54.5178787222

- q-position: [    0.0202020,    0.0000000,    0.0000000 ]
  distance:    0.0069202
  band:
  - # 1
    frequency:   -0.0983953317
  - # 2
    frequency:   -0.0606618217
  - # 3
    frequency:    0.0387547385
  - # 4
    frequency:    1.2701013155
  - # 5
    frequency:    1.2973402976
  - # 6
    frequency:    3.0550453689
  - # 7
    frequency:    3.0557783131
  - # 8
    frequency:    4.7973294855
  - # 9
    frequency:    5.2482856197
  - # 10
    frequency:    5.2620975243
  - # 11
    frequency:    6.8217131771
  - # 12
    frequency:    7.5138724975
  - # 13
    frequency:    7.5254236503
  - # 14
    frequency:    8.2327513724
  - # 15
    frequency:   13.1756194160
  - # 16
    frequency:   13.1798974088
  - # 17
    frequency:   14.1875818585
  - # 18
    frequency:   16.3276854147
  - # 19
    frequency:   16.3309391318
  - # 20
    frequency:   26.7292711654
  - # 21
    frequency:   54.5146497648

- q-position: [    0.0252525,    0.0000000,    0.0000000 ]
  distance:    0.0086503
  band:
  - # 1
    frequency:   -0.1186387823
  - # 2
    frequency:   -0.0694371881
  - # 3
    frequency:    0.0624706888
  - # 4
    frequency:    1.2839102025
  - # 5
    frequency:    1.3254156576
  - # 6
    frequency:    3.0556188668
  - # 7
    frequency:    3.0567057059
  - # 8
    frequency:    4.7947750522
  - # 9
    frequency:    5.2487225853
  - # 10
    frequency:    5.2701149974
  - # 11
    frequency:    6.8158808053
  - # 12
    frequency:    7.5129127990
  - # 13
    frequency:    7.5307192249
  - # 14
    frequency:    8.2288212383
  - # 15
    frequency:   13.1742058165
  - # 16
    frequency:   13.1808738641
  - # 17
    frequency:   14.1827066314
  - # 18
    frequency:   16.3269578646
  - # 19
    frequency:   16.3320337267
  - # 20
    frequency:   26.7262698128
  - # 21
    frequency:   54.5105097879

- q-position: [    0.0303030,    0.0000000,    0.0000000 ]
  distance:    0.0103803
  band:
  - # 1
    frequency:   -0.1361028021
  - # 2
    frequency:   -0.0758060327
  - # 3
    frequency:    0.0920161817
  - # 4
    frequency:    1.3001890710
  - # 5
    frequency:    1.3582889972
  - # 6
    frequency:    3.0563445627
  - # 7
    frequency:    3.0578081035
  - # 8
    frequency:    4.7917807408
  - # 9
    frequency:    5.2492689790
  - # 10
    frequency:    5.2797550242
  - # 11
    frequency:    6.8089226235
  - # 12
    frequency:    7.5117399643
  - # 13
    frequency:    7.5369701846
  - # 14
    frequency:    8.2240353717
  - # 15
    frequency:   13.1725125631
  - # 16
    frequency:   13.1820856123
  - # 17
    frequency:   14.1767622871
  - # 18
    frequency:   16.3260372083
  - # 19
    frequency:   16.3333321415
  - # 20
    frequency:   26.7226198919
  - # 21
    frequency:   54.5054674007

- q-position: [    0.0353535,    0.0000000,    0.0000000 ]
  distance:    0.0121104
  band:
  - # 1
    frequency:   -0.1503097081
  - # 2
    frequency:   -0.0798862609
  - # 3
    frequency:    0.1267152827
  - # 4
    frequency:    1.3186546737
  - # 5
    frequency:    1.3953529615
  - # 6
    frequency:    3.0572363613
  - # 7
    frequency:    3.0590674941
  - # 8
    frequency:    4.7884090798
  - # 9
    frequency:    5.2499319989
  - # 10
    frequency:    5.2909366504
  - # 11
    frequency:    6.8009244795
  - # 12
    frequency:    7.5103541202
  - # 13
    frequency:    7.5440615090
  - # 14
    frequency:    8.2184042976
  - # 15
    frequency:   13.1705595045
  - # 16
    frequency:   13.1835424976
  - # 17
    frequency:   14.1697572308
  - # 18
    frequency:   16.3249054745
  - # 19
    frequency:   16.3348114727
  - # 20
    frequency:   26.7183323131
  - # 21
    frequency:   54.4995330752

- q-position: [    0.0404040,    0.0000000,    0.0000000 ]
  distance:    0.0138404
  band:
  - # 1
    frequency:   -0.1607712528
  - # 2
    frequency:   -0.0813413366
  - # 3
    frequency:    0.1657642467
  - # 4
    frequency:    1.3390230102
  - # 5
    frequency:    1.4360376325
  - # 6
    frequency:    3.0583098885
  - # 7
    frequency:    3.0604631601
  - # 8
    frequency:    4.7847239683
  - # 9
    frequency:    5.2507199734
  - # 10
    frequency:    5.3035745122
  - # 11
    frequency:    6.7919757829
  - # 12
    frequency:    7.5087554635
  - # 13
    frequency:    7.5518706493
  - # 14
    frequency:    8.2119404095
  - # 15
    frequency:   13.1683693622
  - # 16
    frequency:   13.1852551319
  - # 17
    frequency:   14.1617012802
  - # 18
    frequency:   16.3235422056
  - # 19
    frequency:   16.3364453090
  - # 20
    frequency:   26.7134198548
  - # 21
    frequency:   54.4927191160

- q-position: [    0.0454545,    0.0000000,    0.0000000 ]
  distance:    0.0155705
  band:
  - # 1
    frequency:   -0.1669433032
  - # 2
    frequency:   -0.0793212940
  - # 3
    frequency:    0.2084414161
  - # 4
    frequency:    1.3610201519
  - # 5
    frequency:    1.4798271935
  - # 6
    frequency:    3.0595821459
  - # 7
    frequency:    3.0619719520
  - # 8
    frequency:    4.7807881072
  - # 9
    frequency:    5.2516422721
  - # 10
    frequency:    5.3175815279
  - # 11
    frequency:    6.7821659898
  - # 12
    frequency:    7.5069442862
  - # 13
    frequency:    7.5602716706
  - # 14
    frequency:    8.2046579516
  - # 15
    frequency:   13.1659673926
  - # 16
    frequency:   13.1872343979
  - # 17
    frequency:   14.1526056372
  - # 18
    frequency:   16.3219248198
  - # 19
    frequency:   16.3382040310
  - # 20
    frequency:   26.7078971066
  - # 21
    frequency:   54.4850396257

- q-position: [    0.0505051,    0.0000000,    0.0000000 ]
  distance:    0.0173005
  band:
  - # 1
    frequency:   -0.1681486660
  - # 2
    frequency:   -0.0721827066
  - # 3
    frequency:    0.2541562564
  - # 4
    frequency:    1.3843894729
  - # 5
    frequency:    1.5262658022
  - # 6
    frequency:    3.0610711528
  - # 7
    frequency:    3.0635685946
  - # 8
    frequency:    4.7766610547
  - # 9
    frequency:    5.2527092043
  - # 10
    frequency:    5.3328709655
  - # 11
    frequency:    6.7715817306
  - # 12
    frequency:    7.5049210076
  - # 13
    frequency:    7.5691388173
  - # 14
    frequency:    8.1965730023
  - # 15
    frequency:   13.1633810180
  - # 16
    frequency:   13.1894908830
  - # 17
    frequency:   14.1424828785
  - # 18
    frequency:   16.3200290105
  - # 19
    frequency:   16.3400551374
  - # 20
    frequency:   26.7017804048
  - # 21
    frequency:   54.4765104639

- q-position: [    0.0555556,    0.0000000,    0.0000000 ]
  distance:    0.0190306
  band:
  - # 1
    frequency:   -0.1634307010
  - # 2
    frequency:   -0.0560585530
  - # 3
    frequency:    0.3024339634
  - # 4
    frequency:    1.4088957835
  - # 5
    frequency:    1.5749565485
  - # 6
    frequency:    3.0627955846
  - # 7
    frequency:    3.0652260234
  - # 8
    frequency:    4.7723978865
  - # 9
    frequency:    5.2539319040
  - # 10
    frequency:    5.3493578970
  - # 11
    frequency:    6.7603046393
  - # 12
    frequency:    7.5026862116
  - # 13
    frequency:    7.5783494284
  - # 14
    frequency:    8.1877034599
  - # 15
    frequency:   13.1606394347
  - # 16
    frequency:   13.1920342469
  - # 17
    frequency:   14.1313469760
  - # 18
    frequency:   16.3178291725
  - # 19
    frequency:   16.3419635889
  - # 20
    frequency:   26.6950877605
  - # 21
    frequency:   54.4671492025

- q-position: [    0.0606061,    0.0000000,    0.0000000 ]
  distance:    0.0207606
  band:
  - # 1
    frequency:   -0.1512240381
  - # 2
    frequency:    0.0129358302
  - # 3
    frequency:    0.3528895823
  - # 4
    frequency:    1.4343270723
  - # 5
    frequency:    1.6255566373
  - # 6
    frequency:    3.0647744209
  - # 7
    frequency:    3.0669157471
  - # 8
    frequency:    4.7680483748
  - # 9
    frequency:    5.2553222030
  - # 10
    frequency:    5.3669601228
  - # 11
    frequency:    6.7484098623
  - # 12
    frequency:    7.5002406915
  - # 13
    frequency:    7.5877862106
  - # 14
    frequency:    8.1780690353
  - # 15
    frequency:   13.1577732058
  - # 16
    frequency:   13.1948725235
  - # 17
    frequency:   14.1192133598
  - # 18
    frequency:   16.3152988497
  - # 19
    frequency:   16.3438921648
  - # 20
    frequency:   26.6878387814
  - # 21
    frequency:   54.4569750757

- q-position: [    0.0656566,    0.0000000,    0.0000000 ]
  distance:    0.0224907
  band:
  - # 1
    frequency:   -0.1283958665
  - # 2
    frequency:    0.0707016456
  - # 3
    frequency:    0.4052060894
  - # 4
    frequency:    1.4604945666
  - # 5
    frequency:    1.6777709613
  - # 6
    frequency:    3.0670266116
  - # 7
    frequency:    3.0686082307
  - # 8
    frequency:    4.7636565768
  - # 9
    frequency:    5.2568924925
  - # 10
    frequency:    5.3855986727
  - # 11
    frequency:    6.7359651706
  - # 12
    frequency:    7.4975855012
  - # 13
    frequency:    7.5973389292
  - # 14
    frequency:    8.1676912521
  - # 15
    frequency:   13.1548138457
  - # 16
    frequency:   13.1980113547
  - # 17
    frequency:   14.1060990379
  - # 18
    frequency:   16.3124111941
  - # 19
    frequency:   16.3458018239
  - # 20
    frequency:   26.6800545865
  - # 21
    frequency:   54.4460089252

- q-position: [    0.0707071,    0.0000000,    0.0000000 ]
  distance:    0.0242207
  band:
  - # 1
    frequency:   -0.0856493179
  - # 2
    frequency:    0.1079450211
  - # 3
    frequency:    0.4591178043
  - # 4
    frequency:    1.4872317144
  - # 5
    frequency:    1.7313453796
  - # 6
    frequency:    3.0695707690
  - # 7
    frequency:    3.0702732960
  - # 8
    frequency:    4.7592607174
  - # 9
    frequency:    5.2586555737
  - # 10
    frequency:    5.4051979933
  - # 11
    frequency:    6.7230305747
  - # 12
    frequency:    7.4947220147
  - # 13
    frequency:    7.6069055981
  - # 14
    frequency:    8.1565934612
  - # 15
    frequency:   13.1517934052
  - # 16
    frequency:   13.2014531537
  - # 17
    frequency:   14.0920227924
  - # 18
    frequency:   16.3091394299
  - # 19
    frequency:   16.3476520638
  - # 20
    frequency:   26.6717577158
  - # 21
    frequency:   54.4342731413

- q-position: [    0.0757576,    0.0000000,    0.0000000 ]
  distance:    0.0259508
  band:
  - # 1
    frequency:    0.0690269475
  - # 2
    frequency:    0.1429930401
  - # 3
    frequency:    0.5143979777
  - # 4
    frequency:    1.5143925536
  - # 5
    frequency:    1.7860604023
  - # 6
    frequency:    3.0718805337
  - # 7
    frequency:    3.0724248933
  - # 8
    frequency:    4.7548932688
  - # 9
    frequency:    5.2606244994
  - # 10
    frequency:    5.4256859245
  - # 11
    frequency:    6.7096583345
  - # 12
    frequency:    7.4916519926
  - # 13
    frequency:    7.6163932581
  - # 14
    frequency:    8.1448008731
  - # 15
    frequency:   13.1487440628
  - # 16
    frequency:   13.2051961887
  - # 17
    frequency:   14.0770054726
  - # 18
    frequency:   16.3054573126
  - # 19
    frequency:   16.3494012723
  - # 20
    frequency:   26.6629720340
  - # 21
    frequency:   54.4217915997

- q-position: [    0.0808081,    0.0000000,    0.0000000 ]
  distance:    0.0276808
  band:
  - # 1
    frequency:    0.1412909627
  - # 2
    frequency:    0.1780995174
  - # 3
    frequency:    0.5708493993
  - # 4
    frequency:    1.5418497949
  - # 5
    frequency:    1.8417255938
  - # 6
    frequency:    3.0733997216
  - # 7
    frequency:    3.0756061372
  - # 8
    frequency:    4.7505811455
  - # 9
    frequency:    5.2628124070
  - # 10
    frequency:    5.4469935407
  - # 11
    frequency:    6.6958932668
  - # 12
    frequency:    7.4883776561
  - # 13
    frequency:    7.6257184174
  - # 14
    frequency:    8.1323406159
  - # 15
    frequency:   13.1456977284
  - # 16
    frequency:   13.2092335755
  - # 17
    frequency:   14.0610704117
  - # 18
    frequency:   16.3013395776
  - # 19
    frequency:   16.3510070659
  - # 20
    frequency:   26.6537226306
  - # 21
    frequency:   54.4085895941

- q-position: [    0.0858586,    0.0000000,    0.0000000 ]
  distance:    0.0294109
  band:
  - # 1
    frequency:    0.1958878569
  - # 2
    frequency:    0.2140551055
  - # 3
    frequency:    0.6282972027
  - # 4
    frequency:    1.5694928362
  - # 5
    frequency:    1.8981747752
  - # 6
    frequency:    3.0748012440
  - # 7
    frequency:    3.0791306142
  - # 8
    frequency:    4.7463459601
  - # 9
    frequency:    5.2652323451
  - # 10
    frequency:    5.4690549216
  - # 11
    frequency:    6.6817732630
  - # 12
    frequency:    7.4849017686
  - # 13
    frequency:    7.6348072191
  - # 14
    frequency:    8.1192418282
  - # 15
    frequency:   13.1426856676
  - # 16
    frequency:   13.2135521602
  - # 17
    frequency:   14.0442439998
  - # 18
    frequency:   16.2967623692
  - # 19
    frequency:   16.3524266105
  - # 20
    frequency:   26.6440357151
  - # 21
    frequency:   54.3946937651

- q-position: [    0.0909091,    0.0000000,    0.0000000 ]
  distance:    0.0311409
  band:
  - # 1
    frequency:    0.2450971068
  - # 2
    frequency:    0.2512151216
  - # 3
    frequency:    0.6865833073
  - # 4
    frequency:    1.5972258379
  - # 5
    frequency:    1.9552619896
  - # 6
    frequency:    3.0760565058
  - # 7
    frequency:    3.0830132571
  - # 8
    frequency:    4.7422042959
  - # 9
    frequency:    5.2678970954
  - # 10
    frequency:    5.4918068941
  - # 11
    frequency:    6.6673299464
  - # 12
    frequency:    7.4812277240
  - # 13
    frequency:    7.6435953774
  - # 14
    frequency:    8.1055357991
  - # 15
    frequency:   13.1397381475
  - # 16
    frequency:   13.2181312652
  - # 17
    frequency:   14.0265564515
  - # 18
    frequency:   16.2917036432
  - # 19
    frequency:   16.3536169205
  - # 20
    frequency:   26.6339385102
  - # 21
    frequency:   54.3801320257

- q-position: [    0.0959596,    0.0000000,    0.0000000 ]
  distance:    0.0328710
  band:
  - # 1
    frequency:    0.2897548723
  - # 2
    frequency:    0.2917488143
  - # 3
    frequency:    0.7455621059
  - # 4
    frequency:    1.6249659357
  - # 5
    frequency:    2.0128581329
  - # 6
    frequency:    3.0771383368
  - # 7
    frequency:    3.0872677320
  - # 8
    frequency:    4.7381679764
  - # 9
    frequency:    5.2708189920
  - # 10
    frequency:    5.5151887751
  - # 11
    frequency:    6.6525894130
  - # 12
    frequency:    7.4773596405
  - # 13
    frequency:    7.6520279078
  - # 14
    frequency:    8.0912561727
  - # 15
    frequency:   13.1368841129
  - # 16
    frequency:   13.2229412604
  - # 17
    frequency:   14.0080428176
  - # 18
    frequency:   16.2861435386
  - # 19
    frequency:   16.3545351341
  - # 20
    frequency:   26.6234591415
  - # 21
    frequency:   54.3649334826

- q-position: [    0.1010101,    0.0000000,    0.0000000 ]
  distance:    0.0346010
  band:
  - # 1
    frequency:    0.3297601219
  - # 2
    frequency:    0.3369472235
  - # 3
    frequency:    0.8050971149
  - # 4
    frequency:    1.6526416213
  - # 5
    frequency:    2.0708481371
  - # 6
    frequency:    3.0780213779
  - # 7
    frequency:    3.0919064172
  - # 8
    frequency:    4.7342443152
  - # 9
    frequency:    5.2740097401
  - # 10
    frequency:    5.5391421362
  - # 11
    frequency:    6.6375730120
  - # 12
    frequency:    7.4733024602
  - # 13
    frequency:    7.6600586574
  - # 14
    frequency:    8.0764392399
  - # 15
    frequency:   13.1341508925
  - # 16
    frequency:   13.2279419114
  - # 17
    frequency:   13.9887443017
  - # 18
    frequency:   16.2800647097
  - # 19
    frequency:   16.3551387620
  - # 20
    frequency:   26.6126265262
  - # 21
    frequency:   54.3491283560

- q-position: [    0.1060606,    0.0000000,    0.0000000 ]
  distance:    0.0363311
  band:
  - # 1
    frequency:    0.3712661920
  - # 2
    frequency:    0.3812153019
  - # 3
    frequency:    0.8650583758
  - # 4
    frequency:    1.6801913024
  - # 5
    frequency:    2.1291285863
  - # 6
    frequency:    3.0786824459
  - # 7
    frequency:    3.0969404596
  - # 8
    frequency:    4.7304363447
  - # 9
    frequency:    5.2774802371
  - # 10
    frequency:    5.5636105999
  - # 11
    frequency:    6.6222981335
  - # 12
    frequency:    7.4690620514
  - # 13
    frequency:    7.6676496228
  - # 14
    frequency:    8.0611243506
  - # 15
    frequency:   13.1315639397
  - # 16
    frequency:   13.2330804374
  - # 17
    frequency:   13.9687099540
  - # 18
    frequency:   16.2734526165
  - # 19
    frequency:   16.3553859092
  - # 20
    frequency:   26.6014702602
  - # 21
    frequency:   54.3327478945

- q-position: [    0.1111111,    0.0000000,    0.0000000 ]
  distance:    0.0380611
  band:
  - # 1
    frequency:    0.4142772558
  - # 2
    frequency:    0.4248256261
  - # 3
    frequency:    0.9253204471
  - # 4
    frequency:    1.7075620362
  - # 5
    frequency:    2.1876056526
  - # 6
    frequency:    3.0791008688
  - # 7
    frequency:    3.1023799271
  - # 8
    frequency:    4.7267430241
  - # 9
    frequency:    5.2812403984
  - # 10
    frequency:    5.5885396745
  - # 11
    frequency:    6.6067789767
  - # 12
    frequency:    7.4646453137
  - # 13
    frequency:    7.6747700214
  - # 14
    frequency:    8.0453544947
  - # 15
    frequency:   13.1291466100
  - # 16
    frequency:   13.2382891990
  - # 17
    frequency:   13.9479988313
  - # 18
    frequency:   16.2662957671
  - # 19
    frequency:   16.3552354682
  - # 20
    frequency:   26.5900205054
  - # 21
    frequency:   54.3158242891

- q-position: [    0.1161616,    0.0000000,    0.0000000 ]
  distance:    0.0397912
  band:
  - # 1
    frequency:    0.4587768409
  - # 2
    frequency:    0.4679271145
  - # 3
    frequency:    0.9857608625
  - # 4
    frequency:    1.7347084237
  - # 5
    frequency:    2.2461932402
  - # 6
    frequency:    3.0792587877
  - # 7
    frequency:    3.1082340848
  - # 8
    frequency:    4.7231594329
  - # 9
    frequency:    5.2852989903
  - # 10
    frequency:    5.6138766319
  - # 11
    frequency:    6.5910272826
  - # 12
    frequency:    7.4600602825
  - # 13
    frequency:    7.6813950550
  - # 14
    frequency:    8.0291771179
  - # 15
    frequency:   13.1269199753
  - # 16
    frequency:   13.2434829175
  - # 17
    frequency:   13.9266827259
  - # 18
    frequency:   16.2585859102
  - # 19
    frequency:   16.3546472859
  - # 20
    frequency:   26.5783078769
  - # 21
    frequency:   54.2983905841

- q-position: [    0.1212121,    0.0000000,    0.0000000 ]
  distance:    0.0415212
  band:
  - # 1
    frequency:    0.5047340124
  - # 2
    frequency:    0.5106023474
  - # 3
    frequency:    1.0462589581
  - # 4
    frequency:    1.7615916474
  - # 5
    frequency:    2.3048112290
  - # 6
    frequency:    3.0791414186
  - # 7
    frequency:    3.1145118385
  - # 8
    frequency:    4.7196769579
  - # 9
    frequency:    5.2896634730
  - # 10
    frequency:    5.6395704254
  - # 11
    frequency:    6.5750530145
  - # 12
    frequency:    7.4553162326
  - # 13
    frequency:    7.6875042714
  - # 14
    frequency:    8.0126452757
  - # 15
    frequency:   13.1249026758
  - # 16
    frequency:   13.2485553195
  - # 17
    frequency:   13.9048495721
  - # 18
    frequency:   16.2503181732
  - # 19
    frequency:   16.3535823036
  - # 20
    frequency:   26.5663633310
  - # 21
    frequency:   54.2804805855

- q-position: [    0.1262626,    0.0000000,    0.0000000 ]
  distance:    0.0432513
  band:
  - # 1
    frequency:    0.5521072571
  - # 2
    frequency:    0.5528965624
  - # 3
    frequency:    1.1066949947
  - # 4
    frequency:    1.7881786370
  - # 5
    frequency:    2.3633836981
  - # 6
    frequency:    3.0787372701
  - # 7
    frequency:    3.1212224067
  - # 8
    frequency:    4.7162834841
  - # 9
    frequency:    5.2943398565
  - # 10
    frequency:    5.6655716494
  - # 11
    frequency:    6.5588649788
  - # 12
    frequency:    7.4504237767
  - # 13
    frequency:    7.6930793776
  - # 14
    frequency:    7.9958192727
  - # 15
    frequency:   13.1231108101
  - # 16
    frequency:   13.2533751085
  - # 17
    frequency:   13.8826076288
  - # 18
    frequency:   16.2414911473
  - # 19
    frequency:   16.3520026725
  - # 20
    frequency:   26.5542180555
  - # 21
    frequency:   54.2621287684

- q-position: [    0.1313131,    0.0000000,    0.0000000 ]
  distance:    0.0449813
  band:
  - # 1
    frequency:    0.5948335664
  - # 2
    frequency:    0.6008470667
  - # 3
    frequency:    1.1669495141
  - # 4
    frequency:    1.8144413437
  - # 5
    frequency:    2.4218369889
  - # 6
    frequency:    3.0780383125
  - # 7
    frequency:    3.1283763198
  - # 8
    frequency:    4.7129636008
  - # 9
    frequency:    5.2993325707
  - # 10
    frequency:    5.6918325347
  - # 11
    frequency:    6.5424713780
  - # 12
    frequency:    7.4453949583
  - # 13
    frequency:    7.6981012846
  - # 14
    frequency:    7.9787690096
  - # 15
    frequency:   13.1215578613
  - # 16
    frequency:   13.2577812146
  - # 17
    frequency:   13.8600904871
  - # 18
    frequency:   16.2321069151
  - # 19
    frequency:   16.3498718469
  - # 20
    frequency:   26.5419033613
  - # 21
    frequency:   54.2433701824

- q-position: [    0.1363636,    0.0000000,    0.0000000 ]
  distance:    0.0467114
  band:
  - # 1
    frequency:    0.6364250260
  - # 2
    frequency:    0.6508977416
  - # 3
    frequency:    1.2269028851
  - # 4
    frequency:    1.8403561105
  - # 5
    frequency:    2.4800974262
  - # 6
    frequency:    3.0770400947
  - # 7
    frequency:    3.1359868927
  - # 8
    frequency:    4.7096988326
  - # 9
    frequency:    5.3046443533
  - # 10
    frequency:    5.7183069759
  - # 11
    frequency:    6.5258802934
  - # 12
    frequency:    7.4402433353
  - # 13
    frequency:    7.7025460586
  - # 14
    frequency:    7.9615773656
  - # 15
    frequency:   13.1202546593
  - # 16
    frequency:   13.2615773979
  - # 17
    frequency:   13.8374628204
  - # 18
    frequency:   16.2221710246
  - # 19
    frequency:   16.3471546575
  - # 20
    frequency:   26.5294505766
  - # 21
    frequency:   54.2242403557

- q-position: [    0.1414141,    0.0000000,    0.0000000 ]
  distance:    0.0484415
  band:
  - # 1
    frequency:    0.6776761652
  - # 2
    frequency:    0.7021987035
  - # 3
    frequency:    1.2864350019
  - # 4
    frequency:    1.8659031216
  - # 5
    frequency:    2.5380884396
  - # 6
    frequency:    3.0757418065
  - # 7
    frequency:    3.1440724020
  - # 8
    frequency:    4.7064679083
  - # 9
    frequency:    5.3102761567
  - # 10
    frequency:    5.7449505835
  - # 11
    frequency:    6.5091000970
  - # 12
    frequency:    7.4349840519
  - # 13
    frequency:    7.7063793067
  - # 14
    frequency:    7.9443450900
  - # 15
    frequency:   13.1192093766
  - # 16
    frequency:   13.2645265513
  - # 17
    frequency:   13.8149265283
  - # 18
    frequency:   16.2116924078
  - # 19
    frequency:   16.3438173673
  - # 20
    frequency:   26.5168909445
  - # 21
    frequency:   54.2047751981

- q-position: [    0.1464646,    0.0000000,    0.0000000 ]
  distance:    0.0501715
  band:
  - # 1
    frequency:    0.7185893982
  - # 2
    frequency:    0.7546854848
  - # 3
    frequency:    1.3454251071
  - # 4
    frequency:    1.8910659219
  - # 5
    frequency:    2.5957267028
  - # 6
    frequency:    3.0741462843
  - # 7
    frequency:    3.1526593321
  - # 8
    frequency:    4.7032470765
  - # 9
    frequency:    5.3162270748
  - # 10
    frequency:    5.7717207499
  - # 11
    frequency:    6.4921397971
  - # 12
    frequency:    7.4296338971
  - # 13
    frequency:    7.7095483516
  - # 14
    frequency:    7.9271978496
  - # 15
    frequency:   13.1184275553
  - # 16
    frequency:   13.2663455341
  - # 17
    frequency:   13.7927264337
  - # 18
    frequency:   16.2006832485
  - # 19
    frequency:   16.3398277140
  - # 20
    frequency:   26.5042555236
  - # 21
    frequency:   54.1850109034

- q-position: [    0.1515152,    0.0000000,    0.0000000 ]
  distance:    0.0519016
  band:
  - # 1
    frequency:    0.7591667140
  - # 2
    frequency:    0.8082904951
  - # 3
    frequency:    1.4037517161
  - # 4
    frequency:    1.9158309935
  - # 5
    frequency:    2.6529166924
  - # 6
    frequency:    3.0722599612
  - # 7
    frequency:    3.1617872753
  - # 8
    frequency:    4.7000104786
  - # 9
    frequency:    5.3224942924
  - # 10
    frequency:    5.7985767151
  - # 11
    frequency:    6.4750093266
  - # 12
    frequency:    7.4242113465
  - # 13
    frequency:    7.7119714366
  - # 14
    frequency:    7.9102961950
  - # 15
    frequency:   13.1179121631
  - # 16
    frequency:   13.2667021568
  - # 17
    frequency:   13.7711539021
  - # 18
    frequency:   16.1891588004
  - # 19
    frequency:   16.3351549418
  - # 20
    frequency:   26.4915750916
  - # 21