nqpoint: 300    
npath: 3      
segment_nqpoint:
- 100
- 100
- 100
labels:
- [ 'G', 'M' ]
- [ 'M', 'K' ]
- [ 'K', 'G' ]
reciprocal_lattice:
- [   0.30451698,   0.17581296,   0.00000000 ] # a*
- [   0.00000000,   0.35162592,   0.00000000 ] # b*
- [   0.00000000,   0.00000000,   0.03915450 ] # c*
natom: 7      
lattice:
- [     3.283889155928359,     0.000000000000000,     0.000000000000000 ] # a
- [    -1.641944577964179,     2.843931432239960,     0.000000000000000 ] # b
- [     0.000000000000000,     0.000000000000000,    25.539849842914542 ] # c
points:
- symbol: N # 1
  coordinates: [  0.000000000000000,  0.000000000000000,  0.500000033917832 ]
  mass: 14.006700
- symbol: N # 2
  coordinates: [  0.333332985432215,  0.666666983183674,  0.596658854120045 ]
  mass: 14.006700
- symbol: N # 3
  coordinates: [  0.666666984744047,  0.333332985985145,  0.403341145879956 ]
  mass: 14.006700
- symbol: O # 4
  coordinates: [  0.333332985432215,  0.666666983183674,  0.647609517857175 ]
  mass: 15.999400
- symbol: O # 5
  coordinates: [  0.666666984744047,  0.333332985985145,  0.352390482142825 ]
  mass: 15.999400
- symbol: Sc # 6
  coordinates: [  0.333332985432215,  0.666666983183674,  0.449638424888012 ]
  mass: 44.955912
- symbol: Sc # 7
  coordinates: [  0.666666984744047,  0.333332985985145,  0.550361574605743 ]
  mass: 44.955912

phonon:
- q-position: [    0.0000000,    0.0000000,    0.0000000 ]
  distance:    0.0000000
  band:
  - # 1
    frequency:   -0.0000012649
  - # 2
    frequency:    0.0000004544
  - # 3
    frequency:    0.0000012247
  - # 4
    frequency:    3.1550452719
  - # 5
    frequency:    3.1550452719
  - # 6
    frequency:    4.0577267232
  - # 7
    frequency:    4.4787293150
  - # 8
    frequency:    4.4787293150
  - # 9
    frequency:    4.8573598779
  - # 10
    frequency:    4.8573598779
  - # 11
    frequency:    6.2748504875
  - # 12
    frequency:    7.3413778882
  - # 13
    frequency:    7.3413778882
  - # 14
    frequency:    9.1497547602
  - # 15
    frequency:    9.1497547602
  - # 16
    frequency:   10.5581443834
  - # 17
    frequency:   10.5581443834
  - # 18
    frequency:   10.7809613264
  - # 19
    frequency:   14.1701407769
  - # 20
    frequency:   42.3811791713
  - # 21
    frequency:   42.6070869709

- q-position: [    0.0050505,    0.0000000,    0.0000000 ]
  distance:    0.0017759
  band:
  - # 1
    frequency:   -0.0684902824
  - # 2
    frequency:    0.0721273014
  - # 3
    frequency:    0.1141107965
  - # 4
    frequency:    3.1546108285
  - # 5
    frequency:    3.1552635072
  - # 6
    frequency:    4.0599889481
  - # 7
    frequency:    4.4779383861
  - # 8
    frequency:    4.4781015256
  - # 9
    frequency:    4.8571673380
  - # 10
    frequency:    4.8593776246
  - # 11
    frequency:    6.2752000676
  - # 12
    frequency:    7.3414108466
  - # 13
    frequency:    7.3430323139
  - # 14
    frequency:    9.1487864604
  - # 15
    frequency:    9.1491186068
  - # 16
    frequency:   10.5454045380
  - # 17
    frequency:   10.5585106966
  - # 18
    frequency:   10.7952302764
  - # 19
    frequency:   14.1698611873
  - # 20
    frequency:   42.3804556277
  - # 21
    frequency:   42.6062822855

- q-position: [    0.0101010,    0.0000000,    0.0000000 ]
  distance:    0.0035518
  band:
  - # 1
    frequency:   -0.1370813183
  - # 2
    frequency:    0.1440665402
  - # 3
    frequency:    0.2280946008
  - # 4
    frequency:    3.1533054503
  - # 5
    frequency:    3.1559851649
  - # 6
    frequency:    4.0666777600
  - # 7
    frequency:    4.4756400201
  - # 8
    frequency:    4.4762126536
  - # 9
    frequency:    4.8565970436
  - # 10
    frequency:    4.8653976950
  - # 11
    frequency:    6.2762474220
  - # 12
    frequency:    7.3415111100
  - # 13
    frequency:    7.3479874551
  - # 14
    frequency:    9.1458690500
  - # 15
    frequency:    9.1472119753
  - # 16
    frequency:   10.5139831427
  - # 17
    frequency:   10.5596085930
  - # 18
    frequency:   10.8312469788
  - # 19
    frequency:   14.1690233833
  - # 20
    frequency:   42.3782861505
  - # 21
    frequency:   42.6038692543

- q-position: [    0.0151515,    0.0000000,    0.0000000 ]
  distance:    0.0053277
  band:
  - # 1
    frequency:   -0.2058515665
  - # 2
    frequency:    0.2156292316
  - # 3
    frequency:    0.3418239480
  - # 4
    frequency:    3.1511230536
  - # 5
    frequency:    3.1574019738
  - # 6
    frequency:    4.0775062805
  - # 7
    frequency:    4.4720473834
  - # 8
    frequency:    4.4730467962
  - # 9
    frequency:    4.8556705976
  - # 10
    frequency:    4.8753310640
  - # 11
    frequency:    6.2779884230
  - # 12
    frequency:    7.3416826045
  - # 13
    frequency:    7.3562189338
  - # 14
    frequency:    9.1409654390
  - # 15
    frequency:    9.1440404045
  - # 16
    frequency:   10.4738392550
  - # 17
    frequency:   10.5614349488
  - # 18
    frequency:   10.8790760596
  - # 19
    frequency:   14.1676302543
  - # 20
    frequency:   42.3746741960
  - # 21
    frequency:   42.5998509497

- q-position: [    0.0202020,    0.0000000,    0.0000000 ]
  distance:    0.0071036
  band:
  - # 1
    frequency:   -0.2748371446
  - # 2
    frequency:    0.2866260305
  - # 3
    frequency:    0.4551704170
  - # 4
    frequency:    3.1480537019
  - # 5
    frequency:    3.1598051278
  - # 6
    frequency:    4.0920169846
  - # 7
    frequency:    4.4674869027
  - # 8
    frequency:    4.4685794564
  - # 9
    frequency:    4.8544227627
  - # 10
    frequency:    4.8890594432
  - # 11
    frequency:    6.2804162884
  - # 12
    frequency:    7.3419310859
  - # 13
    frequency:    7.3676862140
  - # 14
    frequency:    9.1340153171
  - # 15
    frequency:    9.1396133012
  - # 16
    frequency:   10.4304576686
  - # 17
    frequency:   10.5639845789
  - # 18
    frequency:   10.9332711722
  - # 19
    frequency:   14.1656866006
  - # 20
    frequency:   42.3696255102
  - # 21
    frequency:   42.5942324852

- q-position: [    0.0252525,    0.0000000,    0.0000000 ]
  distance:    0.0088794
  band:
  - # 1
    frequency:   -0.3440160059
  - # 2
    frequency:    0.3568662626
  - # 3
    frequency:    0.5680041260
  - # 4
    frequency:    3.1440839188
  - # 5
    frequency:    3.1635491725
  - # 6
    frequency:    4.1096072640
  - # 7
    frequency:    4.4623684198
  - # 8
    frequency:    4.4627804861
  - # 9
    frequency:    4.8528996232
  - # 10
    frequency:    4.9064667569
  - # 11
    frequency:    6.2835217251
  - # 12
    frequency:    7.3422629988
  - # 13
    frequency:    7.3823327353
  - # 14
    frequency:    9.1249375150
  - # 15
    frequency:    9.1339441969
  - # 16
    frequency:   10.3863390820
  - # 17
    frequency:   10.5672502678
  - # 18
    frequency:   10.9913831868
  - # 19
    frequency:   14.1631991102
  - # 20
    frequency:   42.3631481065
  - # 21
    frequency:   42.5870210054

- q-position: [    0.0303030,    0.0000000,    0.0000000 ]
  distance:    0.0106553
  band:
  - # 1
    frequency:   -0.4132977896
  - # 2
    frequency:    0.4261574093
  - # 3
    frequency:    0.6801931993
  - # 4
    frequency:    3.1391971450
  - # 5
    frequency:    3.1690118423
  - # 6
    frequency:    4.1295570571
  - # 7
    frequency:    4.4556180435
  - # 8
    frequency:    4.4571613548
  - # 9
    frequency:    4.8511560784
  - # 10
    frequency:    4.9274646416
  - # 11
    frequency:    6.2872931238
  - # 12
    frequency:    7.3426839536
  - # 13
    frequency:    7.4000860797
  - # 14
    frequency:    9.1136334909
  - # 15
    frequency:    9.1270510983
  - # 16
    frequency:   10.3427005270
  - # 17
    frequency:   10.5712228120
  - # 18
    frequency:   11.0522572709
  - # 19
    frequency:   14.1601763253
  - # 20
    frequency:   42.3552522360
  - # 21
    frequency:   42.5782256711

- q-position: [    0.0353535,    0.0000000,    0.0000000 ]
  distance:    0.0124312
  band:
  - # 1
    frequency:   -0.4825200954
  - # 2
    frequency:    0.4943045310
  - # 3
    frequency:    0.7916031982
  - # 4
    frequency:    3.1333743594
  - # 5
    frequency:    3.1765559852
  - # 6
    frequency:    4.1510550460
  - # 7
    frequency:    4.4470633597
  - # 8
    frequency:    4.4523816841
  - # 9
    frequency:    4.8492527866
  - # 10
    frequency:    4.9520059270
  - # 11
    frequency:    6.2917168007
  - # 12
    frequency:    7.3431968953
  - # 13
    frequency:    7.4208581491
  - # 14
    frequency:    9.0999920681
  - # 15
    frequency:    9.1189569199
  - # 16
    frequency:   10.3002136767
  - # 17
    frequency:   10.5758910745
  - # 18
    frequency:   11.1152911157
  - # 19
    frequency:   14.1566286011
  - # 20
    frequency:   42.3459503480
  - # 21
    frequency:   42.5678576406

- q-position: [    0.0404040,    0.0000000,    0.0000000 ]
  distance:    0.0142071
  band:
  - # 1
    frequency:   -0.5514511386
  - # 2
    frequency:    0.5611096136
  - # 3
    frequency:    0.9020965169
  - # 4
    frequency:    3.1265948967
  - # 5
    frequency:    3.1864978914
  - # 6
    frequency:    4.1732237025
  - # 7
    frequency:    4.4370960103
  - # 8
    frequency:    4.4485875714
  - # 9
    frequency:    4.8472527437
  - # 10
    frequency:    4.9800851507
  - # 11
    frequency:    6.2967772796
  - # 12
    frequency:    7.3438000516
  - # 13
    frequency:    7.4445453222
  - # 14
    frequency:    9.0838955057
  - # 15
    frequency:    9.1096899855
  - # 16
    frequency:   10.2592991783
  - # 17
    frequency:   10.5812420481
  - # 18
    frequency:   11.1801360801
  - # 19
    frequency:   14.1525680530
  - # 20
    frequency:   42.3352570438
  - # 21
    frequency:   42.5559300471

- q-position: [    0.0454545,    0.0000000,    0.0000000 ]
  distance:    0.0159830
  band:
  - # 1
    frequency:   -0.6197979891
  - # 2
    frequency:    0.6263708268
  - # 3
    frequency:    1.0115317445
  - # 4
    frequency:    3.1188375010
  - # 5
    frequency:    3.1990842655
  - # 6
    frequency:    4.1951495306
  - # 7
    frequency:    4.4257092929
  - # 8
    frequency:    4.4463741988
  - # 9
    frequency:    4.8452177618
  - # 10
    frequency:    5.0117283219
  - # 11
    frequency:    6.3024576092
  - # 12
    frequency:    7.3444847589
  - # 13
    frequency:    7.4710285388
  - # 14
    frequency:    9.0652268823
  - # 15
    frequency:    9.0992845836
  - # 16
    frequency:   10.2202491536
  - # 17
    frequency:   10.5872609292
  - # 18
    frequency:   11.2465691445
  - # 19
    frequency:   14.1480084952
  - # 20
    frequency:   42.3231890220
  - # 21
    frequency:   42.5424579722

- q-position: [    0.0505051,    0.0000000,    0.0000000 ]
  distance:    0.0177589
  band:
  - # 1
    frequency:   -0.6872189939
  - # 2
    frequency:    0.6898816814
  - # 3
    frequency:    1.1197630035
  - # 4
    frequency:    3.1100816681
  - # 5
    frequency:    3.2144783451
  - # 6
    frequency:    4.2159331277
  - # 7
    frequency:    4.4129152462
  - # 8
    frequency:    4.4463501241
  - # 9
    frequency:    4.8432051547
  - # 10
    frequency:    5.0469754730
  - # 11
    frequency:    6.3087397084
  - # 12
    frequency:    7.3452332731
  - # 13
    frequency:    7.5001732395
  - # 14
    frequency:    9.0438786234
  - # 15
    frequency:    9.0877815572
  - # 16
    frequency:   10.1832804287
  - # 17
    frequency:   10.5939311987
  - # 18
    frequency:   11.3144333169
  - # 19
    frequency:   14.1429653695
  - # 20
    frequency:   42.3097650167
  - # 21
    frequency:   42.5274584151

- q-position: [    0.0555556,    0.0000000,    0.0000000 ]
  distance:    0.0195348
  band:
  - # 1
    frequency:   -0.7533386449
  - # 2
    frequency:    0.7514300822
  - # 3
    frequency:    1.2266392823
  - # 4
    frequency:    3.1003093393
  - # 5
    frequency:    3.2327544693
  - # 6
    frequency:    4.2347794965
  - # 7
    frequency:    4.3987488338
  - # 8
    frequency:    4.4490720121
  - # 9
    frequency:    4.8412649386
  - # 10
    frequency:    5.0858598987
  - # 11
    frequency:    6.3156047345
  - # 12
    frequency:    7.3460166758
  - # 13
    frequency:    7.5318290542
  - # 14
    frequency:    9.0197618240
  - # 15
    frequency:    9.0752289042
  - # 16
    frequency:   10.1485577231
  - # 17
    frequency:   10.6012347106
  - # 18
    frequency:   11.3836076769
  - # 19
    frequency:   14.1374556630
  - # 20
    frequency:   42.2950057289
  - # 21
    frequency:   42.5109502587

- q-position: [    0.0606061,    0.0000000,    0.0000000 ]
  distance:    0.0213107
  band:
  - # 1
    frequency:   -0.8177631052
  - # 2
    frequency:    0.8107972775
  - # 3
    frequency:    1.3320037902
  - # 4
    frequency:    3.0895070106
  - # 5
    frequency:    3.2538997015
  - # 6
    frequency:    4.2511361317
  - # 7
    frequency:    4.3832708667
  - # 8
    frequency:    4.4549276965
  - # 9
    frequency:    4.8394378007
  - # 10
    frequency:    5.1283879086
  - # 11
    frequency:    6.3230334685
  - # 12
    frequency:    7.3467929826
  - # 13
    frequency:    7.5658290765
  - # 14
    frequency:    8.9928158735
  - # 15
    frequency:    9.0616823637
  - # 16
    frequency:   10.1162031654
  - # 17
    frequency:   10.6091517853
  - # 18
    frequency:   11.4539913053
  - # 19
    frequency:   14.1314978171
  - # 20
    frequency:   42.2789337509
  - # 21
    frequency:   42.4929542314

- q-position: [    0.0656566,    0.0000000,    0.0000000 ]
  distance:    0.0230866
  band:
  - # 1
    frequency:   -0.8800948386
  - # 2
    frequency:    0.8677567196
  - # 3
    frequency:    1.4356933743
  - # 4
    frequency:    3.0776683208
  - # 5
    frequency:    3.2778207900
  - # 6
    frequency:    4.2648373762
  - # 7
    frequency:    4.3665693451
  - # 8
    frequency:    4.4640068456
  - # 9
    frequency:    4.8377539822
  - # 10
    frequency:    5.1745224645
  - # 11
    frequency:    6.3310067118
  - # 12
    frequency:    7.3475055578
  - # 13
    frequency:    7.6019884808
  - # 14
    frequency:    8.9630178529
  - # 15
    frequency:    9.0472059546
  - # 16
    frequency:   10.0862997629
  - # 17
    frequency:   10.6176613085
  - # 18
    frequency:   11.5254942107
  - # 19
    frequency:   14.1251116254
  - # 20
    frequency:   42.2615734859
  - # 21
    frequency:   42.4734928659

- q-position: [    0.0707071,    0.0000000,    0.0000000 ]
  distance:    0.0248624
  band:
  - # 1
    frequency:   -0.9399451994
  - # 2
    frequency:    0.9220728722
  - # 3
    frequency:    1.5375380557
  - # 4
    frequency:    3.0647971614
  - # 5
    frequency:    3.3043547113
  - # 6
    frequency:    4.2761605808
  - # 7
    frequency:    4.3487590456
  - # 8
    frequency:    4.4760521248
  - # 9
    frequency:    4.8362330945
  - # 10
    frequency:    5.2241730939
  - # 11
    frequency:    6.3395056890
  - # 12
    frequency:    7.3480819291
  - # 13
    frequency:    7.6401020982
  - # 14
    frequency:    8.9303913285
  - # 15
    frequency:    9.0318724311
  - # 16
    frequency:   10.0588927865
  - # 17
    frequency:   10.6267408314
  - # 18
    frequency:   11.5980320153
  - # 19
    frequency:   14.1183181212
  - # 20
    frequency:   42.2429510607
  - # 21
    frequency:   42.4525904546

- q-position: [    0.0757576,    0.0000000,    0.0000000 ]
  distance:    0.0266383
  band:
  - # 1
    frequency:   -0.9969443314
  - # 2
    frequency:    0.9735000238
  - # 3
    frequency:    1.6373607611
  - # 4
    frequency:    3.0509113146
  - # 5
    frequency:    3.3332812122
  - # 6
    frequency:    4.2857322597
  - # 7
    frequency:    4.3299793258
  - # 8
    frequency:    4.4905522136
  - # 9
    frequency:    4.8348847693
  - # 10
    frequency:    5.2771930378
  - # 11
    frequency:    6.3485124526
  - # 12
    frequency:    7.3484330874
  - # 13
    frequency:    7.6799403416
  - # 14
    frequency:    8.8950145797
  - # 15
    frequency:    9.0157636105
  - # 16
    frequency:   10.0339912316
  - # 17
    frequency:   10.6363666743
  - # 18
    frequency:   11.6715227803
  - # 19
    frequency:   14.1111394555
  - # 20
    frequency:   42.2230942349
  - # 21
    frequency:   42.4302730017

- q-position: [    0.0808081,    0.0000000,    0.0000000 ]
  distance:    0.0284142
  band:
  - # 1
    frequency:   -1.0507481823
  - # 2
    frequency:    1.0217812113
  - # 3
    frequency:    1.7349773449
  - # 4
    frequency:    3.0360465593
  - # 5
    frequency:    3.3643360553
  - # 6
    frequency:    4.2943389964
  - # 7
    frequency:    4.3103902522
  - # 8
    frequency:    4.5069227376
  - # 9
    frequency:    4.8337099551
  - # 10
    frequency:    5.3333830457
  - # 11
    frequency:    6.3580102826
  - # 12
    frequency:    7.3484533438
  - # 13
    frequency:    7.7212424811
  - # 14
    frequency:    8.8570290135
  - # 15
    frequency:    8.9989705243
  - # 16
    frequency:   10.0115704373
  - # 17
    frequency:   10.6465140301
  - # 18
    frequency:   11.7458851123
  - # 19
    frequency:   14.1035987642
  - # 20
    frequency:   42.2020323050
  - # 21
    frequency:   42.4065681722

- q-position: [    0.0858586,    0.0000000,    0.0000000 ]
  distance:    0.0301901
  band:
  - # 1
    frequency:   -1.1010427988
  - # 2
    frequency:    1.0666474078
  - # 3
    frequency:    1.8301970249
  - # 4
    frequency:    3.0202610924
  - # 5
    frequency:    3.3972240267
  - # 6
    frequency:    4.2901672587
  - # 7
    frequency:    4.3027558181
  - # 8
    frequency:    4.5246641986
  - # 9
    frequency:    4.8327026344
  - # 10
    frequency:    5.3925000533
  - # 11
    frequency:    6.3679840766
  - # 12
    frequency:    7.3480208063
  - # 13
    frequency:    7.7637055890
  - # 14
    frequency:    8.8166495859
  - # 15
    frequency:    8.9815933356
  - # 16
    frequency:    9.9915761868
  - # 17
    frequency:   10.6571570670
  - # 18
    frequency:   11.8210370655
  - # 19
    frequency:   14.0957200253
  - # 20
    frequency:   42.1797960054
  - # 21
    frequency:   42.3815052388

- q-position: [    0.0909091,    0.0000000,    0.0000000 ]
  distance:    0.0319660
  band:
  - # 1
    frequency:   -1.1475462909
  - # 2
    frequency:    1.1078171973
  - # 3
    frequency:    1.9228233734
  - # 4
    frequency:    3.0036399865
  - # 5
    frequency:    3.4316310860
  - # 6
    frequency:    4.2694946161
  - # 7
    frequency:    4.3116510559
  - # 8
    frequency:    4.5434400817
  - # 9
    frequency:    4.8318517375
  - # 10
    frequency:    5.4542684650
  - # 11
    frequency:    6.3784207229
  - # 12
    frequency:    7.3469985251
  - # 13
    frequency:    7.8069662562
  - # 14
    frequency:    8.7741806086
  - # 15
    frequency:    8.9637409602
  - # 16
    frequency:    9.9739300776
  - # 17
    frequency:   10.6682690306
  - # 18
    frequency:   11.8968955587
  - # 19
    frequency:   14.0875279067
  - # 20
    frequency:   42.1564174060
  - # 21
    frequency:   42.3551150257

- q-position: [    0.0959596,    0.0000000,    0.0000000 ]
  distance:    0.0337419
  band:
  - # 1
    frequency:   -1.1900089584
  - # 2
    frequency:    1.1449972418
  - # 3
    frequency:    2.0126560239
  - # 4
    frequency:    2.9862992539
  - # 5
    frequency:    3.4672352863
  - # 6
    frequency:    4.2485580468
  - # 7
    frequency:    4.3215573766
  - # 8
    frequency:    4.5630874747
  - # 9
    frequency:    4.8311430660
  - # 10
    frequency:    5.5183919181
  - # 11
    frequency:    6.3893094484
  - # 12
    frequency:    7.3452363460
  - # 13
    frequency:    7.8505699729
  - # 14
    frequency:    8.7300427474
  - # 15
    frequency:    8.9455303290
  - # 16
    frequency:    9.9585356347
  - # 17
    frequency:   10.6798223435
  - # 18
    frequency:   11.9733761281
  - # 19
    frequency:   14.0790476042
  - # 20
    frequency:   42.1319298072
  - # 21
    frequency:   42.3274298498

- q-position: [    0.1010101,    0.0000000,    0.0000000 ]
  distance:    0.0355178
  band:
  - # 1
    frequency:   -1.2282120732
  - # 2
    frequency:    1.1778839285
  - # 3
    frequency:    2.0994932549
  - # 4
    frequency:    2.9683889270
  - # 5
    frequency:    3.5037162236
  - # 6
    frequency:    4.2275368552
  - # 7
    frequency:    4.3328767678
  - # 8
    frequency:    4.5835939269
  - # 9
    frequency:    4.8305610883
  - # 10
    frequency:    5.5845639817
  - # 11
    frequency:    6.4006421327
  - # 12
    frequency:    7.3425734958
  - # 13
    frequency:    7.8939190692
  - # 14
    frequency:    8.6848210604
  - # 15
    frequency:    8.9270852278
  - # 16
    frequency:    9.9452845341
  - # 17
    frequency:   10.6917887025
  - # 18
    frequency:   12.0503929057
  - # 19
    frequency:   14.0703046707
  - # 20
    frequency:   42.1063676343
  - # 21
    frequency:   42.2984834614

- q-position: [    0.1060606,    0.0000000,    0.0000000 ]
  distance:    0.0372937
  band:
  - # 1
    frequency:   -1.2619657551
  - # 2
    frequency:    1.2061666582
  - # 3
    frequency:    2.1831355936
  - # 4
    frequency:    2.9500944324
  - # 5
    frequency:    3.5407627952
  - # 6
    frequency:    4.2065959716
  - # 7
    frequency:    4.3458964371
  - # 8
    frequency:    4.6050645576
  - # 9
    frequency:    4.8300905191
  - # 10
    frequency:    5.6524769303
  - # 11
    frequency:    6.4124135784
  - # 12
    frequency:    7.3388419065
  - # 13
    frequency:    7.9361832017
  - # 14
    frequency:    8.6393507511
  - # 15
    frequency:    8.9085346645
  - # 16
    frequency:    9.9340623646
  - # 17
    frequency:   10.7041391729
  - # 18
    frequency:   12.1278587456
  - # 19
    frequency:   14.0613248371
  - # 20
    frequency:   42.0797663292
  - # 21
    frequency:   42.2683109811

- q-position: [    0.1111111,    0.0000000,    0.0000000 ]
  distance:    0.0390695
  band:
  - # 1
    frequency:   -1.2911062892
  - # 2
    frequency:    1.2295332594
  - # 3
    frequency:    2.2633905196
  - # 4
    frequency:    2.9316354591
  - # 5
    frequency:    3.5780790015
  - # 6
    frequency:    4.1858783129
  - # 7
    frequency:    4.3608058089
  - # 8
    frequency:    4.6276898102
  - # 9
    frequency:    4.8297176433
  - # 10
    frequency:    5.7218283187
  - # 11
    frequency:    6.4246217217
  - # 12
    frequency:    7.3338702622
  - # 13
    frequency:    7.9761463369
  - # 14
    frequency:    8.5948671645
  - # 15
    frequency:    8.8900107297
  - # 16
    frequency:    9.9247535189
  - # 17
    frequency:   10.7168442797
  - # 18
    frequency:   12.2056854464
  - # 19
    frequency:   14.0521338261
  - # 20
    frequency:   42.0521622424
  - # 21
    frequency:   42.2369488371

- q-position: [    0.1161616,    0.0000000,    0.0000000 ]
  distance:    0.0408454
  band:
  - # 1
    frequency:   -1.3154931371
  - # 2
    frequency:    1.2476779541
  - # 3
    frequency:    2.3400782492
  - # 4
    frequency:    2.9132615786
  - # 5
    frequency:    3.6153874921
  - # 6
    frequency:    4.1654978481
  - # 7
    frequency:    4.3777127714
  - # 8
    frequency:    4.6517160776
  - # 9
    frequency:    4.8294313729
  - # 10
    frequency:    5.7923254583
  - # 11
    frequency:    6.4372677738
  - # 12
    frequency:    7.3274887162
  - # 13
    frequency:    8.0119592713
  - # 14
    frequency:    8.5532512766
  - # 15
    frequency:    8.8716459530
  - # 16
    frequency:    9.9172449992
  - # 17
    frequency:   10.7298740965
  - # 18
    frequency:   12.2837840334
  - # 19
    frequency:   14.0427571590
  - # 20
    frequency:   42.0235925256
  - # 21
    frequency:   42.2044347001

- q-position: [    0.1212121,    0.0000000,    0.0000000 ]
  distance:    0.0426213
  band:
  - # 1
    frequency:   -1.3350058020
  - # 2
    frequency:    1.2603120990
  - # 3
    frequency:    2.4130384181
  - # 4
    frequency:    2.8952441008
  - # 5
    frequency:    3.6524306476
  - # 6
    frequency:    4.1455337042
  - # 7
    frequency:    4.3966604594
  - # 8
    frequency:    4.6774181826
  - # 9
    frequency:    4.8292240492
  - # 10
    frequency:    5.8636880769
  - # 11
    frequency:    6.4503562752
  - # 12
    frequency:    7.3195341870
  - # 13
    frequency:    8.0408135662
  - # 14
    frequency:    8.5173549190
  - # 15
    frequency:    8.8535701949
  - # 16
    frequency:    9.9114290931
  - # 17
    frequency:   10.7431983304
  - # 18
    frequency:   12.3620650749
  - # 19
    frequency:   14.0332199580
  - # 20
    frequency:   41.9940950235
  - # 21
    frequency:   42.1708074180

- q-position: [    0.1262626,    0.0000000,    0.0000000 ]
  distance:    0.0443972
  band:
  - # 1
    frequency:   -1.3495406308
  - # 2
    frequency:    1.2671775601
  - # 3
    frequency:    2.4821372843
  - # 4
    frequency:    2.8778640950
  - # 5
    frequency:    3.6889692887
  - # 6
    frequency:    4.1260255686
  - # 7
    frequency:    4.4176460959
  - # 8
    frequency:    4.7050722911
  - # 9
    frequency:    4.8290920127
  - # 10
    frequency:    5.9356494659
  - # 11
    frequency:    6.4638950589
  - # 12
    frequency:    7.3098560846
  - # 13
    frequency:    8.0587973362
  - # 14
    frequency:    8.4911453086
  - # 15
    frequency:    8.8359071764
  - # 16
    frequency:    9.9072050060
  - # 17
    frequency:   10.7567864069
  - # 18
    frequency:   12.4404390125
  - # 19
    frequency:   14.0235467442
  - # 20
    frequency:   41.9637081684
  - # 21
    frequency:   42.1361069499

- q-position: [    0.1313131,    0.0000000,    0.0000000 ]
  distance:    0.0461731
  band:
  - # 1
    frequency:   -1.3590075695
  - # 2
    frequency:    1.2680620417
  - # 3
    frequency:    2.5472748548
  - # 4
    frequency:    2.8613971404
  - # 5
    frequency:    3.7247796279
  - # 6
    frequency:    4.1069705383
  - # 7
    frequency:    4.4406420443
  - # 8
    frequency:    4.7349289146
  - # 9
    frequency:    4.8290359634
  - # 10
    frequency:    6.0079563393
  - # 11
    frequency:    6.4778951297
  - # 12
    frequency:    7.2983222668
  - # 13
    frequency:    8.0617169416
  - # 14
    frequency:    8.4788848018
  - # 15
    frequency:    8.8187707985
  - # 16
    frequency:    9.9044796064
  - # 17
    frequency:   10.7706075514
  - # 18
    frequency:   12.5188164938
  - # 19
    frequency:   14.0137612340
  - # 20
    frequency:   41.9324708751
  - # 21
    frequency:   42.1003742998

- q-position: [    0.1363636,    0.0000000,    0.0000000 ]
  distance:    0.0479490
  band:
  - # 1
    frequency:   -1.3633268322
  - # 2
    frequency:    1.2628150789
  - # 3
    frequency:    2.6083911689
  - # 4
    frequency:    2.8460961012
  - # 5
    frequency:    3.7596497071
  - # 6
    frequency:    4.0883214531
  - # 7
    frequency:    4.4656171420
  - # 8
    frequency:    4.7671873171
  - # 9
    frequency:    4.8290611365
  - # 10
    frequency:    6.0803674621
  - # 11
    frequency:    6.4923705271
  - # 12
    frequency:    7.2848249676
  - # 13
    frequency:    8.0473818139
  - # 14
    frequency:    8.4828486192
  - # 15
    frequency:    8.8022614674
  - # 16
    frequency:    9.9031674758
  - # 17
    frequency:   10.7846308709
  - # 18
    frequency:   12.5971086975
  - # 19
    frequency:   14.0038861344
  - # 20
    frequency:   41.9004224395
  - # 21
    frequency:   42.0636514505

- q-position: [    0.1414141,    0.0000000,    0.0000000 ]
  distance:    0.0497249
  band:
  - # 1
    frequency:   -1.3624253937
  - # 2
    frequency:    1.2513628806
  - # 3
    frequency:    2.6654708888
  - # 4
    frequency:    2.8321738599
  - # 5
    frequency:    3.7933770590
  - # 6
    frequency:    4.0699866507
  - # 7
    frequency:    4.4925545785
  - # 8
    frequency:    4.8019740847
  - # 9
    frequency:    4.8291773078
  - # 10
    frequency:    6.1526508142
  - # 11
    frequency:    6.5073383772
  - # 12
    frequency:    7.2692864021
  - # 13
    frequency:    8.0172679667
  - # 14
    frequency:    8.5016650433
  - # 15
    frequency:    8.7864626759
  - # 16
    frequency:    9.9031904497
  - # 17
    frequency:   10.7988254353
  - # 18
    frequency:   12.6752276451
  - # 19
    frequency:   13.9939429413
  - # 20
    frequency:   41.8676024384
  - # 21
    frequency:   42.0259812984

- q-position: [    0.1464646,    0.0000000,    0.0000000 ]
  distance:    0.0515008
  band:
  - # 1
    frequency:   -1.3562331608
  - # 2
    frequency:    1.2337199884
  - # 3
    frequency:    2.7185454342
  - # 4
    frequency:    2.8197882474
  - # 5
    frequency:    3.8257693753
  - # 6
    frequency:    4.0518310059
  - # 7
    frequency:    4.5214620640
  - # 8
    frequency:    4.8293986421
  - # 9
    frequency:    4.8393290384
  - # 10
    frequency:    6.2245784675
  - # 11
    frequency:    6.5228197558
  - # 12
    frequency:    7.2516637370
  - # 13
    frequency:    7.9751958406
  - # 14
    frequency:    8.5316426188
  - # 15
    frequency:    8.7714381103
  - # 16
    frequency:    9.9044768217
  - # 17
    frequency:   10.8131603599
  - # 18
    frequency:   12.7530864951
  - # 19
    frequency:   13.9839517403
  - # 20
    frequency:   41.8340506333
  - # 21
    frequency:   41.9874075881

- q-position: [    0.1515152,    0.0000000,    0.0000000 ]
  distance:    0.0532767
  band:
  - # 1
    frequency:   -1.3446786164
  - # 2
    frequency:    1.2099959811
  - # 3
    frequency:    2.7676921488
  - # 4
    frequency:    2.8090312085
  - # 5
    frequency:    3.8566493643
  - # 6
    frequency:    4.0336780821
  - # 7
    frequency:    4.5523714102
  - # 8
    frequency:    4.8297433863
  - # 9
    frequency:    4.8792006809
  - # 10
    frequency:    6.2959168713
  - # 11
    frequency:    6.5388432340
  - # 12
    frequency:    7.2319531282
  - # 13
    frequency:    7.9250157885
  - # 14
    frequency:    8.5690914315
  - # 15
    frequency:    8.7572295297
  - # 16
    frequency:    9.9069603551
  - # 17
    frequency:   10.8276048884
  - # 18
    frequency:   12.8305998180
  - # 19
    frequency:   13.9739310154
  - # 20
    frequency:   41.7998068777
  - # 21
    frequency:   41.9479748496