nqpoint: 300    
npath: 3      
segment_nqpoint:
- 100
- 100
- 100
labels:
- [ 'G', 'M' ]
- [ 'M', 'K' ]
- [ 'K', 'G' ]
reciprocal_lattice:
- [   0.30629523,   0.17683963,   0.00000000 ] # a*
- [   0.00000000,   0.35367926,   0.00000000 ] # b*
- [   0.00000000,   0.00000000,   0.03517449 ] # c*
natom: 7      
lattice:
- [     3.264823973005585,     0.000000000000000,     0.000000000000000 ] # a
- [    -1.632411986502793,     2.827420499508467,     0.000000000000000 ] # b
- [     0.000000000000000,     0.000000000000000,    28.429692579485575 ] # c
points:
- symbol: Cl # 1
  coordinates: [  0.333332985432215,  0.666666983183674,  0.683429570163757 ]
  mass: 35.453000
- symbol: N # 2
  coordinates: [  0.000000000000000,  0.000000000000000,  0.486602530327579 ]
  mass: 14.006700
- symbol: O # 3
  coordinates: [  0.333332985432215,  0.666666983183674,  0.565928930005365 ]
  mass: 15.999400
- symbol: O # 4
  coordinates: [  0.666666984744047,  0.333332985985145,  0.316570429836243 ]
  mass: 15.999400
- symbol: P # 5
  coordinates: [  0.666666984744047,  0.333332985985145,  0.368971917125912 ]
  mass: 30.973762
- symbol: Zr # 6
  coordinates: [  0.333332985432215,  0.666666983183674,  0.438340915882274 ]
  mass: 91.224000
- symbol: Zr # 7
  coordinates: [  0.666666984744047,  0.333332985985145,  0.533502806769420 ]
  mass: 91.224000

phonon:
- q-position: [    0.0000000,    0.0000000,    0.0000000 ]
  distance:    0.0000000
  band:
  - # 1
    frequency:   -4.5537928198
  - # 2
    frequency:   -4.5537928198
  - # 3
    frequency:   -0.6442769824
  - # 4
    frequency:   -0.6442769824
  - # 5
    frequency:   -0.0000045267
  - # 6
    frequency:    0.0000002647
  - # 7
    frequency:    0.0000072440
  - # 8
    frequency:    1.6337117532
  - # 9
    frequency:    2.8602440573
  - # 10
    frequency:    2.8602440573
  - # 11
    frequency:    4.3992802135
  - # 12
    frequency:    4.3992802135
  - # 13
    frequency:    5.4471814804
  - # 14
    frequency:    9.3025003394
  - # 15
    frequency:   10.9958739292
  - # 16
    frequency:   10.9958739292
  - # 17
    frequency:   14.2618815953
  - # 18
    frequency:   14.2618815953
  - # 19
    frequency:   14.6419409766
  - # 20
    frequency:   16.3506507290
  - # 21
    frequency:   34.5227251914

- q-position: [    0.0050505,    0.0000000,    0.0000000 ]
  distance:    0.0017863
  band:
  - # 1
    frequency:   -4.5538205139
  - # 2
    frequency:   -4.5505322374
  - # 3
    frequency:   -0.6560805095
  - # 4
    frequency:   -0.6497526669
  - # 5
    frequency:   -0.0024363564
  - # 6
    frequency:    0.0634279883
  - # 7
    frequency:    0.0911313539
  - # 8
    frequency:    1.6338994460
  - # 9
    frequency:    2.8607610858
  - # 10
    frequency:    2.8624115958
  - # 11
    frequency:    4.3992705026
  - # 12
    frequency:    4.3994940954
  - # 13
    frequency:    5.4479784359
  - # 14
    frequency:    9.3016180866
  - # 15
    frequency:   10.9958632768
  - # 16
    frequency:   10.9962963760
  - # 17
    frequency:   14.2611697285
  - # 18
    frequency:   14.2616073562
  - # 19
    frequency:   14.6421412970
  - # 20
    frequency:   16.3502235261
  - # 21
    frequency:   34.5225316971

- q-position: [    0.0101010,    0.0000000,    0.0000000 ]
  distance:    0.0035725
  band:
  - # 1
    frequency:   -4.5539027524
  - # 2
    frequency:   -4.5407540006
  - # 3
    frequency:   -0.6905112454
  - # 4
    frequency:   -0.6657256335
  - # 5
    frequency:   -0.0090524868
  - # 6
    frequency:    0.1259734521
  - # 7
    frequency:    0.1836068192
  - # 8
    frequency:    1.6344610150
  - # 9
    frequency:    2.8623131094
  - # 10
    frequency:    2.8689137370
  - # 11
    frequency:    4.3992384270
  - # 12
    frequency:    4.4001356326
  - # 13
    frequency:    5.4503656753
  - # 14
    frequency:    9.2989773935
  - # 15
    frequency:   10.9958321683
  - # 16
    frequency:   10.9975602425
  - # 17
    frequency:   14.2590385945
  - # 18
    frequency:   14.2607853467
  - # 19
    frequency:   14.6427360499
  - # 20
    frequency:   16.3489463537
  - # 21
    frequency:   34.5219515518

- q-position: [    0.0151515,    0.0000000,    0.0000000 ]
  distance:    0.0053588
  band:
  - # 1
    frequency:   -4.5540370100
  - # 2
    frequency:   -4.5244687019
  - # 3
    frequency:   -0.7447741714
  - # 4
    frequency:   -0.6910400179
  - # 5
    frequency:   -0.0182307198
  - # 6
    frequency:    0.1871136706
  - # 7
    frequency:    0.2778006843
  - # 8
    frequency:    1.6353929890
  - # 9
    frequency:    2.8649028852
  - # 10
    frequency:    2.8797485631
  - # 11
    frequency:    4.3991753219
  - # 12
    frequency:    4.4012044984
  - # 13
    frequency:    5.4543322735
  - # 14
    frequency:    9.2945963210
  - # 15
    frequency:   10.9957831482
  - # 16
    frequency:   10.9996552493
  - # 17
    frequency:   14.2555013349
  - # 18
    frequency:   14.2594176887
  - # 19
    frequency:   14.6437068855
  - # 20
    frequency:   16.3468324897
  - # 21
    frequency:   34.5209857669

- q-position: [    0.0202020,    0.0000000,    0.0000000 ]
  distance:    0.0071450
  band:
  - # 1
    frequency:   -4.5542191005
  - # 2
    frequency:   -4.5016941978
  - # 3
    frequency:   -0.8149885550
  - # 4
    frequency:   -0.7242570916
  - # 5
    frequency:   -0.0282351564
  - # 6
    frequency:    0.2467637247
  - # 7
    frequency:    0.3733880689
  - # 8
    frequency:    1.6366927955
  - # 9
    frequency:    2.8685348157
  - # 10
    frequency:    2.8949113259
  - # 11
    frequency:    4.3990672796
  - # 12
    frequency:    4.4027001434
  - # 13
    frequency:    5.4598598872
  - # 14
    frequency:    9.2885045275
  - # 15
    frequency:   10.9957204510
  - # 16
    frequency:   11.0025647298
  - # 17
    frequency:   14.2505790366
  - # 18
    frequency:   14.2575079161
  - # 19
    frequency:   14.6450240980
  - # 20
    frequency:   16.3439039611
  - # 21
    frequency:   34.5196360252

- q-position: [    0.0252525,    0.0000000,    0.0000000 ]
  distance:    0.0089313
  band:
  - # 1
    frequency:   -4.5544432102
  - # 2
    frequency:   -4.4724559100
  - # 3
    frequency:   -0.8972475912
  - # 4
    frequency:   -0.7639771198
  - # 5
    frequency:   -0.0376162329
  - # 6
    frequency:    0.3051236766
  - # 7
    frequency:    0.4699713737
  - # 8
    frequency:    1.6383626599
  - # 9
    frequency:    2.8732146686
  - # 10
    frequency:    2.9143924361
  - # 11
    frequency:    4.3988959111
  - # 12
    frequency:    4.4046217892
  - # 13
    frequency:    5.4669225765
  - # 14
    frequency:    9.2807426305
  - # 15
    frequency:   10.9956499920
  - # 16
    frequency:   11.0062663013
  - # 17
    frequency:   14.2442996398
  - # 18
    frequency:   14.2550609697
  - # 19
    frequency:   14.6466478117
  - # 20
    frequency:   16.3401913871
  - # 21
    frequency:   34.5179046765

- q-position: [    0.0303030,    0.0000000,    0.0000000 ]
  distance:    0.0107176
  band:
  - # 1
    frequency:   -4.5547019440
  - # 2
    frequency:   -4.4367872403
  - # 3
    frequency:   -0.9882725483
  - # 4
    frequency:   -0.8089754342
  - # 5
    frequency:   -0.0451773576
  - # 6
    frequency:    0.3624944096
  - # 7
    frequency:    0.5673210191
  - # 8
    frequency:    1.6404136843
  - # 9
    frequency:    2.8789491969
  - # 10
    frequency:    2.9381751954
  - # 11
    frequency:    4.3986393387
  - # 12
    frequency:    4.4069684198
  - # 13
    frequency:    5.4754866042
  - # 14
    frequency:    9.2713613615
  - # 15
    frequency:   10.9955793543
  - # 16
    frequency:   11.0107327511
  - # 17
    frequency:   14.2366966408
  - # 18
    frequency:   14.2520831909
  - # 19
    frequency:   14.6485294177
  - # 20
    frequency:   16.3357337547
  - # 21
    frequency:   34.5157947310

- q-position: [    0.0353535,    0.0000000,    0.0000000 ]
  distance:    0.0125038
  band:
  - # 1
    frequency:   -4.5549863833
  - # 2
    frequency:   -4.3947300888
  - # 3
    frequency:   -1.0855513899
  - # 4
    frequency:   -0.8582220007
  - # 5
    frequency:   -0.0497328889
  - # 6
    frequency:    0.4191643526
  - # 7
    frequency:    0.6653578525
  - # 8
    frequency:    1.6428695611
  - # 9
    frequency:    2.8857456731
  - # 10
    frequency:    2.9662336513
  - # 11
    frequency:    4.3982733548
  - # 12
    frequency:    4.4097387723
  - # 13
    frequency:    5.4855102504
  - # 14
    frequency:    9.2604205565
  - # 15
    frequency:   10.9955177718
  - # 16
    frequency:   11.0159330903
  - # 17
    frequency:   14.2278077506
  - # 18
    frequency:   14.2485823132
  - # 19
    frequency:   14.6506131042
  - # 20
    frequency:   16.3305781206
  - # 21
    frequency:   34.5133098518

- q-position: [    0.0404040,    0.0000000,    0.0000000 ]
  distance:    0.0142901
  band:
  - # 1
    frequency:   -4.5552861545
  - # 2
    frequency:   -4.3463354592
  - # 3
    frequency:   -1.1872269870
  - # 4
    frequency:   -0.9108586583
  - # 5
    frequency:   -0.0496839964
  - # 6
    frequency:    0.4753659967
  - # 7
    frequency:    0.7640863789
  - # 8
    frequency:    1.6457699751
  - # 9
    frequency:    2.8936113545
  - # 10
    frequency:    2.9985308870
  - # 11
    frequency:    4.3977726747
  - # 12
    frequency:    4.4129313268
  - # 13
    frequency:    5.4969436887
  - # 14
    frequency:    9.2479880300
  - # 15
    frequency:   10.9954761082
  - # 16
    frequency:   11.0218337248
  - # 17
    frequency:   14.2176736508
  - # 18
    frequency:   14.2445674505
  - # 19
    frequency:   14.6528373494
  - # 20
    frequency:   16.3247792352
  - # 21
    frequency:   34.5104543446

- q-position: [    0.0454545,    0.0000000,    0.0000000 ]
  distance:    0.0160763
  band:
  - # 1
    frequency:   -4.5555895079
  - # 2
    frequency:   -4.2916641214
  - # 3
    frequency:   -1.2919326720
  - # 4
    frequency:   -0.9661693301
  - # 5
    frequency:   -0.0418076348
  - # 6
    frequency:    0.5312713321
  - # 7
    frequency:    0.8635438357
  - # 8
    frequency:    1.6491745589
  - # 9
    frequency:    2.9025528959
  - # 10
    frequency:    3.0350179423
  - # 11
    frequency:    4.3971122130
  - # 12
    frequency:    4.4165442974
  - # 13
    frequency:    5.5097289631
  - # 14
    frequency:    9.2341383785
  - # 15
    frequency:   10.9954668328
  - # 16
    frequency:   11.0283996878
  - # 17
    frequency:   14.2063369416
  - # 18
    frequency:   14.2400490840
  - # 19
    frequency:   14.6551362872
  - # 20
    frequency:   16.3183990805
  - # 21
    frequency:   34.5072331469

- q-position: [    0.0505051,    0.0000000,    0.0000000 ]
  distance:    0.0178626
  band:
  - # 1
    frequency:   -4.5558834047
  - # 2
    frequency:   -4.2307872879
  - # 3
    frequency:   -1.3986503461
  - # 4
    frequency:   -1.0235536833
  - # 5
    frequency:   -0.0004507634
  - # 6
    frequency:    0.5870022864
  - # 7
    frequency:    0.9637658397
  - # 8
    frequency:    1.6531694755
  - # 9
    frequency:    2.9125757302
  - # 10
    frequency:    3.0756334357
  - # 11
    frequency:    4.3962683164
  - # 12
    frequency:    4.4205756252
  - # 13
    frequency:    5.5238001031
  - # 14
    frequency:    9.2189517585
  - # 15
    frequency:   10.9955039909
  - # 16
    frequency:   11.0355958834
  - # 17
    frequency:   14.1938413346
  - # 18
    frequency:   14.2350390448
  - # 19
    frequency:   14.6574409056
  - # 20
    frequency:   16.3115063151
  - # 21
    frequency:   34.5036518144

- q-position: [    0.0555556,    0.0000000,    0.0000000 ]
  distance:    0.0196488
  band:
  - # 1
    frequency:   -4.5561536110
  - # 2
    frequency:   -4.1637872348
  - # 3
    frequency:   -1.5066054668
  - # 4
    frequency:   -1.0825056317
  - # 5
    frequency:    0.0558403314
  - # 6
    frequency:    0.6426440208
  - # 7
    frequency:    1.0647563593
  - # 8
    frequency:    1.6578811120
  - # 9
    frequency:    2.9236834378
  - # 10
    frequency:    3.1203038432
  - # 11
    frequency:    4.3952199010
  - # 12
    frequency:    4.4250229730
  - # 13
    frequency:    5.5390833997
  - # 14
    frequency:    9.2025126755
  - # 15
    frequency:   10.9956031718
  - # 16
    frequency:   11.0433882959
  - # 17
    frequency:   14.1802310974
  - # 18
    frequency:   14.2295504950
  - # 19
    frequency:   14.6596800791
  - # 20
    frequency:   16.3041756181
  - # 21
    frequency:   34.4997165069

- q-position: [    0.0606061,    0.0000000,    0.0000000 ]
  distance:    0.0214351
  band:
  - # 1
    frequency:   -4.5563847979
  - # 2
    frequency:   -4.0907577725
  - # 3
    frequency:   -1.6151937360
  - # 4
    frequency:   -1.1425959540
  - # 5
    frequency:    0.0893481680
  - # 6
    frequency:    0.6982564529
  - # 7
    frequency:    1.1664455939
  - # 8
    frequency:    1.6635075882
  - # 9
    frequency:    2.9358771242
  - # 10
    frequency:    3.1689443117
  - # 11
    frequency:    4.3939494580
  - # 12
    frequency:    4.4298837256
  - # 13
    frequency:    5.5554978591
  - # 14
    frequency:    9.1849088152
  - # 15
    frequency:   10.9957814703
  - # 16
    frequency:   11.0517451252
  - # 17
    frequency:   14.1655507297
  - # 18
    frequency:   14.2235979034
  - # 19
    frequency:   14.6617814631
  - # 20
    frequency:   16.2964869276
  - # 21
    frequency:   34.4954339713

- q-position: [    0.0656566,    0.0000000,    0.0000000 ]
  distance:    0.0232214
  band:
  - # 1
    frequency:   -4.5565606461
  - # 2
    frequency:   -4.0118044301
  - # 3
    frequency:   -1.7239309499
  - # 4
    frequency:   -1.2034581813
  - # 5
    frequency:    0.1224858915
  - # 6
    frequency:    0.7538829113
  - # 7
    frequency:    1.2686030235
  - # 8
    frequency:    1.6703977646
  - # 9
    frequency:    2.9491548275
  - # 10
    frequency:    3.2214598372
  - # 11
    frequency:    4.3924439092
  - # 12
    frequency:    4.4351549931
  - # 13
    frequency:    5.5729558316
  - # 14
    frequency:    9.1662299375
  - # 15
    frequency:   10.9960574463
  - # 16
    frequency:   11.0606378175
  - # 17
    frequency:   14.1498448315
  - # 18
    frequency:   14.2171970188
  - # 19
    frequency:   14.6636722988
  - # 20
    frequency:   16.2885245658
  - # 21
    frequency:   34.4908115247

- q-position: [    0.0707071,    0.0000000,    0.0000000 ]
  distance:    0.0250076
  band:
  - # 1
    frequency:   -4.5566639523
  - # 2
    frequency:   -3.9270441861
  - # 3
    frequency:   -1.8324187256
  - # 4
    frequency:   -1.2647771165
  - # 5
    frequency:    0.1568985238
  - # 6
    frequency:    0.8095561557
  - # 7
    frequency:    1.3706068893
  - # 8
    frequency:    1.6792750099
  - # 9
    frequency:    2.9635109723
  - # 10
    frequency:    3.2777466189
  - # 11
    frequency:    4.3906953175
  - # 12
    frequency:    4.4408336214
  - # 13
    frequency:    5.5913638089
  - # 14
    frequency:    9.1465668474
  - # 15
    frequency:   10.9964510774
  - # 16
    frequency:   11.0700419688
  - # 17
    frequency:   14.1331581196
  - # 18
    frequency:   14.2103648382
  - # 19
    frequency:   14.6652801760
  - # 20
    frequency:   16.2803762507
  - # 21
    frequency:   34.4858570344

- q-position: [    0.0757576,    0.0000000,    0.0000000 ]
  distance:    0.0267939
  band:
  - # 1
    frequency:   -4.5566767385
  - # 2
    frequency:   -3.8366045428
  - # 3
    frequency:   -1.9403207739
  - # 4
    frequency:   -1.3262795100
  - # 5
    frequency:    0.1931243546
  - # 6
    frequency:    0.8653023448
  - # 7
    frequency:    1.4706881395
  - # 8
    frequency:    1.6919870028
  - # 9
    frequency:    2.9789358891
  - # 10
    frequency:    3.3376933979
  - # 11
    frequency:    4.3887014800
  - # 12
    frequency:    4.4469162076
  - # 13
    frequency:    5.6106233670
  - # 14
    frequency:    9.1260104478
  - # 15
    frequency:   10.9969837086
  - # 16
    frequency:   11.0799380845
  - # 17
    frequency:   14.1155355466
  - # 18
    frequency:   14.2031195711
  - # 19
    frequency:   14.6665338003
  - # 20
    frequency:   16.2721319951
  - # 21
    frequency:   34.4805788977

- q-position: [    0.0808081,    0.0000000,    0.0000000 ]
  distance:    0.0285801
  band:
  - # 1
    frequency:   -4.5565803601
  - # 2
    frequency:   -3.7406217614
  - # 3
    frequency:   -2.0473459613
  - # 4
    frequency:   -1.3877265124
  - # 5
    frequency:    0.2313936395
  - # 6
    frequency:    0.9211435143
  - # 7
    frequency:    1.5630185293
  - # 8
    frequency:    1.7144115835
  - # 9
    frequency:    2.9954154120
  - # 10
    frequency:    3.4011825887
  - # 11
    frequency:    4.3864664577
  - # 12
    frequency:    4.4533991241
  - # 13
    frequency:    5.6306322308
  - # 14
    frequency:    9.1046508755
  - # 15
    frequency:   10.9976779958
  - # 16
    frequency:   11.0903121863
  - # 17
    frequency:   14.0970224864
  - # 18
    frequency:   14.1954805982
  - # 19
    frequency:   14.6673637972
  - # 20
    frequency:   16.2638828991
  - # 21
    frequency:   34.4749860200

- q-position: [    0.0858586,    0.0000000,    0.0000000 ]
  distance:    0.0303664
  band:
  - # 1
    frequency:   -4.5563556135
  - # 2
    frequency:   -3.6392382062
  - # 3
    frequency:   -2.1532353782
  - # 4
    frequency:   -1.4489075869
  - # 5
    frequency:    0.2718160507
  - # 6
    frequency:    0.9770990139
  - # 7
    frequency:    1.6309788886
  - # 8
    frequency:    1.7631825718
  - # 9
    frequency:    3.0129305657
  - # 10
    frequency:    3.4680910026
  - # 11
    frequency:    4.3840011315
  - # 12
    frequency:    4.4602785478
  - # 13
    frequency:    5.6512854291
  - # 14
    frequency:    9.0825767160
  - # 15
    frequency:   10.9985578450
  - # 16
    frequency:   11.1011562603
  - # 17
    frequency:   14.0776649539
  - # 18
    frequency:   14.1874684258
  - # 19
    frequency:   14.6677035751
  - # 20
    frequency:   16.2557198478
  - # 21
    frequency:   34.4690877914

- q-position: [    0.0909091,    0.0000000,    0.0000000 ]
  distance:    0.0321527
  band:
  - # 1
    frequency:   -4.5559828411
  - # 2
    frequency:   -3.5325992370
  - # 3
    frequency:   -2.2577508669
  - # 4
    frequency:   -1.5096356140
  - # 5
    frequency:    0.3144440610
  - # 6
    frequency:    1.0331862287
  - # 7
    frequency:    1.6656608188
  - # 8
    frequency:    1.8471824043
  - # 9
    frequency:    3.0314573516
  - # 10
    frequency:    3.5382899382
  - # 11
    frequency:    4.3813239313
  - # 12
    frequency:    4.4675504987
  - # 13
    frequency:    5.6724765093
  - # 14
    frequency:    9.0598742900
  - # 15
    frequency:   10.9996483453
  - # 16
    frequency:   11.1124685456
  - # 17
    frequency:   14.0575098363
  - # 18
    frequency:   14.1791046339
  - # 19
    frequency:   14.6674902513
  - # 20
    frequency:   16.2477321353
  - # 21
    frequency:   34.4628940623

- q-position: [    0.0959596,    0.0000000,    0.0000000 ]
  distance:    0.0339389
  band:
  - # 1
    frequency:   -4.5554420336
  - # 2
    frequency:   -3.4208516735
  - # 3
    frequency:   -2.3606613397
  - # 4
    frequency:   -1.5697429617
  - # 5
    frequency:    0.3592992452
  - # 6
    frequency:    1.0894208173
  - # 7
    frequency:    1.6848464195
  - # 8
    frequency:    1.9485572576
  - # 9
    frequency:    3.0509666337
  - # 10
    frequency:    3.6116443260
  - # 11
    frequency:    4.3784619897
  - # 12
    frequency:    4.4752108842
  - # 13
    frequency:    5.6940987841
  - # 14
    frequency:    9.0366270049
  - # 15
    frequency:   11.0009756974
  - # 16
    frequency:   11.1242536630
  - # 17
    frequency:   14.0366051213
  - # 18
    frequency:   14.1704118196
  - # 19
    frequency:   14.6666656326
  - # 20
    frequency:   16.2400060402
  - # 21
    frequency:   34.4564151181

- q-position: [    0.1010101,    0.0000000,    0.0000000 ]
  distance:    0.0357252
  band:
  - # 1
    frequency:   -4.5547129280
  - # 2
    frequency:   -3.3041514263
  - # 3
    frequency:   -2.4617179434
  - # 4
    frequency:   -1.6290783312
  - # 5
    frequency:    0.4063849579
  - # 6
    frequency:    1.1458166277
  - # 7
    frequency:    1.6994474429
  - # 8
    frequency:    2.0562736924
  - # 9
    frequency:    3.0714241293
  - # 10
    frequency:    3.6880104298
  - # 11
    frequency:    4.3754531952
  - # 12
    frequency:    4.4832555510
  - # 13
    frequency:    5.7160465811
  - # 14
    frequency:    9.0129147623
  - # 15
    frequency:   11.0025671350
  - # 16
    frequency:   11.1365225875
  - # 17
    frequency:   14.0150001105
  - # 18
    frequency:   14.1614135336
  - # 19
    frequency:   14.6651772285
  - # 20
    frequency:   16.2326233876
  - # 21
    frequency:   34.4496616526

- q-position: [    0.1060606,    0.0000000,    0.0000000 ]
  distance:    0.0375114
  band:
  - # 1
    frequency:   -4.5537751014
  - # 2
    frequency:   -3.1827117679
  - # 3
    frequency:   -2.5605854346
  - # 4
    frequency:   -1.6875042270
  - # 5
    frequency:    0.4556934061
  - # 6
    frequency:    1.2023854068
  - # 7
    frequency:    1.7127780400
  - # 8
    frequency:    2.1668432071
  - # 9
    frequency:    3.0927904983
  - # 10
    frequency:    3.7672311163
  - # 11
    frequency:    4.3723501426
  - # 12
    frequency:    4.4916803435
  - # 13
    frequency:    5.7382164761
  - # 14
    frequency:    8.9888134171
  - # 15
    frequency:   11.0044508410
  - # 16
    frequency:   11.1492924662
  - # 17
    frequency:   13.9927456143
  - # 18
    frequency:   14.1521342121
  - # 19
    frequency:   14.6629792622
  - # 20
    frequency:   16.2256601393
  - # 21
    frequency:   34.4426447404

- q-position: [    0.1111111,    0.0000000,    0.0000000 ]
  distance:    0.0392977
  band:
  - # 1
    frequency:   -4.5526080597
  - # 2
    frequency:   -3.0570681883
  - # 3
    frequency:   -2.6565527450
  - # 4
    frequency:   -1.7448949233
  - # 5
    frequency:    0.5072103753
  - # 6
    frequency:    1.2591363842
  - # 7
    frequency:    1.7259697425
  - # 8
    frequency:    2.2789066727
  - # 9
    frequency:    3.1150215266
  - # 10
    frequency:    3.8491264152
  - # 11
    frequency:    4.3692283165
  - # 12
    frequency:    4.5004811670
  - # 13
    frequency:    5.7605084886
  - # 14
    frequency:    8.9643942830
  - # 15
    frequency:   11.0066558566
  - # 16
    frequency:   11.1625862856
  - # 17
    frequency:   13.9698941236
  - # 18
    frequency:   14.1425991013
  - # 19
    frequency:   14.6600336387
  - # 20
    frequency:   16.2191850569
  - # 21
    frequency:   34.4353758089

- q-position: [    0.1161616,    0.0000000,    0.0000000 ]
  distance:    0.0410840
  band:
  - # 1
    frequency:   -4.5511913221
  - # 2
    frequency:   -2.9304491835
  - # 3
    frequency:   -2.7461322403
  - # 4
    frequency:   -1.8011348273
  - # 5
    frequency:    0.5609191854
  - # 6
    frequency:    1.3160757909
  - # 7
    frequency:    1.7394973850
  - # 8
    frequency:    2.3917105037
  - # 9
    frequency:    3.1380683963
  - # 10
    frequency:    3.9334732446
  - # 11
    frequency:    4.3662047634
  - # 12
    frequency:    4.5096540555
  - # 13
    frequency:    5.7828272264
  - # 14
    frequency:    8.9397236838
  - # 15
    frequency:   11.0092119846
  - # 16
    frequency:   11.1764323922
  - # 17
    frequency:   13.9464999618
  - # 18
    frequency:   14.1328341771
  - # 19
    frequency:   14.6563108217
  - # 20
    frequency:   16.2132584886
  - # 21
    frequency:   34.4278666092

- q-position: [    0.1212121,    0.0000000,    0.0000000 ]
  distance:    0.0428702
  band:
  - # 1
    frequency:   -4.5495045000
  - # 2
    frequency:   -2.8704947363
  - # 3
    frequency:   -2.7613043881
  - # 4
    frequency:   -1.8561171606
  - # 5
    frequency:    0.6168048353
  - # 6
    frequency:    1.3732063593
  - # 7
    frequency:    1.7535957978
  - # 8
    frequency:    2.5046951009
  - # 9
    frequency:    3.1618780304
  - # 10
    frequency:    4.0199549282
  - # 11
    frequency:    4.3634868320
  - # 12
    frequency:    4.5191952426
  - # 13
    frequency:    5.8050829656
  - # 14
    frequency:    8.9148625523
  - # 15
    frequency:   11.0121496852
  - # 16
    frequency:   11.1908638698
  - # 17
    frequency:   13.9226194151
  - # 18
    frequency:   14.1228660585
  - # 19
    frequency:   14.6517905723
  - # 20
    frequency:   16.2079313251
  - # 21
    frequency:   34.4201291862

- q-position: [    0.1262626,    0.0000000,    0.0000000 ]
  distance:    0.0446565
  band:
  - # 1
    frequency:   -4.5475273722
  - # 2
    frequency:   -2.9465677908
  - # 3
    frequency:   -2.6321600428
  - # 4
    frequency:   -1.9097428921
  - # 5
    frequency:    0.6748591499
  - # 6
    frequency:    1.4305268354
  - # 7
    frequency:    1.7683970051
  - # 8
    frequency:    2.6173658492
  - # 9
    frequency:    3.1863935021
  - # 10
    frequency:    4.1080049586
  - # 11
    frequency:    4.3615268353
  - # 12
    frequency:    4.5291012333
  - # 13
    frequency:    5.8271926556
  - # 14
    frequency:    8.8898660816
  - # 15
    frequency:   11.0154999642
  - # 16
    frequency:   11.2059177799
  - # 17
    frequency:   13.8983108475
  - # 18
    frequency:   14.1127219150
  - # 19
    frequency:   14.6464625061
  - # 20
    frequency:   16.2032441716
  - # 21
    frequency:   34.4121758487

- q-position: [    0.1313131,    0.0000000,    0.0000000 ]
  distance:    0.0464427
  band:
  - # 1
    frequency:   -4.5452399556
  - # 2
    frequency:   -3.0322725054
  - # 3
    frequency:   -2.4843220147
  - # 4
    frequency:   -1.9619198748
  - # 5
    frequency:    0.7350878726
  - # 6
    frequency:    1.4880315311
  - # 7
    frequency:    1.7839838551
  - # 8
    frequency:    2.7292503203
  - # 9
    frequency:    3.2115544964
  - # 10
    frequency:    4.1961468790
  - # 11
    frequency:    4.3616811645
  - # 12
    frequency:    4.5393688750
  - # 13
    frequency:    5.8490808399
  - # 14
    frequency:    8.8647834369
  - # 15
    frequency:   11.0192942549
  - # 16
    frequency:   11.2216342704
  - # 17
    frequency:   13.8736348001
  - # 18
    frequency:   14.1024293696
  - # 19
    frequency:   14.6403264286
  - # 20
    frequency:   16.1992267688
  - # 21
    frequency:   34.4040191385

- q-position: [    0.1363636,    0.0000000,    0.0000000 ]
  distance:    0.0482290
  band:
  - # 1
    frequency:   -4.5426225719
  - # 2
    frequency:   -3.1168856295
  - # 3
    frequency:   -2.3274308786
  - # 4
    frequency:   -2.0125621438
  - # 5
    frequency:    0.7975210702
  - # 6
    frequency:    1.5457099335
  - # 7
    frequency:    1.8004144011
  - # 8
    frequency:    2.8398864809
  - # 9
    frequency:    3.2372978122
  - # 10
    frequency:    4.2777161390
  - # 11
    frequency:    4.3704884981
  - # 12
    frequency:    4.5499954260
  - # 13
    frequency:    5.8706804815
  - # 14
    frequency:    8.8396575381
  - # 15
    frequency:   11.0235642914
  - # 16
    frequency:   11.2380555602
  - # 17
    frequency:   13.8486540814
  - # 18
    frequency:   14.0920163955
  - # 19
    frequency:   14.6333924273
  - # 20
    frequency:   16.1958976890
  - # 21
    frequency:   34.3956717996

- q-position: [    0.1414141,    0.0000000,    0.0000000 ]
  distance:    0.0500152
  band:
  - # 1
    frequency:   -4.5396559128
  - # 2
    frequency:   -3.1992470056
  - # 3
    frequency:   -2.1611319485
  - # 4
    frequency:   -2.0615893461
  - # 5
    frequency:    0.8622290421
  - # 6
    frequency:    1.6035463846
  - # 7
    frequency:    1.8177349210
  - # 8
    frequency:    2.9488228021
  - # 9
    frequency:    3.2635578934
  - # 10
    frequency:    4.3230973336
  - # 11
    frequency:    4.4174342578
  - # 12
    frequency:    4.5609786177
  - # 13
    frequency:    5.8919336862
  - # 14
    frequency:    8.8145249242
  - # 15
    frequency:   11.0283419740
  - # 16
    frequency:   11.2552248110
  - # 17
    frequency:   13.8234338512
  - # 18
    frequency:   14.0815112094
  - # 19
    frequency:   14.6256807040
  - # 20
    frequency:   16.1932643192
  - # 21
    frequency:   34.3871467469

- q-position: [    0.1464646,    0.0000000,    0.0000000 ]
  distance:    0.0518015
  band:
  - # 1
    frequency:   -4.5363211014
  - # 2
    frequency:   -3.2789931862
  - # 3
    frequency:   -2.1089262748
  - # 4
    frequency:   -1.9836445107
  - # 5
    frequency:    0.9293474537
  - # 6
    frequency:    1.6615198380
  - # 7
    frequency:    1.8359885290
  - # 8
    frequency:    3.0556219995
  - # 9
    frequency:    3.2902673806
  - # 10
    frequency:    4.3321159459
  - # 11
    frequency:    4.5025627988
  - # 12
    frequency:    4.5723167093
  - # 13
    frequency:    5.9127923117
  - # 14
    frequency:    8.7894157122
  - # 15
    frequency:   11.0336592277
  - # 16
    frequency:   11.2731848997
  - # 17
    frequency:   13.7980417006
  - # 18
    frequency:   14.0709421597
  - # 19
    frequency:   14.6172211520
  - # 20
    frequency:   16.1913231250
  - # 21
    frequency:   34.3784570346

- q-position: [    0.1515152,    0.0000000,    0.0000000 ]
  distance:    0.0535878
  band:
  - # 1
    frequency:   -4.5325997532
  - # 2
    frequency:   -3.3559357530
  - # 3
    frequency:   -2.1545024892
  - # 4
    frequency:   -1.7920348978
  - # 5
    frequency:    0.9991181755
  - # 6
    frequency:    1.7196036973
  - # 7
    frequency:    1.8552227758
  - # 8
    frequency:    3.1598639427
  - # 9
    frequency:    3.3173576753
  - # 10
    frequency:    4.3333966631
  - # 11
    frequency:    4.5840085306
  - # 12
    frequency:    4.5971258939
  - # 13
    frequency:    5.9332184583
  - # 14
    frequency:    8.7643536630
  - # 15
    frequency:   11.0395478512
  - # 16
    frequency:   11.2919771050
  - # 17
    frequency:   13.7725477339
  - # 18
    frequency:   14.0603376120
  - # 19
    frequency:   14.6080526938
  - # 20
    frequency:   16.1900601810
  - # 21