nqpoint: 300    
npath: 3      
segment_nqpoint:
- 100
- 100
- 100
labels:
- [ 'G', 'M' ]
- [ 'M', 'K' ]
- [ 'K', 'G' ]
reciprocal_lattice:
- [   0.28163338,   0.16260111,   0.00000000 ] # a*
- [   0.00000000,   0.32520222,   0.00000000 ] # b*
- [   0.00000000,   0.00000000,   0.03774778 ] # c*
natom: 6      
lattice:
- [     3.550715411900621,     0.000000000000000,     0.000000000000000 ] # a
- [    -1.775357705950310,     3.075009748316631,     0.000000000000000 ] # b
- [     0.000000000000000,     0.000000000000000,    26.491625567868887 ] # c
points:
- symbol: Cl # 1
  coordinates: [  0.333332985432214,  0.666666983183674,  0.660269998270098 ]
  mass: 35.453000
- symbol: F # 2
  coordinates: [  0.666666984744047,  0.333332985985145,  0.339730001729901 ]
  mass: 18.998403
- symbol: N # 3
  coordinates: [  0.000000000000000,  0.000000000000000,  0.427160269699966 ]
  mass: 14.006700
- symbol: O # 4
  coordinates: [  0.333332985432214,  0.666666983183674,  0.518953094209853 ]
  mass: 15.999400
- symbol: Y # 5
  coordinates: [  0.333332985432214,  0.666666983183674,  0.385413946168638 ]
  mass: 88.905850
- symbol: Y # 6
  coordinates: [  0.666666984744047,  0.333332985985145,  0.493572237872002 ]
  mass: 88.905850

phonon:
- q-position: [    0.0000000,    0.0000000,    0.0000000 ]
  distance:    0.0000000
  band:
  - # 1
    frequency:   -0.0000070372
  - # 2
    frequency:    0.0000001105
  - # 3
    frequency:    0.0000078672
  - # 4
    frequency:    0.5113292083
  - # 5
    frequency:    0.7819247538
  - # 6
    frequency:    0.7819247538
  - # 7
    frequency:    2.4913654225
  - # 8
    frequency:    2.4913654225
  - # 9
    frequency:    4.8501783515
  - # 10
    frequency:    6.3929157016
  - # 11
    frequency:    6.3929157016
  - # 12
    frequency:   10.1906765771
  - # 13
    frequency:   10.6431087599
  - # 14
    frequency:   10.6431087599
  - # 15
    frequency:   11.0665644989
  - # 16
    frequency:   13.8030927510
  - # 17
    frequency:   13.8030927510
  - # 18
    frequency:   15.5416792540

- q-position: [    0.0050505,    0.0000000,    0.0000000 ]
  distance:    0.0016424
  band:
  - # 1
    frequency:   -0.0021943151
  - # 2
    frequency:    0.0388036962
  - # 3
    frequency:    0.0834640421
  - # 4
    frequency:    0.5123617742
  - # 5
    frequency:    0.7775514941
  - # 6
    frequency:    0.7798199851
  - # 7
    frequency:    2.4921333726
  - # 8
    frequency:    2.4939039740
  - # 9
    frequency:    4.8499724956
  - # 10
    frequency:    6.3930082499
  - # 11
    frequency:    6.3941823449
  - # 12
    frequency:   10.1899125217
  - # 13
    frequency:   10.6431785356
  - # 14
    frequency:   10.6439928936
  - # 15
    frequency:   11.0670498739
  - # 16
    frequency:   13.8026263792
  - # 17
    frequency:   13.8029047991
  - # 18
    frequency:   15.5420872199

- q-position: [    0.0101010,    0.0000000,    0.0000000 ]
  distance:    0.0032849
  band:
  - # 1
    frequency:   -0.0092049447
  - # 2
    frequency:    0.0767713076
  - # 3
    frequency:    0.1632817377
  - # 4
    frequency:    0.5156371681
  - # 5
    frequency:    0.7650197957
  - # 6
    frequency:    0.7735621789
  - # 7
    frequency:    2.4944349307
  - # 8
    frequency:    2.5014928713
  - # 9
    frequency:    4.8493556975
  - # 10
    frequency:    6.3932857038
  - # 11
    frequency:    6.3979670171
  - # 12
    frequency:   10.1876258827
  - # 13
    frequency:   10.6433878555
  - # 14
    frequency:   10.6465777927
  - # 15
    frequency:   11.0685702636
  - # 16
    frequency:   13.8012279461
  - # 17
    frequency:   13.8023411864
  - # 18
    frequency:   15.5433100830

- q-position: [    0.0151515,    0.0000000,    0.0000000 ]
  distance:    0.0049273
  band:
  - # 1
    frequency:   -0.0225255936
  - # 2
    frequency:    0.1129028728
  - # 3
    frequency:    0.2340002096
  - # 4
    frequency:    0.5216084219
  - # 5
    frequency:    0.7467634485
  - # 6
    frequency:    0.7633451104
  - # 7
    frequency:    2.4982632379
  - # 8
    frequency:    2.5140532603
  - # 9
    frequency:    4.8483302617
  - # 10
    frequency:    6.3937474914
  - # 11
    frequency:    6.4042242934
  - # 12
    frequency:   10.1838325850
  - # 13
    frequency:   10.6437366980
  - # 14
    frequency:   10.6506609284
  - # 15
    frequency:   11.0713189416
  - # 16
    frequency:   13.7988995824
  - # 17
    frequency:   13.8014026415
  - # 18
    frequency:   15.5453447218

- q-position: [    0.0202020,    0.0000000,    0.0000000 ]
  distance:    0.0065697
  band:
  - # 1
    frequency:   -0.0455680583
  - # 2
    frequency:    0.1458127681
  - # 3
    frequency:    0.2859479407
  - # 4
    frequency:    0.5301501820
  - # 5
    frequency:    0.7296407519
  - # 6
    frequency:    0.7495815917
  - # 7
    frequency:    2.5036069217
  - # 8
    frequency:    2.5314582604
  - # 9
    frequency:    4.8469000124
  - # 10
    frequency:    6.3943926626
  - # 11
    frequency:    6.4128796143
  - # 12
    frequency:   10.1785571679
  - # 13
    frequency:   10.6442250266
  - # 14
    frequency:   10.6559058855
  - # 15
    frequency:   11.0756182426
  - # 16
    frequency:   13.7956451190
  - # 17
    frequency:   13.8000903757
  - # 18
    frequency:   15.5481858733

- q-position: [    0.0252525,    0.0000000,    0.0000000 ]
  distance:    0.0082122
  band:
  - # 1
    frequency:   -0.0861947571
  - # 2
    frequency:    0.1733656595
  - # 3
    frequency:    0.3043501352
  - # 4
    frequency:    0.5377258967
  - # 5
    frequency:    0.7287993678
  - # 6
    frequency:    0.7330689779
  - # 7
    frequency:    2.5104501829
  - # 8
    frequency:    2.5535391942
  - # 9
    frequency:    4.8450702725
  - # 10
    frequency:    6.3952198929
  - # 11
    frequency:    6.4238309688
  - # 12
    frequency:   10.1718303416
  - # 13
    frequency:   10.6448527884
  - # 14
    frequency:   10.6618484128
  - # 15
    frequency:   11.0819149850
  - # 16
    frequency:   13.7914704986
  - # 17
    frequency:   13.7984060793
  - # 18
    frequency:   15.5518260507

- q-position: [    0.0303030,    0.0000000,    0.0000000 ]
  distance:    0.0098546
  band:
  - # 1
    frequency:   -0.1622948490
  - # 2
    frequency:    0.1920200393
  - # 3
    frequency:    0.2804801886
  - # 4
    frequency:    0.5402235262
  - # 5
    frequency:    0.7152688107
  - # 6
    frequency:    0.7598328784
  - # 7
    frequency:    2.5187729185
  - # 8
    frequency:    2.5800932653
  - # 9
    frequency:    4.8428478379
  - # 10
    frequency:    6.3962274902
  - # 11
    frequency:    6.4369511713
  - # 12
    frequency:   10.1636864537
  - # 13
    frequency:   10.6456199132
  - # 14
    frequency:   10.6679136050
  - # 15
    frequency:   11.0907645006
  - # 16
    frequency:   13.7863843394
  - # 17
    frequency:   13.7963519163
  - # 18
    frequency:   15.5562554386

- q-position: [    0.0353535,    0.0000000,    0.0000000 ]
  distance:    0.0114970
  band:
  - # 1
    frequency:   -0.2891758472
  - # 2
    frequency:    0.1955514676
  - # 3
    frequency:    0.2442614699
  - # 4
    frequency:    0.5422729265
  - # 5
    frequency:    0.6986593567
  - # 6
    frequency:    0.8194855431
  - # 7
    frequency:    2.5285508770
  - # 8
    frequency:    2.6108919057
  - # 9
    frequency:    4.8402409528
  - # 10
    frequency:    6.3974134016
  - # 11
    frequency:    6.4520906598
  - # 12
    frequency:   10.1541613345
  - # 13
    frequency:   10.6465263111
  - # 14
    frequency:   10.6734513478
  - # 15
    frequency:   11.1027956993
  - # 16
    frequency:   13.7803986398
  - # 17
    frequency:   13.7939305168
  - # 18
    frequency:   15.5614617797

- q-position: [    0.0404040,    0.0000000,    0.0000000 ]
  distance:    0.0131395
  band:
  - # 1
    frequency:   -0.4356482335
  - # 2
    frequency:    0.1717719782
  - # 3
    frequency:    0.2329519617
  - # 4
    frequency:    0.5478219105
  - # 5
    frequency:    0.6868331209
  - # 6
    frequency:    0.8954566484
  - # 7
    frequency:    2.5397558468
  - # 8
    frequency:    2.6456890655
  - # 9
    frequency:    4.8372592881
  - # 10
    frequency:    6.3987752239
  - # 11
    frequency:    6.4690807226
  - # 12
    frequency:   10.1432907868
  - # 13
    frequency:   10.6475718706
  - # 14
    frequency:   10.6777937780
  - # 15
    frequency:   11.1186531943
  - # 16
    frequency:   13.7735296119
  - # 17
    frequency:   13.7911449688
  - # 18
    frequency:   15.5674302650

- q-position: [    0.0454545,    0.0000000,    0.0000000 ]
  distance:    0.0147819
  band:
  - # 1
    frequency:   -0.5756032270
  - # 2
    frequency:    0.0771038312
  - # 3
    frequency:    0.2406288318
  - # 4
    frequency:    0.5566792024
  - # 5
    frequency:    0.6836265881
  - # 6
    frequency:    0.9797383500
  - # 7
    frequency:    2.5523558736
  - # 8
    frequency:    2.6842288686
  - # 9
    frequency:    4.8339139299
  - # 10
    frequency:    6.4003102136
  - # 11
    frequency:    6.4877370526
  - # 12
    frequency:   10.1311097738
  - # 13
    frequency:   10.6487564555
  - # 14
    frequency:   10.6803290726
  - # 15
    frequency:   11.1389221617
  - # 16
    frequency:   13.7657986371
  - # 17
    frequency:   13.7879988085
  - # 18
    frequency:   15.5741434404

- q-position: [    0.0505051,    0.0000000,    0.0000000 ]
  distance:    0.0164244
  band:
  - # 1
    frequency:   -0.7061939565
  - # 2
    frequency:   -0.1874294943
  - # 3
    frequency:    0.2581300851
  - # 4
    frequency:    0.5680578368
  - # 5
    frequency:    0.6912453037
  - # 6
    frequency:    1.0683569933
  - # 7
    frequency:    2.5663155063
  - # 8
    frequency:    2.7262522497
  - # 9
    frequency:    4.8302173780
  - # 10
    frequency:    6.4020153002
  - # 11
    frequency:    6.5078635161
  - # 12
    frequency:   10.1176522059
  - # 13
    frequency:   10.6500799018
  - # 14
    frequency:   10.6805737785
  - # 15
    frequency:   11.1640538688
  - # 16
    frequency:   13.7572333359
  - # 17
    frequency:   13.7844960082
  - # 18
    frequency:   15.5815811444

- q-position: [    0.0555556,    0.0000000,    0.0000000 ]
  distance:    0.0180668
  band:
  - # 1
    frequency:   -0.8291219811
  - # 2
    frequency:   -0.3055661138
  - # 3
    frequency:    0.2814715045
  - # 4
    frequency:    0.5814557907
  - # 5
    frequency:    0.7092435965
  - # 6
    frequency:    1.1593095876
  - # 7
    frequency:    2.5815960652
  - # 8
    frequency:    2.7715023748
  - # 9
    frequency:    4.8261835605
  - # 10
    frequency:    6.4038871002
  - # 11
    frequency:    6.5292560233
  - # 12
    frequency:   10.1029511600
  - # 13
    frequency:   10.6515420142
  - # 14
    frequency:   10.6782205299
  - # 15
    frequency:   11.1943152346
  - # 16
    frequency:   13.7478687563
  - # 17
    frequency:   13.7806409648
  - # 18
    frequency:   15.5897204884

- q-position: [    0.0606061,    0.0000000,    0.0000000 ]
  distance:    0.0197092
  band:
  - # 1
    frequency:   -0.9460697602
  - # 2
    frequency:   -0.4081161438
  - # 3
    frequency:    0.3088531334
  - # 4
    frequency:    0.5965790484
  - # 5
    frequency:    0.7355109344
  - # 6
    frequency:    1.2515049338
  - # 7
    frequency:    2.5981559304
  - # 8
    frequency:    2.8197288099
  - # 9
    frequency:    4.8218278633
  - # 10
    frequency:    6.4059219330
  - # 11
    frequency:    6.5517063849
  - # 12
    frequency:   10.0870393560
  - # 13
    frequency:   10.6531425616
  - # 14
    frequency:   10.6731466850
  - # 15
    frequency:   11.2297771034
  - # 16
    frequency:   13.7377486892
  - # 17
    frequency:   13.7764384852
  - # 18
    frequency:   15.5985358891

- q-position: [    0.0656566,    0.0000000,    0.0000000 ]
  distance:    0.0213517
  band:
  - # 1
    frequency:   -1.0582534392
  - # 2
    frequency:   -0.5021897918
  - # 3
    frequency:    0.3393174701
  - # 4
    frequency:    0.6132365823
  - # 5
    frequency:    0.7677366376
  - # 6
    frequency:    1.3442971529
  - # 7
    frequency:    2.6159508450
  - # 8
    frequency:    2.8706905131
  - # 9
    frequency:    4.8171671777
  - # 10
    frequency:    6.4081158377
  - # 11
    frequency:    6.5750060468
  - # 12
    frequency:   10.0699497454
  - # 13
    frequency:   10.6548812728
  - # 14
    frequency:   10.6653872336
  - # 15
    frequency:   11.2703380525
  - # 16
    frequency:   13.7269271344
  - # 17
    frequency:   13.7718937719
  - # 18
    frequency:   15.6079991617

- q-position: [    0.0707071,    0.0000000,    0.0000000 ]
  distance:    0.0229941
  band:
  - # 1
    frequency:   -1.1665134748
  - # 2
    frequency:   -0.5900997078
  - # 3
    frequency:    0.3722681618
  - # 4
    frequency:    0.6312883680
  - # 5
    frequency:    0.8040916486
  - # 6
    frequency:    1.4372734899
  - # 7
    frequency:    2.6349342275
  - # 8
    frequency:    2.9241577947
  - # 9
    frequency:    4.8122199673
  - # 10
    frequency:    6.4104645919
  - # 11
    frequency:    6.5989496042
  - # 12
    frequency:   10.0517161107
  - # 13
    frequency:   10.6550887501
  - # 14
    frequency:   10.6567578314
  - # 15
    frequency:   11.3157670739
  - # 16
    frequency:   13.7154699525
  - # 17
    frequency:   13.7670124068
  - # 18
    frequency:   15.6180796775

- q-position: [    0.0757576,    0.0000000,    0.0000000 ]
  distance:    0.0246365
  band:
  - # 1
    frequency:   -1.2714307942
  - # 2
    frequency:   -0.6731105280
  - # 3
    frequency:    0.4072824460
  - # 4
    frequency:    0.6506233978
  - # 5
    frequency:    0.8432925503
  - # 6
    frequency:    1.5301512647
  - # 7
    frequency:    2.6550574904
  - # 8
    frequency:    2.9799134230
  - # 9
    frequency:    4.8070063521
  - # 10
    frequency:    6.4129637316
  - # 11
    frequency:    6.6233380096
  - # 12
    frequency:   10.0323736116
  - # 13
    frequency:   10.6424624452
  - # 14
    frequency:   10.6587718701
  - # 15
    frequency:   11.3657471289
  - # 16
    frequency:   13.7034567560
  - # 17
    frequency:   13.7618003349
  - # 18
    frequency:   15.6287445889

- q-position: [    0.0808081,    0.0000000,    0.0000000 ]
  distance:    0.0262790
  band:
  - # 1
    frequency:   -1.3734105468
  - # 2
    frequency:   -0.7520687642
  - # 3
    frequency:    0.4440299443
  - # 4
    frequency:    0.6711512461
  - # 5
    frequency:    0.8844713248
  - # 6
    frequency:    1.6227243734
  - # 7
    frequency:    2.6762703581
  - # 8
    frequency:    3.0377530523
  - # 9
    frequency:    4.8015482147
  - # 10
    frequency:    6.4156085718
  - # 11
    frequency:    6.6479814055
  - # 12
    frequency:   10.0119592447
  - # 13
    frequency:   10.6277471718
  - # 14
    frequency:   10.6609229652
  - # 15
    frequency:   11.4199087199
  - # 16
    frequency:   13.6909831089
  - # 17
    frequency:   13.7562638463
  - # 18
    frequency:   15.6399591185

- q-position: [    0.0858586,    0.0000000,    0.0000000 ]
  distance:    0.0279214
  band:
  - # 1
    frequency:   -1.4727376093
  - # 2
    frequency:   -0.8275812061
  - # 3
    frequency:    0.4822334162
  - # 4
    frequency:    0.6927997248
  - # 5
    frequency:    0.9270406576
  - # 6
    frequency:    1.7148337615
  - # 7
    frequency:    2.6985211810
  - # 8
    frequency:    3.0974851399
  - # 9
    frequency:    4.7958693254
  - # 10
    frequency:    6.4183942288
  - # 11
    frequency:    6.6727015332
  - # 12
    frequency:    9.9905122056
  - # 13
    frequency:   10.6111851972
  - # 14
    frequency:   10.6632106301
  - # 15
    frequency:   11.4778506117
  - # 16
    frequency:   13.6781631289
  - # 17
    frequency:   13.7504095584
  - # 18
    frequency:   15.6516869116

- q-position: [    0.0909091,    0.0000000,    0.0000000 ]
  distance:    0.0295638
  band:
  - # 1
    frequency:   -1.5696130996
  - # 2
    frequency:   -0.9000941985
  - # 3
    frequency:    0.5216469790
  - # 4
    frequency:    0.7155156745
  - # 5
    frequency:    0.9705965699
  - # 6
    frequency:    1.8063502121
  - # 7
    frequency:    2.7217572422
  - # 8
    frequency:    3.1589304934
  - # 9
    frequency:    4.7899954921
  - # 10
    frequency:    6.4213156428
  - # 11
    frequency:    6.6973336866
  - # 12
    frequency:    9.9680741527
  - # 13
    frequency:   10.5930088095
  - # 14
    frequency:   10.6656343087
  - # 15
    frequency:   11.5391495378
  - # 16
    frequency:   13.6651326017
  - # 17
    frequency:   13.7442443968
  - # 18
    frequency:   15.6638904440

- q-position: [    0.0959596,    0.0000000,    0.0000000 ]
  distance:    0.0312063
  band:
  - # 1
    frequency:   -1.6641787265
  - # 2
    frequency:   -0.9699403596
  - # 3
    frequency:    0.5620413786
  - # 4
    frequency:    0.7392680307
  - # 5
    frequency:    1.0148547981
  - # 6
    frequency:    1.8971638054
  - # 7
    frequency:    2.7459250521
  - # 8
    frequency:    3.2219215626
  - # 9
    frequency:    4.7839547343
  - # 10
    frequency:    6.4243676019
  - # 11
    frequency:    6.7217282021
  - # 12
    frequency:    9.9446893799
  - # 13
    frequency:   10.5734343856
  - # 14
    frequency:   10.6681933684
  - # 15
    frequency:   11.6033621277
  - # 16
    frequency:   13.6520527402
  - # 17
    frequency:   13.7377755761
  - # 18
    frequency:   15.6765314799

- q-position: [    0.1010101,    0.0000000,    0.0000000 ]
  distance:    0.0328487
  band:
  - # 1
    frequency:   -1.7565333510
  - # 2
    frequency:   -1.0373696507
  - # 3
    frequency:    0.6031912161
  - # 4
    frequency:    0.7640533744
  - # 5
    frequency:    1.0596103395
  - # 6
    frequency:    1.9871771694
  - # 7
    frequency:    2.7709706291
  - # 8
    frequency:    3.2863015664
  - # 9
    frequency:    4.7777774880
  - # 10
    frequency:    6.4275447661
  - # 11
    frequency:    6.7457514914
  - # 12
    frequency:    9.9204049065
  - # 13
    frequency:   10.5526609036
  - # 14
    frequency:   10.6708870932
  - # 15
    frequency:   11.6700219143
  - # 16
    frequency:   13.6391147294
  - # 17
    frequency:   13.7310105805
  - # 18
    frequency:   15.6895715709

- q-position: [    0.1060606,    0.0000000,    0.0000000 ]
  distance:    0.0344911
  band:
  - # 1
    frequency:   -1.8467444894
  - # 2
    frequency:   -1.1025710314
  - # 3
    frequency:    0.6448610689
  - # 4
    frequency:    0.7899048180
  - # 5
    frequency:    1.1047116874
  - # 6
    frequency:    2.0763009737
  - # 7
    frequency:    2.7968397640
  - # 8
    frequency:    3.3519235189
  - # 9
    frequency:    4.7714968459
  - # 10
    frequency:    6.4308416918
  - # 11
    frequency:    6.7692866431
  - # 12
    frequency:    9.8952704943
  - # 13
    frequency:   10.5308707687
  - # 14
    frequency:   10.6737146758
  - # 15
    frequency:   11.7386333839
  - # 16
    frequency:   13.6265451901
  - # 17
    frequency:   13.7239571439
  - # 18
    frequency:   15.7029725893

- q-position: [    0.1111111,    0.0000000,    0.0000000 ]
  distance:    0.0361336
  band:
  - # 1
    frequency:   -1.9348564676
  - # 2
    frequency:   -1.1656878964
  - # 3
    frequency:    0.6867883840
  - # 4
    frequency:    0.8169053255
  - # 5
    frequency:    1.1500441975
  - # 6
    frequency:    2.1644508032
  - # 7
    frequency:    2.8234782661
  - # 8
    frequency:    3.4186492007
  - # 9
    frequency:    4.7651488418
  - # 10
    frequency:    6.4342528572
  - # 11
    frequency:    6.7922336299
  - # 12
    frequency:    9.8693386020
  - # 13
    frequency:   10.5082316527
  - # 14
    frequency:   10.6766752107
  - # 15
    frequency:   11.8086642475
  - # 16
    frequency:   13.6146126489
  - # 17
    frequency:   13.7166232304
  - # 18
    frequency:   15.7166972868

- q-position: [    0.1161616,    0.0000000,    0.0000000 ]
  distance:    0.0377760
  band:
  - # 1
    frequency:   -2.0208963140
  - # 2
    frequency:   -1.2268292477
  - # 3
    frequency:    0.7286624773
  - # 4
    frequency:    0.8452056416
  - # 5
    frequency:    1.1955191455
  - # 6
    frequency:    2.2515449042
  - # 7
    frequency:    2.8508321905
  - # 8
    frequency:    3.4863481016
  - # 9
    frequency:    4.7587727902
  - # 10
    frequency:    6.4377726865
  - # 11
    frequency:    6.8145091695
  - # 12
    frequency:    9.8426642833
  - # 13
    frequency:   10.4848986236
  - # 14
    frequency:   10.6797676862
  - # 15
    frequency:   11.8795366399
  - # 16
    frequency:   13.6036349807
  - # 17
    frequency:   13.7090170140
  - # 18
    frequency:   15.7307098716

- q-position: [    0.1212121,    0.0000000,    0.0000000 ]
  distance:    0.0394185
  band:
  - # 1
    frequency:   -2.1048780943
  - # 2
    frequency:   -1.2860778896
  - # 3
    frequency:    0.7701037291
  - # 4
    frequency:    0.8750424973
  - # 5
    frequency:    1.2410663815
  - # 6
    frequency:    2.3375025020
  - # 7
    frequency:    2.8788480451
  - # 8
    frequency:    3.5548963441
  - # 9
    frequency:    4.7524116980
  - # 10
    frequency:    6.4413955750
  - # 11
    frequency:    6.8360462921
  - # 12
    frequency:    9.8153050375
  - # 13
    frequency:   10.4610162096
  - # 14
    frequency:   10.6829909771
  - # 15
    frequency:   11.9506178384
  - # 16
    frequency:   13.5939875424
  - # 17
    frequency:   13.7011468592
  - # 18
    frequency:   15.7449765975

- q-position: [    0.1262626,    0.0000000,    0.0000000 ]
  distance:    0.0410609
  band:
  - # 1
    frequency:   -2.1868061556
  - # 2
    frequency:   -1.3434965162
  - # 3
    frequency:    0.8106595907
  - # 4
    frequency:    0.9067403546
  - # 5
    frequency:    1.2866292958
  - # 6
    frequency:    2.4222424981
  - # 7
    frequency:    2.9074729778
  - # 8
    frequency:    3.6241755851
  - # 9
    frequency:    4.7461127713
  - # 10
    frequency:    6.4451159133
  - # 11
    frequency:    6.8567936697
  - # 12
    frequency:    9.7873206182
  - # 13
    frequency:   10.4367202422
  - # 14
    frequency:   10.6863438371
  - # 15
    frequency:   12.0212113465
  - # 16
    frequency:   13.5861112563
  - # 17
    frequency:   13.6930213020
  - # 18
    frequency:   15.7594663590

- q-position: [    0.1313131,    0.0000000,    0.0000000 ]
  distance:    0.0427033
  band:
  - # 1
    frequency:   -2.2666775897
  - # 2
    frequency:   -1.3991322915
  - # 3
    frequency:    0.8498530161
  - # 4
    frequency:    0.9406610034
  - # 5
    frequency:    1.3321613003
  - # 6
    frequency:    2.5056824268
  - # 7
    frequency:    2.9366549437
  - # 8
    frequency:    3.6940718695
  - # 9
    frequency:    4.7399280527
  - # 10
    frequency:    6.4489281106
  - # 11
    frequency:    6.8767147641
  - # 12
    frequency:    9.7587728058
  - # 13
    frequency:   10.4121394329
  - # 14
    frequency:   10.6898248918
  - # 15
    frequency:   12.0905498520
  - # 16
    frequency:   13.5805191334
  - # 17
    frequency:   13.6846490303
  - # 18
    frequency:   15.7741512880

- q-position: [    0.1363636,    0.0000000,    0.0000000 ]
  distance:    0.0443458
  band:
  - # 1
    frequency:   -2.3444841320
  - # 2
    frequency:   -1.4530203352
  - # 3
    frequency:    0.8873124656
  - # 4
    frequency:    0.9770718219
  - # 5
    frequency:    1.3776233219
  - # 6
    frequency:    2.5877375921
  - # 7
    frequency:    2.9663428521
  - # 8
    frequency:    3.7644743903
  - # 9
    frequency:    4.7339152422
  - # 10
    frequency:    6.4528266179
  - # 11
    frequency:    6.8957868436
  - # 12
    frequency:    9.7297251496
  - # 13
    frequency:   10.3873966852
  - # 14
    frequency:   10.6934326317
  - # 15
    frequency:   12.1577926767
  - # 16
    frequency:   13.5777985712
  - # 17
    frequency:   13.6760388659
  - # 18
    frequency:   15.7890073468

- q-position: [    0.1414141,    0.0000000,    0.0000000 ]
  distance:    0.0459882
  band:
  - # 1
    frequency:   -2.4202136455
  - # 2
    frequency:   -1.5051864094
  - # 3
    frequency:    0.9229273005
  - # 4
    frequency:    1.0159888509
  - # 5
    frequency:    1.4229819849
  - # 6
    frequency:    2.6683203306
  - # 7
    frequency:    2.9964866956
  - # 8
    frequency:    3.8352740726
  - # 9
    frequency:    4.7281387864
  - # 10
    frequency:    6.4568059493
  - # 11
    frequency:    6.9139999161
  - # 12
    frequency:    9.7002426832
  - # 13
    frequency:   10.3626101694
  - # 14
    frequency:   10.6971654058
  - # 15
    frequency:   12.2220317945
  - # 16
    frequency:   13.5786052867
  - # 17
    frequency:   13.6671997465
  - # 18
    frequency:   15.8040149145

- q-position: [    0.1464646,    0.0000000,    0.0000000 ]
  distance:    0.0476306
  band:
  - # 1
    frequency:   -2.4938512939
  - # 2
    frequency:   -1.5556490101
  - # 3
    frequency:    0.9568840047
  - # 4
    frequency:    1.0571392207
  - # 5
    frequency:    1.4682082714
  - # 6
    frequency:    2.7473393692
  - # 7
    frequency:    3.0270376598
  - # 8
    frequency:    3.9063618347
  - # 9
    frequency:    4.7226713806
  - # 10
    frequency:    6.4608607024
  - # 11
    frequency:    6.9313556191
  - # 12
    frequency:    9.6703916190
  - # 13
    frequency:   10.3378941893
  - # 14
    frequency:   10.7010214154
  - # 15
    frequency:   12.2823118642
  - # 16
    frequency:   13.5836433754
  - # 17
    frequency:   13.6581407087
  - # 18
    frequency:   15.8191593616

- q-position: [    0.1515152,    0.0000000,    0.0000000 ]
  distance:    0.0492731
  band:
  - # 1
    frequency:   -2.5653804817
  - # 2
    frequency:   -1.6044210163
  - # 3
    frequency:    0.9895406762
  - # 4
    frequency:    1.1000854689
  - # 5
    frequency:    1.5132765180
  - # 6
    frequency:    2.8246992560
  - # 7
    frequency:    3.0579482162
  - # 8
    frequency:    3.9776262735
  - # 9
    frequency:    4.7175961289
  - # 10
    frequency:    6.4649855771
  - # 11
    frequency:    6.9478660988
  - # 12
    frequency:    9.6402390239
  - # 13
    frequency:   10.3133598695
  - # 14
    frequency:   10.7049987088
  - # 15
    frequency:   12.3376699283
  - # 16
    frequency:   13.5936257922
  - # 17
    frequency:   13.6488708712
  - # 18
    frequency:   15.8344316095

- q-position: [    0.1565657,    0.0000000,    0.0000000 ]
  distance:    0.0509155
  band:
  - # 1
    frequency:   -2.6347836150
  - # 2
    frequency:   -1.6515110001
  - # 3
    frequency:    1.0212686602
  - # 4
    frequency:    1.1443828581
  - # 5
    frequency:    1.5581636548
  - # 6
    frequency:    2.9002998585
  - # 7
    frequency:    3.0891721990
  - # 8
    frequency:    4.0489503054
  - # 9
    frequency:    4.7130098200
  - # 10
    frequency:    6.4691753928
  - # 11
    frequency:    6.9635529056
  - # 12
    frequency:    9.6098524830
  - # 13
    frequency:   10.2891156912
  - # 14
    frequency:   10.7090951766
  - # 15
    frequency:   12.3871977569
  - # 16
    frequency:   13.6092122334
  - # 17
    frequency:   13.6393994199
  - # 18
    frequency:   15.8498286667

- q-position: [    0.1616162,    0.0000000,    0.0000000 ]
  distance:    0.0525579
  band:
  - # 1
    frequency:   -2.7020427247
  - # 2
    frequency:   -1.6969242814
  - # 3
    frequency:    1.0523678398
  - # 4
    frequency:    1.1896631648
  - # 5
    frequency:    1.6028486197
  - # 6
    frequency:    2.9740359342
  - # 7
    frequency:    3.1206648660
  - # 8
    frequency:    4.1202058626
  - # 9
    frequency:    4.7090281964
  - # 10
    frequency:    6.4734251035
  - # 11
    frequency:    6.9784459254
  - # 12
    frequency:    9.5792997519
  - # 13
    frequency:   10.2652678952
  - # 14
    frequency:   10.7133085473
  - # 15
    frequency:   12.4301227929
  - # 16
    frequency:   13.6297355934
  - # 17
    frequency:   13.6309284361
  - # 18
    frequency:   15.8653541351

- q-position: [    0.1666667,    0.0000000,    0.0000000 ]
  distance:    0.0542004
  band:
  - # 1
    frequency:   -2.7671399821
  - # 2
    frequency:   -1.7406637824
  - # 3
    frequency:    1.0830519448
  - # 4
    frequency:    1.2356485623
  - # 5
    frequency:    1.6473119041
  - # 6
    frequency:    3.0457967945
  - # 7
    frequency:    3.1523829458
  - # 8
    frequency:    4.1912448154
  - # 9
    frequency:    4.7057950137
  - # 10
    frequency:    6.4777298106
  - # 11
    frequency:    6.9925823588
  - # 12
    frequency:    9.5486484041
  - # 13
    frequency:   10.2419207690
  - # 14
    frequency:   10.7176363845
  - # 15
    frequency:   12.4658931883
  - # 16
    frequency:   13.6198886689
  - # 17
    frequency:   13.6590813899
  - # 18
    frequency:   15.8810186731

- q-position: [    0.1717172,    0.0000000,    0.0000000 ]
  distance:    0.0558428
  band:
  - # 1
    frequency:   -2.8300581287
  - # 2
    frequency:   -1.7827307277
  - # 3
    frequency:    1.1134637469
  - # 4
    frequency:    1.2821357181
  - # 5
    frequency:    1.6915351949
  - # 6
    frequency:    3.1154660982
  - # 7
    frequency:    3.1842846715
  - # 8
    frequency:    4.2618821480
  - # 9
    frequency:    4.7034988170
  - # 10
    frequency:    6.4820847746
  - # 11
    frequency:    7.0060057587
  - # 12
    frequency:    9.5179654753
  - # 13
    frequency:   10.2191768310
  - # 14
    frequency:   10.7220760839
  - # 15
    frequency:   12.4942437249
  - # 16
    frequency:   13.6098679509
  - # 17
    frequency:   13.6936936670
  - # 18
    frequency:   15.8968404004

- q-position: [    0.1767677,    0.0000000,    0.0000000 ]
  distance:    0.0574852
  band:
  - # 1
    frequency:   -2.8907808402
  - # 2
    frequency:   -1.8231252227
  - # 3
    frequency:    1.1436950155
  - # 4
    frequency:    1.3289752227
  - # 5
    frequency:    1.7355010931
  - # 6
    frequency:    3.1829218343
  - # 7
    frequency:    3.2163298030
  - # 8
    frequency:    4.3318621001
  - # 9
    frequency:    4.7024066537
  - # 10
    frequency:    6.4864854230
  - # 11
    frequency:    7.0187651280
  - # 12
    frequency:    9.4873171088
  - # 13
    frequency:   10.1971369208
  - # 14