nqpoint: 300    
npath: 3      
segment_nqpoint:
- 100
- 100
- 100
labels:
- [ 'G', 'M' ]
- [ 'M', 'K' ]
- [ 'K', 'G' ]
reciprocal_lattice:
- [   0.29156494,   0.16833510,   0.00000000 ] # a*
- [   0.00000000,   0.33667020,   0.00000000 ] # b*
- [   0.00000000,   0.00000000,   0.04043329 ] # c*
natom: 6      
lattice:
- [     3.429767612804951,     0.000000000000000,     0.000000000000000 ] # a
- [    -1.714883806402476,     2.970265881764619,     0.000000000000000 ] # b
- [     0.000000000000000,     0.000000000000000,    24.732098162169514 ] # c
points:
- symbol: Br # 1
  coordinates: [  0.333332985432215,  0.666666983183674,  0.636100425407235 ]
  mass: 79.904000
- symbol: C # 2
  coordinates: [  0.000000000000000,  0.000000000000000,  0.506285763679456 ]
  mass: 12.010700
- symbol: H # 3
  coordinates: [  0.666666984744047,  0.333332985985145,  0.363899574592765 ]
  mass: 1.007940
- symbol: O # 4
  coordinates: [  0.666666984744047,  0.333332985985145,  0.403803431285735 ]
  mass: 15.999400
- symbol: Zr # 5
  coordinates: [  0.333332985432215,  0.666666983183674,  0.457895126975509 ]
  mass: 91.224000
- symbol: Zr # 6
  coordinates: [  0.666666984744047,  0.333332985985145,  0.555657082760752 ]
  mass: 91.224000

phonon:
- q-position: [    0.0000000,    0.0000000,    0.0000000 ]
  distance:    0.0000000
  band:
  - # 1
    frequency:   -0.0000071823
  - # 2
    frequency:   -0.0000001716
  - # 3
    frequency:    0.0000056627
  - # 4
    frequency:    3.1790766108
  - # 5
    frequency:    3.1790766108
  - # 6
    frequency:    4.9209640744
  - # 7
    frequency:    5.2598768942
  - # 8
    frequency:    5.2598768943
  - # 9
    frequency:    6.6569864262
  - # 10
    frequency:    6.6569864262
  - # 11
    frequency:    8.5021766626
  - # 12
    frequency:   11.7029165403
  - # 13
    frequency:   14.7962983897
  - # 14
    frequency:   14.7962983897
  - # 15
    frequency:   15.6198248939
  - # 16
    frequency:   17.3653245449
  - # 17
    frequency:   17.3653245449
  - # 18
    frequency:  111.7265462052

- q-position: [    0.0050505,    0.0000000,    0.0000000 ]
  distance:    0.0017004
  band:
  - # 1
    frequency:    0.0017244135
  - # 2
    frequency:    0.0632981849
  - # 3
    frequency:    0.1008284656
  - # 4
    frequency:    3.1794168848
  - # 5
    frequency:    3.1805215351
  - # 6
    frequency:    4.9192555783
  - # 7
    frequency:    5.2598939734
  - # 8
    frequency:    5.2618358567
  - # 9
    frequency:    6.6570754986
  - # 10
    frequency:    6.6574631980
  - # 11
    frequency:    8.5016608123
  - # 12
    frequency:   11.7026094622
  - # 13
    frequency:   14.7959957895
  - # 14
    frequency:   14.7965448890
  - # 15
    frequency:   15.6197348825
  - # 16
    frequency:   17.3651217811
  - # 17
    frequency:   17.3656055207
  - # 18
    frequency:  111.7266591115

- q-position: [    0.0101010,    0.0000000,    0.0000000 ]
  distance:    0.0034007
  band:
  - # 1
    frequency:    0.0068876191
  - # 2
    frequency:    0.1265701420
  - # 3
    frequency:    0.2016382931
  - # 4
    frequency:    3.1804370317
  - # 5
    frequency:    3.1848455146
  - # 6
    frequency:    4.9142489206
  - # 7
    frequency:    5.2599445304
  - # 8
    frequency:    5.2675945278
  - # 9
    frequency:    6.6573427891
  - # 10
    frequency:    6.6588900575
  - # 11
    frequency:    8.5001146110
  - # 12
    frequency:   11.7016881064
  - # 13
    frequency:   14.7950926208
  - # 14
    frequency:   14.7972836213
  - # 15
    frequency:   15.6194644925
  - # 16
    frequency:   17.3645150833
  - # 17
    frequency:   17.3664465447
  - # 18
    frequency:  111.7269975544

- q-position: [    0.0151515,    0.0000000,    0.0000000 ]
  distance:    0.0051011
  band:
  - # 1
    frequency:    0.0154588491
  - # 2
    frequency:    0.1897897306
  - # 3
    frequency:    0.3024104672
  - # 4
    frequency:    3.1821350314
  - # 5
    frequency:    3.1920164775
  - # 6
    frequency:    4.9062665854
  - # 7
    frequency:    5.2600265358
  - # 8
    frequency:    5.2768322586
  - # 9
    frequency:    6.6577885105
  - # 10
    frequency:    6.6612566802
  - # 11
    frequency:    8.4975421016
  - # 12
    frequency:   11.7001520993
  - # 13
    frequency:   14.7936027664
  - # 14
    frequency:   14.7985122940
  - # 15
    frequency:   15.6190126713
  - # 16
    frequency:   17.3635092234
  - # 17
    frequency:   17.3678419066
  - # 18
    frequency:  111.7275607068

- q-position: [    0.0202020,    0.0000000,    0.0000000 ]
  distance:    0.0068014
  band:
  - # 1
    frequency:    0.0273880087
  - # 2
    frequency:    0.2529309817
  - # 3
    frequency:    0.4031252216
  - # 4
    frequency:    3.1845075345
  - # 5
    frequency:    3.2019819787
  - # 6
    frequency:    4.8957533097
  - # 7
    frequency:    5.2601366466
  - # 8
    frequency:    5.2891073468
  - # 9
    frequency:    6.6584129949
  - # 10
    frequency:    6.6645460009
  - # 11
    frequency:    8.4939500008
  - # 12
    frequency:   11.6980007871
  - # 13
    frequency:   14.7915493197
  - # 14
    frequency:   14.8002270976
  - # 15
    frequency:   15.6183777183
  - # 16
    frequency:   17.3621121272
  - # 17
    frequency:   17.3697820905
  - # 18
    frequency:  111.7283471940

- q-position: [    0.0252525,    0.0000000,    0.0000000 ]
  distance:    0.0085018
  band:
  - # 1
    frequency:    0.0426070380
  - # 2
    frequency:    0.3159681823
  - # 3
    frequency:    0.5037616683
  - # 4
    frequency:    3.1875498871
  - # 5
    frequency:    3.2146706352
  - # 6
    frequency:    4.8831893400
  - # 7
    frequency:    5.2602702639
  - # 8
    frequency:    5.3039437479
  - # 9
    frequency:    6.6592166595
  - # 10
    frequency:    6.6687344234
  - # 11
    frequency:    8.4893476682
  - # 12
    frequency:   11.6952331904
  - # 13
    frequency:   14.7889645182
  - # 14
    frequency:   14.8024227243
  - # 15
    frequency:   15.6175573610
  - # 16
    frequency:   17.3603348319
  - # 17
    frequency:   17.3722537783
  - # 18
    frequency:  111.7293550991

- q-position: [    0.0303030,    0.0000000,    0.0000000 ]
  distance:    0.0102021
  band:
  - # 1
    frequency:    0.0610318155
  - # 2
    frequency:    0.3788759545
  - # 3
    frequency:    0.6042974339
  - # 4
    frequency:    3.1912561665
  - # 5
    frequency:    3.2299939972
  - # 6
    frequency:    4.8690283947
  - # 7
    frequency:    5.2604216138
  - # 8
    frequency:    5.3208930733
  - # 9
    frequency:    6.6601999608
  - # 10
    frequency:    6.6737921073
  - # 11
    frequency:    8.4837470618
  - # 12
    frequency:   11.6918479440
  - # 13
    frequency:   14.7858896468
  - # 14
    frequency:   14.8050923934
  - # 15
    frequency:   15.6165488588
  - # 16
    frequency:   17.3581914279
  - # 17
    frequency:   17.3752398574
  - # 18
    frequency:  111.7305819703

- q-position: [    0.0353535,    0.0000000,    0.0000000 ]
  distance:    0.0119025
  band:
  - # 1
    frequency:    0.0825643880
  - # 2
    frequency:    0.4416293323
  - # 3
    frequency:    0.7047083039
  - # 4
    frequency:    3.1956192253
  - # 5
    frequency:    3.2478487309
  - # 6
    frequency:    4.8536667443
  - # 7
    frequency:    5.2605838475
  - # 8
    frequency:    5.3395654715
  - # 9
    frequency:    6.6613633373
  - # 10
    frequency:    6.6796833258
  - # 11
    frequency:    8.4771626833
  - # 12
    frequency:   11.6878432237
  - # 13
    frequency:   14.7823749116
  - # 14
    frequency:   14.8082278845
  - # 15
    frequency:   15.6153491276
  - # 16
    frequency:   17.3556989833
  - # 17
    frequency:   17.3787194362
  - # 18
    frequency:  111.7320248310

- q-position: [    0.0404040,    0.0000000,    0.0000000 ]
  distance:    0.0136028
  band:
  - # 1
    frequency:    0.1070953973
  - # 2
    frequency:    0.5042038314
  - # 3
    frequency:    0.8049678777
  - # 4
    frequency:    3.2006307452
  - # 5
    frequency:    3.2681189846
  - # 6
    frequency:    4.8374354413
  - # 7
    frequency:    5.2607491614
  - # 8
    frequency:    5.3596373655
  - # 9
    frequency:    6.6627071422
  - # 10
    frequency:    6.6863668854
  - # 11
    frequency:    8.4696115104
  - # 12
    frequency:   11.6832166632
  - # 13
    frequency:   14.7784792793
  - # 14
    frequency:   14.8118195781
  - # 15
    frequency:   15.6139548819
  - # 16
    frequency:   17.3528774513
  - # 17
    frequency:   17.3826678704
  - # 18
    frequency:  111.7336801911

- q-position: [    0.0454545,    0.0000000,    0.0000000 ]
  distance:    0.0153032
  band:
  - # 1
    frequency:    0.1345065775
  - # 2
    frequency:    0.5665755137
  - # 3
    frequency:    0.9050472359
  - # 4
    frequency:    3.2062812984
  - # 5
    frequency:    3.2906788066
  - # 6
    frequency:    4.8206051285
  - # 7
    frequency:    5.2609089335
  - # 8
    frequency:    5.3808466297
  - # 9
    frequency:    6.6642315680
  - # 10
    frequency:    6.6937966003
  - # 11
    frequency:    8.4611129193
  - # 12
    frequency:   11.6779652676
  - # 13
    frequency:   14.7742702807
  - # 14
    frequency:   14.8158565049
  - # 15
    frequency:   15.6123627877
  - # 16
    frequency:   17.3497495610
  - # 17
    frequency:   17.3870568034
  - # 18
    frequency:  111.7355440610

- q-position: [    0.0505051,    0.0000000,    0.0000000 ]
  distance:    0.0170035
  band:
  - # 1
    frequency:    0.1646732083
  - # 2
    frequency:    0.6287210455
  - # 3
    frequency:    1.0049146215
  - # 4
    frequency:    3.2125604173
  - # 5
    frequency:    3.3153944974
  - # 6
    frequency:    4.8033957375
  - # 7
    frequency:    5.2610538748
  - # 8
    frequency:    5.4029829028
  - # 9
    frequency:    6.6659365653
  - # 10
    frequency:    6.7019218109
  - # 11
    frequency:    8.4516885966
  - # 12
    frequency:   11.6720853251
  - # 13
    frequency:   14.7698237729
  - # 14
    frequency:   14.8203264027
  - # 15
    frequency:   15.6105696209
  - # 16
    frequency:   17.3463406912
  - # 17
    frequency:   17.3918542263
  - # 18
    frequency:  111.7376119667

- q-position: [    0.0555556,    0.0000000,    0.0000000 ]
  distance:    0.0187039
  band:
  - # 1
    frequency:    0.1974664318
  - # 2
    frequency:    0.6906177469
  - # 3
    frequency:    1.1045351373
  - # 4
    frequency:    3.2194566708
  - # 5
    frequency:    3.3421267975
  - # 6
    frequency:    4.7859868848
  - # 7
    frequency:    5.2611741932
  - # 8
    frequency:    5.4258772428
  - # 9
    frequency:    6.6678217566
  - # 10
    frequency:    6.7106879372
  - # 11
    frequency:    8.4413624414
  - # 12
    frequency:   11.6655723251
  - # 13
    frequency:   14.7652236567
  - # 14
    frequency:   14.8252157826
  - # 15
    frequency:   15.6085724261
  - # 16
    frequency:   17.3426787270
  - # 17
    frequency:   17.3970245586
  - # 18
    frequency:  111.7398789678

- q-position: [    0.0606061,    0.0000000,    0.0000000 ]
  distance:    0.0204043
  band:
  - # 1
    frequency:    0.2327553606
  - # 2
    frequency:    0.7522436340
  - # 3
    frequency:    1.2038704608
  - # 4
    frequency:    3.2269577466
  - # 5
    frequency:    3.3707328308
  - # 6
    frequency:    4.7685271658
  - # 7
    frequency:    5.2612597657
  - # 8
    frequency:    5.4493929347
  - # 9
    frequency:    6.6698863490
  - # 10
    frequency:    6.7200370569
  - # 11
    frequency:    8.4301604587
  - # 12
    frequency:   11.6584208874
  - # 13
    frequency:   14.7605615437
  - # 14
    frequency:   14.8305100030
  - # 15
    frequency:   15.6063686698
  - # 16
    frequency:   17.3387938993
  - # 17
    frequency:   17.4025287553
  - # 18
    frequency:  111.7423396757

- q-position: [    0.0656566,    0.0000000,    0.0000000 ]
  distance:    0.0221046
  band:
  - # 1
    frequency:    0.2704089306
  - # 2
    frequency:    0.8135774523
  - # 3
    frequency:    1.3028785776
  - # 4
    frequency:    3.2350505393
  - # 5
    frequency:    3.4010677498
  - # 6
    frequency:    4.7511418379
  - # 7
    frequency:    5.2613003180
  - # 8
    frequency:    5.4734179766
  - # 9
    frequency:    6.6721290468
  - # 10
    frequency:    6.7299084992
  - # 11
    frequency:    8.4181106444
  - # 12
    frequency:   11.6506247094
  - # 13
    frequency:   14.7559363664
  - # 14
    frequency:   14.8361933539
  - # 15
    frequency:   15.6039563845
  - # 16
    frequency:   17.3347186085
  - # 17
    frequency:   17.4083244417
  - # 18
    frequency:  111.7449882751

- q-position: [    0.0707071,    0.0000000,    0.0000000 ]
  distance:    0.0238050
  band:
  - # 1
    frequency:    0.3102974743
  - # 2
    frequency:    0.8745987009
  - # 3
    frequency:    1.4015135363
  - # 4
    frequency:    3.2437212430
  - # 5
    frequency:    3.4329860441
  - # 6
    frequency:    4.7339389543
  - # 7
    frequency:    5.2612856072
  - # 8
    frequency:    5.4978591973
  - # 9
    frequency:    6.6745479676
  - # 10
    frequency:    6.7402394451
  - # 11
    frequency:    8.4052428628
  - # 12
    frequency:   11.6421765374
  - # 13
    frequency:   14.7514539280
  - # 14
    frequency:   14.8422491486
  - # 15
    frequency:   15.6013342998
  - # 16
    frequency:   17.3304872300
  - # 17
    frequency:   17.4143660784
  - # 18
    frequency:  111.7478185453

- q-position: [    0.0757576,    0.0000000,    0.0000000 ]
  distance:    0.0255053
  band:
  - # 1
    frequency:    0.3522940084
  - # 2
    frequency:    0.9352876481
  - # 3
    frequency:    1.4997252243
  - # 4
    frequency:    3.2529554473
  - # 5
    frequency:    3.4663424935
  - # 6
    frequency:    4.7170142149
  - # 7
    frequency:    5.2612056045
  - # 8
    frequency:    5.5226377595
  - # 9
    frequency:    6.6771405622
  - # 10
    frequency:    6.7509655268
  - # 11
    frequency:    8.3915887170
  - # 12
    frequency:   11.6330681697
  - # 13
    frequency:   14.7472263836
  - # 14
    frequency:   14.8486598268
  - # 15
    frequency:   15.5985019570
  - # 16
    frequency:   17.3261359052
  - # 17
    frequency:   17.4206051581
  - # 18
    frequency:  111.7508238842

- q-position: [    0.0808081,    0.0000000,    0.0000000 ]
  distance:    0.0272057
  band:
  - # 1
    frequency:    0.3962752449
  - # 2
    frequency:    0.9956253368
  - # 3
    frequency:    1.5974591674
  - # 4
    frequency:    3.2627382363
  - # 5
    frequency:    3.5009927525
  - # 6
    frequency:    4.7004548367
  - # 7
    frequency:    5.2610506754
  - # 8
    frequency:    5.5476857666
  - # 9
    frequency:    6.6799035440
  - # 10
    frequency:    6.7620214180
  - # 11
    frequency:    8.3771814133
  - # 12
    frequency:   11.6232904968
  - # 13
    frequency:   14.7433716482
  - # 14
    frequency:   14.8554070647
  - # 15
    frequency:   15.5954598067
  - # 16
    frequency:   17.3217023155
  - # 17
    frequency:   17.4269904338
  - # 18
    frequency:  111.7539973330

- q-position: [    0.0858586,    0.0000000,    0.0000000 ]
  distance:    0.0289060
  band:
  - # 1
    frequency:    0.4421223445
  - # 2
    frequency:    1.0555935816
  - # 3
    frequency:    1.6946563530
  - # 4
    frequency:    3.2730542898
  - # 5
    frequency:    3.5367935640
  - # 6
    frequency:    4.6843427208
  - # 7
    frequency:    5.2608117541
  - # 8
    frequency:    5.5729437249
  - # 9
    frequency:    6.6828328259
  - # 10
    frequency:    6.7733414091
  - # 11
    frequency:    8.3620556203
  - # 12
    frequency:   11.6128335852
  - # 13
    frequency:   14.7400127280
  - # 14
    frequency:   14.8624718960
  - # 15
    frequency:   15.5922092886
  - # 16
    frequency:   17.3172254414
  - # 17
    frequency:   17.4334681790
  - # 18
    frequency:  111.7573316015

- q-position: [    0.0909091,    0.0000000,    0.0000000 ]
  distance:    0.0306064
  band:
  - # 1
    frequency:    0.4897214387
  - # 2
    frequency:    1.1151749560
  - # 3
    frequency:    1.7912530784
  - # 4
    frequency:    3.2838879858
  - # 5
    frequency:    3.5736025951
  - # 6
    frequency:    4.6687571512
  - # 7
    frequency:    5.2604805092
  - # 8
    frequency:    5.5983586555
  - # 9
    frequency:    6.6859234702
  - # 10
    frequency:    6.7848599629
  - # 11
    frequency:    8.3462473230
  - # 12
    frequency:   11.6016868095
  - # 13
    frequency:   14.7372769688
  - # 14
    frequency:   14.8698348404
  - # 15
    frequency:   15.5887528928
  - # 16
    frequency:   17.3127453084
  - # 17
    frequency:   17.4399824772
  - # 18
    frequency:  111.7608190951

- q-position: [    0.0959596,    0.0000000,    0.0000000 ]
  distance:    0.0323067
  band:
  - # 1
    frequency:    0.5389639500
  - # 2
    frequency:    1.1743527704
  - # 3
    frequency:    1.8871808253
  - # 4
    frequency:    3.2952235030
  - # 5
    frequency:    3.6112778870
  - # 6
    frequency:    4.6537772226
  - # 7
    frequency:    5.2600494989
  - # 8
    frequency:    5.6238827014
  - # 9
    frequency:    6.6891696505
  - # 10
    frequency:    6.7965122446
  - # 11
    frequency:    8.3297936719
  - # 12
    frequency:   11.5898390362
  - # 13
    frequency:   14.7352952212
  - # 14
    frequency:   14.8774760409
  - # 15
    frequency:   15.5850942056
  - # 16
    frequency:   17.3083027182
  - # 17
    frequency:   17.4464755404
  - # 18
    frequency:  111.7644519428

- q-position: [    0.1010101,    0.0000000,    0.0000000 ]
  distance:    0.0340071
  band:
  - # 1
    frequency:    0.5897467402
  - # 2
    frequency:    1.2331110419
  - # 3
    frequency:    1.9823661589
  - # 4
    frequency:    3.3070449233
  - # 5
    frequency:    3.6496769001
  - # 6
    frequency:    4.6394841648
  - # 7
    frequency:    5.2595123120
  - # 8
    frequency:    5.6494721062
  - # 9
    frequency:    6.6925646287
  - # 10
    frequency:    6.8082346245
  - # 11
    frequency:    8.3127328303
  - # 12
    frequency:   11.5772788618
  - # 13
    frequency:   14.7342009209
  - # 14
    frequency:   14.8853754086
  - # 15
    frequency:   15.5812379402
  - # 16
    frequency:   17.3039389691
  - # 17
    frequency:   17.4528880529
  - # 18
    frequency:  111.7682220245

- q-position: [    0.1060606,    0.0000000,    0.0000000 ]
  distance:    0.0357074
  band:
  - # 1
    frequency:    0.6419721160
  - # 2
    frequency:    1.2914344544
  - # 3
    frequency:    2.0767306535
  - # 4
    frequency:    3.3193363336
  - # 5
    frequency:    3.6886551277
  - # 6
    frequency:    4.6259637111
  - # 7
    frequency:    5.2588636944
  - # 8
    frequency:    5.6750864779
  - # 9
    frequency:    6.6961007465
  - # 10
    frequency:    6.8199651496
  - # 11
    frequency:    8.2951038165
  - # 12
    frequency:   11.5639949043
  - # 13
    frequency:   14.7341290859
  - # 14
    frequency:   14.8935127745
  - # 15
    frequency:   15.5771899574
  - # 16
    frequency:   17.2996955660
  - # 17
    frequency:   17.4591595362
  - # 18
    frequency:  111.7721210006

- q-position: [    0.1111111,    0.0000000,    0.0000000 ]
  distance:    0.0374078
  band:
  - # 1
    frequency:    0.6955477193
  - # 2
    frequency:    1.3493083121
  - # 3
    frequency:    2.1701908420
  - # 4
    frequency:    3.3320819251
  - # 5
    frequency:    3.7280642366
  - # 6
    frequency:    4.6133086482
  - # 7
    frequency:    5.2580996585
  - # 8
    frequency:    5.7006882657
  - # 9
    frequency:    6.6997694326
  - # 10
    frequency:    6.8316439822
  - # 11
    frequency:    8.2769463452
  - # 12
    frequency:   11.5499761459
  - # 13
    frequency:   14.7352152333
  - # 14
    frequency:   14.9018680458
  - # 15
    frequency:   15.5729572787
  - # 16
    frequency:   17.2956139217
  - # 17
    frequency:   17.4652287344
  - # 18
    frequency:  111.7761403409

- q-position: [    0.1161616,    0.0000000,    0.0000000 ]
  distance:    0.0391082
  band:
  - # 1
    frequency:    0.7503863263
  - # 2
    frequency:    1.4067184836
  - # 3
    frequency:    2.2626581871
  - # 4
    frequency:    3.3452660913
  - # 5
    frequency:    3.7677496865
  - # 6
    frequency:    4.6016216695
  - # 7
    frequency:    5.2572175754
  - # 8
    frequency:    5.7262424014
  - # 9
    frequency:    6.7035612262
  - # 10
    frequency:    6.8432138047
  - # 11
    frequency:    8.2583006657
  - # 12
    frequency:   11.5352123218
  - # 13
    frequency:   14.7375942227
  - # 14
    frequency:   14.9104213672
  - # 15
    frequency:   15.5685480976
  - # 16
    frequency:   17.2917350526
  - # 17
    frequency:   17.4710340125
  - # 18
    frequency:  111.7802713537

- q-position: [    0.1212121,    0.0000000,    0.0000000 ]
  distance:    0.0408085
  band:
  - # 1
    frequency:    0.8064055767
  - # 2
    frequency:    1.4636513400
  - # 3
    frequency:    2.3540390716
  - # 4
    frequency:    3.3588735222
  - # 5
    frequency:    3.8075477838
  - # 6
    frequency:    4.5910186428
  - # 7
    frequency:    5.2562162478
  - # 8
    frequency:    5.7517160622
  - # 9
    frequency:    6.7074658148
  - # 10
    frequency:    6.8546201902
  - # 11
    frequency:    8.2392073997
  - # 12
    frequency:   11.5196943483
  - # 13
    frequency:   14.7413990328
  - # 14
    frequency:   14.9191532843
  - # 15
    frequency:   15.5639717945
  - # 16
    frequency:   17.2880992702
  - # 17
    frequency:   17.4765137667
  - # 18
    frequency:  111.7845052159

- q-position: [    0.1262626,    0.0000000,    0.0000000 ]
  distance:    0.0425089
  band:
  - # 1
    frequency:    0.8635276506
  - # 2
    frequency:    1.5200936856
  - # 3
    frequency:    2.4442348002
  - # 4
    frequency:    3.3728892955
  - # 5
    frequency:    3.8472821488
  - # 6
    frequency:    4.5816323629
  - # 7
    frequency:    5.2550959653
  - # 8
    frequency:    5.7770785268
  - # 9
    frequency:    6.7114720870
  - # 10
    frequency:    6.8658119371
  - # 11
    frequency:    8.2197073777
  - # 12
    frequency:   11.5034147785
  - # 13
    frequency:   14.7467594806
  - # 14
    frequency:   14.9280449066
  - # 15
    frequency:   15.5592389631
  - # 16
    frequency:   17.2847458724
  - # 17
    frequency:   17.4816068409
  - # 18
    frequency:  111.7888330020

- q-position: [    0.1313131,    0.0000000,    0.0000000 ]
  distance:    0.0442092
  band:
  - # 1
    frequency:    0.9216789096
  - # 2
    frequency:    1.5760326827
  - # 3
    frequency:    2.5331416058
  - # 4
    frequency:    3.3872989637
  - # 5
    frequency:    3.8867596541
  - # 6
    frequency:    4.5736167778
  - # 7
    frequency:    5.2538585408
  - # 8
    frequency:    5.8023010977
  - # 9
    frequency:    6.7155681982
  - # 10
    frequency:    6.8767413704
  - # 11
    frequency:    8.1998414743
  - # 12
    frequency:   11.4863682737
  - # 13
    frequency:   14.7538008935
  - # 14
    frequency:   14.9370780701
  - # 15
    frequency:   15.5543614571
  - # 16
    frequency:   17.2817128361
  - # 17
    frequency:   17.4862529464
  - # 18
    frequency:  111.7932457141

- q-position: [    0.1363636,    0.0000000,    0.0000000 ]
  distance:    0.0459096
  band:
  - # 1
    frequency:    0.9807895125
  - # 2
    frequency:    1.6314557711
  - # 3
    frequency:    2.6206506473
  - # 4
    frequency:    3.4020886361
  - # 5
    frequency:    3.9257660598
  - # 6
    frequency:    4.5671515032
  - # 7
    frequency:    5.2525073298
  - # 8
    frequency:    5.8273570706
  - # 9
    frequency:    6.7197416483
  - # 10
    frequency:    6.8873646082
  - # 11
    frequency:    8.1796504448
  - # 12
    frequency:   11.4685520772
  - # 13
    frequency:   14.7626427423
  - # 14
    frequency:   14.9462354940
  - # 15
    frequency:   15.5493524688
  - # 16
    frequency:   17.2790365163
  - # 17
    frequency:   17.4903930814
  - # 18
    frequency:  111.7977343101

- q-position: [    0.1414141,    0.0000000,    0.0000000 ]
  distance:    0.0476099
  band:
  - # 1
    frequency:    1.0407930177
  - # 2
    frequency:    1.6863505826
  - # 3
    frequency:    2.7066479841
  - # 4
    frequency:    3.4172450567
  - # 5
    frequency:    3.9640618999
  - # 6
    frequency:    4.5624461117
  - # 7
    frequency:    5.2510472322
  - # 8
    frequency:    5.8522217345
  - # 9
    frequency:    6.7239793684
  - # 10
    frequency:    6.8976417951
  - # 11
    frequency:    8.1591747604
  - # 12
    frequency:   11.4499664720
  - # 13
    frequency:   14.7733972430
  - # 14
    frequency:   14.9555009314
  - # 15
    frequency:   15.5442266538
  - # 16
    frequency:   17.2767513530
  - # 17
    frequency:   17.4939699460
  - # 18
    frequency:  111.8022897335

- q-position: [    0.1464646,    0.0000000,    0.0000000 ]
  distance:    0.0493103
  band:
  - # 1
    frequency:    1.1016259789
  - # 2
    frequency:    1.7407048517
  - # 3
    frequency:    2.7910145052
  - # 4
    frequency:    3.4327556748
  - # 5
    frequency:    4.0013797456
  - # 6
    frequency:    4.5597431091
  - # 7
    frequency:    5.2494846792
  - # 8
    frequency:    5.8768723875
  - # 9
    frequency:    6.7282678169
  - # 10
    frequency:    6.9075373041
  - # 11
    frequency:    8.1384544457
  - # 12
    frequency:   11.4306152087
  - # 13
    frequency:   14.7861679279
  - # 14
    frequency:   14.9648593105
  - # 15
    frequency:   15.5390003253
  - # 16
    frequency:   17.2748895923
  - # 17
    frequency:   17.4969283513
  - # 18
    frequency:  111.8069029405

- q-position: [    0.1515152,    0.0000000,    0.0000000 ]
  distance:    0.0510106
  band:
  - # 1
    frequency:    1.1632275415
  - # 2
    frequency:    1.7945063231
  - # 3
    frequency:    2.8736257890
  - # 4
    frequency:    3.4486087106
  - # 5
    frequency:    4.0374248476
  - # 6
    frequency:    4.5593176351
  - # 7
    frequency:    5.2478276061
  - # 8
    frequency:    5.9012883563
  - # 9
    frequency:    6.7325930792
  - # 10
    frequency:    6.9170199077
  - # 11
    frequency:    8.1175289156
  - # 12
    frequency:   11.4105058860
  - # 13
    frequency:   14.8010481777
  - # 14
    frequency:   14.9742968627
  - # 15
    frequency:   15.5336917435
  - # 16
    frequency:   17.2734810217
  - # 17
    frequency:   17.4992156193
  - # 18
    frequency:  111.8115649283

- q-position: [    0.1565657,    0.0000000,    0.0000000 ]
  distance:    0.0527110
  band:
  - # 1
    frequency:    1.2255390427
  - # 2
    frequency:    1.8477426571
  - # 3
    frequency:    2.9543518654
  - # 4
    frequency:    3.4647932131
  - # 5
    frequency:    4.0718822551
  - # 6
    frequency:    4.5614708339
  - # 7
    frequency:    5.2460854127
  - # 8
    frequency:    5.9254510076
  - # 9
    frequency:    6.7369409727
  - # 10
    frequency:    6.9260629193
  - # 11
    frequency:    8.0964368147
  - # 12
    frequency:   11.3896502692
  - # 13
    frequency:   14.8181196936
  - # 14
    frequency:   14.9838012360
  - # 15
    frequency:   15.5283215454
  - # 16
    frequency:   17.2725527276
  - # 17
    frequency:   17.5007819728
  - # 18
    frequency:  111.8162667620

- q-position: [    0.1616162,    0.0000000,    0.0000000 ]
  distance:    0.0544113
  band:
  - # 1
    frequency:    1.2885036219
  - # 2
    frequency:    1.9004013344
  - # 3
    frequency:    3.0330568519
  - # 4
    frequency:    3.4812991098
  - # 5
    frequency:    4.1044343274
  - # 6
    frequency:    4.5665130139
  - # 7
    frequency:    5.2442689129
  - # 8
    frequency:    5.9493437421
  - # 9
    frequency:    6.7412971515
  - # 10
    frequency:    6.9346443073
  - # 11
    frequency:    8.0752158572
  - # 12
    frequency:   11.3680645337
  - # 13
    frequency:   14.8374508630
  - # 14
    frequency:   14.9933615903
  - # 15
    frequency:   15.5229133754
  - # 16
    frequency:   17.2721288738
  - # 17
    frequency:   17.5015809125
  - # 18
    frequency:  111.8209995999

- q-position: [    0.1666667,    0.0000000,    0.0000000 ]
  distance:    0.0561117
  band:
  - # 1
    frequency:    1.3520658403
  - # 2
    frequency:    1.9524695601
  - # 3
    frequency:    3.1095984415
  - # 4
    frequency:    3.4981172480
  - # 5
    frequency:    4.1347919535
  - # 6
    frequency:    4.5747333141
  - # 7
    frequency:    5.2423902757
  - # 8
    frequency:    5.9729519609
  - # 9
    frequency:    6.7456472117
  - # 10
    frequency:    6.9427467828
  - # 11
    frequency:    8.0539026694
  - # 12
    frequency:   11.3457694233
  - # 13
    frequency:   14.8590949362
  - # 14
    frequency:   15.0029686726
  - # 15
    frequency:   15.5174948130
  - # 16
    frequency:   17.2722305091
  - # 17
    frequency:   17.5015695833
  - # 18
    frequency:  111.8257547193

- q-position: [    0.1717172,    0.0000000,    0.0000000 ]
  distance:    0.0578121
  band:
  - # 1
    frequency:    1.4161713150
  - # 2
    frequency:    2.0039341703
  - # 3
    frequency:    3.1838272414
  - # 4
    frequency:    3.5152394268
  - # 5
    frequency:    4.1627391480
  - # 6
    frequency:    4.5863562153
  - # 7
    frequency:    5.2404629585
  - # 8
    frequency:    5.9962629963
  - # 9
    frequency:    6.7499767918
  - # 10
    frequency:    6.9503578626
  - # 11
    frequency:    8.0325326336
  - # 12
    frequency:   11.3227903168
  - # 13
    frequency:   14.8830878768
  - # 14
    frequency:   15.0126148695
  - # 15
    frequency:   15.5120987458
  - # 16
    frequency:   17.2728754025
  - # 17
    frequency:   17.5007091275
  - # 18
    frequency:  111.8305235405

- q-position: [    0.1767677,    0.0000000,    0.0000000 ]
  distance:    0.0595124
  band:
  - # 1
    frequency:    1.4807663655
  - # 2
    frequency:    2.0547815414
  - # 3
    frequency:    3.2555860002
  - # 4
    frequency:    3.5326584167
  - # 5
    frequency:    4.1881834541
  - # 6
    frequency:    4.6014924361
  - # 7
    frequency:    5.2385016349
  - # 8
    frequency:    6.0192659992
  - # 9
    frequency:    6.7542716705
  - # 10
    frequency:    6.9574699072
  - # 11
    frequency:    8.0111397352
  - # 12
    frequency:   11.2991571987
  - # 13
    frequency:   14.9094456487
  - # 14