nqpoint: 300    
npath: 3      
segment_nqpoint:
- 100
- 100
- 100
labels:
- [ 'G', 'M' ]
- [ 'M', 'K' ]
- [ 'K', 'G' ]
reciprocal_lattice:
- [   0.27093596,   0.15642495,   0.00000000 ] # a*
- [   0.00000000,   0.31284989,   0.00000000 ] # b*
- [   0.00000000,   0.00000000,   0.03810642 ] # c*
natom: 7      
lattice:
- [     3.690909151143937,     0.000000000000000,     0.000000000000000 ] # a
- [    -1.845454575571968,     3.196421087966677,     0.000000000000000 ] # b
- [     0.000000000000000,     0.000000000000000,    26.242296396599322 ] # c
points:
- symbol: C # 1
  coordinates: [  0.000000000000000,  0.000000000000000,  0.538384223626019 ]
  mass: 12.010700
- symbol: C # 2
  coordinates: [  0.666666984744047,  0.333332985985145,  0.388289769982084 ]
  mass: 12.010700
- symbol: Cl # 3
  coordinates: [  0.333332985432215,  0.666666983183674,  0.657042209112222 ]
  mass: 35.453000
- symbol: N # 4
  coordinates: [  0.666666984744047,  0.333332985985145,  0.342957790887778 ]
  mass: 14.006700
- symbol: O # 5
  coordinates: [  0.666666984744047,  0.333332985985145,  0.439084635472934 ]
  mass: 15.999400
- symbol: Y # 6
  coordinates: [  0.333332985432215,  0.666666983183674,  0.486774817350552 ]
  mass: 88.905850
- symbol: Y # 7
  coordinates: [  0.666666984744047,  0.333332985985145,  0.590170019367687 ]
  mass: 88.905850

phonon:
- q-position: [    0.0000000,    0.0000000,    0.0000000 ]
  distance:    0.0000000
  band:
  - # 1
    frequency:   -1.3602877711
  - # 2
    frequency:   -1.3602877711
  - # 3
    frequency:   -0.0000162206
  - # 4
    frequency:   -0.0000001658
  - # 5
    frequency:    0.0000177785
  - # 6
    frequency:    3.2179099604
  - # 7
    frequency:    3.2179099605
  - # 8
    frequency:    4.6193761735
  - # 9
    frequency:    4.6193761735
  - # 10
    frequency:    4.7633817978
  - # 11
    frequency:    5.2438872628
  - # 12
    frequency:    5.2438872629
  - # 13
    frequency:    7.1235633859
  - # 14
    frequency:    8.7578860833
  - # 15
    frequency:    9.4307135178
  - # 16
    frequency:    9.4307135179
  - # 17
    frequency:   13.9505422227
  - # 18
    frequency:   13.9505422227
  - # 19
    frequency:   16.2128899070
  - # 20
    frequency:   32.1666833244
  - # 21
    frequency:   67.7292910497

- q-position: [    0.0050505,    0.0000000,    0.0000000 ]
  distance:    0.0015800
  band:
  - # 1
    frequency:   -1.3602596439
  - # 2
    frequency:   -1.3591985076
  - # 3
    frequency:    0.0013738455
  - # 4
    frequency:    0.0525753664
  - # 5
    frequency:    0.0926036145
  - # 6
    frequency:    3.2179377378
  - # 7
    frequency:    3.2187326391
  - # 8
    frequency:    4.6193572749
  - # 9
    frequency:    4.6204706993
  - # 10
    frequency:    4.7640606336
  - # 11
    frequency:    5.2438506887
  - # 12
    frequency:    5.2459859686
  - # 13
    frequency:    7.1233400453
  - # 14
    frequency:    8.7562367687
  - # 15
    frequency:    9.4304935281
  - # 16
    frequency:    9.4369532250
  - # 17
    frequency:   13.9505673512
  - # 18
    frequency:   13.9506246650
  - # 19
    frequency:   16.2116578590
  - # 20
    frequency:   32.1662954707
  - # 21
    frequency:   67.7290565976

- q-position: [    0.0101010,    0.0000000,    0.0000000 ]
  distance:    0.0031601
  band:
  - # 1
    frequency:   -1.3601767653
  - # 2
    frequency:   -1.3559402706
  - # 3
    frequency:    0.0054909678
  - # 4
    frequency:    0.1051501229
  - # 5
    frequency:    0.1852731707
  - # 6
    frequency:    3.2180212364
  - # 7
    frequency:    3.2211943445
  - # 8
    frequency:    4.6193009192
  - # 9
    frequency:    4.6236081567
  - # 10
    frequency:    4.7661423799
  - # 11
    frequency:    5.2437411912
  - # 12
    frequency:    5.2522862382
  - # 13
    frequency:    7.1226701488
  - # 14
    frequency:    8.7513974496
  - # 15
    frequency:    9.4298343080
  - # 16
    frequency:    9.4555655556
  - # 17
    frequency:   13.9506427232
  - # 18
    frequency:   13.9508719918
  - # 19
    frequency:   16.2079637111
  - # 20
    frequency:   32.1651328304
  - # 21
    frequency:   67.7283537517

- q-position: [    0.0151515,    0.0000000,    0.0000000 ]
  distance:    0.0047401
  band:
  - # 1
    frequency:   -1.3600435398
  - # 2
    frequency:   -1.3505406628
  - # 3
    frequency:    0.0123352536
  - # 4
    frequency:    0.1577228277
  - # 5
    frequency:    0.2780684707
  - # 6
    frequency:    3.2181609546
  - # 7
    frequency:    3.2252763700
  - # 8
    frequency:    4.6192081257
  - # 9
    frequency:    4.6283718459
  - # 10
    frequency:    4.7697522938
  - # 11
    frequency:    5.2435594426
  - # 12
    frequency:    5.2627946268
  - # 13
    frequency:    7.1215540856
  - # 14
    frequency:    8.7436604573
  - # 15
    frequency:    9.4287381030
  - # 16
    frequency:    9.4862620098
  - # 17
    frequency:   13.9507682986
  - # 18
    frequency:   13.9512842056
  - # 19
    frequency:   16.2018134502
  - # 20
    frequency:   32.1631981632
  - # 21
    frequency:   67.7271840423

- q-position: [    0.0202020,    0.0000000,    0.0000000 ]
  distance:    0.0063202
  band:
  - # 1
    frequency:   -1.3598669699
  - # 2
    frequency:   -1.3430423065
  - # 3
    frequency:    0.0218805595
  - # 4
    frequency:    0.2102904431
  - # 5
    frequency:    0.3710377069
  - # 6
    frequency:    3.2183577182
  - # 7
    frequency:    3.2309484463
  - # 8
    frequency:    4.6190805867
  - # 9
    frequency:    4.6341414748
  - # 10
    frequency:    4.7750610710
  - # 11
    frequency:    5.2433065534
  - # 12
    frequency:    5.2775031314
  - # 13
    frequency:    7.1199925471
  - # 14
    frequency:    8.7334208428
  - # 15
    frequency:    9.4272086490
  - # 16
    frequency:    9.5286484802
  - # 17
    frequency:   13.9509440097
  - # 18
    frequency:   13.9518613177
  - # 19
    frequency:   16.1932170528
  - # 20
    frequency:   32.1604960575
  - # 21
    frequency:   67.7255500140

- q-position: [    0.0252525,    0.0000000,    0.0000000 ]
  distance:    0.0079002
  band:
  - # 1
    frequency:   -1.3596561786
  - # 2
    frequency:   -1.3334982329
  - # 3
    frequency:    0.0340907517
  - # 4
    frequency:    0.2628476736
  - # 5
    frequency:    0.4642132499
  - # 6
    frequency:    3.2186126741
  - # 7
    frequency:    3.2381699805
  - # 8
    frequency:    4.6189206580
  - # 9
    frequency:    4.6402055248
  - # 10
    frequency:    4.7822223136
  - # 11
    frequency:    5.2429840582
  - # 12
    frequency:    5.2963636611
  - # 13
    frequency:    7.1179865884
  - # 14
    frequency:    8.7210891308
  - # 15
    frequency:    9.4252511634
  - # 16
    frequency:    9.5823047630
  - # 17
    frequency:   13.9511697615
  - # 18
    frequency:   13.9526033589
  - # 19
    frequency:   16.1821884817
  - # 20
    frequency:   32.1570329150
  - # 21
    frequency:   67.7234552172

- q-position: [    0.0303030,    0.0000000,    0.0000000 ]
  distance:    0.0094803
  band:
  - # 1
    frequency:   -1.3594217962
  - # 2
    frequency:   -1.3219662741
  - # 3
    frequency:    0.0489201720
  - # 4
    frequency:    0.3153864582
  - # 5
    frequency:    0.5576090651
  - # 6
    frequency:    3.2189272810
  - # 7
    frequency:    3.2468915777
  - # 8
    frequency:    4.6187313462
  - # 9
    frequency:    4.6459015873
  - # 10
    frequency:    4.7912927497
  - # 11
    frequency:    5.2425938955
  - # 12
    frequency:    5.3192586481
  - # 13
    frequency:    7.1155377078
  - # 14
    frequency:    8.7070291650
  - # 15
    frequency:    9.4228723316
  - # 16
    frequency:    9.6468367349
  - # 17
    frequency:   13.9514454307
  - # 18
    frequency:   13.9535103964
  - # 19
    frequency:   16.1687456826
  - # 20
    frequency:   32.1528169286
  - # 21
    frequency:   67.7209041965

- q-position: [    0.0353535,    0.0000000,    0.0000000 ]
  distance:    0.0110603
  band:
  - # 1
    frequency:   -1.3591752611
  - # 2
    frequency:   -1.3085031244
  - # 3
    frequency:    0.0663142268
  - # 4
    frequency:    0.3678956418
  - # 5
    frequency:    0.6512198843
  - # 6
    frequency:    3.2193032985
  - # 7
    frequency:    3.2570566960
  - # 8
    frequency:    4.6185162918
  - # 9
    frequency:    4.6507400830
  - # 10
    frequency:    4.8021705026
  - # 11
    frequency:    5.2421383834
  - # 12
    frequency:    5.3459746194
  - # 13
    frequency:    7.1126479403
  - # 14
    frequency:    8.6915292836
  - # 15
    frequency:    9.4200802895
  - # 16
    frequency:    9.7218937749
  - # 17
    frequency:   13.9517708652
  - # 18
    frequency:   13.9545825565
  - # 19
    frequency:   16.1529105819
  - # 20
    frequency:   32.1478580536
  - # 21
    frequency:   67.7179024755

- q-position: [    0.0404040,    0.0000000,    0.0000000 ]
  distance:    0.0126404
  band:
  - # 1
    frequency:   -1.3589280858
  - # 2
    frequency:   -1.2931586991
  - # 3
    frequency:    0.0862100815
  - # 4
    frequency:    0.4203608374
  - # 5
    frequency:    0.7450220012
  - # 6
    frequency:    3.2197427744
  - # 7
    frequency:    3.2686033099
  - # 8
    frequency:    4.6182797482
  - # 9
    frequency:    4.6544607243
  - # 10
    frequency:    4.8145918213
  - # 11
    frequency:    5.2416201897
  - # 12
    frequency:    5.3761862684
  - # 13
    frequency:    7.1093199585
  - # 14
    frequency:    8.6747991673
  - # 15
    frequency:    9.4168846011
  - # 16
    frequency:    9.8071600798
  - # 17
    frequency:   13.9521458828
  - # 18
    frequency:   13.9558200552
  - # 19
    frequency:   16.1347090846
  - # 20
    frequency:   32.1421679740
  - # 21
    frequency:   67.7144565384

- q-position: [    0.0454545,    0.0000000,    0.0000000 ]
  distance:    0.0142204
  band:
  - # 1
    frequency:   -1.3586911393
  - # 2
    frequency:   -1.2759712711
  - # 3
    frequency:    0.1085374335
  - # 4
    frequency:    0.4727644734
  - # 5
    frequency:    0.8389753385
  - # 6
    frequency:    3.2202480308
  - # 7
    frequency:    3.2814654923
  - # 8
    frequency:    4.6180265588
  - # 9
    frequency:    4.6570080925
  - # 10
    frequency:    4.8281915729
  - # 11
    frequency:    5.2410422987
  - # 12
    frequency:    5.4094567155
  - # 13
    frequency:    7.1055571758
  - # 14
    frequency:    8.6569806406
  - # 15
    frequency:    9.4132962317
  - # 16
    frequency:    9.9023326732
  - # 17
    frequency:   13.9525702705
  - # 18
    frequency:   13.9572232390
  - # 19
    frequency:   16.1141710762
  - # 20
    frequency:   32.1357600625
  - # 21
    frequency:   67.7105738085

- q-position: [    0.0505051,    0.0000000,    0.0000000 ]
  distance:    0.0158005
  band:
  - # 1
    frequency:   -1.3584739901
  - # 2
    frequency:   -1.2569636370
  - # 3
    frequency:    0.1332193261
  - # 4
    frequency:    0.5250860078
  - # 5
    frequency:    0.9330263117
  - # 6
    frequency:    3.2208216497
  - # 7
    frequency:    3.2955748649
  - # 8
    frequency:    4.6177621286
  - # 9
    frequency:    4.6584606095
  - # 10
    frequency:    4.8425894887
  - # 11
    frequency:    5.2404079743
  - # 12
    frequency:    5.4452553523
  - # 13
    frequency:    7.1013638485
  - # 14
    frequency:    8.6381632925
  - # 15
    frequency:    9.4093275159
  - # 16
    frequency:   10.0070963040
  - # 17
    frequency:   13.9530437830
  - # 18
    frequency:   13.9587926385
  - # 19
    frequency:   16.0913304292
  - # 20
    frequency:   32.1286493348
  - # 21
    frequency:   67.7062626238

- q-position: [    0.0555556,    0.0000000,    0.0000000 ]
  distance:    0.0173805
  band:
  - # 1
    frequency:   -1.3582843461
  - # 2
    frequency:   -1.2361403227
  - # 3
    frequency:    0.1601729644
  - # 4
    frequency:    0.5773022792
  - # 5
    frequency:    1.0271109905
  - # 6
    frequency:    3.2214664583
  - # 7
    frequency:    3.3108618966
  - # 8
    frequency:    4.6174923942
  - # 9
    frequency:    4.6589587749
  - # 10
    frequency:    4.8574580639
  - # 11
    frequency:    5.2397207203
  - # 12
    frequency:    5.4829896554
  - # 13
    frequency:    7.0967451708
  - # 14
    frequency:    8.6183997415
  - # 15
    frequency:    9.4049921191
  - # 16
    frequency:   10.1211013338
  - # 17
    frequency:   13.9535661415
  - # 18
    frequency:   13.9605290382
  - # 19
    frequency:   16.0662250173
  - # 20
    frequency:   32.1208523987
  - # 21
    frequency:   67.7015322094

- q-position: [    0.0606061,    0.0000000,    0.0000000 ]
  distance:    0.0189606
  band:
  - # 1
    frequency:   -1.3581276118
  - # 2
    frequency:   -1.2134856211
  - # 3
    frequency:    0.1893104904
  - # 4
    frequency:    0.6293879599
  - # 5
    frequency:    1.1211581317
  - # 6
    frequency:    3.2221855148
  - # 7
    frequency:    3.3272570482
  - # 8
    frequency:    4.6172237896
  - # 9
    frequency:    4.6586566183
  - # 10
    frequency:    4.8725539866
  - # 11
    frequency:    5.2389842387
  - # 12
    frequency:    5.5220439340
  - # 13
    frequency:    7.0917073620
  - # 14
    frequency:    8.5977183589
  - # 15
    frequency:    9.4003049942
  - # 16
    frequency:   10.2439474594
  - # 17
    frequency:   13.9541370320
  - # 18
    frequency:   13.9624335687
  - # 19
    frequency:   16.0388967400
  - # 20
    frequency:   32.1123873986
  - # 21
    frequency:   67.6963926474

- q-position: [    0.0656566,    0.0000000,    0.0000000 ]
  distance:    0.0205406
  band:
  - # 1
    frequency:   -1.3580065763
  - # 2
    frequency:   -1.1889620991
  - # 3
    frequency:    0.2205396797
  - # 4
    frequency:    0.6813160714
  - # 5
    frequency:    1.2150917845
  - # 6
    frequency:    3.2229820958
  - # 7
    frequency:    3.3446917748
  - # 8
    frequency:    4.6169632088
  - # 9
    frequency:    4.6576972834
  - # 10
    frequency:    4.8877192710
  - # 11
    frequency:    5.2382023874
  - # 12
    frequency:    5.5618173801
  - # 13
    frequency:    7.0862577433
  - # 14
    frequency:    8.5761329715
  - # 15
    frequency:    9.3952823310
  - # 16
    frequency:   10.3751740601
  - # 17
    frequency:   13.9547561039
  - # 18
    frequency:   13.9645078277
  - # 19
    frequency:   16.0093915633
  - # 20
    frequency:   32.1032739548
  - # 21
    frequency:   67.6908548437

- q-position: [    0.0707071,    0.0000000,    0.0000000 ]
  distance:    0.0221207
  band:
  - # 1
    frequency:   -1.3579212295
  - # 2
    frequency:   -1.1625091256
  - # 3
    frequency:    0.2537645283
  - # 4
    frequency:    0.7330585279
  - # 5
    frequency:    1.3088333093
  - # 6
    frequency:    3.2238596850
  - # 7
    frequency:    3.3630993974
  - # 8
    frequency:    4.6167179663
  - # 9
    frequency:    4.6562044978
  - # 10
    frequency:    4.9028662625
  - # 11
    frequency:    5.2373791370
  - # 12
    frequency:    5.6017556058
  - # 13
    frequency:    7.0804048048
  - # 14
    frequency:    8.5536498358
  - # 15
    frequency:    9.3899414986
  - # 16
    frequency:   10.5142568048
  - # 17
    frequency:   13.9554229678
  - # 18
    frequency:   13.9667540405
  - # 19
    frequency:   15.9777595810
  - # 20
    frequency:   32.0935330980
  - # 21
    frequency:   67.6849304929

- q-position: [    0.0757576,    0.0000000,    0.0000000 ]
  distance:    0.0237007
  band:
  - # 1
    frequency:   -1.3578686987
  - # 2
    frequency:   -1.1340409182
  - # 3
    frequency:    0.2888857084
  - # 4
    frequency:    0.7845866750
  - # 5
    frequency:    1.4023027748
  - # 6
    frequency:    3.2248219640
  - # 7
    frequency:    3.3824158561
  - # 8
    frequency:    4.6164957531
  - # 9
    frequency:    4.6542820693
  - # 10
    frequency:    4.9179579848
  - # 11
    frequency:    5.2365185284
  - # 12
    frequency:    5.6413726978
  - # 13
    frequency:    7.0741582626
  - # 14
    frequency:    8.5302724292
  - # 15
    frequency:    9.3843009817
  - # 16
    frequency:   10.6606095391
  - # 17
    frequency:   13.9561371944
  - # 18
    frequency:   13.9691752744
  - # 19
    frequency:   15.9440551056
  - # 20
    frequency:   32.0831872011
  - # 21
    frequency:   67.6786320403

- q-position: [    0.0808081,    0.0000000,    0.0000000 ]
  distance:    0.0252808
  band:
  - # 1
    frequency:   -1.3578432877
  - # 2
    frequency:   -1.1034435722
  - # 3
    frequency:    0.3258008860
  - # 4
    frequency:    0.8358717983
  - # 5
    frequency:    1.4954197837
  - # 6
    frequency:    3.2258728063
  - # 7
    frequency:    3.4025803555
  - # 8
    frequency:    4.6163045920
  - # 9
    frequency:    4.6520165450
  - # 10
    frequency:    4.9329901026
  - # 11
    frequency:    5.2356246317
  - # 12
    frequency:    5.6802634081
  - # 13
    frequency:    7.0675291072
  - # 14
    frequency:    8.5060046120
  - # 15
    frequency:    9.3783803082
  - # 16
    frequency:   10.8135901846
  - # 17
    frequency:   13.9568983115
  - # 18
    frequency:   13.9717757271
  - # 19
    frequency:   15.9083367983
  - # 20
    frequency:   32.0722599053
  - # 21
    frequency:   67.6719726419

- q-position: [    0.0858586,    0.0000000,    0.0000000 ]
  distance:    0.0268608
  band:
  - # 1
    frequency:   -1.3578366020
  - # 2
    frequency:   -1.0705704564
  - # 3
    frequency:    0.3644049044
  - # 4
    frequency:    0.8868855847
  - # 5
    frequency:    1.5881038261
  - # 6
    frequency:    3.2270162744
  - # 7
    frequency:    3.4235359095
  - # 8
    frequency:    4.6161527882
  - # 9
    frequency:    4.6494806304
  - # 10
    frequency:    4.9479768214
  - # 11
    frequency:    5.2347015076
  - # 12
    frequency:    5.7181067919
  - # 13
    frequency:    7.0605296459
  - # 14
    frequency:    8.4808526268
  - # 15
    frequency:    9.3721999702
  - # 16
    frequency:   10.9725093032
  - # 17
    frequency:   13.9577058031
  - # 18
    frequency:   13.9745611192
  - # 19
    frequency:   15.8706678526
  - # 20
    frequency:   32.0607760444
  - # 21
    frequency:   67.6649661220

- q-position: [    0.0909091,    0.0000000,    0.0000000 ]
  distance:    0.0284409
  band:
  - # 1
    frequency:   -1.3578377364
  - # 2
    frequency:   -1.0352352034
  - # 3
    frequency:    0.4045898588
  - # 4
    frequency:    0.9376005244
  - # 5
    frequency:    1.6802742746
  - # 6
    frequency:    3.2282566206
  - # 7
    frequency:    3.4452297950
  - # 8
    frequency:    4.6160488790
  - # 9
    frequency:    4.6467363829
  - # 10
    frequency:    4.9629409031
  - # 11
    frequency:    5.2337531719
  - # 12
    frequency:    5.7546633732
  - # 13
    frequency:    7.0531735411
  - # 14
    frequency:    8.4548262957
  - # 15
    frequency:    9.3657813361
  - # 16
    frequency:   11.1366400288
  - # 17
    frequency:   13.9585591066
  - # 18
    frequency:   13.9775392349
  - # 19
    frequency:   15.8311162515
  - # 20
    frequency:   32.0487615652
  - # 21
    frequency:   67.6576269297

- q-position: [    0.0959596,    0.0000000,    0.0000000 ]
  distance:    0.0300209
  band:
  - # 1
    frequency:   -1.3578335072
  - # 2
    frequency:   -0.9972012013
  - # 3
    frequency:    0.4462450996
  - # 4
    frequency:    0.9879902485
  - # 5
    frequency:    1.7718501287
  - # 6
    frequency:    3.2295982910
  - # 7
    frequency:    3.4676139198
  - # 8
    frequency:    4.6160015804
  - # 9
    frequency:    4.6438378763
  - # 10
    frequency:    4.9779071019
  - # 11
    frequency:    5.2327835637
  - # 12
    frequency:    5.7897680081
  - # 13
    frequency:    7.0454758458
  - # 14
    frequency:    8.4279396820
  - # 15
    frequency:    9.3591465565
  - # 16
    frequency:   11.3052282138
  - # 17
    frequency:   13.9594576107
  - # 18
    frequency:   13.9807206761
  - # 19
    frequency:   15.7897551232
  - # 20
    frequency:   32.0362434454
  - # 21
    frequency:   67.6499700934

- q-position: [    0.1010101,    0.0000000,    0.0000000 ]
  distance:    0.0316010
  band:
  - # 1
    frequency:   -1.3578087109
  - # 2
    frequency:   -0.9561658934
  - # 3
    frequency:    0.4892572217
  - # 4
    frequency:    1.0380298015
  - # 5
    frequency:    1.8627496013
  - # 6
    frequency:    3.2310459345
  - # 7
    frequency:    3.4906451125
  - # 8
    frequency:    4.6160197322
  - # 9
    frequency:    4.6408333156
  - # 10
    frequency:    4.9928981389
  - # 11
    frequency:    5.2317965182
  - # 12
    frequency:    5.8233203345
  - # 13
    frequency:    7.0374530403
  - # 14
    frequency:    8.4002114044
  - # 15
    frequency:    9.3523184607
  - # 16
    frequency:   11.4775018124
  - # 17
    frequency:   13.9604006540
  - # 18
    frequency:   13.9841199305
  - # 19
    frequency:   15.7466632340
  - # 20
    frequency:   32.0232496087
  - # 21
    frequency:   67.6420111729

- q-position: [    0.1060606,    0.0000000,    0.0000000 ]
  distance:    0.0331810
  band:
  - # 1
    frequency:   -1.3577463935
  - # 2
    frequency:   -0.9117370659
  - # 3
    frequency:    0.5335101116
  - # 4
    frequency:    1.0876958531
  - # 5
    frequency:    1.9528896175
  - # 6
    frequency:    3.2326044146
  - # 7
    frequency:    3.5142853413
  - # 8
    frequency:    4.6161122407
  - # 9
    frequency:    4.6377666800
  - # 10
    frequency:    5.0079324309
  - # 11
    frequency:    5.2307957445
  - # 12
    frequency:    5.8552742648
  - # 13
    frequency:    7.0291230721
  - # 14
    frequency:    8.3716647331
  - # 15
    frequency:    9.3453204471
  - # 16
    frequency:   11.6526786959
  - # 17
    frequency:   13.9613875221
  - # 18
    frequency:   13.9877569100
  - # 19
    frequency:   15.7019256715
  - # 20
    frequency:   32.0098088387
  - # 21
    frequency:   67.6337662119

- q-position: [    0.1111111,    0.0000000,    0.0000000 ]
  distance:    0.0347611
  band:
  - # 1
    frequency:   -1.3576281205
  - # 2
    frequency:   -0.8633961101
  - # 3
    frequency:    0.5788851316
  - # 4
    frequency:    1.1369668520
  - # 5
    frequency:    2.0421852790
  - # 6
    frequency:    3.2342788253
  - # 7
    frequency:    3.5385018677
  - # 8
    frequency:    4.6162880206
  - # 9
    frequency:    4.6346789945
  - # 10
    frequency:    5.0230229731
  - # 11
    frequency:    5.2297848095
  - # 12
    frequency:    5.8856275381
  - # 13
    frequency:    7.0205054011
  - # 14
    frequency:    8.3423275583
  - # 15
    frequency:    9.3381763662
  - # 16
    frequency:   11.8299722028
  - # 17
    frequency:   13.9624174463
  - # 18
    frequency:   13.9916592095
  - # 19
    frequency:   15.6556347943
  - # 20
    frequency:   31.9959506906
  - # 21
    frequency:   67.6252516879

- q-position: [    0.1161616,    0.0000000,    0.0000000 ]
  distance:    0.0363411
  band:
  - # 1
    frequency:   -1.3574342378
  - # 2
    frequency:   -0.8104387516
  - # 3
    frequency:    0.6252615234
  - # 4
    frequency:    1.1858231314
  - # 5
    frequency:    2.1305493289
  - # 6
    frequency:    3.2360745096
  - # 7
    frequency:    3.5632673418
  - # 8
    frequency:    4.6165559353
  - # 9
    frequency:    4.6316093175
  - # 10
    frequency:    5.0381769533
  - # 11
    frequency:    5.2287671271
  - # 12
    frequency:    5.9144119718
  - # 13
    frequency:    7.0116210530
  - # 14
    frequency:    8.3122322886
  - # 15
    frequency:    9.3309103972
  - # 16
    frequency:   12.0085937272
  - # 17
    frequency:   13.9634896012
  - # 18
    frequency:   13.9958654948
  - # 19
    frequency:   15.6078915610
  - # 20
    frequency:   31.9817054010
  - # 21
    frequency:   67.6164844623

- q-position: [    0.1212121,    0.0000000,    0.0000000 ]
  distance:    0.0379212
  band:
  - # 1
    frequency:   -1.3571441174
  - # 2
    frequency:   -0.7518737976
  - # 3
    frequency:    0.6725170988
  - # 4
    frequency:    1.2342469701
  - # 5
    frequency:    2.2178916429
  - # 6
    frequency:    3.2379970817
  - # 7
    frequency:    3.5885598403
  - # 8
    frequency:    4.6169247367
  - # 9
    frequency:    4.6285955204
  - # 10
    frequency:    5.0533958121
  - # 11
    frequency:    5.2277459539
  - # 12
    frequency:    5.9416847528
  - # 13
    frequency:    7.0024926830
  - # 14
    frequency:    8.2814157214
  - # 15
    frequency:    9.3235469188
  - # 16
    frequency:   12.1877514606
  - # 17
    frequency:   13.9646031031
  - # 18
    frequency:   14.0004307058
  - # 19
    frequency:   15.5588074107
  - # 20
    frequency:   31.9671037980
  - # 21
    frequency:   67.6074817287

- q-position: [    0.1262626,    0.0000000,    0.0000000 ]
  distance:    0.0395012
  band:
  - # 1
    frequency:   -1.3567363853
  - # 2
    frequency:   -0.6862361747
  - # 3
    frequency:    0.7205292636
  - # 4
    frequency:    1.2822226174
  - # 5
    frequency:    2.3041187655
  - # 6
    frequency:    3.2400524491
  - # 7
    frequency:    3.6143628487
  - # 8
    frequency:    4.6174030041
  - # 9
    frequency:    4.6256749178
  - # 10
    frequency:    5.0686755693
  - # 11
    frequency:    5.2267243909
  - # 12
    frequency:    5.9675208979
  - # 13
    frequency:    6.9931446539
  - # 14
    frequency:    8.2499189078
  - # 15
    frequency:    9.3161103756
  - # 16
    frequency:   12.3666439132
  - # 17
    frequency:   13.9657570082
  - # 18
    frequency:   14.0054342703
  - # 19
    frequency:   15.5085069551
  - # 20
    frequency:   31.9521772091
  - # 21
    frequency:   67.5982609617

- q-position: [    0.1313131,    0.0000000,    0.0000000 ]
  distance:    0.0410813
  band:
  - # 1
    frequency:   -1.3561891287
  - # 2
    frequency:   -0.6112027612
  - # 3
    frequency:    0.7691763783
  - # 4
    frequency:    1.3297362882
  - # 5
    frequency:    2.3891335073
  - # 6
    frequency:    3.2422468368
  - # 7
    frequency:    3.6406651797
  - # 8
    frequency:    4.6179990835
  - # 9
    frequency:    4.6228847955
  - # 10
    frequency:    5.0840073011
  - # 11
    frequency:    5.2257053914
  - # 12
    frequency:    5.9920068712
  - # 13
    frequency:    6.9836031279
  - # 14
    frequency:    8.2177870328
  - # 15
    frequency:    9.3086251401
  - # 16
    frequency:   12.5444458054
  - # 17
    frequency:   13.9669503115
  - # 18
    frequency:   14.0109934659
  - # 19
    frequency:   15.4571318975
  - # 20
    frequency:   31.9369573698
  - # 21
    frequency:   67.5888398651

- q-position: [    0.1363636,    0.0000000,    0.0000000 ]
  distance:    0.0426613
  band:
  - # 1
    frequency:   -1.3554800830
  - # 2
    frequency:   -0.5226710604
  - # 3
    frequency:    0.8183394157
  - # 4
    frequency:    1.3767761321
  - # 5
    frequency:    2.4728346213
  - # 6
    frequency:    3.2445868104
  - # 7
    frequency:    3.6674608169
  - # 8
    frequency:    4.6187210278
  - # 9
    frequency:    4.6202628718
  - # 10
    frequency:    5.0993777025
  - # 11
    frequency:    5.2246917743
  - # 12
    frequency:    6.0152352623
  - # 13
    frequency:    6.9738961769
  - # 14
    frequency:    8.1850693194
  - # 15
    frequency:    9.3011153729
  - # 16
    frequency:   12.7202818587
  - # 17
    frequency:   13.9681819447
  - # 18
    frequency:   14.0172859077
  - # 19
    frequency:   15.4048468473
  - # 20
    frequency:   31.9214763313
  - # 21
    frequency:   67.5792363194

- q-position: [    0.1414141,    0.0000000,    0.0000000 ]
  distance:    0.0442414
  band:
  - # 1
    frequency:   -1.3545867976
  - # 2
    frequency:   -0.4119235776
  - # 3
    frequency:    0.8679038309
  - # 4
    frequency:    1.4233321830
  - # 5
    frequency:    2.5551165820
  - # 6
    frequency:    3.2470792971
  - # 7
    frequency:    3.6947486572
  - # 8
    frequency:    4.6178477254
  - # 9
    frequency:    4.6195765375
  - # 10
    frequency:    5.1147696946
  - # 11
    frequency:    5.2236862427
  - # 12
    frequency:    6.0373003838
  - # 13
    frequency:    6.9640539114
  - # 14
    frequency:    8.1518189661
  - # 15
    frequency:    9.2936048813
  - # 16
    frequency:   12.8931798956
  - # 17
    frequency:   13.9694507760
  - # 18
    frequency:   14.0245888185
  - # 19
    frequency:   15.3518481506
  - # 20
    frequency:   31.9057663684
  - # 21
    frequency:   67.5694683302

- q-position: [    0.1464646,    0.0000000,    0.0000000 ]
  distance:    0.0458214
  band:
  - # 1
    frequency:   -1.3534867837
  - # 2
    frequency:   -0.2509209553
  - # 3
    frequency:    0.9177615242
  - # 4
    frequency:    1.4693962917
  - # 5
    frequency:    2.6358695004
  - # 6
    frequency:    3.2497316033
  - # 7
    frequency:    3.7225321174
  - # 8
    frequency:    4.6156792137
  - # 9
    frequency:    4.6205729030
  - # 10
    frequency:    5.1301630560
  - # 11
    frequency:    5.2226914071
  - # 12
    frequency:    6.0582946331
  - # 13
    frequency:    6.9541086279
  - # 14
    frequency:    8.1180931242
  - # 15
    frequency:    9.2861169784
  - # 16
    frequency:   13.0619862652
  - # 17
    frequency:   13.9707556087
  - # 18
    frequency:   14.0333503137
  - # 19
    frequency:   15.2983776658
  - # 20
    frequency:   31.8898598882
  - # 21
    frequency:   67.5595539764

- q-position: [    0.1515152,    0.0000000,    0.0000000 ]
  distance:    0.0474015
  band:
  - # 1
    frequency:   -1.3521576437
  - # 2
    frequency:    0.2169595868
  - # 3
    frequency:    0.9678127640
  - # 4
    frequency:    1.5149620451
  - # 5
    frequency:    2.7149792200
  - # 6
    frequency:    3.2525514278
  - # 7
    frequency:    3.7508185502
  - # 8
    frequency:    4.6137989078
  - # 9
    frequency:    4.6217169497
  - # 10
    frequency:    5.1455350658
  - # 11
    frequency:    5.2217098124
  - # 12
    frequency:    6.0783054673
  - # 13
    frequency:    6.9440949740
  - # 14
    frequency:    8.0839529200
  - # 15
    frequency:    9.2786743434
  - # 16
    frequency:   13.2252095438
  - # 17
    frequency:   13.9720951808
  - # 18
    frequency:   14.0443234621
  - # 19
    frequency:   15.2447449324
  - # 20
    frequency:   31.8737893389
  - # 21
    frequency:   67.5495113590
