nqpoint: 300    
npath: 3      
segment_nqpoint:
- 100
- 100
- 100
labels:
- [ 'G', 'M' ]
- [ 'M', 'K' ]
- [ 'K', 'G' ]
reciprocal_lattice:
- [   0.26642404,   0.15381999,   0.00000000 ] # a*
- [   0.00000000,   0.30763998,   0.00000000 ] # b*
- [   0.00000000,   0.00000000,   0.04016441 ] # c*
natom: 6      
lattice:
- [     3.753415036019085,     0.000000000000000,     0.000000000000000 ] # a
- [    -1.876707518009542,     3.250552772144221,     0.000000000000000 ] # b
- [     0.000000000000000,     0.000000000000000,    24.897664352909310 ] # c
points:
- symbol: Cl # 1
  coordinates: [  0.333332985432214,  0.666666983183674,  0.638520309679235 ]
  mass: 35.453000
- symbol: Cl # 2
  coordinates: [  0.666666984744048,  0.333332985985144,  0.361479690320765 ]
  mass: 35.453000
- symbol: N # 3
  coordinates: [  0.000000000000000,  0.000000000000000,  0.461907545108871 ]
  mass: 14.006700
- symbol: O # 4
  coordinates: [  0.333332985432214,  0.666666983183674,  0.530807494778468 ]
  mass: 15.999400
- symbol: Y # 5
  coordinates: [  0.333332985432214,  0.666666983183674,  0.433548162720749 ]
  mass: 88.905850
- symbol: Y # 6
  coordinates: [  0.666666984744048,  0.333332985985144,  0.558842199636208 ]
  mass: 88.905850

phonon:
- q-position: [    0.0000000,    0.0000000,    0.0000000 ]
  distance:    0.0000000
  band:
  - # 1
    frequency:   -1.6600166505
  - # 2
    frequency:   -1.6600166505
  - # 3
    frequency:   -0.0000062251
  - # 4
    frequency:   -0.0000000433
  - # 5
    frequency:    0.0000132567
  - # 6
    frequency:    1.0370422101
  - # 7
    frequency:    1.0370422102
  - # 8
    frequency:    2.8726540505
  - # 9
    frequency:    4.0449011270
  - # 10
    frequency:    4.0449011270
  - # 11
    frequency:    7.3813276443
  - # 12
    frequency:    7.5214941619
  - # 13
    frequency:    8.3301290114
  - # 14
    frequency:    8.3301290114
  - # 15
    frequency:   10.2764600664
  - # 16
    frequency:   12.1969286429
  - # 17
    frequency:   12.1969286429
  - # 18
    frequency:   13.3257223837

- q-position: [    0.0050505,    0.0000000,    0.0000000 ]
  distance:    0.0015537
  band:
  - # 1
    frequency:   -1.6600455552
  - # 2
    frequency:   -1.6586715355
  - # 3
    frequency:    0.0014253661
  - # 4
    frequency:    0.0256931632
  - # 5
    frequency:    0.0760724812
  - # 6
    frequency:    1.0388702313
  - # 7
    frequency:    1.0402105827
  - # 8
    frequency:    2.8721432312
  - # 9
    frequency:    4.0450053416
  - # 10
    frequency:    4.0453512843
  - # 11
    frequency:    7.3786646940
  - # 12
    frequency:    7.5210800981
  - # 13
    frequency:    8.3298176473
  - # 14
    frequency:    8.3308181907
  - # 15
    frequency:   10.2768966100
  - # 16
    frequency:   12.1969439080
  - # 17
    frequency:   12.1972241598
  - # 18
    frequency:   13.3259897858

- q-position: [    0.0101010,    0.0000000,    0.0000000 ]
  distance:    0.0031075
  band:
  - # 1
    frequency:   -1.6601331690
  - # 2
    frequency:   -1.6546364850
  - # 3
    frequency:    0.0057539118
  - # 4
    frequency:    0.0517314472
  - # 5
    frequency:    0.1521660111
  - # 6
    frequency:    1.0443188111
  - # 7
    frequency:    1.0496254397
  - # 8
    frequency:    2.8706163490
  - # 9
    frequency:    4.0453176912
  - # 10
    frequency:    4.0466986077
  - # 11
    frequency:    7.3707169453
  - # 12
    frequency:    7.5198496080
  - # 13
    frequency:    8.3288835643
  - # 14
    frequency:    8.3328424150
  - # 15
    frequency:   10.2782028983
  - # 16
    frequency:   12.1969897993
  - # 17
    frequency:   12.1981069699
  - # 18
    frequency:   13.3267943234

- q-position: [    0.0151515,    0.0000000,    0.0000000 ]
  distance:    0.0046612
  band:
  - # 1
    frequency:   -1.6602821435
  - # 2
    frequency:   -1.6479123174
  - # 3
    frequency:    0.0128064629
  - # 4
    frequency:    0.0784313441
  - # 5
    frequency:    0.2282991240
  - # 6
    frequency:    1.0532848079
  - # 7
    frequency:    1.0650259189
  - # 8
    frequency:    2.8680902306
  - # 9
    frequency:    4.0458372940
  - # 10
    frequency:    4.0489337491
  - # 11
    frequency:    7.3576077557
  - # 12
    frequency:    7.5178326208
  - # 13
    frequency:    8.3273267934
  - # 14
    frequency:    8.3360768458
  - # 15
    frequency:   10.2803688895
  - # 16
    frequency:   12.1970666042
  - # 17
    frequency:   12.1995659194
  - # 18
    frequency:   13.3281429507

- q-position: [    0.0202020,    0.0000000,    0.0000000 ]
  distance:    0.0062149
  band:
  - # 1
    frequency:   -1.6604967423
  - # 2
    frequency:   -1.6385001813
  - # 3
    frequency:    0.0223885556
  - # 4
    frequency:    0.1060576109
  - # 5
    frequency:    0.3044836830
  - # 6
    frequency:    1.0656066648
  - # 7
    frequency:    1.0860075833
  - # 8
    frequency:    2.8645932655
  - # 9
    frequency:    4.0465626848
  - # 10
    frequency:    4.0520414495
  - # 11
    frequency:    7.3395400994
  - # 12
    frequency:    7.5150658089
  - # 13
    frequency:    8.3251473921
  - # 14
    frequency:    8.3403291718
  - # 15
    frequency:   10.2833778027
  - # 16
    frequency:   12.1971747997
  - # 17
    frequency:   12.2015826465
  - # 18
    frequency:   13.3300471261

- q-position: [    0.0252525,    0.0000000,    0.0000000 ]
  distance:    0.0077687
  band:
  - # 1
    frequency:   -1.6607826178
  - # 2
    frequency:   -1.6264012429
  - # 3
    frequency:    0.0342620323
  - # 4
    frequency:    0.1348092860
  - # 5
    frequency:    0.3807224820
  - # 6
    frequency:    1.0810777724
  - # 7
    frequency:    1.1120596672
  - # 8
    frequency:    2.8601659739
  - # 9
    frequency:    4.0474918210
  - # 10
    frequency:    4.0560010013
  - # 11
    frequency:    7.3167868176
  - # 12
    frequency:    7.5115824414
  - # 13
    frequency:    8.3223454545
  - # 14
    frequency:    8.3453593779
  - # 15
    frequency:   10.2872060651
  - # 16
    frequency:   12.1973150494
  - # 17
    frequency:   12.2041319217
  - # 18
    frequency:   13.3325226129

- q-position: [    0.0303030,    0.0000000,    0.0000000 ]
  distance:    0.0093224
  band:
  - # 1
    frequency:   -1.6611465146
  - # 2
    frequency:   -1.6116162707
  - # 3
    frequency:    0.0481772486
  - # 4
    frequency:    0.1648155835
  - # 5
    frequency:    0.4570065943
  - # 6
    frequency:    1.0994616098
  - # 7
    frequency:    1.1426044654
  - # 8
    frequency:    2.8548618988
  - # 9
    frequency:    4.0486220911
  - # 10
    frequency:    4.0607868586
  - # 11
    frequency:    7.2896735051
  - # 12
    frequency:    7.5074077722
  - # 13
    frequency:    8.3189211247
  - # 14
    frequency:    8.3509012693
  - # 15
    frequency:   10.2918232585
  - # 16
    frequency:   12.1974881993
  - # 17
    frequency:   12.2071821201
  - # 18
    frequency:   13.3355891986

- q-position: [    0.0353535,    0.0000000,    0.0000000 ]
  distance:    0.0108762
  band:
  - # 1
    frequency:   -1.6615959188
  - # 2
    frequency:   -1.5941451425
  - # 3
    frequency:    0.0638963990
  - # 4
    frequency:    0.1961400011
  - # 5
    frequency:    0.5333129521
  - # 6
    frequency:    1.1205064620
  - # 7
    frequency:    1.1770323978
  - # 8
    frequency:    2.8487489168
  - # 9
    frequency:    4.0499503261
  - # 10
    frequency:    4.0663693629
  - # 11
    frequency:    7.2585581563
  - # 12
    frequency:    7.5025592443
  - # 13
    frequency:    8.3148746134
  - # 14
    frequency:    8.3566823337
  - # 15
    frequency:   10.2971920897
  - # 16
    frequency:   12.1976952731
  - # 17
    frequency:   12.2106958234
  - # 18
    frequency:   13.3392703319

- q-position: [    0.0404040,    0.0000000,    0.0000000 ]
  distance:    0.0124299
  band:
  - # 1
    frequency:   -1.6621386720
  - # 2
    frequency:   -1.5739863171
  - # 3
    frequency:    0.0812093731
  - # 4
    frequency:    0.2287897336
  - # 5
    frequency:    0.6096020073
  - # 6
    frequency:    1.1439581168
  - # 7
    frequency:    1.2147292164
  - # 8
    frequency:    2.8419110791
  - # 9
    frequency:    4.0514728125
  - # 10
    frequency:    4.0727155492
  - # 11
    frequency:    7.2238123385
  - # 12
    frequency:    7.4970488647
  - # 13
    frequency:    8.3102062181
  - # 14
    frequency:    8.3624397954
  - # 15
    frequency:   10.3032684010
  - # 16
    frequency:   12.1979374654
  - # 17
    frequency:   12.2146305444
  - # 18
    frequency:   13.3435926764

- q-position: [    0.0454545,    0.0000000,    0.0000000 ]
  distance:    0.0139836
  band:
  - # 1
    frequency:   -1.6627825713
  - # 2
    frequency:   -1.5511363274
  - # 3
    frequency:    0.0999424818
  - # 4
    frequency:    0.2627274326
  - # 5
    frequency:    0.6858152487
  - # 6
    frequency:    1.1695697097
  - # 7
    frequency:    1.2550945952
  - # 8
    frequency:    2.8344511126
  - # 9
    frequency:    4.0531853080
  - # 10
    frequency:    4.0797899931
  - # 11
    frequency:    7.1858066807
  - # 12
    frequency:    7.4908857365
  - # 13
    frequency:    8.3049163469
  - # 14
    frequency:    8.3679320725
  - # 15
    frequency:   10.3100012444
  - # 16
    frequency:   12.1982161350
  - # 17
    frequency:   12.2189395659
  - # 18
    frequency:   13.3485855826

- q-position: [    0.0505051,    0.0000000,    0.0000000 ]
  distance:    0.0155374
  band:
  - # 1
    frequency:   -1.6635349799
  - # 2
    frequency:   -1.5255893805
  - # 3
    frequency:    0.1199615551
  - # 4
    frequency:    0.2978830393
  - # 5
    frequency:    0.7618722429
  - # 6
    frequency:    1.1971085592
  - # 7
    frequency:    1.2975532277
  - # 8
    frequency:    2.8264937057
  - # 9
    frequency:    4.0550830590
  - # 10
    frequency:    4.0875556664
  - # 11
    frequency:    7.1449012748
  - # 12
    frequency:    7.4840779217
  - # 13
    frequency:    8.2990055448
  - # 14
    frequency:    8.3729458539
  - # 15
    frequency:   10.3173330336
  - # 16
    frequency:   12.1985327963
  - # 17
    frequency:   12.2235728847
  - # 18
    frequency:   13.3542804813

- q-position: [    0.0555556,    0.0000000,    0.0000000 ]
  distance:    0.0170911
  band:
  - # 1
    frequency:   -1.6644024681
  - # 2
    frequency:   -1.4973371843
  - # 3
    frequency:    0.1411713167
  - # 4
    frequency:    0.3341643143
  - # 5
    frequency:    0.8376667034
  - # 6
    frequency:    1.2263602905
  - # 7
    frequency:    1.3415605022
  - # 8
    frequency:    2.8181896956
  - # 9
    frequency:    4.0571608201
  - # 10
    frequency:    4.0959747667
  - # 11
    frequency:    7.1014402995
  - # 12
    frequency:    7.4766335487
  - # 13
    frequency:    8.2924745227
  - # 14
    frequency:    8.3772995592
  - # 15
    frequency:   10.3251997859
  - # 16
    frequency:   12.1988891112
  - # 17
    frequency:   12.2284782430
  - # 18
    frequency:   13.3607102045

- q-position: [    0.0606061,    0.0000000,    0.0000000 ]
  distance:    0.0186448
  band:
  - # 1
    frequency:   -1.6653905057
  - # 2
    frequency:   -1.4663691674
  - # 3
    frequency:    0.1635127624
  - # 4
    frequency:    0.3714654653
  - # 5
    frequency:    0.9130608622
  - # 6
    frequency:    1.2571307712
  - # 7
    frequency:    1.3866052136
  - # 8
    frequency:    2.8097212151
  - # 9
    frequency:    4.0594128759
  - # 10
    frequency:    4.1050094958
  - # 11
    frequency:    7.0557497465
  - # 12
    frequency:    7.4685613539
  - # 13
    frequency:    8.2853241893
  - # 14
    frequency:    8.3808441136
  - # 15
    frequency:   10.3335314594
  - # 16
    frequency:   12.1992868788
  - # 17
    frequency:   12.2336022321
  - # 18
    frequency:   13.3679082431

- q-position: [    0.0656566,    0.0000000,    0.0000000 ]
  distance:    0.0201986
  band:
  - # 1
    frequency:   -1.6665032203
  - # 2
    frequency:   -1.4326733327
  - # 3
    frequency:    0.1869598419
  - # 4
    frequency:    0.4096737962
  - # 5
    frequency:    0.9878770487
  - # 6
    frequency:    1.2892464376
  - # 7
    frequency:    1.4322120030
  - # 8
    frequency:    2.8013077586
  - # 9
    frequency:    4.0618330635
  - # 10
    frequency:    4.1146227646
  - # 11
    frequency:    7.0081371766
  - # 12
    frequency:    7.4598708678
  - # 13
    frequency:    8.2775556847
  - # 14
    frequency:    8.3834619004
  - # 15
    frequency:   10.3422523835
  - # 16
    frequency:   12.1997280256
  - # 17
    frequency:   12.2388914422
  - # 18
    frequency:   13.3759079567

- q-position: [    0.0707071,    0.0000000,    0.0000000 ]
  distance:    0.0217523
  band:
  - # 1
    frequency:   -1.6677432344
  - # 2
    frequency:   -1.3962380805
  - # 3
    frequency:    0.2115162831
  - # 4
    frequency:    0.4486745897
  - # 5
    frequency:    1.0618847955
  - # 6
    frequency:    1.3225535329
  - # 7
    frequency:    1.4779466550
  - # 8
    frequency:    2.7932129272
  - # 9
    frequency:    4.0644147977
  - # 10
    frequency:    4.1247788089
  - # 11
    frequency:    6.9588926570
  - # 12
    frequency:    7.4505724015
  - # 13
    frequency:    8.2691704162
  - # 14
    frequency:    8.3850645910
  - # 15
    frequency:   10.3512817766
  - # 16
    frequency:   12.2002145946
  - # 17
    frequency:   12.2442936340
  - # 18
    frequency:   13.3847417517

- q-position: [    0.0757576,    0.0000000,    0.0000000 ]
  distance:    0.0233061
  band:
  - # 1
    frequency:   -1.6691115851
  - # 2
    frequency:   -1.3570554920
  - # 3
    frequency:    0.2372130034
  - # 4
    frequency:    0.4883545444
  - # 5
    frequency:    1.1347809055
  - # 6
    frequency:    1.3569166833
  - # 7
    frequency:    1.5234282946
  - # 8
    frequency:    2.7857512936
  - # 9
    frequency:    4.0671510971
  - # 10
    frequency:    4.1354437047
  - # 11
    frequency:    6.9082902791
  - # 12
    frequency:    7.4406769356
  - # 13
    frequency:    8.2601700953
  - # 14
    frequency:    8.3855903681
  - # 15
    frequency:   10.3605343387
  - # 16
    frequency:   12.2007487344
  - # 17
    frequency:   12.2497588982
  - # 18
    frequency:   13.3944402518

- q-position: [    0.0808081,    0.0000000,    0.0000000 ]
  distance:    0.0248598
  band:
  - # 1
    frequency:   -1.6706077281
  - # 2
    frequency:   -1.3151267766
  - # 3
    frequency:    0.2641062104
  - # 4
    frequency:    0.5286040967
  - # 5
    frequency:    1.2061587141
  - # 6
    frequency:    1.3922171256
  - # 7
    frequency:    1.5683539999
  - # 8
    frequency:    2.7792943290
  - # 9
    frequency:    4.0700346114
  - # 10
    frequency:    4.1465857757
  - # 11
    frequency:    6.8565898591
  - # 12
    frequency:    7.4301959659
  - # 13
    frequency:    8.2505567765
  - # 14
    frequency:    8.3850008947
  - # 15
    frequency:   10.3699209039
  - # 16
    frequency:   12.2013326873
  - # 17
    frequency:   12.2552407709
  - # 18
    frequency:   13.4050314841

- q-position: [    0.0858586,    0.0000000,    0.0000000 ]
  distance:    0.0264135
  band:
  - # 1
    frequency:   -1.6722296205
  - # 2
    frequency:   -1.2704709029
  - # 3
    frequency:    0.2922759656
  - # 4
    frequency:    0.5693189168
  - # 5
    frequency:    1.2754617068
  - # 6
    frequency:    1.4283508079
  - # 7
    frequency:    1.6125429813
  - # 8
    frequency:    2.7742736651
  - # 9
    frequency:    4.0730576499
  - # 10
    frequency:    4.1581758913
  - # 11
    frequency:    6.8040385786
  - # 12
    frequency:    7.4191413400
  - # 13
    frequency:    8.2403328963
  - # 14
    frequency:    8.3832782619
  - # 15
    frequency:   10.3793491383
  - # 16
    frequency:   12.2019687776
  - # 17
    frequency:   12.2606972672
  - # 18
    frequency:   13.4165401108

- q-position: [    0.0909091,    0.0000000,    0.0000000 ]
  distance:    0.0279673
  band:
  - # 1
    frequency:   -1.6739738741
  - # 2
    frequency:   -1.2231378643
  - # 3
    frequency:    0.3218245580
  - # 4
    frequency:    0.6104008088
  - # 5
    frequency:    1.3419176926
  - # 6
    frequency:    1.4652265056
  - # 7
    frequency:    1.6560071904
  - # 8
    frequency:    2.7711792020
  - # 9
    frequency:    4.0762122116
  - # 10
    frequency:    4.1701876519
  - # 11
    frequency:    6.7508724235
  - # 12
    frequency:    7.4075250992
  - # 13
    frequency:    8.2295013134
  - # 14
    frequency:    8.3804220549
  - # 15
    frequency:   10.3887242648
  - # 16
    frequency:   12.2026593999
  - # 17
    frequency:   12.2660917981
  - # 18
    frequency:   13.4289867326

- q-position: [    0.0959596,    0.0000000,    0.0000000 ]
  distance:    0.0295210
  band:
  - # 1
    frequency:   -1.6758359665
  - # 2
    frequency:   -1.1732285745
  - # 3
    frequency:    0.3528733686
  - # 4
    frequency:    0.6517581915
  - # 5
    frequency:    1.4044590749
  - # 6
    frequency:    1.5027640377
  - # 7
    frequency:    1.6990465457
  - # 8
    frequency:    2.7705489976
  - # 9
    frequency:    4.0794900153
  - # 10
    frequency:    4.1825974653
  - # 11
    frequency:    6.6973173508
  - # 12
    frequency:    7.3953593351
  - # 13
    frequency:    8.2180653492
  - # 14
    frequency:    8.3764466189
  - # 15
    frequency:   10.3979498038
  - # 16
    frequency:   12.2034070067
  - # 17
    frequency:   12.2713939351
  - # 18
    frequency:   13.4423872913

- q-position: [    0.1010101,    0.0000000,    0.0000000 ]
  distance:    0.0310747
  band:
  - # 1
    frequency:   -1.6778104968
  - # 2
    frequency:   -1.1209239631
  - # 3
    frequency:    0.3855558282
  - # 4
    frequency:    0.6933062849
  - # 5
    frequency:    1.4616656500
  - # 6
    frequency:    1.5408926324
  - # 7
    frequency:    1.7423361441
  - # 8
    frequency:    2.7729480086
  - # 9
    frequency:    4.0828825311
  - # 10
    frequency:    4.1953845165
  - # 11
    frequency:    6.6435901552
  - # 12
    frequency:    7.3826560650
  - # 13
    frequency:    8.2060288281
  - # 14
    frequency:    8.3713785648
  - # 15
    frequency:   10.4069283154
  - # 16
    frequency:   12.2042140962
  - # 17
    frequency:   12.2765799950
  - # 18
    frequency:   13.4567525937

- q-position: [    0.1060606,    0.0000000,    0.0000000 ]
  distance:    0.0326285
  band:
  - # 1
    frequency:   -1.6798914700
  - # 2
    frequency:   -1.0665261632
  - # 3
    frequency:    0.4200023808
  - # 4
    frequency:    0.7349670958
  - # 5
    frequency:    1.5118275403
  - # 6
    frequency:    1.5795494598
  - # 7
    frequency:    1.7869104131
  - # 8
    frequency:    2.7789343068
  - # 9
    frequency:    4.0863810125
  - # 10
    frequency:    4.2085306349
  - # 11
    frequency:    6.5898990349
  - # 12
    frequency:    7.3694271274
  - # 13
    frequency:    8.1933961175
  - # 14
    frequency:    8.3652545295
  - # 15
    frequency:   10.4155621374
  - # 16
    frequency:   12.2050832001
  - # 17
    frequency:   12.2816334190
  - # 18
    frequency:   13.4720879765

- q-position: [    0.1111111,    0.0000000,    0.0000000 ]
  distance:    0.0341822
  band:
  - # 1
    frequency:   -1.6820725985
  - # 2
    frequency:   -1.0105141282
  - # 3
    frequency:    0.4563111419
  - # 4
    frequency:    0.7766692644
  - # 5
    frequency:    1.5532614089
  - # 6
    frequency:    1.6186783369
  - # 7
    frequency:    1.8339106426
  - # 8
    frequency:    2.7890147990
  - # 9
    frequency:    4.0899765288
  - # 10
    frequency:    4.2220200663
  - # 11
    frequency:    6.5364438730
  - # 12
    frequency:    7.3556840994
  - # 13
    frequency:    8.1801721675
  - # 14
    frequency:    8.3581191897
  - # 15
    frequency:   10.4237541112
  - # 16
    frequency:   12.2060168717
  - # 17
    frequency:   12.2865449325
  - # 18
    frequency:   13.4883931201

- q-position: [    0.1161616,    0.0000000,    0.0000000 ]
  distance:    0.0357360
  band:
  - # 1
    frequency:   -1.6843476046
  - # 2
    frequency:   -0.9536135371
  - # 3
    frequency:    0.4944959893
  - # 4
    frequency:    0.8183478176
  - # 5
    frequency:    1.5848585131
  - # 6
    frequency:    1.6582285981
  - # 7
    frequency:    1.8841127197
  - # 8
    frequency:    2.8035971598
  - # 9
    frequency:    4.0936599982
  - # 10
    frequency:    4.2358391565
  - # 11
    frequency:    6.4834162620
  - # 12
    frequency:    7.3414382359
  - # 13
    frequency:    8.1663625502
  - # 14
    frequency:    8.3500235179
  - # 15
    frequency:   10.4314082959
  - # 16
    frequency:   12.2070176733
  - # 17
    frequency:   12.2913124791
  - # 18
    frequency:   13.5056620170

- q-position: [    0.1212121,    0.0000000,    0.0000000 ]
  distance:    0.0372897
  band:
  - # 1
    frequency:   -1.6867105156
  - # 2
    frequency:   -0.8968754876
  - # 3
    frequency:    0.5344047814
  - # 4
    frequency:    0.8599438605
  - # 5
    frequency:    1.6065205107
  - # 6
    frequency:    1.6981541202
  - # 7
    frequency:    1.9375709573
  - # 8
    frequency:    2.8229485731
  - # 9
    frequency:    4.0974222214
  - # 10
    frequency:    4.2499759543
  - # 11
    frequency:    6.4309993066
  - # 12
    frequency:    7.3267004299
  - # 13
    frequency:    8.1519734973
  - # 14
    frequency:    8.3410232639
  - # 15
    frequency:   10.4384306672
  - # 16
    frequency:   12.2080881645
  - # 17
    frequency:   12.2959409317
  - # 18
    frequency:   13.5238830887

- q-position: [    0.1262626,    0.0000000,    0.0000000 ]
  distance:    0.0388434
  band:
  - # 1
    frequency:   -1.6891559417
  - # 2
    frequency:   -0.8417511907
  - # 3
    frequency:    0.5756092812
  - # 4
    frequency:    0.9014042282
  - # 5
    frequency:    1.6191590657
  - # 6
    frequency:    1.7384124875
  - # 7
    frequency:    1.9936930507
  - # 8
    frequency:    2.8471721466
  - # 9
    frequency:    4.1012539152
  - # 10
    frequency:    4.2644197476
  - # 11
    frequency:    6.3793672453
  - # 12
    frequency:    7.3114811953
  - # 13
    frequency:    8.1370119368
  - # 14
    frequency:    8.3311776425
  - # 15
    frequency:   10.4447298038
  - # 16
    frequency:   12.2092308900
  - # 17
    frequency:   12.3004415953
  - # 18
    frequency:   13.5430394395

- q-position: [    0.1313131,    0.0000000,    0.0000000 ]
  distance:    0.0403972
  band:
  - # 1
    frequency:   -1.6916793296
  - # 2
    frequency:   -0.7901461860
  - # 3
    frequency:    0.6172902312
  - # 4
    frequency:    0.9426811147
  - # 5
    frequency:    1.6243996053
  - # 6
    frequency:    1.7789642826
  - # 7
    frequency:    2.0515989677
  - # 8
    frequency:    2.8762071893
  - # 9
    frequency:    4.1051457468
  - # 10
    frequency:    4.2791605417
  - # 11
    frequency:    6.3286849356
  - # 12
    frequency:    7.2957906694
  - # 13
    frequency:    8.1214855289
  - # 14
    frequency:    8.3205482047
  - # 15
    frequency:   10.4502175620
  - # 16
    frequency:   12.2104483675
  - # 17
    frequency:   12.3048315213
  - # 18
    frequency:   13.5631092281

- q-position: [    0.1363636,    0.0000000,    0.0000000 ]
  distance:    0.0419509
  band:
  - # 1
    frequency:   -1.6942771879
  - # 2
    frequency:   -0.7444452143
  - # 3
    frequency:    0.6581727232
  - # 4
    frequency:    0.9837316902
  - # 5
    frequency:    1.6243198632
  - # 6
    frequency:    1.8197724885
  - # 7
    frequency:    2.1104266101
  - # 8
    frequency:    2.9098518225
  - # 9
    frequency:    4.1090883680
  - # 10
    frequency:    4.2941884977
  - # 11
    frequency:    6.2791072509
  - # 12
    frequency:    7.2796386362
  - # 13
    frequency:    8.1054026995
  - # 14
    frequency:    8.3091978743
  - # 15
    frequency:   10.4548097366
  - # 16
    frequency:   12.2117430760
  - # 17
    frequency:   12.3091326650
  - # 18
    frequency:   13.5840661349

- q-position: [    0.1414141,    0.0000000,    0.0000000 ]
  distance:    0.0435046
  band:
  - # 1
    frequency:   -1.6969472817
  - # 2
    frequency:   -0.7075115845
  - # 3
    frequency:    0.6965895798
  - # 4
    frequency:    1.0245177162
  - # 5
    frequency:    1.6213267533
  - # 6
    frequency:    1.8608019892
  - # 7
    frequency:    2.1694649621
  - # 8
    frequency:    2.9477997861
  - # 9
    frequency:    4.1130724499
  - # 10
    frequency:    4.3094933447
  - # 11
    frequency:    6.2307784388
  - # 12
    frequency:    7.2630345690
  - # 13
    frequency:    8.0887726722
  - # 14
    frequency:    8.2971901261
  - # 15
    frequency:   10.4584267087
  - # 16
    frequency:   12.2131174438
  - # 17
    frequency:   12.3133709177
  - # 18
    frequency:   13.6058798997

- q-position: [    0.1464646,    0.0000000,    0.0000000 ]
  distance:    0.0450584
  band:
  - # 1
    frequency:   -1.6996887942
  - # 2
    frequency:   -0.6826445685
  - # 3
    frequency:    0.7307394750
  - # 4
    frequency:    1.0650051651
  - # 5
    frequency:    1.6180759473
  - # 6
    frequency:    1.9020191548
  - # 7
    frequency:    2.2281720472
  - # 8
    frequency:    2.9896809740
  - # 9
    frequency:    4.1170887172
  - # 10
    frequency:    4.3250637869
  - # 11
    frequency:    6.1838314888
  - # 12
    frequency:    7.2459876893
  - # 13
    frequency:    8.0716054990
  - # 14
    frequency:    8.2845882903
  - # 15
    frequency:   10.4609940756
  - # 16
    frequency:   12.2145738363
  - # 17
    frequency:   12.3175750538
  - # 18
    frequency:   13.6285169022

- q-position: [    0.1515152,    0.0000000,    0.0000000 ]
  distance:    0.0466121
  band:
  - # 1
    frequency:   -1.7025024562
  - # 2
    frequency:   -0.6733883746
  - # 3
    frequency:    0.7591522695
  - # 4
    frequency:    1.1051638488
  - # 5
    frequency:    1.6173019375
  - # 6
    frequency:    1.9433915025
  - # 7
    frequency:    2.2861498330
  - # 8
    frequency:    3.0350972599
  - # 9
    frequency:    4.1211279839
  - # 10
    frequency:    4.3408869228
  - # 11
    frequency:    6.1383875583
  - # 12
    frequency:    7.2285070434
  - # 13
    frequency:    8.0539120883
  - # 14
    frequency:    8.2714549629
  - # 15
    frequency:   10.4624432569
  - # 16
    frequency:   12.2161145446
  - # 17
    frequency:   12.3217756314
  - # 18
    frequency:   13.6519407620

- q-position: [    0.1565657,    0.0000000,    0.0000000 ]
  distance:    0.0481659
  band:
  - # 1
    frequency:   -1.7053906442
  - # 2
    frequency:   -0.6829977003
  - # 3
    frequency:    0.7812683792
  - # 4
    frequency:    1.1449670605
  - # 5
    frequency:    1.6214848476
  - # 6
    frequency:    1.9848874200
  - # 7
    frequency:    2.3431127000
  - # 8
    frequency:    3.0836492606
  - # 9
    frequency:    4.1251811873
  - # 10
    frequency:    4.3569476999
  - # 11
    frequency:    6.0945554990
  - # 12
    frequency:    7.2106015921
  - # 13
    frequency:    8.0357042311
  - # 14
    frequency:    8.2578515082
  - # 15
    frequency:   10.4627120676
  - # 16
    frequency:   12.2177417728
  - # 17
    frequency:   12.3260038851
  - # 18
    frequency:   13.6761129333

- q-position: [    0.1616162,    0.0000000,    0.0000000 ]
  distance:    0.0497196
  band:
  - # 1
    frequency:   -1.7083574478
  - # 2
    frequency:   -0.7134981802
  - # 3
    frequency:    0.7978737391
  - # 4
    frequency:    1.1843912327
  - # 5
    frequency:    1.6324161797
  - # 6
    frequency:    2.0264759456
  - # 7
    frequency:    2.3988611598
  - # 8
    frequency:    3.1349534446
  - # 9
    frequency:    4.1292394241
  - # 10
    frequency:    4.3732284231
  - # 11
    frequency:    6.0524315199
  - # 12
    frequency:    7.1922803126
  - # 13
    frequency:    8.0169946244
  - # 14
    frequency:    8.2438376395
  - # 15
    frequency:   10.4617452495
  - # 16
    frequency:   12.2194576261
  - # 17
    frequency:   12.3302906504
  - # 18
    frequency:   13.7009932762

- q-position: [    0.1666667,    0.0000000,    0.0000000 ]
  distance:    0.0512733
  band:
  - # 1
    frequency:   -1.7114087088
  - # 2
    frequency:   -0.7647326581
  - # 3
    frequency:    0.8110282316
  - # 4
    frequency:    1.2234156119
  - # 5
    frequency:    1.6508761238
  - # 6
    frequency:    2.0681265944
  - # 7
    frequency:    2.4532622816
  - # 8
    frequency:    3.1886512325
  - # 9
    frequency:    4.1332939852
  - # 10
    frequency:    4.3897083396
  - # 11
    frequency:    6.0120990151
  - # 12
    frequency:    7.1735523109
  - # 13
    frequency:    7.9977968930
  - # 14
    frequency:    8.2294710663
  - # 15
    frequency:   10.4594949463
  - # 16
    frequency:   12.2212640984
  - # 17
    frequency:   12.3346653526
  - # 18
    frequency:   13.7265405877

- q-position: [    0.1717172,    0.0000000,    0.0000000 ]
  distance:    0.0528271
  band:
  - # 1
    frequency:   -1.7145520328
  - # 2
    frequency:   -0.8341102654
  - # 3
    frequency:    0.8233621046
  - # 4
    frequency:    1.2620219535
  - # 5
    frequency:    1.6766268936
  - # 6
    frequency:    2.1098092248
  - # 7
    frequency:    2.5062354193
  - # 8
    frequency:    3.2444124951
  - # 9
    frequency:    4.1373363910
  - # 10
    frequency:    4.4063633189
  - # 11
    frequency:    5.9736285737
  - # 12
    frequency:    7.1544269408
  - # 13
    frequency:    7.9781256078
  - # 14
    frequency:    8.2148071982
  - # 15
    frequency:   10.4559211117
  - # 16
    frequency:   12.2231630597
  - # 17
    frequency:   12.3391550905
  - # 18
    frequency:   13.7527130822

- q-position: [    0.1767677,    0.0000000,    0.0000000 ]
  distance:    0.0543808
  band:
  - # 1
    frequency:   -1.7177967767
  - # 2
    frequency:   -0.9173662183
  - # 3
    frequency:    0.8371458463
  - # 4
    frequency:    1.3001942363
  - # 5
    frequency:    1.7087112543
  - # 6
    frequency:    2.1514939383
  - # 7
    frequency:    2.5577415691
  - # 8
    frequency:    3.3019356605
  - # 9
    frequency:    4.1413584270
  - # 10
    frequency:    4.4231656448
  - # 11
    frequency:    5.9370781784
  - # 12
    frequency:    7.1349139283
  - # 13
    frequency:    7.9579963022
  - # 14