nqpoint: 300    
npath: 3      
segment_nqpoint:
- 100
- 100
- 100
labels:
- [ 'G', 'M' ]
- [ 'M', 'K' ]
- [ 'K', 'G' ]
reciprocal_lattice:
- [   0.27494225,   0.15873798,   0.00000000 ] # a*
- [   0.00000000,   0.31747596,   0.00000000 ] # b*
- [   0.00000000,   0.00000000,   0.03668356 ] # c*
natom: 8      
lattice:
- [     3.637127477710739,     0.000000000000000,     0.000000000000000 ] # a
- [    -1.818563738855369,     3.149844792500065,     0.000000000000000 ] # b
- [     0.000000000000000,     0.000000000000000,    27.260167492152995 ] # c
points:
- symbol: C # 1
  coordinates: [  0.000000000000000,  0.000000000000000,  0.531576691744433 ]
  mass: 12.010700
- symbol: C # 2
  coordinates: [  0.666666984744047,  0.333332985985145,  0.373837385444721 ]
  mass: 12.010700
- symbol: Cl # 3
  coordinates: [  0.333332985432215,  0.666666983183674,  0.669847956635237 ]
  mass: 35.453000
- symbol: N # 4
  coordinates: [  0.666666984744047,  0.333332985985145,  0.330152043364763 ]
  mass: 14.006700
- symbol: O # 5
  coordinates: [  0.333332985432215,  0.666666983183674,  0.577568002691382 ]
  mass: 15.999400
- symbol: S # 6
  coordinates: [  0.666666984744047,  0.333332985985145,  0.435335030553173 ]
  mass: 32.065000
- symbol: Zr # 7
  coordinates: [  0.333332985432215,  0.666666983183674,  0.498104854955393 ]
  mass: 91.224000
- symbol: Zr # 8
  coordinates: [  0.666666984744047,  0.333332985985145,  0.592734244626763 ]
  mass: 91.224000

phonon:
- q-position: [    0.0000000,    0.0000000,    0.0000000 ]
  distance:    0.0000000
  band:
  - # 1
    frequency:   -3.3745981149
  - # 2
    frequency:   -3.3745981149
  - # 3
    frequency:   -0.0000002283
  - # 4
    frequency:    0.0000003581
  - # 5
    frequency:    0.0000013529
  - # 6
    frequency:    0.7123373744
  - # 7
    frequency:    0.7123373744
  - # 8
    frequency:    2.6936201329
  - # 9
    frequency:    2.6936201329
  - # 10
    frequency:    4.6785402737
  - # 11
    frequency:    5.7056037062
  - # 12
    frequency:    5.7056037062
  - # 13
    frequency:    7.3849760568
  - # 14
    frequency:    8.1437887721
  - # 15
    frequency:   10.5327524722
  - # 16
    frequency:   10.5327524722
  - # 17
    frequency:   11.8345072556
  - # 18
    frequency:   11.8345072556
  - # 19
    frequency:   12.8807445896
  - # 20
    frequency:   16.7745284364
  - # 21
    frequency:   17.1309281421
  - # 22
    frequency:   17.1309281421
  - # 23
    frequency:   20.7873526157
  - # 24
    frequency:   64.9207019132

- q-position: [    0.0050505,    0.0000000,    0.0000000 ]
  distance:    0.0016034
  band:
  - # 1
    frequency:   -3.3745175975
  - # 2
    frequency:   -3.3732856663
  - # 3
    frequency:   -0.0109240976
  - # 4
    frequency:    0.0076523454
  - # 5
    frequency:    0.0844251391
  - # 6
    frequency:    0.7129404949
  - # 7
    frequency:    0.7147018374
  - # 8
    frequency:    2.6945154269
  - # 9
    frequency:    2.6959435768
  - # 10
    frequency:    4.6779566406
  - # 11
    frequency:    5.7058260723
  - # 12
    frequency:    5.7066678373
  - # 13
    frequency:    7.3842740377
  - # 14
    frequency:    8.1429060318
  - # 15
    frequency:   10.5328453523
  - # 16
    frequency:   10.5338972985
  - # 17
    frequency:   11.8347708886
  - # 18
    frequency:   11.8360021295
  - # 19
    frequency:   12.8817882270
  - # 20
    frequency:   16.7729948677
  - # 21
    frequency:   17.1310944292
  - # 22
    frequency:   17.1329425163
  - # 23
    frequency:   20.7873332360
  - # 24
    frequency:   64.9206394976

- q-position: [    0.0101010,    0.0000000,    0.0000000 ]
  distance:    0.0032068
  band:
  - # 1
    frequency:   -3.3742765081
  - # 2
    frequency:   -3.3693521363
  - # 3
    frequency:   -0.0121472882
  - # 4
    frequency:    0.0160364909
  - # 5
    frequency:    0.1676969165
  - # 6
    frequency:    0.7147419966
  - # 7
    frequency:    0.7217995894
  - # 8
    frequency:    2.6971953789
  - # 9
    frequency:    2.7028972823
  - # 10
    frequency:    4.6762183049
  - # 11
    frequency:    5.7064925973
  - # 12
    frequency:    5.7098485814
  - # 13
    frequency:    7.3821714759
  - # 14
    frequency:    8.1402622047
  - # 15
    frequency:   10.5331232846
  - # 16
    frequency:   10.5372946182
  - # 17
    frequency:   11.8355595185
  - # 18
    frequency:   11.8404084824
  - # 19
    frequency:   12.8849980778
  - # 20
    frequency:   16.7684953877
  - # 21
    frequency:   17.1315929592
  - # 22
    frequency:   17.1388842925
  - # 23
    frequency:   20.7872751252
  - # 24
    frequency:   64.9204523715

- q-position: [    0.0151515,    0.0000000,    0.0000000 ]
  distance:    0.0048102
  band:
  - # 1
    frequency:   -3.3738762324
  - # 2
    frequency:   -3.3628089593
  - # 3
    frequency:   -0.0090556932
  - # 4
    frequency:    0.0257559498
  - # 5
    frequency:    0.2505706684
  - # 6
    frequency:    0.7177190205
  - # 7
    frequency:    0.7336564045
  - # 8
    frequency:    2.7016423472
  - # 9
    frequency:    2.7144319957
  - # 10
    frequency:    4.6733623534
  - # 11
    frequency:    5.7076015653
  - # 12
    frequency:    5.7151115636
  - # 13
    frequency:    7.3786786872
  - # 14
    frequency:    8.1358703616
  - # 15
    frequency:   10.5335841583
  - # 16
    frequency:   10.5428356533
  - # 17
    frequency:   11.8368663551
  - # 18
    frequency:   11.8474901364
  - # 19
    frequency:   12.8906104214
  - # 20
    frequency:   16.7613066064
  - # 21
    frequency:   17.1324227401
  - # 22
    frequency:   17.1484765291
  - # 23
    frequency:   20.7871783674
  - # 24
    frequency:   64.9201408970

- q-position: [    0.0202020,    0.0000000,    0.0000000 ]
  distance:    0.0064137
  band:
  - # 1
    frequency:   -3.3733190726
  - # 2
    frequency:   -3.3536751485
  - # 3
    frequency:    0.0154349909
  - # 4
    frequency:    0.0372241886
  - # 5
    frequency:    0.3325011640
  - # 6
    frequency:    0.7218357460
  - # 7
    frequency:    0.7503589579
  - # 8
    frequency:    2.7078274172
  - # 9
    frequency:    2.7304676500
  - # 10
    frequency:    4.6694486553
  - # 11
    frequency:    5.7091501300
  - # 12
    frequency:    5.7224013313
  - # 13
    frequency:    7.3738123154
  - # 14
    frequency:    8.1297519373
  - # 15
    frequency:   10.5342244980
  - # 16
    frequency:   10.5503478173
  - # 17
    frequency:   11.8386801393
  - # 18
    frequency:   11.8568501128
  - # 19
    frequency:   12.8990162896
  - # 20
    frequency:   16.7518145605
  - # 21
    frequency:   17.1335821287
  - # 22
    frequency:   17.1613327352
  - # 23
    frequency:   20.7870431024
  - # 24
    frequency:   64.9197056759

- q-position: [    0.0252525,    0.0000000,    0.0000000 ]
  distance:    0.0080171
  band:
  - # 1
    frequency:   -3.3726082361
  - # 2
    frequency:   -3.3419772287
  - # 3
    frequency:    0.0320936932
  - # 4
    frequency:    0.0506732991
  - # 5
    frequency:    0.4128993560
  - # 6
    frequency:    0.7270464085
  - # 7
    frequency:    0.7721248391
  - # 8
    frequency:    2.7157111044
  - # 9
    frequency:    2.7508961940
  - # 10
    frequency:    4.6645571884
  - # 11
    frequency:    5.7111343349
  - # 12
    frequency:    5.7316438842
  - # 13
    frequency:    7.3675945636
  - # 14
    frequency:    8.1219362493
  - # 15
    frequency:   10.5350395267
  - # 16
    frequency:   10.5596067888
  - # 17
    frequency:   11.8409852287
  - # 18
    frequency:   11.8679298406
  - # 19
    frequency:   12.9107539042
  - # 20
    frequency:   16.7404418964
  - # 21
    frequency:   17.1350688444
  - # 22
    frequency:   17.1770298337
  - # 23
    frequency:   20.7868695242
  - # 24
    frequency:   64.9191475475

- q-position: [    0.0303030,    0.0000000,    0.0000000 ]
  distance:    0.0096205
  band:
  - # 1
    frequency:   -3.3717478200
  - # 2
    frequency:   -3.3277491403
  - # 3
    frequency:    0.0505693375
  - # 4
    frequency:    0.0661959201
  - # 5
    frequency:    0.4909458134
  - # 6
    frequency:    0.7332988423
  - # 7
    frequency:    0.7994038444
  - # 8
    frequency:    2.7252442843
  - # 9
    frequency:    2.7755851776
  - # 10
    frequency:    4.6587847250
  - # 11
    frequency:    5.7135491405
  - # 12
    frequency:    5.7427498066
  - # 13
    frequency:    7.3600522194
  - # 14
    frequency:    8.1124599082
  - # 15
    frequency:   10.5360232511
  - # 16
    frequency:   10.5703515534
  - # 17
    frequency:   11.8437617193
  - # 18
    frequency:   11.8800161728
  - # 19
    frequency:   12.9264915134
  - # 20
    frequency:   16.7275928581
  - # 21
    frequency:   17.1368799891
  - # 22
    frequency:   17.1951633716
  - # 23
    frequency:   20.7866578798
  - # 24
    frequency:   64.9184675856

- q-position: [    0.0353535,    0.0000000,    0.0000000 ]
  distance:    0.0112239
  band:
  - # 1
    frequency:   -3.3707427913
  - # 2
    frequency:   -3.3110321129
  - # 3
    frequency:    0.0715672910
  - # 4
    frequency:    0.0837890578
  - # 5
    frequency:    0.5654808719
  - # 6
    frequency:    0.7405380914
  - # 7
    frequency:    0.8329844887
  - # 8
    frequency:    2.7363692994
  - # 9
    frequency:    2.8043817916
  - # 10
    frequency:    4.6522412061
  - # 11
    frequency:    5.7163884589
  - # 12
    frequency:    5.7556176920
  - # 13
    frequency:    7.3512155583
  - # 14
    frequency:    8.1013661801
  - # 15
    frequency:   10.5371685671
  - # 16
    frequency:   10.5823008281
  - # 17
    frequency:   11.8469856009
  - # 18
    frequency:   11.8922630133
  - # 19
    frequency:   12.9469951397
  - # 20
    frequency:   16.7136232773
  - # 21
    frequency:   17.1390120724
  - # 22
    frequency:   17.2153777755
  - # 23
    frequency:   20.7864084673
  - # 24
    frequency:   64.9176670944

- q-position: [    0.0404040,    0.0000000,    0.0000000 ]
  distance:    0.0128273
  band:
  - # 1
    frequency:   -3.3695989622
  - # 2
    frequency:   -3.2918745054
  - # 3
    frequency:    0.0951537194
  - # 4
    frequency:    0.1033877562
  - # 5
    frequency:    0.6350169301
  - # 6
    frequency:    0.7487097199
  - # 7
    frequency:    0.8739885149
  - # 8
    frequency:    2.7490211892
  - # 9
    frequency:    2.8371170556
  - # 10
    frequency:    4.6450461174
  - # 11
    frequency:    5.7196451951
  - # 12
    frequency:    5.7701375658
  - # 13
    frequency:    7.3411172103
  - # 14
    frequency:    8.0887043605
  - # 15
    frequency:   10.5384673822
  - # 16
    frequency:   10.5951692152
  - # 17
    frequency:   11.8506289465
  - # 18
    frequency:   11.9037332914
  - # 19
    frequency:   12.9730768730
  - # 20
    frequency:   16.6988307023
  - # 21
    frequency:   17.1414610409
  - # 22
    frequency:   17.2373765114
  - # 23
    frequency:   20.7861216333
  - # 24
    frequency:   64.9167476040

- q-position: [    0.0454545,    0.0000000,    0.0000000 ]
  distance:    0.0144307
  band:
  - # 1
    frequency:   -3.3683229619
  - # 2
    frequency:   -3.2703316093
  - # 3
    frequency:    0.1212604923
  - # 4
    frequency:    0.1248879498
  - # 5
    frequency:    0.6981146990
  - # 6
    frequency:    0.7577625893
  - # 7
    frequency:    0.9235020248
  - # 8
    frequency:    2.7631289892
  - # 9
    frequency:    2.8736098809
  - # 10
    frequency:    4.6373251238
  - # 11
    frequency:    5.7233112941
  - # 12
    frequency:    5.7861940689
  - # 13
    frequency:    7.3297910694
  - # 14
    frequency:    8.0745292065
  - # 15
    frequency:   10.5399107514
  - # 16
    frequency:   10.6086815876
  - # 17
    frequency:   11.8546601368
  - # 18
    frequency:   11.9134626289
  - # 19
    frequency:   13.0055235840
  - # 20
    frequency:   16.6834564934
  - # 21
    frequency:   17.1442223128
  - # 22
    frequency:   17.2609203103
  - # 23
    frequency:   20.7857977706
  - # 24
    frequency:   64.9157108640

- q-position: [    0.0505051,    0.0000000,    0.0000000 ]
  distance:    0.0160341
  band:
  - # 1
    frequency:   -3.3669222033
  - # 2
    frequency:   -3.2464654133
  - # 3
    frequency:    0.1481611949
  - # 4
    frequency:    0.1497747240
  - # 5
    frequency:    0.7541859141
  - # 6
    frequency:    0.7676510140
  - # 7
    frequency:    0.9817784597
  - # 8
    frequency:    2.7786170421
  - # 9
    frequency:    2.9136707906
  - # 10
    frequency:    4.6292071473
  - # 11
    frequency:    5.7273777924
  - # 12
    frequency:    5.8036692387
  - # 13
    frequency:    7.3172713101
  - # 14
    frequency:    8.0589004586
  - # 15
    frequency:   10.5414890242
  - # 16
    frequency:   10.6225845846
  - # 17
    frequency:   11.8590441167
  - # 18
    frequency:   11.9205384060
  - # 19
    frequency:   13.0450132251
  - # 20
    frequency:   16.6676932869
  - # 21
    frequency:   17.1472908156
  - # 22
    frequency:   17.2858200519
  - # 23
    frequency:   20.7854373148
  - # 24
    frequency:   64.9145588379

- q-position: [    0.0555556,    0.0000000,    0.0000000 ]
  distance:    0.0176376
  band:
  - # 1
    frequency:   -3.3654048456
  - # 2
    frequency:   -3.2203443230
  - # 3
    frequency:    0.1730639721
  - # 4
    frequency:    0.1805666191
  - # 5
    frequency:    0.7783363135
  - # 6
    frequency:    0.8040016405
  - # 7
    frequency:    1.0477338390
  - # 8
    frequency:    2.7954062788
  - # 9
    frequency:    2.9571051446
  - # 10
    frequency:    4.6208219907
  - # 11
    frequency:    5.7318348747
  - # 12
    frequency:    5.8224447990
  - # 13
    frequency:    7.3035915574
  - # 14
    frequency:    8.0418824620
  - # 15
    frequency:   10.5431919970
  - # 16
    frequency:   10.6366545866
  - # 17
    frequency:   11.8637426856
  - # 18
    frequency:   11.9241797340
  - # 19
    frequency:   13.0920336355
  - # 20
    frequency:   16.6516938718
  - # 21
    frequency:   17.1506610281
  - # 22
    frequency:   17.3119282517
  - # 23
    frequency:   20.7850407413
  - # 24
    frequency:   64.9132936955

- q-position: [    0.0606061,    0.0000000,    0.0000000 ]
  distance:    0.0192410
  band:
  - # 1
    frequency:   -3.3637797524
  - # 2
    frequency:   -3.1920428349
  - # 3
    frequency:    0.1994434890
  - # 4
    frequency:    0.2135011602
  - # 5
    frequency:    0.7897878529
  - # 6
    frequency:    0.8491943677
  - # 7
    frequency:    1.1194462452
  - # 8
    frequency:    2.8134154253
  - # 9
    frequency:    3.0037157818
  - # 10
    frequency:    4.6122985473
  - # 11
    frequency:    5.7366719340
  - # 12
    frequency:    5.8424039361
  - # 13
    frequency:    7.2887842387
  - # 14
    frequency:    8.0235438861
  - # 15
    frequency:   10.5450090693
  - # 16
    frequency:   10.6507020666
  - # 17
    frequency:   11.8687148169
  - # 18
    frequency:   11.9237999074
  - # 19
    frequency:   13.1468222211
  - # 20
    frequency:   16.6355795682
  - # 21
    frequency:   17.1543270246
  - # 22
    frequency:   17.3391310537
  - # 23
    frequency:   20.7846085608
  - # 24
    frequency:   64.9119178052

- q-position: [    0.0656566,    0.0000000,    0.0000000 ]
  distance:    0.0208444
  band:
  - # 1
    frequency:   -3.3620564454
  - # 2
    frequency:   -3.1616411592
  - # 3
    frequency:    0.2271412400
  - # 4
    frequency:    0.2484440253
  - # 5
    frequency:    0.8019836928
  - # 6
    frequency:    0.8913860713
  - # 7
    frequency:    1.1950277923
  - # 8
    frequency:    2.8325621096
  - # 9
    frequency:    3.0533050482
  - # 10
    frequency:    4.6037635830
  - # 11
    frequency:    5.7418776336
  - # 12
    frequency:    5.8634325868
  - # 13
    frequency:    7.2728801312
  - # 14
    frequency:    8.0039575271
  - # 15
    frequency:   10.5469293991
  - # 16
    frequency:   10.6645726570
  - # 17
    frequency:   11.8739170078
  - # 18
    frequency:   11.9190369492
  - # 19
    frequency:   13.2093404412
  - # 20
    frequency:   16.6194474068
  - # 21
    frequency:   17.1582825214
  - # 22
    frequency:   17.3673414172
  - # 23
    frequency:   20.7841413156
  - # 24
    frequency:   64.9104337253

- q-position: [    0.0707071,    0.0000000,    0.0000000 ]
  distance:    0.0224478
  band:
  - # 1
    frequency:   -3.3602450527
  - # 2
    frequency:   -3.1292247926
  - # 3
    frequency:    0.2559951178
  - # 4
    frequency:    0.2852648978
  - # 5
    frequency:    0.8149109653
  - # 6
    frequency:    0.9317661231
  - # 7
    frequency:    1.2730456529
  - # 8
    frequency:    2.8527638457
  - # 9
    frequency:    3.1056762187
  - # 10
    frequency:    4.5953410472
  - # 11
    frequency:    5.7474399720
  - # 12
    frequency:    5.8854202909
  - # 13
    frequency:    7.2559081029
  - # 14
    frequency:    7.9832001677
  - # 15
    frequency:   10.5489420548
  - # 16
    frequency:   10.6781455733
  - # 17
    frequency:   11.8793036548
  - # 18
    frequency:   11.9097485847
  - # 19
    frequency:   13.2792860531
  - # 20
    frequency:   16.6033760068
  - # 21
    frequency:   17.1625209253
  - # 22
    frequency:   17.3964935927
  - # 23
    frequency:   20.7836395748
  - # 24
    frequency:   64.9088441952

- q-position: [    0.0757576,    0.0000000,    0.0000000 ]
  distance:    0.0240512
  band:
  - # 1
    frequency:   -3.3583562529
  - # 2
    frequency:   -3.0948840370
  - # 3
    frequency:    0.2858405936
  - # 4
    frequency:    0.3238393529
  - # 5
    frequency:    0.8285660740
  - # 6
    frequency:    0.9710903354
  - # 7
    frequency:    1.3525212656
  - # 8
    frequency:    2.8739388842
  - # 9
    frequency:    3.1606343495
  - # 10
    frequency:    4.5871518563
  - # 11
    frequency:    5.7533463480
  - # 12
    frequency:    5.9082606768
  - # 13
    frequency:    7.2378950425
  - # 14
    frequency:    7.9613524705
  - # 15
    frequency:   10.5510361616
  - # 16
    frequency:   10.6913301647
  - # 17
    frequency:   11.8848274532
  - # 18
    frequency:   11.8959793455
  - # 19
    frequency:   13.3561346032
  - # 20
    frequency:   16.5874302932
  - # 21
    frequency:   17.1670353827
  - # 22
    frequency:   17.4265387319
  - # 23
    frequency:   20.7831039291
  - # 24
    frequency:   64.9071521253

- q-position: [    0.0808081,    0.0000000,    0.0000000 ]
  distance:    0.0256546
  band:
  - # 1
    frequency:   -3.3564012140
  - # 2
    frequency:   -3.0587134692
  - # 3
    frequency:    0.3165113107
  - # 4
    frequency:    0.3640498431
  - # 5
    frequency:    0.8429547791
  - # 6
    frequency:    1.0098084271
  - # 7
    frequency:    1.4328007637
  - # 8
    frequency:    2.8960069257
  - # 9
    frequency:    3.2179866067
  - # 10
    frequency:    4.5793140919
  - # 11
    frequency:    5.7595836269
  - # 12
    frequency:    5.9318516484
  - # 13
    frequency:    7.2188659642
  - # 14
    frequency:    7.9384988747
  - # 15
    frequency:   10.5532010387
  - # 16
    frequency:   10.7040613438
  - # 17
    frequency:   11.8779136023
  - # 18
    frequency:   11.8904398169
  - # 19
    frequency:   13.4391956019
  - # 20
    frequency:   16.5716652718
  - # 21
    frequency:   17.1718188293
  - # 22
    frequency:   17.4574414048
  - # 23
    frequency:   20.7825349858
  - # 24
    frequency:   64.9053605873

- q-position: [    0.0858586,    0.0000000,    0.0000000 ]
  distance:    0.0272580
  band:
  - # 1
    frequency:   -3.3543915259
  - # 2
    frequency:   -3.0208113627
  - # 3
    frequency:    0.3478393405
  - # 4
    frequency:    0.4057860595
  - # 5
    frequency:    0.8580921895
  - # 6
    frequency:    1.0481793945
  - # 7
    frequency:    1.5134373883
  - # 8
    frequency:    2.9188896986
  - # 9
    frequency:    3.2775421179
  - # 10
    frequency:    4.5719435686
  - # 11
    frequency:    5.7661382053
  - # 12
    frequency:    5.9560953350
  - # 13
    frequency:    7.1988442796
  - # 14
    frequency:    7.9147274717
  - # 15
    frequency:   10.5554263271
  - # 16
    frequency:   10.7162945315
  - # 17
    frequency:   11.8558276738
  - # 18
    frequency:   11.8960913145
  - # 19
    frequency:   13.5276696094
  - # 20
    frequency:   16.5561290737
  - # 21
    frequency:   17.1768640390
  - # 22
    frequency:   17.4891768012
  - # 23
    frequency:   20.7819333621
  - # 24
    frequency:   64.9034728033

- q-position: [    0.0909091,    0.0000000,    0.0000000 ]
  distance:    0.0288615
  band:
  - # 1
    frequency:   -3.3523391291
  - # 2
    frequency:   -2.9812790679
  - # 3
    frequency:    0.3796553013
  - # 4
    frequency:    0.4489448339
  - # 5
    frequency:    0.8740026387
  - # 6
    frequency:    1.0863488960
  - # 7
    frequency:    1.5941119473
  - # 8
    frequency:    2.9425114099
  - # 9
    frequency:    3.3391113798
  - # 10
    frequency:    4.5651547445
  - # 11
    frequency:    5.7729960758
  - # 12
    frequency:    5.9808978552
  - # 13
    frequency:    7.1778522266
  - # 14
    frequency:    7.8901298355
  - # 15
    frequency:   10.5577021052
  - # 16
    frequency:   10.7280005782
  - # 17
    frequency:   11.8300494545
  - # 18
    frequency:   11.9017321174
  - # 19
    frequency:   13.6206973488
  - # 20
    frequency:   16.5408654544
  - # 21
    frequency:   17.1821636729
  - # 22
    frequency:   17.5217284215
  - # 23
    frequency:   20.7812996795
  - # 24
    frequency:   64.9014921348

- q-position: [    0.0959596,    0.0000000,    0.0000000 ]
  distance:    0.0304649
  band:
  - # 1
    frequency:   -3.3502562358
  - # 2
    frequency:   -2.9402203578
  - # 3
    frequency:    0.4117885212
  - # 4
    frequency:    0.4934296913
  - # 5
    frequency:    0.8907193764
  - # 6
    frequency:    1.1243965331
  - # 7
    frequency:    1.6745835547
  - # 8
    frequency:    2.9667990784
  - # 9
    frequency:    3.4025052319
  - # 10
    frequency:    4.5590619760
  - # 11
    frequency:    5.7801428893
  - # 12
    frequency:    6.0061689279
  - # 13
    frequency:    7.1559114563
  - # 14
    frequency:    7.8648007902
  - # 15
    frequency:   10.5600189932
  - # 16
    frequency:   10.7391609506
  - # 17
    frequency:   11.8009288166
  - # 18
    frequency:   11.9073124563
  - # 19
    frequency:   13.7173973365
  - # 20
    frequency:   16.5259158945
  - # 21
    frequency:   17.1877103255
  - # 22
    frequency:   17.5550861000
  - # 23
    frequency:   20.7806345564
  - # 24
    frequency:   64.8994220714

- q-position: [    0.1010101,    0.0000000,    0.0000000 ]
  distance:    0.0320683
  band:
  - # 1
    frequency:   -3.3481552460
  - # 2
    frequency:   -2.8977407471
  - # 3
    frequency:    0.4440674265
  - # 4
    frequency:    0.5391501324
  - # 5
    frequency:    0.9082839646
  - # 6
    frequency:    1.1623639712
  - # 7
    frequency:    1.7546597778
  - # 8
    frequency:    2.9916827639
  - # 9
    frequency:    3.4675333715
  - # 10
    frequency:    4.5537811560
  - # 11
    frequency:    5.7875640159
  - # 12
    frequency:    6.0318213522
  - # 13
    frequency:    7.1330437798
  - # 14
    frequency:    7.8388380994
  - # 15
    frequency:   10.5623682438
  - # 16
    frequency:   10.7497633114
  - # 17
    frequency:   11.7688184533
  - # 18
    frequency:   11.9127830799
  - # 19
    frequency:   13.8168922721
  - # 20
    frequency:   16.5113214220
  - # 21
    frequency:   17.1934965698
  - # 22
    frequency:   17.5892442348
  - # 23
    frequency:   20.7799386006
  - # 24
    frequency:   64.8972662195

- q-position: [    0.1060606,    0.0000000,    0.0000000 ]
  distance:    0.0336717
  band:
  - # 1
    frequency:   -3.3460486579
  - # 2
    frequency:   -2.8539467946
  - # 3
    frequency:    0.4763203502
  - # 4
    frequency:    0.5860207028
  - # 5
    frequency:    0.9267452253
  - # 6
    frequency:    1.2002716495
  - # 7
    frequency:    1.8341784816
  - # 8
    frequency:    3.0170957055
  - # 9
    frequency:    3.5340023327
  - # 10
    frequency:    4.5494318230
  - # 11
    frequency:    5.7952446025
  - # 12
    frequency:    6.0577703585
  - # 13
    frequency:    7.1092720918
  - # 14
    frequency:    7.8123420692
  - # 15
    frequency:   10.5647418208
  - # 16
    frequency:   10.7597974932
  - # 17
    frequency:   11.7340631564
  - # 18
    frequency:   11.9180957118
  - # 19
    frequency:   13.9183262347
  - # 20
    frequency:   16.4971242435
  - # 21
    frequency:   17.1995149994
  - # 22
    frequency:   17.6242001312
  - # 23
    frequency:   20.7792124015
  - # 24
    frequency:   64.8950282901

- q-position: [    0.1111111,    0.0000000,    0.0000000 ]
  distance:    0.0352751
  band:
  - # 1
    frequency:   -3.3439489712
  - # 2
    frequency:   -2.8089453933
  - # 3
    frequency:    0.5083769541
  - # 4
    frequency:    0.6339598917
  - # 5
    frequency:    0.9461575702
  - # 6
    frequency:    1.2381288134
  - # 7
    frequency:    1.9129966601
  - # 8
    frequency:    3.0429743831
  - # 9
    frequency:    3.6017127804
  - # 10
    frequency:    4.5461399018
  - # 11
    frequency:    5.8031696283
  - # 12
    frequency:    6.0839328121
  - # 13
    frequency:    7.0846214948
  - # 14
    frequency:    7.7854150617
  - # 15
    frequency:   10.5671324651
  - # 16
    frequency:   10.7692517673
  - # 17
    frequency:   11.6969952093
  - # 18
    frequency:   11.9232035008
  - # 19
    frequency:   14.0208751413
  - # 20
    frequency:   16.4833692536
  - # 21
    frequency:   17.2057582674
  - # 22
    frequency:   17.6599523856
  - # 23
    frequency:   20.7784565209
  - # 24
    frequency:   64.8927120872

- q-position: [    0.1161616,    0.0000000,    0.0000000 ]
  distance:    0.0368785
  band:
  - # 1
    frequency:   -3.3418685860
  - # 2
    frequency:   -2.7628430584
  - # 3
    frequency:    0.5400704393
  - # 4
    frequency:    0.6828888916
  - # 5
    frequency:    0.9665785463
  - # 6
    frequency:    1.2759396333
  - # 7
    frequency:    1.9909834907
  - # 8
    frequency:    3.0692585157
  - # 9
    frequency:    3.6704558593
  - # 10
    frequency:    4.5440413415
  - # 11
    frequency:    5.8113239565
  - # 12
    frequency:    6.1102262323
  - # 13
    frequency:    7.0591206653
  - # 14
    frequency:    7.7581609214
  - # 15
    frequency:   10.5695337485
  - # 16
    frequency:   10.7781092286
  - # 17
    frequency:   11.6579339480
  - # 18
    frequency:   11.9280614589
  - # 19
    frequency:   14.1237526353
  - # 20
    frequency:   16.4701054687
  - # 21
    frequency:   17.2122191222
  - # 22
    frequency:   17.6964992639
  - # 23
    frequency:   20.7776714841
  - # 24
    frequency:   64.8903214958

- q-position: [    0.1212121,    0.0000000,    0.0000000 ]
  distance:    0.0384819
  band:
  - # 1
    frequency:   -3.3398196946
  - # 2
    frequency:   -2.7157452118
  - # 3
    frequency:    0.5712406511
  - # 4
    frequency:    0.7327302437
  - # 5
    frequency:    0.9880654990
  - # 6
    frequency:    1.3137070211
  - # 7
    frequency:    2.0680160034
  - # 8
    frequency:    3.0958910086
  - # 9
    frequency:    3.7400081752
  - # 10
    frequency:    4.5432870739
  - # 11
    frequency:    5.8196923831
  - # 12
    frequency:    6.1365675540
  - # 13
    frequency:    7.0328035266
  - # 14
    frequency:    7.7306843250
  - # 15
    frequency:   10.5719401170
  - # 16
    frequency:   10.7863440480
  - # 17
    frequency:   11.6171881235
  - # 18
    frequency:   11.9326268828
  - # 19
    frequency:   14.2262130538
  - # 20
    frequency:   16.4573874147
  - # 21
    frequency:   17.2188904395
  - # 22
    frequency:   17.7338370444
  - # 23
    frequency:   20.7768577696
  - # 24
    frequency:   64.8878604696

- q-position: [    0.1262626,    0.0000000,    0.0000000 ]
  distance:    0.0400853
  band:
  - # 1
    frequency:   -3.3378141695
  - # 2
    frequency:   -2.6677554657
  - # 3
    frequency:    0.6017380487
  - # 4
    frequency:    0.7834063900
  - # 5
    frequency:    1.0106713805
  - # 6
    frequency:    1.3514350870
  - # 7
    frequency:    2.1439764140
  - # 8
    frequency:    3.1228178612
  - # 9
    frequency:    3.8101247338
  - # 10
    frequency:    4.5440499608
  - # 11
    frequency:    5.8282596823
  - # 12
    frequency:    6.1628715199
  - # 13
    frequency:    7.0057113270
  - # 14
    frequency:    7.7030900712
  - # 15
    frequency:   10.5743469221
  - # 16
    frequency:   10.7939172650
  - # 17
    frequency:   11.5750602770
  - # 18
    frequency:   11.9368597539
  - # 19
    frequency:   14.3275526262
  - # 20
    frequency:   16.4452764747
  - # 21
    frequency:   17.2257652503
  - # 22
    frequency:   17.7719583197
  - # 23
    frequency:   20.7760157986
  - # 24
    frequency:   64.8853330194

- q-position: [    0.1313131,    0.0000000,    0.0000000 ]
  distance:    0.0416888
  band:
  - # 1
    frequency:   -3.3358634467
  - # 2
    frequency:   -2.6189749000
  - # 3
    frequency:    0.6314283114
  - # 4
    frequency:    0.8348381491
  - # 5
    frequency:    1.0344399308
  - # 6
    frequency:    1.3891308024
  - # 7
    frequency:    2.2187505515
  - # 8
    frequency:    3.1499880453
  - # 9
    frequency:    3.8805287912
  - # 10
    frequency:    4.5465347673
  - # 11
    frequency:    5.8370106486
  - # 12
    frequency:    6.1890485216
  - # 13
    frequency:    6.9778952843
  - # 14
    frequency:    7.6754823350
  - # 15
    frequency:   10.5767504443
  - # 16
    frequency:   10.8007716974
  - # 17
    frequency:   11.5318528248
  - # 18
    frequency:   11.9407231122
  - # 19
    frequency:   14.4271096735
  - # 20
    frequency:   16.4338421794
  - # 21
    frequency:   17.2328367641
  - # 22
    frequency:   17.8108502673
  - # 23
    frequency:   20.7751459235
  - # 24
    frequency:   64.8827432013

- q-position: [    0.1363636,    0.0000000,    0.0000000 ]
  distance:    0.0432922
  band:
  - # 1
    frequency:   -3.3339784051
  - # 2
    frequency:   -2.5695013272
  - # 3
    frequency:    0.6601971173
  - # 4
    frequency:    0.8869431378
  - # 5
    frequency:    1.0594006925
  - # 6
    frequency:    1.4268052083
  - # 7