nqpoint: 300    
npath: 3      
segment_nqpoint:
- 100
- 100
- 100
labels:
- [ 'G', 'M' ]
- [ 'M', 'K' ]
- [ 'K', 'G' ]
reciprocal_lattice:
- [   0.27494225,   0.15873798,   0.00000000 ] # a*
- [   0.00000000,   0.31747596,   0.00000000 ] # b*
- [   0.00000000,   0.00000000,   0.03668356 ] # c*
natom: 8      
lattice:
- [     3.637127477710739,     0.000000000000000,     0.000000000000000 ] # a
- [    -1.818563738855369,     3.149844792500065,     0.000000000000000 ] # b
- [     0.000000000000000,     0.000000000000000,    27.260167492152995 ] # c
points:
- symbol: C # 1
  coordinates: [  0.000000000000000,  0.000000000000000,  0.531576691744433 ]
  mass: 12.010700
- symbol: C # 2
  coordinates: [  0.666666984744047,  0.333332985985145,  0.373837385444721 ]
  mass: 12.010700
- symbol: Cl # 3
  coordinates: [  0.333332985432215,  0.666666983183674,  0.669847956635237 ]
  mass: 35.453000
- symbol: N # 4
  coordinates: [  0.666666984744047,  0.333332985985145,  0.330152043364763 ]
  mass: 14.006700
- symbol: O # 5
  coordinates: [  0.333332985432215,  0.666666983183674,  0.577568002691382 ]
  mass: 15.999400
- symbol: S # 6
  coordinates: [  0.666666984744047,  0.333332985985145,  0.435335030553173 ]
  mass: 32.065000
- symbol: Zr # 7
  coordinates: [  0.333332985432215,  0.666666983183674,  0.498104854955393 ]
  mass: 91.224000
- symbol: Zr # 8
  coordinates: [  0.666666984744047,  0.333332985985145,  0.592734244626763 ]
  mass: 91.224000

phonon:
- q-position: [    0.0000000,    0.0000000,    0.0000000 ]
  distance:    0.0000000
  band:
  - # 1
    frequency:   -3.2431990570
  - # 2
    frequency:   -3.2431990570
  - # 3
    frequency:   -0.0000016861
  - # 4
    frequency:    0.0000003944
  - # 5
    frequency:    0.0000024682
  - # 6
    frequency:    0.9191669921
  - # 7
    frequency:    0.9191669921
  - # 8
    frequency:    2.7185760486
  - # 9
    frequency:    2.7185760486
  - # 10
    frequency:    4.6464960693
  - # 11
    frequency:    5.7337724107
  - # 12
    frequency:    5.7337724107
  - # 13
    frequency:    7.3390817410
  - # 14
    frequency:    8.1002595922
  - # 15
    frequency:   10.6135420286
  - # 16
    frequency:   10.6135420286
  - # 17
    frequency:   12.1461028159
  - # 18
    frequency:   12.1461028159
  - # 19
    frequency:   12.8160239335
  - # 20
    frequency:   16.7674918441
  - # 21
    frequency:   17.2411183575
  - # 22
    frequency:   17.2411183575
  - # 23
    frequency:   20.7890855511
  - # 24
    frequency:   64.9189962842

- q-position: [    0.0050505,    0.0000000,    0.0000000 ]
  distance:    0.0016034
  band:
  - # 1
    frequency:   -3.2432776054
  - # 2
    frequency:   -3.2421422487
  - # 3
    frequency:   -0.0204884485
  - # 4
    frequency:    0.0016915770
  - # 5
    frequency:    0.0838204087
  - # 6
    frequency:    0.9197139456
  - # 7
    frequency:    0.9210573779
  - # 8
    frequency:    2.7193356910
  - # 9
    frequency:    2.7207302139
  - # 10
    frequency:    4.6459667035
  - # 11
    frequency:    5.7339581130
  - # 12
    frequency:    5.7347585255
  - # 13
    frequency:    7.3384772050
  - # 14
    frequency:    8.0994990414
  - # 15
    frequency:   10.6135473777
  - # 16
    frequency:   10.6140608701
  - # 17
    frequency:   12.1453125734
  - # 18
    frequency:   12.1459856740
  - # 19
    frequency:   12.8188015291
  - # 20
    frequency:   16.7662963394
  - # 21
    frequency:   17.2411597576
  - # 22
    frequency:   17.2425989974
  - # 23
    frequency:   20.7890677054
  - # 24
    frequency:   64.9189377386

- q-position: [    0.0101010,    0.0000000,    0.0000000 ]
  distance:    0.0032068
  band:
  - # 1
    frequency:   -3.2435131306
  - # 2
    frequency:   -3.2389733955
  - # 3
    frequency:   -0.0406618910
  - # 4
    frequency:    0.0067506533
  - # 5
    frequency:    0.1673482790
  - # 6
    frequency:    0.9213454080
  - # 7
    frequency:    0.9267440810
  - # 8
    frequency:    2.7216106689
  - # 9
    frequency:    2.7271795973
  - # 10
    frequency:    4.6443899003
  - # 11
    frequency:    5.7345148962
  - # 12
    frequency:    5.7377067528
  - # 13
    frequency:    7.3366656479
  - # 14
    frequency:    8.0972201298
  - # 15
    frequency:   10.6135634418
  - # 16
    frequency:   10.6156077989
  - # 17
    frequency:   12.1429186740
  - # 18
    frequency:   12.1456344113
  - # 19
    frequency:   12.8271469263
  - # 20
    frequency:   16.7627558773
  - # 21
    frequency:   17.2412843605
  - # 22
    frequency:   17.2469960346
  - # 23
    frequency:   20.7890141597
  - # 24
    frequency:   64.9187621958

- q-position: [    0.0151515,    0.0000000,    0.0000000 ]
  distance:    0.0048102
  band:
  - # 1
    frequency:   -3.2439052671
  - # 2
    frequency:   -3.2336972318
  - # 3
    frequency:   -0.0602086557
  - # 4
    frequency:    0.0151312920
  - # 5
    frequency:    0.2502696609
  - # 6
    frequency:    0.9240339689
  - # 7
    frequency:    0.9362783177
  - # 8
    frequency:    2.7253892053
  - # 9
    frequency:    2.7378853318
  - # 10
    frequency:    4.6417990670
  - # 11
    frequency:    5.7354417903
  - # 12
    frequency:    5.7425871955
  - # 13
    frequency:    7.3336531521
  - # 14
    frequency:    8.0934310467
  - # 15
    frequency:   10.6135902719
  - # 16
    frequency:   10.6181545205
  - # 17
    frequency:   12.1388558085
  - # 18
    frequency:   12.1450495182
  - # 19
    frequency:   12.8410935634
  - # 20
    frequency:   16.7570013606
  - # 21
    frequency:   17.2414933698
  - # 22
    frequency:   17.2541820834
  - # 23
    frequency:   20.7889248888
  - # 24
    frequency:   64.9184699371

- q-position: [    0.0202020,    0.0000000,    0.0000000 ]
  distance:    0.0064137
  band:
  - # 1
    frequency:   -3.2444533914
  - # 2
    frequency:   -3.2263217124
  - # 3
    frequency:   -0.0788229341
  - # 4
    frequency:    0.0267597061
  - # 5
    frequency:    0.3322258098
  - # 6
    frequency:    0.9277364349
  - # 7
    frequency:    0.9497606254
  - # 8
    frequency:    2.7306519087
  - # 9
    frequency:    2.7527841650
  - # 10
    frequency:    4.6382483508
  - # 11
    frequency:    5.7367371809
  - # 12
    frequency:    5.7493514902
  - # 13
    frequency:    7.3294496251
  - # 14
    frequency:    8.0881453332
  - # 15
    frequency:   10.6136279536
  - # 16
    frequency:   10.6216554724
  - # 17
    frequency:   12.1330280225
  - # 18
    frequency:   12.1442318147
  - # 19
    frequency:   12.8606836839
  - # 20
    frequency:   16.7492293215
  - # 21
    frequency:   17.2417887808
  - # 22
    frequency:   17.2639664982
  - # 23
    frequency:   20.7887998512
  - # 24
    frequency:   64.9180614308

- q-position: [    0.0252525,    0.0000000,    0.0000000 ]
  distance:    0.0080171
  band:
  - # 1
    frequency:   -3.2451565991
  - # 2
    frequency:   -3.2168581044
  - # 3
    frequency:   -0.0962057859
  - # 4
    frequency:    0.0415380434
  - # 5
    frequency:    0.4127865371
  - # 6
    frequency:    0.9323971555
  - # 7
    frequency:    0.9673629626
  - # 8
    frequency:    2.7373721168
  - # 9
    frequency:    2.7717905968
  - # 10
    frequency:    4.6338105080
  - # 11
    frequency:    5.7383988125
  - # 12
    frequency:    5.7579348412
  - # 13
    frequency:    7.3240684705
  - # 14
    frequency:    8.0813817320
  - # 15
    frequency:   10.6136766096
  - # 16
    frequency:   10.6260500625
  - # 17
    frequency:   12.1253245431
  - # 18
    frequency:   12.1431824557
  - # 19
    frequency:   12.8859517294
  - # 20
    frequency:   16.7396768648
  - # 21
    frequency:   17.2421733640
  - # 22
    frequency:   17.2761204689
  - # 23
    frequency:   20.7886389913
  - # 24
    frequency:   64.9175373306

- q-position: [    0.0303030,    0.0000000,    0.0000000 ]
  distance:    0.0096205
  band:
  - # 1
    frequency:   -3.2460136759
  - # 2
    frequency:   -3.2053211047
  - # 3
    frequency:   -0.1120640177
  - # 4
    frequency:    0.0593489381
  - # 5
    frequency:    0.4914212236
  - # 6
    frequency:    0.9379519753
  - # 7
    frequency:    0.9893566468
  - # 8
    frequency:    2.7455163576
  - # 9
    frequency:    2.7947995954
  - # 10
    frequency:    4.6285742256
  - # 11
    frequency:    5.7404237940
  - # 12
    frequency:    5.7682585728
  - # 13
    frequency:    7.3175261553
  - # 14
    frequency:    8.0731639952
  - # 15
    frequency:   10.6137364014
  - # 16
    frequency:   10.6312655154
  - # 17
    frequency:   12.1156362126
  - # 18
    frequency:   12.1419029367
  - # 19
    frequency:   12.9169070146
  - # 20
    frequency:   16.7285973013
  - # 21
    frequency:   17.2426506421
  - # 22
    frequency:   17.2904014398
  - # 23
    frequency:   20.7884422412
  - # 24
    frequency:   64.9168984744

- q-position: [    0.0353535,    0.0000000,    0.0000000 ]
  distance:    0.0112239
  band:
  - # 1
    frequency:   -3.2470230596
  - # 2
    frequency:   -3.1917289759
  - # 3
    frequency:   -0.1261063957
  - # 4
    frequency:    0.0800603430
  - # 5
    frequency:    0.5674742103
  - # 6
    frequency:    0.9443323181
  - # 7
    frequency:    1.0161380344
  - # 8
    frequency:    2.7550449098
  - # 9
    frequency:    2.8216896639
  - # 10
    frequency:    4.6226411336
  - # 11
    frequency:    5.7428086040
  - # 12
    frequency:    5.7802329672
  - # 13
    frequency:    7.3098417022
  - # 14
    frequency:    8.0635206674
  - # 15
    frequency:   10.6138075326
  - # 16
    frequency:   10.6372200853
  - # 17
    frequency:   12.1038692638
  - # 18
    frequency:   12.1403951021
  - # 19
    frequency:   12.9535191128
  - # 20
    frequency:   16.7162408355
  - # 21
    frequency:   17.2432248608
  - # 22
    frequency:   17.3065724890
  - # 23
    frequency:   20.7882095235
  - # 24
    frequency:   64.9161458819

- q-position: [    0.0404040,    0.0000000,    0.0000000 ]
  distance:    0.0128273
  band:
  - # 1
    frequency:   -3.2481827977
  - # 2
    frequency:   -3.1761036888
  - # 3
    frequency:   -0.1380365476
  - # 4
    frequency:    0.1035302267
  - # 5
    frequency:    0.6401632366
  - # 6
    frequency:    0.9514689875
  - # 7
    frequency:    1.0482322106
  - # 8
    frequency:    2.7659124393
  - # 9
    frequency:    2.8523260258
  - # 10
    frequency:    4.6161227453
  - # 11
    frequency:    5.7455490993
  - # 12
    frequency:    5.7937601633
  - # 13
    frequency:    7.3010361317
  - # 14
    frequency:    8.0524848605
  - # 15
    frequency:   10.6138902524
  - # 16
    frequency:   10.6438263800
  - # 17
    frequency:   12.0899545067
  - # 18
    frequency:   12.1386611546
  - # 19
    frequency:   12.9957080482
  - # 20
    frequency:   16.7028418253
  - # 21
    frequency:   17.2439009536
  - # 22
    frequency:   17.3244151487
  - # 23
    frequency:   20.7879407541
  - # 24
    frequency:   64.9152807525

- q-position: [    0.0454545,    0.0000000,    0.0000000 ]
  distance:    0.0144307
  band:
  - # 1
    frequency:   -3.2494904989
  - # 2
    frequency:   -3.1584710608
  - # 3
    frequency:   -0.1475414758
  - # 4
    frequency:    0.1296108440
  - # 5
    frequency:    0.7086361947
  - # 6
    frequency:    0.9592953975
  - # 7
    frequency:    1.0862386793
  - # 8
    frequency:    2.7780686907
  - # 9
    frequency:    2.8865637146
  - # 10
    frequency:    4.6091375281
  - # 11
    frequency:    5.7486405235
  - # 12
    frequency:    5.8087369193
  - # 13
    frequency:    7.2911318874
  - # 14
    frequency:    8.0400940364
  - # 15
    frequency:   10.6139848598
  - # 16
    frequency:   10.6509945582
  - # 17
    frequency:   12.0738515573
  - # 18
    frequency:   12.1367036658
  - # 19
    frequency:   13.0433398114
  - # 20
    frequency:   16.6886120430
  - # 21
    frequency:   17.2446845011
  - # 22
    frequency:   17.3437362377
  - # 23
    frequency:   20.7876358463
  - # 24
    frequency:   64.9143044617

- q-position: [    0.0505051,    0.0000000,    0.0000000 ]
  distance:    0.0160341
  band:
  - # 1
    frequency:   -3.2509432818
  - # 2
    frequency:   -3.1388608779
  - # 3
    frequency:   -0.1542735612
  - # 4
    frequency:    0.1581524129
  - # 5
    frequency:    0.7721240908
  - # 6
    frequency:    0.9677500896
  - # 7
    frequency:    1.1306806936
  - # 8
    frequency:    2.7914592099
  - # 9
    frequency:    2.9242503953
  - # 10
    frequency:    4.6018082621
  - # 11
    frequency:    5.7520775176
  - # 12
    frequency:    5.8250570976
  - # 13
    frequency:    7.2801522689
  - # 14
    frequency:    8.0263898085
  - # 15
    frequency:   10.6140917089
  - # 16
    frequency:   10.6586352017
  - # 17
    frequency:   12.0555489318
  - # 18
    frequency:   12.1345255879
  - # 19
    frequency:   13.0962264817
  - # 20
    frequency:   16.6737384146
  - # 21
    frequency:   17.2455816835
  - # 22
    frequency:   17.3643702259
  - # 23
    frequency:   20.7872947142
  - # 24
    frequency:   64.9132185580

- q-position: [    0.0555556,    0.0000000,    0.0000000 ]
  distance:    0.0176376
  band:
  - # 1
    frequency:   -3.2525377215
  - # 2
    frequency:   -3.1173069902
  - # 3
    frequency:   -0.1578216248
  - # 4
    frequency:    0.1890061374
  - # 5
    frequency:    0.8301763656
  - # 6
    frequency:    0.9767785154
  - # 7
    frequency:    1.1817718271
  - # 8
    frequency:    2.8060260747
  - # 9
    frequency:    2.9652287915
  - # 10
    frequency:    4.5942597871
  - # 11
    frequency:    5.7558541317
  - # 12
    frequency:    5.8426137794
  - # 13
    frequency:    7.2681209005
  - # 14
    frequency:    8.0114177734
  - # 15
    frequency:   10.6142112138
  - # 16
    frequency:   10.6666617148
  - # 17
    frequency:   12.0350613966
  - # 18
    frequency:   12.1321302669
  - # 19
    frequency:   13.1541296261
  - # 20
    frequency:   16.6583836271
  - # 21
    frequency:   17.2465992293
  - # 22
    frequency:   17.3861787411
  - # 23
    frequency:   20.7869172773
  - # 24
    frequency:   64.9120247595

- q-position: [    0.0606061,    0.0000000,    0.0000000 ]
  distance:    0.0192410
  band:
  - # 1
    frequency:   -3.2542697957
  - # 2
    frequency:   -3.0938473709
  - # 3
    frequency:   -0.1576612733
  - # 4
    frequency:    0.2220265825
  - # 5
    frequency:    0.8828571287
  - # 6
    frequency:    0.9863341500
  - # 7
    frequency:    1.2392211331
  - # 8
    frequency:    2.8217086165
  - # 9
    frequency:    3.0093386405
  - # 10
    frequency:    4.5866171900
  - # 11
    frequency:    5.7599638383
  - # 12
    frequency:    5.8613009699
  - # 13
    frequency:    7.2550612547
  - # 14
    frequency:    7.9952273761
  - # 15
    frequency:   10.6143438551
  - # 16
    frequency:   10.6749921686
  - # 17
    frequency:   12.0124259662
  - # 18
    frequency:   12.1295214558
  - # 19
    frequency:   13.2167655943
  - # 20
    frequency:   16.6426883059
  - # 21
    frequency:   17.2477443580
  - # 22
    frequency:   17.4090485141
  - # 23
    frequency:   20.7865034648
  - # 24
    frequency:   64.9107249489

- q-position: [    0.0656566,    0.0000000,    0.0000000 ]
  distance:    0.0208444
  band:
  - # 1
    frequency:   -3.2561348322
  - # 2
    frequency:   -3.0685241309
  - # 3
    frequency:   -0.1530609580
  - # 4
    frequency:    0.2570734489
  - # 5
    frequency:    0.9307448078
  - # 6
    frequency:    0.9963790485
  - # 7
    frequency:    1.3022343909
  - # 8
    frequency:    2.8384441127
  - # 9
    frequency:    3.0564181471
  - # 10
    frequency:    4.5790044457
  - # 11
    frequency:    5.7643995466
  - # 12
    frequency:    5.8810148925
  - # 13
    frequency:    7.2409962486
  - # 14
    frequency:    7.9778718086
  - # 15
    frequency:   10.6144901861
  - # 16
    frequency:   10.6835505610
  - # 17
    frequency:   11.9876976170
  - # 18
    frequency:   12.1267033277
  - # 19
    frequency:   13.2838116060
  - # 20
    frequency:   16.6267738780
  - # 21
    frequency:   17.2490247183
  - # 22
    frequency:   17.4328886425
  - # 23
    frequency:   20.7860532201
  - # 24
    frequency:   64.9093211694

- q-position: [    0.0707071,    0.0000000,    0.0000000 ]
  distance:    0.0224478
  band:
  - # 1
    frequency:   -3.2581274593
  - # 2
    frequency:   -3.0413834842
  - # 3
    frequency:   -0.1428783150
  - # 4
    frequency:    0.2940128153
  - # 5
    frequency:    0.9747245429
  - # 6
    frequency:    1.0068839762
  - # 7
    frequency:    1.3697221655
  - # 8
    frequency:    2.8561684391
  - # 9
    frequency:    3.1063049374
  - # 10
    frequency:    4.5715434946
  - # 11
    frequency:    5.7691536186
  - # 12
    frequency:    5.9016549005
  - # 13
    frequency:    7.2259479266
  - # 14
    frequency:    7.9594079395
  - # 15
    frequency:   10.6146508405
  - # 16
    frequency:   10.6922675121
  - # 17
    frequency:   11.9609453788
  - # 18
    frequency:   12.1236804906
  - # 19
    frequency:   13.3549118993
  - # 20
    frequency:   16.6107455876
  - # 21
    frequency:   17.2504483232
  - # 22
    frequency:   17.4576277052
  - # 23
    frequency:   20.7855665053
  - # 24
    frequency:   64.9078156195

- q-position: [    0.0757576,    0.0000000,    0.0000000 ]
  distance:    0.0240512
  band:
  - # 1
    frequency:   -3.2602415613
  - # 2
    frequency:   -3.0124756599
  - # 3
    frequency:   -0.1250195547
  - # 4
    frequency:    0.3327179190
  - # 5
    frequency:    1.0157294429
  - # 6
    frequency:    1.0178282363
  - # 7
    frequency:    1.4405586408
  - # 8
    frequency:    2.8748166699
  - # 9
    frequency:    3.1588365396
  - # 10
    frequency:    4.5643537284
  - # 11
    frequency:    5.7742178864
  - # 12
    frequency:    5.9231240496
  - # 13
    frequency:    7.2099372384
  - # 14
    frequency:    7.9398962678
  - # 15
    frequency:   10.6148265389
  - # 16
    frequency:   10.7010804491
  - # 17
    frequency:   11.9322491148
  - # 18
    frequency:   12.1204579998
  - # 19
    frequency:   13.4296835394
  - # 20
    frequency:   16.5946953797
  - # 21
    frequency:   17.2520234797
  - # 22
    frequency:   17.4832110084
  - # 23
    frequency:   20.7850433059
  - # 24
    frequency:   64.9062106479

- q-position: [    0.0808081,    0.0000000,    0.0000000 ]
  distance:    0.0256546
  band:
  - # 1
    frequency:   -3.2624702396
  - # 2
    frequency:   -2.9818547613
  - # 3
    frequency:   -0.0943838159
  - # 4
    frequency:    0.3730695432
  - # 5
    frequency:    1.0291993015
  - # 6
    frequency:    1.0545708731
  - # 7
    frequency:    1.5137511461
  - # 8
    frequency:    2.8943236203
  - # 9
    frequency:    3.2138504331
  - # 10
    frequency:    4.5575518473
  - # 11
    frequency:    5.7795836704
  - # 12
    frequency:    5.9453293806
  - # 13
    frequency:    7.1929839214
  - # 14
    frequency:    7.9194008894
  - # 15
    frequency:   10.6150180980
  - # 16
    frequency:   10.7099333534
  - # 17
    frequency:   11.9016970698
  - # 18
    frequency:   12.1170413716
  - # 19
    frequency:   13.5077217118
  - # 20
    frequency:   16.5787045268
  - # 21
    frequency:   17.2537587170
  - # 22
    frequency:   17.5095980831
  - # 23
    frequency:   20.7844836346
  - # 24
    frequency:   64.9045087475

- q-position: [    0.0858586,    0.0000000,    0.0000000 ]
  distance:    0.0272580
  band:
  - # 1
    frequency:   -3.2648057816
  - # 2
    frequency:   -2.9495785742
  - # 3
    frequency:   -0.0102627096
  - # 4
    frequency:    0.4149560749
  - # 5
    frequency:    1.0409923351
  - # 6
    frequency:    1.0918802530
  - # 7
    frequency:    1.5884979776
  - # 8
    frequency:    2.9146243264
  - # 9
    frequency:    3.2711837065
  - # 10
    frequency:    4.5512520612
  - # 11
    frequency:    5.7852417989
  - # 12
    frequency:    5.9681819631
  - # 13
    frequency:    7.1751064949
  - # 14
    frequency:    7.8979894689
  - # 15
    frequency:   10.6152264377
  - # 16
    frequency:   10.7187761477
  - # 17
    frequency:   11.8693841327
  - # 18
    frequency:   12.1134365942
  - # 19
    frequency:   13.5886044584
  - # 20
    frequency:   16.5628459658
  - # 21
    frequency:   17.2556627113
  - # 22
    frequency:   17.5367604631
  - # 23
    frequency:   20.7838875356
  - # 24
    frequency:   64.9027125493

- q-position: [    0.0909091,    0.0000000,    0.0000000 ]
  distance:    0.0288615
  band:
  - # 1
    frequency:   -3.2672396391
  - # 2
    frequency:   -2.9157083265
  - # 3
    frequency:    0.1044005226
  - # 4
    frequency:    0.4582732833
  - # 5
    frequency:    1.0532096615
  - # 6
    frequency:    1.1281187751
  - # 7
    frequency:    1.6641781770
  - # 8
    frequency:    2.9356544633
  - # 9
    frequency:    3.3306723586
  - # 10
    frequency:    4.5455666155
  - # 11
    frequency:    5.7911826298
  - # 12
    frequency:    5.9915967407
  - # 13
    frequency:    7.1563223732
  - # 14
    frequency:    7.8757332004
  - # 15
    frequency:   10.6154525903
  - # 16
    frequency:   10.7275637942
  - # 17
    frequency:   11.8354107190
  - # 18
    frequency:   12.1096501389
  - # 19
    frequency:   13.6718968804
  - # 20
    frequency:   16.5471863594
  - # 21
    frequency:   17.2577442081
  - # 22
    frequency:   17.5646797246
  - # 23
    frequency:   20.7832550880
  - # 24
    frequency:   64.9008248166

- q-position: [    0.0959596,    0.0000000,    0.0000000 ]
  distance:    0.0304649
  band:
  - # 1
    frequency:   -3.2697624155
  - # 2
    frequency:   -2.8803084067
  - # 3
    frequency:    0.1555683603
  - # 4
    frequency:    0.5029238672
  - # 5
    frequency:    1.0658602268
  - # 6
    frequency:    1.1636118228
  - # 7
    frequency:    1.7403165495
  - # 8
    frequency:    2.9573506994
  - # 9
    frequency:    3.3921502584
  - # 10
    frequency:    4.5406066474
  - # 11
    frequency:    5.7973960717
  - # 12
    frequency:    6.0154922130
  - # 13
    frequency:    7.1366481096
  - # 14
    frequency:    7.8527067474
  - # 15
    frequency:   10.6156977088
  - # 16
    frequency:   10.7362551599
  - # 17
    frequency:   11.7998821680
  - # 18
    frequency:   12.1056889681
  - # 19
    frequency:   13.7571548567
  - # 20
    frequency:   16.5317879175
  - # 21
    frequency:   17.2600119442
  - # 22
    frequency:   17.5933457439
  - # 23
    frequency:   20.7825864084
  - # 24
    frequency:   64.8988484379

- q-position: [    0.1010101,    0.0000000,    0.0000000 ]
  distance:    0.0320683
  band:
  - # 1
    frequency:   -3.2723638655
  - # 2
    frequency:   -2.8434460450
  - # 3
    frequency:    0.1996753131
  - # 4
    frequency:    0.5488168022
  - # 5
    frequency:    1.0789590711
  - # 6
    frequency:    1.1985850496
  - # 7
    frequency:    1.8165470119
  - # 8
    frequency:    2.9796509942
  - # 9
    frequency:    3.4554477520
  - # 10
    frequency:    4.5364834009
  - # 11
    frequency:    5.8038716080
  - # 12
    frequency:    6.0397899745
  - # 13
    frequency:    7.1160997849
  - # 14
    frequency:    7.8289881487
  - # 15
    frequency:   10.6159630757
  - # 16
    frequency:   10.7448116814
  - # 17
    frequency:   11.7629085811
  - # 18
    frequency:   12.1015605425
  - # 19
    frequency:   13.8439283311
  - # 20
    frequency:   16.5167100215
  - # 21
    frequency:   17.2624745677
  - # 22
    frequency:   17.6227551255
  - # 23
    frequency:   20.7818816535
  - # 24
    frequency:   64.8967864202

- q-position: [    0.1060606,    0.0000000,    0.0000000 ]
  distance:    0.0336717
  band:
  - # 1
    frequency:   -3.2750329045
  - # 2
    frequency:   -2.8051909645
  - # 3
    frequency:    0.2407241831
  - # 4
    frequency:    0.5958665185
  - # 5
    frequency:    1.0925268183
  - # 6
    frequency:    1.2331940305
  - # 7
    frequency:    1.8925823968
  - # 8
    frequency:    3.0024948391
  - # 9
    frequency:    3.5203898606
  - # 10
    frequency:    4.5333098743
  - # 11
    frequency:    5.8105983207
  - # 12
    frequency:    6.0644141197
  - # 13
    frequency:    7.0946935613
  - # 14
    frequency:    7.8046586779
  - # 15
    frequency:   10.6162501117
  - # 16
    frequency:   10.7531958324
  - # 17
    frequency:   11.7246050567
  - # 18
    frequency:   12.0972728243
  - # 19
    frequency:   13.9317642226
  - # 20
    frequency:   16.5020106919
  - # 21
    frequency:   17.2651405585
  - # 22
    frequency:   17.6529097512
  - # 23
    frequency:   20.7811410214
  - # 24
    frequency:   64.8946418819

- q-position: [    0.1111111,    0.0000000,    0.0000000 ]
  distance:    0.0352751
  band:
  - # 1
    frequency:   -3.2777576311
  - # 2
    frequency:   -2.7656150059
  - # 3
    frequency:    0.2800895209
  - # 4
    frequency:    0.6439919259
  - # 5
    frequency:    1.1065891782
  - # 6
    frequency:    1.2675463832
  - # 7
    frequency:    1.9681918526
  - # 8
    frequency:    3.0258234502
  - # 9
    frequency:    3.5867939540
  - # 10
    frequency:    4.5312030286
  - # 11
    frequency:    5.8175649156
  - # 12
    frequency:    6.0892905049
  - # 13
    frequency:    7.0724464316
  - # 14
    frequency:    7.7798026470
  - # 15
    frequency:   10.6165603838
  - # 16
    frequency:   10.7613693647
  - # 17
    frequency:   11.6850923256
  - # 18
    frequency:   12.0928342789
  - # 19
    frequency:   14.0202090059
  - # 20
    frequency:   16.4877479336
  - # 21
    frequency:   17.2680181487
  - # 22
    frequency:   17.6838154066
  - # 23
    frequency:   20.7803647518
  - # 24
    frequency:   64.8924180456

- q-position: [    0.1161616,    0.0000000,    0.0000000 ]
  distance:    0.0368785
  band:
  - # 1
    frequency:   -3.2805253602
  - # 2
    frequency:   -2.7247917286
  - # 3
    frequency:    0.3183757045
  - # 4
    frequency:    0.6931153004
  - # 5
    frequency:    1.1211764440
  - # 6
    frequency:    1.3017175948
  - # 7
    frequency:    2.0431846325
  - # 8
    frequency:    3.0495799150
  - # 9
    frequency:    3.6544666893
  - # 10
    frequency:    4.5302867719
  - # 11
    frequency:    5.8247597489
  - # 12
    frequency:    6.1143458417
  - # 13
    frequency:    7.0493772065
  - # 14
    frequency:    7.7545071459
  - # 15
    frequency:   10.6168956136
  - # 16
    frequency:   10.7692912500
  - # 17
    frequency:   11.6444978337
  - # 18
    frequency:   12.0882538727
  - # 19
    frequency:   14.1088110098
  - # 20
    frequency:   16.4739809850
  - # 21
    frequency:   17.2711152446
  - # 22
    frequency:   17.7154804480
  - # 23
    frequency:   20.7795531262
  - # 24
    frequency:   64.8901182302

- q-position: [    0.1212121,    0.0000000,    0.0000000 ]
  distance:    0.0384819
  band:
  - # 1
    frequency:   -3.2833226689
  - # 2
    frequency:   -2.6827959892
  - # 3
    frequency:    0.3558728624
  - # 4
    frequency:    0.7431610381
  - # 5
    frequency:    1.1363229606
  - # 6
    frequency:    1.3357621836
  - # 7
    frequency:    2.1173986697
  - # 8
    frequency:    3.0737093014
  - # 9
    frequency:    3.7231998689
  - # 10
    frequency:    4.5306960677
  - # 11
    frequency:    5.8321708538
  - # 12
    frequency:    6.1395065660
  - # 13
    frequency:    7.0255078006
  - # 14
    frequency:    7.7288617132
  - # 15
    frequency:   10.6172576847
  - # 16
    frequency:   10.7769151954
  - # 17
    frequency:   11.6029573804
  - # 18
    frequency:   12.0835410675
  - # 19
    frequency:   14.1971224802
  - # 20
    frequency:   16.4607714849
  - # 21
    frequency:   17.2744393501
  - # 22
    frequency:   17.7479144812
  - # 23
    frequency:   20.7787064655
  - # 24
    frequency:   64.8877458438

- q-position: [    0.1262626,    0.0000000,    0.0000000 ]
  distance:    0.0400853
  band:
  - # 1
    frequency:   -3.2861354521
  - # 2
    frequency:   -2.6397034940
  - # 3
    frequency:    0.3927182420
  - # 4
    frequency:    0.7940542808
  - # 5
    frequency:    1.1520665334
  - # 6
    frequency:    1.3697215924
  - # 7
    frequency:    2.1906925761
  - # 8
    frequency:    3.0981587326
  - # 9
    frequency:    3.7927646561
  - # 10
    frequency:    4.5325827197
  - # 11
    frequency:    5.8397859686
  - # 12
    frequency:    6.1646973983
  - # 13
    frequency:    7.0008649096
  - # 14
    frequency:    7.7029579373
  - # 15
    frequency:   10.6176486495
  - # 16
    frequency:   10.7841865365
  - # 17
    frequency:   11.5606174951
  - # 18
    frequency:   12.0787058108
  - # 19
    frequency:   14.2847014562
  - # 20
    frequency:   16.4481845598
  - # 21
    frequency:   17.2779974923
  - # 22
    frequency:   17.7811270309
  - # 23
    frequency:   20.7778251280
  - # 24
    frequency:   64.8853043754

- q-position: [    0.1313131,    0.0000000,    0.0000000 ]
  distance:    0.0416888
  band:
  - # 1
    frequency:   -3.2889489895
  - # 2
    frequency:   -2.5955903194
  - # 3
    frequency:    0.4289661258
  - # 4
    frequency:    0.8457194092
  - # 5
    frequency:    1.1684477419
  - # 6
    frequency:    1.4036298591
  - # 7
    frequency:    2.2629400490
  - # 8
    frequency:    3.1228774340
  - # 9
    frequency:    3.8629032646
  - # 10
    frequency:    4.5361237029
  - # 11
    frequency:    5.8475925649
  - # 12
    frequency:    6.1898394488
  - # 13
    frequency:    6.9754822168
  - # 14
    frequency:    7.6768889914
  - # 15
    frequency:   10.6180707351
  - # 16
    frequency:   10.7910382090
  - # 17
    frequency:   11.5176388350
  - # 18
    frequency:   12.0737585230
  - # 19
    frequency:   14.3711135140
  - # 20
    frequency:   16.4362898159
  - # 21
    frequency:   17.2817961503
  - # 22
    frequency:   17.8151261898
  - # 23
    frequency:   20.7769095048
  - # 24
    frequency:   64.8827973872

- q-position: [    0.1363636,    0.0000000,    0.0000000 ]
  distance:    0.0432922
  band:
  - # 1
    frequency:   -3.2917480214
  - # 2
    frequency:   -2.5505323934
  - # 3
    frequency:    0.4646225343
  - # 4
    frequency:    0.8980784030
  - # 5
    frequency:    1.1855091224
  - # 6
    frequency:    1.4375178178
  - # 7