nqpoint: 300    
npath: 3      
segment_nqpoint:
- 100
- 100
- 100
labels:
- [ 'G', 'M' ]
- [ 'M', 'K' ]
- [ 'K', 'G' ]
reciprocal_lattice:
- [   0.29408672,   0.16979104,   0.00000000 ] # a*
- [   0.00000000,   0.33958209,   0.00000000 ] # b*
- [   0.00000000,   0.00000000,   0.03819057 ] # c*
natom: 7      
lattice:
- [     3.400357601449199,     0.000000000000000,     0.000000000000000 ] # a
- [    -1.700178800724599,     2.944796064777554,     0.000000000000000 ] # b
- [     0.000000000000000,     0.000000000000000,    26.184473776712391 ] # c
points:
- symbol: Br # 1
  coordinates: [  0.666666984744047,  0.333332985985145,  0.343715137327079 ]
  mass: 79.904000
- symbol: C # 2
  coordinates: [  0.000000000000000,  0.000000000000000,  0.463875719829866 ]
  mass: 12.010700
- symbol: C # 3
  coordinates: [  0.333332985432215,  0.666666983183674,  0.610258709909659 ]
  mass: 12.010700
- symbol: Hf # 4
  coordinates: [  0.333332985432215,  0.666666983183674,  0.418775400311748 ]
  mass: 178.490000
- symbol: Hf # 5
  coordinates: [  0.666666984744047,  0.333332985985145,  0.508393483374075 ]
  mass: 178.490000
- symbol: N # 6
  coordinates: [  0.333332985432215,  0.666666983183674,  0.562546923626307 ]
  mass: 14.006700
- symbol: O # 7
  coordinates: [  0.333332985432215,  0.666666983183674,  0.656284862672921 ]
  mass: 15.999400

phonon:
- q-position: [    0.0000000,    0.0000000,    0.0000000 ]
  distance:    0.0000000
  band:
  - # 1
    frequency:   -0.0000243232
  - # 2
    frequency:   -0.0000001932
  - # 3
    frequency:    0.0000207439
  - # 4
    frequency:    0.9314081262
  - # 5
    frequency:    0.9314081263
  - # 6
    frequency:    2.9811136699
  - # 7
    frequency:    2.9811136699
  - # 8
    frequency:    4.3073432340
  - # 9
    frequency:    4.3073432340
  - # 10
    frequency:    4.4661640975
  - # 11
    frequency:    5.6726552017
  - # 12
    frequency:    5.6726552018
  - # 13
    frequency:    6.6848518036
  - # 14
    frequency:    8.0081386785
  - # 15
    frequency:   16.0515563741
  - # 16
    frequency:   17.1841621646
  - # 17
    frequency:   17.1841621648
  - # 18
    frequency:   18.3745177806
  - # 19
    frequency:   18.3745177808
  - # 20
    frequency:   37.9994423761
  - # 21
    frequency:   68.6587987459

- q-position: [    0.0050505,    0.0000000,    0.0000000 ]
  distance:    0.0017151
  band:
  - # 1
    frequency:    0.0014828527
  - # 2
    frequency:    0.0459938528
  - # 3
    frequency:    0.0876321331
  - # 4
    frequency:    0.9310040497
  - # 5
    frequency:    0.9326670212
  - # 6
    frequency:    2.9813019204
  - # 7
    frequency:    2.9823051763
  - # 8
    frequency:    4.3061673982
  - # 9
    frequency:    4.3071680723
  - # 10
    frequency:    4.4673051223
  - # 11
    frequency:    5.6728414415
  - # 12
    frequency:    5.6732476565
  - # 13
    frequency:    6.6843986058
  - # 14
    frequency:    8.0075643435
  - # 15
    frequency:   16.0514343427
  - # 16
    frequency:   17.1842083033
  - # 17
    frequency:   17.1843670704
  - # 18
    frequency:   18.3743333495
  - # 19
    frequency:   18.3746727158
  - # 20
    frequency:   37.9994497900
  - # 21
    frequency:   68.6576792524

- q-position: [    0.0101010,    0.0000000,    0.0000000 ]
  distance:    0.0034301
  band:
  - # 1
    frequency:    0.0059204469
  - # 2
    frequency:    0.0919621687
  - # 3
    frequency:    0.1751536050
  - # 4
    frequency:    0.9297970965
  - # 5
    frequency:    0.9364443765
  - # 6
    frequency:    2.9818662612
  - # 7
    frequency:    2.9858705930
  - # 8
    frequency:    4.3027389993
  - # 9
    frequency:    4.3066434451
  - # 10
    frequency:    4.4706314753
  - # 11
    frequency:    5.6733997777
  - # 12
    frequency:    5.6750218991
  - # 13
    frequency:    6.6830405206
  - # 14
    frequency:    8.0058426935
  - # 15
    frequency:   16.0510686879
  - # 16
    frequency:   17.1843466145
  - # 17
    frequency:   17.1849810996
  - # 18
    frequency:   18.3737809743
  - # 19
    frequency:   18.3751360141
  - # 20
    frequency:   37.9994720495
  - # 21
    frequency:   68.6543230065

- q-position: [    0.0151515,    0.0000000,    0.0000000 ]
  distance:    0.0051452
  band:
  - # 1
    frequency:    0.0132800320
  - # 2
    frequency:    0.1378766508
  - # 3
    frequency:    0.2624446603
  - # 4
    frequency:    0.9278035280
  - # 5
    frequency:    0.9427447653
  - # 6
    frequency:    2.9828054622
  - # 7
    frequency:    2.9917828286
  - # 8
    frequency:    4.2973188583
  - # 9
    frequency:    4.3057719266
  - # 10
    frequency:    4.4758894715
  - # 11
    frequency:    5.6743290624
  - # 12
    frequency:    5.6779685903
  - # 13
    frequency:    6.6807820754
  - # 14
    frequency:    8.0029777914
  - # 15
    frequency:   16.0504607242
  - # 16
    frequency:   17.1845767849
  - # 17
    frequency:   17.1860021948
  - # 18
    frequency:   18.3728634075
  - # 19
    frequency:   18.3759031643
  - # 20
    frequency:   37.9995092080
  - # 21
    frequency:   68.6487367055

- q-position: [    0.0202020,    0.0000000,    0.0000000 ]
  distance:    0.0068602
  band:
  - # 1
    frequency:    0.0235088388
  - # 2
    frequency:    0.1837031217
  - # 3
    frequency:    0.3493650952
  - # 4
    frequency:    0.9250519625
  - # 5
    frequency:    0.9515849284
  - # 6
    frequency:    2.9841174803
  - # 7
    frequency:    2.9999974407
  - # 8
    frequency:    4.2902477914
  - # 9
    frequency:    4.3045578098
  - # 10
    frequency:    4.4827501088
  - # 11
    frequency:    5.6756273842
  - # 12
    frequency:    5.6820722468
  - # 13
    frequency:    6.6776308233
  - # 14
    frequency:    7.9989764003
  - # 15
    frequency:   16.0496126321
  - # 16
    frequency:   17.1848982936
  - # 17
    frequency:   17.1874269483
  - # 18
    frequency:   18.3715852254
  - # 19
    frequency:   18.3769666791
  - # 20
    frequency:   37.9995613539
  - # 21
    frequency:   68.6409314911

- q-position: [    0.0252525,    0.0000000,    0.0000000 ]
  distance:    0.0085753
  band:
  - # 1
    frequency:    0.0365364166
  - # 2
    frequency:    0.2293976566
  - # 3
    frequency:    0.4357373878
  - # 4
    frequency:    0.9215859283
  - # 5
    frequency:    0.9630098316
  - # 6
    frequency:    2.9857994699
  - # 7
    frequency:    3.0104536562
  - # 8
    frequency:    4.2818705058
  - # 9
    frequency:    4.3030071099
  - # 10
    frequency:    4.4908850574
  - # 11
    frequency:    5.6772920716
  - # 12
    frequency:    5.6873113618
  - # 13
    frequency:    6.6735973544
  - # 14
    frequency:    7.9938479719
  - # 15
    frequency:   16.0485274414
  - # 16
    frequency:   17.1853104145
  - # 17
    frequency:   17.1892506353
  - # 18
    frequency:   18.3699528115
  - # 19
    frequency:   18.3783161428
  - # 20
    frequency:   37.9996286098
  - # 21
    frequency:   68.6309229185

- q-position: [    0.0303030,    0.0000000,    0.0000000 ]
  distance:    0.0102904
  band:
  - # 1
    frequency:    0.0522775348
  - # 2
    frequency:    0.2749013578
  - # 3
    frequency:    0.5213186912
  - # 4
    frequency:    0.9174680757
  - # 5
    frequency:    0.9771213175
  - # 6
    frequency:    2.9878477980
  - # 7
    frequency:    3.0230757161
  - # 8
    frequency:    4.2724919910
  - # 9
    frequency:    4.3011275680
  - # 10
    frequency:    4.5000101131
  - # 11
    frequency:    5.6793196973
  - # 12
    frequency:    5.6936585614
  - # 13
    frequency:    6.6686953162
  - # 14
    frequency:    7.9876046299
  - # 15
    frequency:   16.0472090101
  - # 16
    frequency:   17.1858122192
  - # 17
    frequency:   17.1914672577
  - # 18
    frequency:   18.3679743334
  - # 19
    frequency:   18.3799382773
  - # 20
    frequency:   37.9997111310
  - # 21
    frequency:   68.6187309129

- q-position: [    0.0353535,    0.0000000,    0.0000000 ]
  distance:    0.0120054
  band:
  - # 1
    frequency:    0.0706353057
  - # 2
    frequency:    0.3201328598
  - # 3
    frequency:    0.6057508434
  - # 4
    frequency:    0.9127868854
  - # 5
    frequency:    0.9941295489
  - # 6
    frequency:    2.9902580635
  - # 7
    frequency:    3.0377744705
  - # 8
    frequency:    4.2623638114
  - # 9
    frequency:    4.2989286541
  - # 10
    frequency:    4.5098987179
  - # 11
    frequency:    5.6817060845
  - # 12
    frequency:    5.7010807922
  - # 13
    frequency:    6.6629414410
  - # 14
    frequency:    7.9802611501
  - # 15
    frequency:   16.0456619968
  - # 16
    frequency:   17.1864025811
  - # 17
    frequency:   17.1940695990
  - # 18
    frequency:   18.3656597135
  - # 19
    frequency:   18.3818170254
  - # 20
    frequency:   37.9998091046
  - # 21
    frequency:   68.6043797149

- q-position: [    0.0404040,    0.0000000,    0.0000000 ]
  distance:    0.0137205
  band:
  - # 1
    frequency:    0.0915042641
  - # 2
    frequency:    0.3649770715
  - # 3
    frequency:    0.6884672844
  - # 4
    frequency:    0.9076673111
  - # 5
    frequency:    1.0144478765
  - # 6
    frequency:    2.9930251223
  - # 7
    frequency:    3.0544491461
  - # 8
    frequency:    4.2516871589
  - # 9
    frequency:    4.2964215684
  - # 10
    frequency:    4.5203786936
  - # 11
    frequency:    5.6844463140
  - # 12
    frequency:    5.7095395259
  - # 13
    frequency:    6.6563555887
  - # 14
    frequency:    7.9718349383
  - # 15
    frequency:   16.0438918292
  - # 16
    frequency:   17.1870801797
  - # 17
    frequency:   17.1970492900
  - # 18
    frequency:   18.3630205928
  - # 19
    frequency:   18.3839336512
  - # 20
    frequency:   37.9999227472
  - # 21
    frequency:   68.5878978129

- q-position: [    0.0454545,    0.0000000,    0.0000000 ]
  distance:    0.0154355
  band:
  - # 1
    frequency:    0.1147732082
  - # 2
    frequency:    0.4092676719
  - # 3
    frequency:    0.7685200865
  - # 4
    frequency:    0.9022878088
  - # 5
    frequency:    1.0388675921
  - # 6
    frequency:    2.9961431164
  - # 7
    frequency:    3.0729892025
  - # 8
    frequency:    4.2406220475
  - # 9
    frequency:    4.2936192391
  - # 10
    frequency:    4.5313228160
  - # 11
    frequency:    5.6875347338
  - # 12
    frequency:    5.7189909701
  - # 13
    frequency:    6.6489608049
  - # 14
    frequency:    7.9623460044
  - # 15
    frequency:   16.0419046674
  - # 16
    frequency:   17.1878435065
  - # 17
    frequency:   17.2003968818
  - # 18
    frequency:   18.3600702890
  - # 19
    frequency:   18.3862668570
  - # 20
    frequency:   38.0000523028
  - # 21
    frequency:   68.5693178643

- q-position: [    0.0505051,    0.0000000,    0.0000000 ]
  distance:    0.0171506
  band:
  - # 1
    frequency:    0.1403276857
  - # 2
    frequency:    0.4527592133
  - # 3
    frequency:    0.8442953866
  - # 4
    frequency:    0.8969078700
  - # 5
    frequency:    1.0688440757
  - # 6
    frequency:    2.9996055097
  - # 7
    frequency:    3.0932762050
  - # 8
    frequency:    4.2292971112
  - # 9
    frequency:    4.2905363148
  - # 10
    frequency:    4.5426387748
  - # 11
    frequency:    5.6909649704
  - # 12
    frequency:    5.7293862703
  - # 13
    frequency:    6.6407834028
  - # 14
    frequency:    7.9518169371
  - # 15
    frequency:   16.0397073652
  - # 16
    frequency:   17.1886908707
  - # 17
    frequency:   17.2041019261
  - # 18
    frequency:   18.3568237481
  - # 19
    frequency:   18.3887929149
  - # 20
    frequency:   38.0001980406
  - # 21
    frequency:   68.5486766049

- q-position: [    0.0555556,    0.0000000,    0.0000000 ]
  distance:    0.0188657
  band:
  - # 1
    frequency:    0.1680520798
  - # 2
    frequency:    0.4950822104
  - # 3
    frequency:    0.8919126675
  - # 4
    frequency:    0.9132709583
  - # 5
    frequency:    1.1067404999
  - # 6
    frequency:    3.0034051282
  - # 7
    frequency:    3.1151856488
  - # 8
    frequency:    4.2178179313
  - # 9
    frequency:    4.2871891510
  - # 10
    frequency:    4.5542606010
  - # 11
    frequency:    5.6947299417
  - # 12
    frequency:    5.7406716890
  - # 13
    frequency:    6.6318530745
  - # 14
    frequency:    7.9402728767
  - # 15
    frequency:   16.0373074274
  - # 16
    frequency:   17.1896204065
  - # 17
    frequency:   17.2081530616
  - # 18
    frequency:   18.3532974905
  - # 19
    frequency:   18.3914858122
  - # 20
    frequency:   38.0003602522
  - # 21
    frequency:   68.5260147470

- q-position: [    0.0606061,    0.0000000,    0.0000000 ]
  distance:    0.0205807
  band:
  - # 1
    frequency:    0.1978312959
  - # 2
    frequency:    0.5356720677
  - # 3
    frequency:    0.8878839487
  - # 4
    frequency:    0.9726443306
  - # 5
    frequency:    1.1552006510
  - # 6
    frequency:    3.0075342081
  - # 7
    frequency:    3.1385886854
  - # 8
    frequency:    4.2062734898
  - # 9
    frequency:    4.2835957868
  - # 10
    frequency:    4.5661419705
  - # 11
    frequency:    5.6988218724
  - # 12
    frequency:    5.7527887443
  - # 13
    frequency:    6.6222030415
  - # 14
    frequency:    7.9277414901
  - # 15
    frequency:   16.0347129659
  - # 16
    frequency:   17.1906300801
  - # 17
    frequency:   17.2125381030
  - # 18
    frequency:   18.3495095510
  - # 19
    frequency:   18.3943174101
  - # 20
    frequency:   38.0005392488
  - # 21
    frequency:   68.5013768669

- q-position: [    0.0656566,    0.0000000,    0.0000000 ]
  distance:    0.0222958
  band:
  - # 1
    frequency:    0.2295520832
  - # 2
    frequency:    0.5736653245
  - # 3
    frequency:    0.8857036924
  - # 4
    frequency:    1.0215838567
  - # 5
    frequency:    1.2148984834
  - # 6
    frequency:    3.0119844481
  - # 7
    frequency:    3.1633537154
  - # 8
    frequency:    4.1947409639
  - # 9
    frequency:    4.2797759117
  - # 10
    frequency:    4.5782511750
  - # 11
    frequency:    5.7032323119
  - # 12
    frequency:    5.7656742913
  - # 13
    frequency:    6.6118702537
  - # 14
    frequency:    7.9142529462
  - # 15
    frequency:   16.0319326544
  - # 16
    frequency:   17.1917176980
  - # 17
    frequency:   17.2172441336
  - # 18
    frequency:   18.3454794135
  - # 19
    frequency:   18.3972576124
  - # 20
    frequency:   38.0007353578
  - # 21
    frequency:   68.4748112810

- q-position: [    0.0707071,    0.0000000,    0.0000000 ]
  distance:    0.0240109
  band:
  - # 1
    frequency:    0.2631040370
  - # 2
    frequency:    0.6077838067
  - # 3
    frequency:    0.8866699377
  - # 4
    frequency:    1.0623606022
  - # 5
    frequency:    1.2834065728
  - # 6
    frequency:    3.0167470704
  - # 7
    frequency:    3.1893478278
  - # 8
    frequency:    4.1832892286
  - # 9
    frequency:    4.2757508197
  - # 10
    frequency:    4.5905673954
  - # 11
    frequency:    5.7079521540
  - # 12
    frequency:    5.7792605270
  - # 13
    frequency:    6.6008956539
  - # 14
    frequency:    7.8998398950
  - # 15
    frequency:   16.0289756824
  - # 16
    frequency:   17.1928809155
  - # 17
    frequency:   17.2222575980
  - # 18
    frequency:   18.3412279403
  - # 19
    frequency:   18.4002745457
  - # 20
    frequency:   38.0009489198
  - # 21
    frequency:   68.4463699121

- q-position: [    0.0757576,    0.0000000,    0.0000000 ]
  distance:    0.0257259
  band:
  - # 1
    frequency:    0.2983803317
  - # 2
    frequency:    0.6363212956
  - # 3
    frequency:    0.8925101721
  - # 4
    frequency:    1.0982215339
  - # 5
    frequency:    1.3573230349
  - # 6
    frequency:    3.0218128870
  - # 7
    frequency:    3.2164380772
  - # 8
    frequency:    4.1719814077
  - # 9
    frequency:    4.2715433480
  - # 10
    frequency:    4.6030779404
  - # 11
    frequency:    5.7129716597
  - # 12
    frequency:    5.7934748966
  - # 13
    frequency:    6.5893245217
  - # 14
    frequency:    7.8845374502
  - # 15
    frequency:   16.0258517088
  - # 16
    frequency:   17.1941172455
  - # 17
    frequency:   17.2275643942
  - # 18
    frequency:   18.3367772961
  - # 19
    frequency:   18.4033347468
  - # 20
    frequency:   38.0011802850
  - # 21
    frequency:   68.4161081454

- q-position: [    0.0808081,    0.0000000,    0.0000000 ]
  distance:    0.0274410
  band:
  - # 1
    frequency:    0.3352782304
  - # 2
    frequency:    0.6574953814
  - # 3
    frequency:    0.9050296170
  - # 4
    frequency:    1.1315434685
  - # 5
    frequency:    1.4341174963
  - # 6
    frequency:    3.0271723728
  - # 7
    frequency:    3.2444926028
  - # 8
    frequency:    4.1608767442
  - # 9
    frequency:    4.2671778009
  - # 10
    frequency:    4.6157761790
  - # 11
    frequency:    5.7182804819
  - # 12
    frequency:    5.8082398767
  - # 13
    frequency:    6.5772069210
  - # 14
    frequency:    7.8683831755
  - # 15
    frequency:   16.0225708166
  - # 16
    frequency:   17.1954240681
  - # 17
    frequency:   17.2331499642
  - # 18
    frequency:   18.3321508673
  - # 19
    frequency:   18.4064033576
  - # 20
    frequency:   38.0014298094
  - # 21
    frequency:   68.3840846752

- q-position: [    0.0858586,    0.0000000,    0.0000000 ]
  distance:    0.0291560
  band:
  - # 1
    frequency:    0.3736994103
  - # 2
    frequency:    0.6702814713
  - # 3
    frequency:    0.9252774421
  - # 4
    frequency:    1.1636968767
  - # 5
    frequency:    1.5122670637
  - # 6
    frequency:    3.0328157465
  - # 7
    frequency:    3.2733816000
  - # 8
    frequency:    4.1500319931
  - # 9
    frequency:    4.2626798541
  - # 10
    frequency:    4.6286599649
  - # 11
    frequency:    5.7238676931
  - # 12
    frequency:    5.8234726068
  - # 13
    frequency:    6.5645982764
  - # 14
    frequency:    7.8514170778
  - # 15
    frequency:   16.0191434678
  - # 16
    frequency:   17.1967986403
  - # 17
    frequency:   17.2389993813
  - # 18
    frequency:   18.3273731766
  - # 19
    frequency:   18.4094443254
  - # 20
    frequency:   38.0016978512
  - # 21
    frequency:   68.3503613425

- q-position: [    0.0909091,    0.0000000,    0.0000000 ]
  distance:    0.0308711
  band:
  - # 1
    frequency:    0.4135501398
  - # 2
    frequency:    0.6750676312
  - # 3
    frequency:    0.9528922391
  - # 4
    frequency:    1.1954200424
  - # 5
    frequency:    1.5908818277
  - # 6
    frequency:    3.0387330566
  - # 7
    frequency:    3.3029781612
  - # 8
    frequency:    4.1395024785
  - # 9
    frequency:    4.2580764411
  - # 10
    frequency:    4.6417304053
  - # 11
    frequency:    5.7297218155
  - # 12
    frequency:    5.8390843349
  - # 13
    frequency:    6.5515601123
  - # 14
    frequency:    7.8336816053
  - # 15
    frequency:   16.0155804593
  - # 16
    frequency:   17.1982381059
  - # 17
    frequency:   17.2450974341
  - # 18
    frequency:   18.3224697928
  - # 19
    frequency:   18.4124206070
  - # 20
    frequency:   38.0019847671
  - # 21
    frequency:   68.3150029634

- q-position: [    0.0959596,    0.0000000,    0.0000000 ]
  distance:    0.0325862
  band:
  - # 1
    frequency:    0.4547413330
  - # 2
    frequency:    0.6733183937
  - # 3
    frequency:    0.9864386280
  - # 4
    frequency:    1.2271072749
  - # 5
    frequency:    1.6694162330
  - # 6
    frequency:    3.0449142734
  - # 7
    frequency:    3.3331590047
  - # 8
    frequency:    4.1293429215
  - # 9
    frequency:    4.2533956183
  - # 10
    frequency:    4.6549908698
  - # 11
    frequency:    5.7358308533
  - # 12
    frequency:    5.8549796388
  - # 13
    frequency:    6.5381609917
  - # 14
    frequency:    7.8152216527
  - # 15
    frequency:   16.0118928802
  - # 16
    frequency:   17.1997395056
  - # 17
    frequency:   17.2514287047
  - # 18
    frequency:   18.3174672367
  - # 19
    frequency:   18.4152943756
  - # 20
    frequency:   38.0022909080
  - # 21
    frequency:   68.2780771504

- q-position: [    0.1010101,    0.0000000,    0.0000000 ]
  distance:    0.0343012
  band:
  - # 1
    frequency:    0.4971885063
  - # 2
    frequency:    0.6667124387
  - # 3
    frequency:    1.0242701043
  - # 4
    frequency:    1.2589687467
  - # 5
    frequency:    1.7475087685
  - # 6
    frequency:    3.0513493872
  - # 7
    frequency:    3.3638051102
  - # 8
    frequency:    4.1196081099
  - # 9
    frequency:    4.2486664096
  - # 10
    frequency:    4.6684461611
  - # 11
    frequency:    5.7421823277
  - # 12
    frequency:    5.8710553770
  - # 13
    frequency:    6.5244777016
  - # 14
    frequency:    7.7960845734
  - # 15
    frequency:   16.0080920704
  - # 16
    frequency:   17.2012997876
  - # 17
    frequency:   17.2579776430
  - # 18
    frequency:   18.3123928828
  - # 19
    frequency:   18.4180272286
  - # 20
    frequency:   38.0026166155
  - # 21
    frequency:   68.2396541250

- q-position: [    0.1060606,    0.0000000,    0.0000000 ]
  distance:    0.0360163
  band:
  - # 1
    frequency:    0.5408116560
  - # 2
    frequency:    0.6566225648
  - # 3
    frequency:    1.0650497206
  - # 4
    frequency:    1.2911137719
  - # 5
    frequency:    1.8248981873
  - # 6
    frequency:    3.0580285091
  - # 7
    frequency:    3.3948022767
  - # 8
    frequency:    4.1103534633
  - # 9
    frequency:    4.2439186294
  - # 10
    frequency:    4.6821017952
  - # 11
    frequency:    5.7487633142
  - # 12
    frequency:    5.8871993231
  - # 13
    frequency:    6.5105967321
  - # 14
    frequency:    7.7763201998
  - # 15
    frequency:   16.0041895801
  - # 16
    frequency:   17.2029158178
  - # 17
    frequency:   17.2647286343
  - # 18
    frequency:   18.3072748570
  - # 19
    frequency:   18.4205803959
  - # 20
    frequency:   38.0029622178
  - # 21
    frequency:   68.1998065241

- q-position: [    0.1111111,    0.0000000,    0.0000000 ]
  distance:    0.0377313
  band:
  - # 1
    frequency:    0.5855350714
  - # 2
    frequency:    0.6440302668
  - # 3
    frequency:    1.1078363049
  - # 4
    frequency:    1.3235946660
  - # 5
    frequency:    1.9013791354
  - # 6
    frequency:    3.0649419757
  - # 7
    frequency:    3.4260416126
  - # 8
    frequency:    4.1016355320
  - # 9
    frequency:    4.2391826849
  - # 10
    frequency:    4.6959633493
  - # 11
    frequency:    5.7555604821
  - # 12
    frequency:    5.9032884375
  - # 13
    frequency:    6.4966160934
  - # 14
    frequency:    7.7559808696
  - # 15
    frequency:   16.0001971308
  - # 16
    frequency:   17.2045843903
  - # 17
    frequency:   17.2716660611
  - # 18
    frequency:   18.3021419313
  - # 19
    frequency:   18.4229149453
  - # 20
    frequency:   38.0033280257
  - # 21
    frequency:   68.1586091998

- q-position: [    0.1161616,    0.0000000,    0.0000000 ]
  distance:    0.0394464
  band:
  - # 1
    frequency:    0.6296130825
  - # 2
    frequency:    0.6312870990
  - # 3
    frequency:    1.1519980728
  - # 4
    frequency:    1.3564306157
  - # 5
    frequency:    1.9767777895
  - # 6
    frequency:    3.0720804547
  - # 7
    frequency:    3.4574199584
  - # 8
    frequency:    4.0935124616
  - # 9
    frequency:    4.2344893576
  - # 10
    frequency:    4.7100358504
  - # 11
    frequency:    5.7625601357
  - # 12
    frequency:    5.9191867526
  - # 13
    frequency:    6.4826474996
  - # 14
    frequency:    7.7351214612
  - # 15
    frequency:   15.9961265768
  - # 16
    frequency:   17.2063022384
  - # 17
    frequency:   17.2787743593
  - # 18
    frequency:   18.2970234141
  - # 19
    frequency:   18.4249919872
  - # 20
    frequency:   38.0037143290
  - # 21
    frequency:   68.1161390130

- q-position: [    0.1212121,    0.0000000,    0.0000000 ]
  distance:    0.0411615
  band:
  - # 1
    frequency:    0.6138472055
  - # 2
    frequency:    0.6779998667
  - # 3
    frequency:    1.1971111560
  - # 4
    frequency:    1.3896211637
  - # 5
    frequency:    2.0509379236
  - # 6
    frequency:    3.0794350501
  - # 7
    frequency:    3.4888402277
  - # 8
    frequency:    4.0860444482
  - # 9
    frequency:    4.2298695673
  - # 10
    frequency:    4.7243231868
  - # 11
    frequency:    5.7697482579
  - # 12
    frequency:    5.9347428876
  - # 13
    frequency:    6.4688188981
  - # 14
    frequency:    7.7137994351
  - # 15
    frequency:   15.9919898676
  - # 16
    frequency:   17.2080660442
  - # 17
    frequency:   17.2860380683
  - # 18
    frequency:   18.2919490387
  - # 19
    frequency:   18.4267728740
  - # 20
    frequency:   38.0041213928
  - # 21
    frequency:   68.0724746222

- q-position: [    0.1262626,    0.0000000,    0.0000000 ]
  distance:    0.0428765
  band:
  - # 1
    frequency:    0.5970835885
  - # 2
    frequency:    0.7256089784
  - # 3
    frequency:    1.2428848493
  - # 4
    frequency:    1.4231541055
  - # 5
    frequency:    2.1237126441
  - # 6
    frequency:    3.0869974036
  - # 7
    frequency:    3.5202116375
  - # 8
    frequency:    4.0792942135
  - # 9
    frequency:    4.2253541178
  - # 10
    frequency:    4.7388275290
  - # 11
    frequency:    5.7771105556
  - # 12
    frequency:    5.9497873117
  - # 13
    frequency:    6.4552772310
  - # 14
    frequency:    7.6920748814
  - # 15
    frequency:   15.9877990108
  - # 16
    frequency:   17.2098724496
  - # 17
    frequency:   17.2934418743
  - # 18
    frequency:   18.2869488474
  - # 19
    frequency:   18.4282193958
  - # 20
    frequency:   38.0045494537
  - # 21
    frequency:   68.0276962676

- q-position: [    0.1313131,    0.0000000,    0.0000000 ]
  distance:    0.0445916
  band:
  - # 1
    frequency:    0.5795979238
  - # 2
    frequency:    0.7740531858
  - # 3
    frequency:    1.2891132064
  - # 4
    frequency:    1.4570102667
  - # 5
    frequency:    2.1949593690
  - # 6
    frequency:    3.0947597921
  - # 7
    frequency:    3.5514497683
  - # 8
    frequency:    4.0733275346
  - # 9
    frequency:    4.2209734297
  - # 10
    frequency:    4.7535487570
  - # 11
    frequency:    5.7846325061
  - # 12
    frequency:    5.9641296502
  - # 13
    frequency:    6.4421911309
  - # 14
    frequency:    7.6700105732
  - # 15
    frequency:   15.9835660349
  - # 16
    frequency:   17.2117180662
  - # 17
    frequency:   17.3009706496
  - # 18
    frequency:   18.2820530744
  - # 19
    frequency:   18.4292939706
  - # 20
    frequency:   38.0049987163
  - # 21
    frequency:   67.9818855517

- q-position: [    0.1363636,    0.0000000,    0.0000000 ]
  distance:    0.0463066
  band:
  - # 1
    frequency:    0.5616226289
  - # 2
    frequency:    0.8232740438
  - # 3
    frequency:    1.3356448773
  - # 4
    frequency:    1.4911664762
  - # 5
    frequency:    2.2645367888
  - # 6
    frequency:    3.1027152155
  - # 7
    frequency:    3.5824763673
  - # 8
    frequency:    4.0682138746
  - # 9
    frequency:    4.2167572626
  - # 10
    frequency:    4.7684838940
  - # 11
    frequency:    5.7922994053
  - # 12
    frequency:    5.9775566368
  - # 13
    frequency:    6.4297529495
  - # 14
    frequency:    7.6476720225
  - # 15
    frequency:   15.9793029522
  - # 16
    frequency:   17.2135994853
  - # 17
    frequency:   17.3086094856
  - # 18
    frequency:   18.2772920254
  - # 19
    frequency:   18.4299598277
  - # 20
    frequency:   38.0054693502
  - # 21
    frequency:   67.9351252163

- q-position: [    0.1414141,    0.0000000,    0.0000000 ]
  distance:    0.0480217
  band:
  - # 1
    frequency:    0.5433676416
  - # 2
    frequency:    0.8732155531
  - # 3
    frequency:    1.3823643819
  - # 4
    frequency:    1.5255974675
  - # 5
    frequency:    2.3323031472
  - # 6
    frequency:    3.1108574743
  - # 7
    frequency:    3.6132187634
  - # 8
    frequency:    4.0640271823
  - # 9
    frequency:    4.2127344296
  - # 10
    frequency:    4.7836265536
  - # 11
    frequency:    5.8000964173
  - # 12
    frequency:    5.9898317725
  - # 13
    frequency:    6.4181790570
  - # 14
    frequency:    7.6251275386
  - # 15
    frequency:   15.9750217206
  - # 16
    frequency:   17.2155132878
  - # 17
    frequency:   17.3163437210
  - # 18
    frequency:   18.2726959550
  - # 19
    frequency:   18.4301811848
  - # 20
    frequency:   38.0059614868
  - # 21
    frequency:   67.8874989177

- q-position: [    0.1464646,    0.0000000,    0.0000000 ]
  distance:    0.0497368
  band:
  - # 1
    frequency:    0.5250344624
  - # 2
    frequency:    0.9238237939
  - # 3
    frequency:    1.4291803629
  - # 4
    frequency:    1.5602771248
  - # 5
    frequency:    2.3981155052
  - # 6
    frequency:    3.1191812325
  - # 7
    frequency:    3.6436087141
  - # 8
    frequency:    4.0608469593
  - # 9
    frequency:    4.2089325108
  - # 10
    frequency:    4.7989664118
  - # 11
    frequency:    5.8080086247
  - # 12
    frequency:    6.0006983258
  - # 13
    frequency:    6.4077067786
  - # 14
    frequency:    7.6024482828
  - # 15
    frequency:   15.9707342055
  - # 16
    frequency:   17.2174560538
  - # 17
    frequency:   17.3241589663
  - # 18
    frequency:   18.2682949429
  - # 19
    frequency:   18.4299234177
  - # 20
    frequency:   38.0064752162
  - # 21
    frequency:   67.8390909997

- q-position: [    0.1515152,    0.0000000,    0.0000000 ]
  distance:    0.0514518
  band:
  - # 1
    frequency:    0.5068260937
  - # 2
    frequency:    0.9750465519
  - # 3
    frequency:    1.4760181019
  - # 4
    frequency:    1.5951793221
  - # 5
    frequency:    2.4618298350
  - # 6
    frequency:    3.1276820635
  - # 7
    frequency:    3.6735804500
  - # 8
    frequency:    4.0587597270
  - # 9
    frequency:    4.2053775686
  - # 10
    frequency:    4.8144887209
  - # 11
    frequency:    5.8160210799
  - # 12
    frequency:    6.0098877856
  - # 13
    frequency:    6.3985858558
  - # 14
    frequency:    7.5797083186
  - # 15
    frequency:   15.9664521393
  - # 16
    frequency:   17.2194243717
  - # 17
    frequency:   17.3320411239
  - # 18
    frequency:   18.2641187682
  - # 19
    frequency:   18.4291532217
  - # 20
    frequency:   38.0070105849
  - # 21