nqpoint: 300    
npath: 3      
segment_nqpoint:
- 100
- 100
- 100
labels:
- [ 'G', 'M' ]
- [ 'M', 'K' ]
- [ 'K', 'G' ]
reciprocal_lattice:
- [   0.30358613,   0.17527553,   0.00000000 ] # a*
- [   0.00000000,   0.35055106,   0.00000000 ] # b*
- [   0.00000000,   0.00000000,   0.03559153 ] # c*
natom: 7      
lattice:
- [     3.293958153095741,     0.000000000000000,     0.000000000000000 ] # a
- [    -1.646979076547871,     2.852651439583860,     0.000000000000000 ] # b
- [     0.000000000000000,     0.000000000000000,    28.096569463825428 ] # c
points:
- symbol: C # 1
  coordinates: [  0.333332985432215,  0.666666983183674,  0.637085619981510 ]
  mass: 12.010700
- symbol: Cl # 2
  coordinates: [  0.666666984744047,  0.333332985985145,  0.320323803643985 ]
  mass: 35.453000
- symbol: N # 3
  coordinates: [  0.000000000000000,  0.000000000000000,  0.547374288199202 ]
  mass: 14.006700
- symbol: N # 4
  coordinates: [  0.333332985432215,  0.666666983183674,  0.679676196356015 ]
  mass: 14.006700
- symbol: O # 5
  coordinates: [  0.666666984744047,  0.333332985985145,  0.465956853329527 ]
  mass: 15.999400
- symbol: Sc # 6
  coordinates: [  0.333332985432215,  0.666666983183674,  0.490083078500766 ]
  mass: 44.955912
- symbol: Sc # 7
  coordinates: [  0.666666984744047,  0.333332985985145,  0.583261894184117 ]
  mass: 44.955912

phonon:
- q-position: [    0.0000000,    0.0000000,    0.0000000 ]
  distance:    0.0000000
  band:
  - # 1
    frequency:   -2.2672320750
  - # 2
    frequency:   -2.2672320750
  - # 3
    frequency:   -0.2075294902
  - # 4
    frequency:   -0.2075294902
  - # 5
    frequency:   -0.0000016041
  - # 6
    frequency:   -0.0000003889
  - # 7
    frequency:    0.0000003556
  - # 8
    frequency:    0.2825739761
  - # 9
    frequency:    3.5871937128
  - # 10
    frequency:    3.5871937128
  - # 11
    frequency:    6.1435134499
  - # 12
    frequency:    7.7224139389
  - # 13
    frequency:    7.7224139389
  - # 14
    frequency:   10.1240864710
  - # 15
    frequency:   12.1100840583
  - # 16
    frequency:   12.1100840583
  - # 17
    frequency:   13.9300479945
  - # 18
    frequency:   14.5285194333
  - # 19
    frequency:   14.5285194333
  - # 20
    frequency:   17.5386794654
  - # 21
    frequency:   63.5259889427

- q-position: [    0.0050505,    0.0000000,    0.0000000 ]
  distance:    0.0017705
  band:
  - # 1
    frequency:   -2.2669784794
  - # 2
    frequency:   -2.2663053745
  - # 3
    frequency:   -0.2477263289
  - # 4
    frequency:   -0.2278980611
  - # 5
    frequency:   -0.0693541595
  - # 6
    frequency:    0.0577186192
  - # 7
    frequency:    0.1326650702
  - # 8
    frequency:    0.2883172080
  - # 9
    frequency:    3.5882919106
  - # 10
    frequency:    3.5909545003
  - # 11
    frequency:    6.1432665131
  - # 12
    frequency:    7.7225204315
  - # 13
    frequency:    7.7237318245
  - # 14
    frequency:   10.1234083663
  - # 15
    frequency:   12.1101912932
  - # 16
    frequency:   12.1128041435
  - # 17
    frequency:   13.9255440229
  - # 18
    frequency:   14.5283984761
  - # 19
    frequency:   14.5318498975
  - # 20
    frequency:   17.5386729428
  - # 21
    frequency:   63.5257986112

- q-position: [    0.0101010,    0.0000000,    0.0000000 ]
  distance:    0.0035409
  band:
  - # 1
    frequency:   -2.2662193791
  - # 2
    frequency:   -2.2635414782
  - # 3
    frequency:   -0.3540676255
  - # 4
    frequency:   -0.2882185277
  - # 5
    frequency:   -0.0809491904
  - # 6
    frequency:    0.1338067121
  - # 7
    frequency:    0.2368633826
  - # 8
    frequency:    0.3222618947
  - # 9
    frequency:    3.5915830333
  - # 10
    frequency:    3.6021927629
  - # 11
    frequency:    6.1425299507
  - # 12
    frequency:    7.7228392702
  - # 13
    frequency:    7.7276737070
  - # 14
    frequency:   10.1213816852
  - # 15
    frequency:   12.1105129742
  - # 16
    frequency:   12.1209444294
  - # 17
    frequency:   13.9123620692
  - # 18
    frequency:   14.5280350570
  - # 19
    frequency:   14.5415159272
  - # 20
    frequency:   17.5386609917
  - # 21
    frequency:   63.5252282734

- q-position: [    0.0151515,    0.0000000,    0.0000000 ]
  distance:    0.0053114
  band:
  - # 1
    frequency:   -2.2649597890
  - # 2
    frequency:   -2.2589879192
  - # 3
    frequency:   -0.4849672445
  - # 4
    frequency:   -0.3718788056
  - # 5
    frequency:   -0.0900176124
  - # 6
    frequency:    0.2137887568
  - # 7
    frequency:    0.2779069948
  - # 8
    frequency:    0.4287937655
  - # 9
    frequency:    3.5970567042
  - # 10
    frequency:    3.6207782985
  - # 11
    frequency:    6.1413163885
  - # 12
    frequency:    7.7233685444
  - # 13
    frequency:    7.7342045786
  - # 14
    frequency:   10.1180289466
  - # 15
    frequency:   12.1110490199
  - # 16
    frequency:   12.1344447226
  - # 17
    frequency:   13.8913822635
  - # 18
    frequency:   14.5274275468
  - # 19
    frequency:   14.5566518707
  - # 20
    frequency:   17.5386663521
  - # 21
    frequency:   63.5242798950

- q-position: [    0.0202020,    0.0000000,    0.0000000 ]
  distance:    0.0070818
  band:
  - # 1
    frequency:   -2.2632079188
  - # 2
    frequency:   -2.2527204842
  - # 3
    frequency:   -0.6237430814
  - # 4
    frequency:   -0.4653533080
  - # 5
    frequency:   -0.0986843604
  - # 6
    frequency:    0.2931610233
  - # 7
    frequency:    0.2983973157
  - # 8
    frequency:    0.5607641868
  - # 9
    frequency:    3.6046957435
  - # 10
    frequency:    3.6465008416
  - # 11
    frequency:    6.1396464903
  - # 12
    frequency:    7.7241050923
  - # 13
    frequency:    7.7432671263
  - # 14
    frequency:   10.1133864600
  - # 15
    frequency:   12.1117992635
  - # 16
    frequency:   12.1532036391
  - # 17
    frequency:   13.8637842785
  - # 18
    frequency:   14.5265732761
  - # 19
    frequency:   14.5761045410
  - # 20
    frequency:   17.5387265581
  - # 21
    frequency:   63.5229567403

- q-position: [    0.0252525,    0.0000000,    0.0000000 ]
  distance:    0.0088523
  band:
  - # 1
    frequency:   -2.2609749582
  - # 2
    frequency:   -2.2448386313
  - # 3
    frequency:   -0.7654277656
  - # 4
    frequency:   -0.5630857998
  - # 5
    frequency:   -0.1051083758
  - # 6
    frequency:    0.3189479158
  - # 7
    frequency:    0.3717508807
  - # 8
    frequency:    0.6965011566
  - # 9
    frequency:    3.6144763395
  - # 10
    frequency:    3.6790793439
  - # 11
    frequency:    6.1375484282
  - # 12
    frequency:    7.7250445341
  - # 13
    frequency:    7.7547832243
  - # 14
    frequency:   10.1075026293
  - # 15
    frequency:   12.1127634057
  - # 16
    frequency:   12.1770766069
  - # 17
    frequency:   13.8308048214
  - # 18
    frequency:   14.5254686023
  - # 19
    frequency:   14.5986795450
  - # 20
    frequency:   17.5388933835
  - # 21
    frequency:   63.5212633534

- q-position: [    0.0303030,    0.0000000,    0.0000000 ]
  distance:    0.0106228
  band:
  - # 1
    frequency:   -2.2582747918
  - # 2
    frequency:   -2.2354600954
  - # 3
    frequency:   -0.9080881382
  - # 4
    frequency:   -0.6627383765
  - # 5
    frequency:   -0.1066181485
  - # 6
    frequency:    0.3417709356
  - # 7
    frequency:    0.4498082962
  - # 8
    frequency:    0.8330764422
  - # 9
    frequency:    3.6263682819
  - # 10
    frequency:    3.7181734899
  - # 11
    frequency:    6.1350572171
  - # 12
    frequency:    7.7261813181
  - # 13
    frequency:    7.7686559145
  - # 14
    frequency:   10.1004358297
  - # 15
    frequency:   12.1139409535
  - # 16
    frequency:   12.2058722293
  - # 17
    frequency:   13.7935908562
  - # 18
    frequency:   14.5241090010
  - # 19
    frequency:   14.6232940450
  - # 20
    frequency:   17.5392320562
  - # 21
    frequency:   63.5192055326

- q-position: [    0.0353535,    0.0000000,    0.0000000 ]
  distance:    0.0123932
  band:
  - # 1
    frequency:   -2.2551236557
  - # 2
    frequency:   -2.2247154588
  - # 3
    frequency:   -1.0507662528
  - # 4
    frequency:   -0.7631650614
  - # 5
    frequency:   -0.0994008559
  - # 6
    frequency:    0.3669515723
  - # 7
    frequency:    0.5275268145
  - # 8
    frequency:    0.9697304762
  - # 9
    frequency:    3.6403352541
  - # 10
    frequency:    3.7633963293
  - # 11
    frequency:    6.1322139755
  - # 12
    frequency:    7.7275087786
  - # 13
    frequency:    7.7847717788
  - # 14
    frequency:   10.0922520539
  - # 15
    frequency:   12.1153311431
  - # 16
    frequency:   12.2393460650
  - # 17
    frequency:   13.7531501545
  - # 18
    frequency:   14.5224891801
  - # 19
    frequency:   14.6490351361
  - # 20
    frequency:   17.5398202359
  - # 21
    frequency:   63.5167902981

- q-position: [    0.0404040,    0.0000000,    0.0000000 ]
  distance:    0.0141637
  band:
  - # 1
    frequency:   -2.2515397546
  - # 2
    frequency:   -2.2127434455
  - # 3
    frequency:   -1.1928885032
  - # 4
    frequency:   -0.8637164459
  - # 5
    frequency:   -0.0753488468
  - # 6
    frequency:    0.3942051194
  - # 7
    frequency:    0.6050289645
  - # 8
    frequency:    1.1061278652
  - # 9
    frequency:    3.6563351783
  - # 10
    frequency:    3.8143269735
  - # 11
    frequency:    6.1290651805
  - # 12
    frequency:    7.7290192043
  - # 13
    frequency:    7.8030035960
  - # 14
    frequency:   10.0830225260
  - # 15
    frequency:   12.1169328532
  - # 16
    frequency:   12.2771904204
  - # 17
    frequency:   13.7103640305
  - # 18
    frequency:   14.5206032119
  - # 19
    frequency:   14.6751602399
  - # 20
    frequency:   17.5407467461
  - # 21
    frequency:   63.5140258526

- q-position: [    0.0454545,    0.0000000,    0.0000000 ]
  distance:    0.0159341
  band:
  - # 1
    frequency:   -2.2475428548
  - # 2
    frequency:   -2.1996876794
  - # 3
    frequency:   -1.3340561432
  - # 4
    frequency:   -0.9639763099
  - # 5
    frequency:    0.0468871909
  - # 6
    frequency:    0.4232026883
  - # 7
    frequency:    0.6823897309
  - # 8
    frequency:    1.2420544209
  - # 9
    frequency:    3.6743206072
  - # 10
    frequency:    3.8705225046
  - # 11
    frequency:    6.1256619789
  - # 12
    frequency:    7.7307039178
  - # 13
    frequency:    7.8232131749
  - # 14
    frequency:   10.0728214520
  - # 15
    frequency:   12.1187445105
  - # 16
    frequency:   12.3190180333
  - # 17
    frequency:   13.6660307951
  - # 18
    frequency:   14.5184446816
  - # 19
    frequency:   14.7010729746
  - # 20
    frequency:   17.5421100594
  - # 21
    frequency:   63.5109215357

- q-position: [    0.0505051,    0.0000000,    0.0000000 ]
  distance:    0.0177046
  band:
  - # 1
    frequency:   -2.2431538717
  - # 2
    frequency:   -2.1856959311
  - # 3
    frequency:   -1.4739569976
  - # 4
    frequency:   -1.0636493646
  - # 5
    frequency:    0.1213149922
  - # 6
    frequency:    0.4536525001
  - # 7
    frequency:    0.7596538879
  - # 8
    frequency:    1.3773398405
  - # 9
    frequency:    3.6942391542
  - # 10
    frequency:    3.9315285044
  - # 11
    frequency:    6.1220596133
  - # 12
    frequency:    7.7325533634
  - # 13
    frequency:    7.8452542554
  - # 14
    frequency:   10.0617240349
  - # 15
    frequency:   12.1207639902
  - # 16
    frequency:   12.3643364152
  - # 17
    frequency:   13.6209237238
  - # 18
    frequency:   14.5160068476
  - # 19
    frequency:   14.7262938579
  - # 20
    frequency:   17.5440165371
  - # 21
    frequency:   63.5074877716

- q-position: [    0.0555556,    0.0000000,    0.0000000 ]
  distance:    0.0194751
  band:
  - # 1
    frequency:   -2.2383944692
  - # 2
    frequency:   -2.1709244385
  - # 3
    frequency:   -1.6123193593
  - # 4
    frequency:   -1.1625083877
  - # 5
    frequency:    0.1812148755
  - # 6
    frequency:    0.4853165685
  - # 7
    frequency:    0.8368464445
  - # 8
    frequency:    1.5118337844
  - # 9
    frequency:    3.7160339557
  - # 10
    frequency:    3.9968878773
  - # 11
    frequency:    6.1183170049
  - # 12
    frequency:    7.7345572018
  - # 13
    frequency:    7.8689753837
  - # 14
    frequency:   10.0498048374
  - # 15
    frequency:   12.1229885174
  - # 16
    frequency:   12.4125079122
  - # 17
    frequency:   13.5758601203
  - # 18
    frequency:   14.5132828090
  - # 19
    frequency:   14.7504341534
  - # 20
    frequency:   17.5465784339
  - # 21
    frequency:   63.5037360120

- q-position: [    0.0606061,    0.0000000,    0.0000000 ]
  distance:    0.0212455
  band:
  - # 1
    frequency:   -2.2332866856
  - # 2
    frequency:   -2.1555574250
  - # 3
    frequency:   -1.7488711986
  - # 4
    frequency:   -1.2603672455
  - # 5
    frequency:    0.2397768280
  - # 6
    frequency:    0.5180080469
  - # 7
    frequency:    0.9139788491
  - # 8
    frequency:    1.6453979457
  - # 9
    frequency:    3.7396441566
  - # 10
    frequency:    4.0661478633
  - # 11
    frequency:    6.1144965299
  - # 12
    frequency:    7.7367044126
  - # 13
    frequency:    7.8942226758
  - # 14
    frequency:   10.0371365257
  - # 15
    frequency:   12.1254145713
  - # 16
    frequency:   12.4626882069
  - # 17
    frequency:   13.5317863626
  - # 18
    frequency:   14.5102656769
  - # 19
    frequency:   14.7731752427
  - # 20
    frequency:   17.5499116885
  - # 21
    frequency:   63.4996786730

- q-position: [    0.0656566,    0.0000000,    0.0000000 ]
  distance:    0.0230160
  band:
  - # 1
    frequency:   -2.2278525990
  - # 2
    frequency:   -2.1398993578
  - # 3
    frequency:   -1.8832363663
  - # 4
    frequency:   -1.3570662070
  - # 5
    frequency:    0.2992733612
  - # 6
    frequency:    0.5515839510
  - # 7
    frequency:    0.9910527921
  - # 8
    frequency:    1.7779034622
  - # 9
    frequency:    3.7650054119
  - # 10
    frequency:    4.1388652970
  - # 11
    frequency:    6.1106640105
  - # 12
    frequency:    7.7389834003
  - # 13
    frequency:    7.9208424007
  - # 14
    frequency:   10.0237889984
  - # 15
    frequency:   12.1280377974
  - # 16
    frequency:   12.5137337333
  - # 17
    frequency:   13.4898885999
  - # 18
    frequency:   14.5069487457
  - # 19
    frequency:   14.7942533839
  - # 20
    frequency:   17.5541335356
  - # 21
    frequency:   63.4953290669

- q-position: [    0.0707071,    0.0000000,    0.0000000 ]
  distance:    0.0247864
  band:
  - # 1
    frequency:   -2.2221140444
  - # 2
    frequency:   -2.1252039568
  - # 3
    frequency:   -2.0140988973
  - # 4
    frequency:   -1.4524635192
  - # 5
    frequency:    0.3603871454
  - # 6
    frequency:    0.5859386103
  - # 7
    frequency:    1.0680626514
  - # 8
    frequency:    1.9092300532
  - # 9
    frequency:    3.7920503968
  - # 10
    frequency:    4.2146102665
  - # 11
    frequency:    6.1068889396
  - # 12
    frequency:    7.7413821044
  - # 13
    frequency:    7.9486833275
  - # 14
    frequency:   10.0098288680
  - # 15
    frequency:   12.1308529307
  - # 16
    frequency:   12.5640699091
  - # 17
    frequency:   13.4517381615
  - # 18
    frequency:   14.5033256576
  - # 19
    frequency:   14.8134489101
  - # 20
    frequency:   17.5593599870
  - # 21
    frequency:   63.4907013304

- q-position: [    0.0757576,    0.0000000,    0.0000000 ]
  distance:    0.0265569
  band:
  - # 1
    frequency:   -2.2160923899
  - # 2
    frequency:   -2.1552217651
  - # 3
    frequency:   -2.0976511908
  - # 4
    frequency:   -1.5464303614
  - # 5
    frequency:    0.4233024354
  - # 6
    frequency:    0.6210003778
  - # 7
    frequency:    1.1449971557
  - # 8
    frequency:    2.0392655300
  - # 9
    frequency:    3.8207093176
  - # 10
    frequency:    4.2929683722
  - # 11
    frequency:    6.1032449509
  - # 12
    frequency:    7.7438881118
  - # 13
    frequency:    7.9775987960
  - # 14
    frequency:    9.9953192562
  - # 15
    frequency:   12.1338537346
  - # 16
    frequency:   12.6115289264
  - # 17
    frequency:   13.4194639962
  - # 18
    frequency:   14.4993905605
  - # 19
    frequency:   14.8305788088
  - # 20
    frequency:   17.5657032485
  - # 21
    frequency:   63.4858103482

- q-position: [    0.0808081,    0.0000000,    0.0000000 ]
  distance:    0.0283274
  band:
  - # 1
    frequency:   -2.2780667886
  - # 2
    frequency:   -2.2098083854
  - # 3
    frequency:   -2.0857243023
  - # 4
    frequency:   -1.6388477034
  - # 5
    frequency:    0.4879876415
  - # 6
    frequency:    0.6567344883
  - # 7
    frequency:    1.2218405821
  - # 8
    frequency:    2.1679051839
  - # 9
    frequency:    3.8509104169
  - # 10
    frequency:    4.3735417845
  - # 11
    frequency:    6.0998105519
  - # 12
    frequency:    7.7464887692
  - # 13
    frequency:    8.0074484822
  - # 14
    frequency:    9.9803198477
  - # 15
    frequency:   12.1370329572
  - # 16
    frequency:   12.6532257398
  - # 17
    frequency:   13.3958844193
  - # 18
    frequency:   14.4951382507
  - # 19
    frequency:   14.8454917596
  - # 20
    frequency:   17.5732691484
  - # 21
    frequency:   63.4806716737

- q-position: [    0.0858586,    0.0000000,    0.0000000 ]
  distance:    0.0300978
  band:
  - # 1
    frequency:   -2.4028303760
  - # 2
    frequency:   -2.2032821062
  - # 3
    frequency:   -2.0691715425
  - # 4
    frequency:   -1.7296042595
  - # 5
    frequency:    0.5542794912
  - # 6
    frequency:    0.6931593819
  - # 7
    frequency:    1.2985736633
  - # 8
    frequency:    2.2950509054
  - # 9
    frequency:    3.8825804676
  - # 10
    frequency:    4.4559492806
  - # 11
    frequency:    6.0966701386
  - # 12
    frequency:    7.7491712952
  - # 13
    frequency:    8.0380998429
  - # 14
    frequency:    9.9648871535
  - # 15
    frequency:   12.1403823089
  - # 16
    frequency:   12.6856724808
  - # 17
    frequency:   13.3843986496
  - # 18
    frequency:   14.4905643018
  - # 19
    frequency:   14.8580648891
  - # 20
    frequency:   17.5821546662
  - # 21
    frequency:   63.4753014463

- q-position: [    0.0909091,    0.0000000,    0.0000000 ]
  distance:    0.0318683
  band:
  - # 1
    frequency:   -2.5253773140
  - # 2
    frequency:   -2.1965330579
  - # 3
    frequency:   -2.0520701329
  - # 4
    frequency:   -1.8185950265
  - # 5
    frequency:    0.6218706011
  - # 6
    frequency:    0.7304007853
  - # 7
    frequency:    1.3751743073
  - # 8
    frequency:    2.4206100369
  - # 9
    frequency:    3.9156452490
  - # 10
    frequency:    4.5398254006
  - # 11
    frequency:    6.0939153281
  - # 12
    frequency:    7.7519228904
  - # 13
    frequency:    8.0694292330
  - # 14
    frequency:    9.9490749342
  - # 15
    frequency:   12.1438924633
  - # 16
    frequency:   12.7054422566
  - # 17
    frequency:   13.3883277073
  - # 18
    frequency:   14.4856651727
  - # 19
    frequency:   14.8682016657
  - # 20
    frequency:   17.5924456560
  - # 21
    frequency:   63.4697163074

- q-position: [    0.0959596,    0.0000000,    0.0000000 ]
  distance:    0.0336387
  band:
  - # 1
    frequency:   -2.6452306251
  - # 2
    frequency:   -2.1895806899
  - # 3
    frequency:   -2.0348343819
  - # 4
    frequency:   -1.9057198985
  - # 5
    frequency:    0.6901394725
  - # 6
    frequency:    0.7688810758
  - # 7
    frequency:    1.4516181847
  - # 8
    frequency:    2.5444940194
  - # 9
    frequency:    3.9500300011
  - # 10
    frequency:    4.6248188139
  - # 11
    frequency:    6.0916466578
  - # 12
    frequency:    7.7547308443
  - # 13
    frequency:    8.1013226986
  - # 14
    frequency:    9.9329347422
  - # 15
    frequency:   12.1475530829
  - # 16
    frequency:   12.7103931910
  - # 17
    frequency:   13.4096941922
  - # 18
    frequency:   14.4804382954
  - # 19
    frequency:   14.8758304946
  - # 20
    frequency:   17.6042148537
  - # 21
    frequency:   63.4639333139

- q-position: [    0.1010101,    0.0000000,    0.0000000 ]
  distance:    0.0354092
  band:
  - # 1
    frequency:   -2.7621760366
  - # 2
    frequency:   -2.1824464948
  - # 3
    frequency:   -2.0176094862
  - # 4
    frequency:   -1.9908810161
  - # 5
    frequency:    0.7573682039
  - # 6
    frequency:    0.8101115967
  - # 7
    frequency:    1.5278792208
  - # 8
    frequency:    2.6666169077
  - # 9
    frequency:    3.9856598531
  - # 10
    frequency:    4.7105899391
  - # 11
    frequency:    6.0899757265
  - # 12
    frequency:    7.7575826381
  - # 13
    frequency:    8.1336764567
  - # 14
    frequency:    9.9165165511
  - # 15
    frequency:   12.1513528708
  - # 16
    frequency:   12.7006226845
  - # 17
    frequency:   13.4482712285
  - # 18
    frequency:   14.4748821390
  - # 19
    frequency:   14.8809036826
  - # 20
    frequency:   17.6175202508
  - # 21
    frequency:   63.4579698507

- q-position: [    0.1060606,    0.0000000,    0.0000000 ]
  distance:    0.0371797
  band:
  - # 1
    frequency:   -2.8760597679
  - # 2
    frequency:   -2.1751671510
  - # 3
    frequency:   -2.0739692909
  - # 4
    frequency:   -2.0004724456
  - # 5
    frequency:    0.8179664094
  - # 6
    frequency:    0.8594746500
  - # 7
    frequency:    1.6039300099
  - # 8
    frequency:    2.7868938227
  - # 9
    frequency:    4.0224602221
  - # 10
    frequency:    4.7968077990
  - # 11
    frequency:    6.0890278833
  - # 12
    frequency:    7.7604660415
  - # 13
    frequency:    8.1663970766
  - # 14
    frequency:    9.8998694440
  - # 15
    frequency:   12.1552796484
  - # 16
    frequency:   12.6781975369
  - # 17
    frequency:   13.5018551057
  - # 18
    frequency:   14.4689962490
  - # 19
    frequency:   14.8833965330
  - # 20
    frequency:   17.6324038975
  - # 21
    frequency:   63.4518435436

- q-position: [    0.1111111,    0.0000000,    0.0000000 ]
  distance:    0.0389501
  band:
  - # 1
    frequency:   -2.9867517702
  - # 2
    frequency:   -2.1683168810
  - # 3
    frequency:   -2.1543418619
  - # 4
    frequency:   -1.9834680869
  - # 5
    frequency:    0.8661262182
  - # 6
    frequency:    0.9225725212
  - # 7
    frequency:    1.6797421694
  - # 8
    frequency:    2.9052394009
  - # 9
    frequency:    4.0603571806
  - # 10
    frequency:    4.8831460391
  - # 11
    frequency:    6.0889456064
  - # 12
    frequency:    7.7633692041
  - # 13
    frequency:    8.1994013827
  - # 14
    frequency:    9.8830423459
  - # 15
    frequency:   12.1593204595
  - # 16
    frequency:   12.6460007327
  - # 17
    frequency:   13.5674209242
  - # 18
    frequency:   14.4627812625
  - # 19
    frequency:   14.8833064094
  - # 20
    frequency:   17.6488911762
  - # 21
    frequency:   63.4455721714

- q-position: [    0.1161616,    0.0000000,    0.0000000 ]
  distance:    0.0407206
  band:
  - # 1
    frequency:   -3.0941354902
  - # 2
    frequency:   -2.2339989395
  - # 3
    frequency:   -2.1598305240
  - # 4
    frequency:   -1.9666192190
  - # 5
    frequency:    0.9078217463
  - # 6
    frequency:    0.9932311002
  - # 7
    frequency:    1.7552866390
  - # 8
    frequency:    3.0215662869
  - # 9
    frequency:    4.0992777891
  - # 10
    frequency:    4.9692779719
  - # 11
    frequency:    6.0898927591
  - # 12
    frequency:    7.7662807393
  - # 13
    frequency:    8.2326161013
  - # 14
    frequency:    9.8660847865
  - # 15
    frequency:   12.1634616988
  - # 16
    frequency:   12.6067570624
  - # 17
    frequency:   13.6420991269
  - # 18
    frequency:   14.4562388972
  - # 19
    frequency:   14.8806516779
  - # 20
    frequency:   17.6669905579
  - # 21
    frequency:   63.4391735786

- q-position: [    0.1212121,    0.0000000,    0.0000000 ]
  distance:    0.0424910
  band:
  - # 1
    frequency:   -3.1981042619
  - # 2
    frequency:   -2.3104462904
  - # 3
    frequency:   -2.1521410330
  - # 4
    frequency:   -1.9499308346
  - # 5
    frequency:    0.9477178898
  - # 6
    frequency:    1.0665936125
  - # 7
    frequency:    1.8305339353
  - # 8
    frequency:    3.1357837074
  - # 9
    frequency:    4.1391503950
  - # 10
    frequency:    5.0548704602
  - # 11
    frequency:    6.0920599459
  - # 12
    frequency:    7.7691898008
  - # 13
    frequency:    8.2659772737
  - # 14
    frequency:    9.8490476877
  - # 15
    frequency:   12.1676892633
  - # 16
    frequency:   12.5626451892
  - # 17
    frequency:   13.7235653198
  - # 18
    frequency:   14.4493719176
  - # 19
    frequency:   14.8754705062
  - # 20
    frequency:   17.6866938230
  - # 21
    frequency:   63.4326655907

- q-position: [    0.1262626,    0.0000000,    0.0000000 ]
  distance:    0.0442615
  band:
  - # 1
    frequency:   -3.2985598407
  - # 2
    frequency:   -2.3845900673
  - # 3
    frequency:   -2.1442846717
  - # 4
    frequency:   -1.9333927996
  - # 5
    frequency:    0.9871077497
  - # 6
    frequency:    1.1411852493
  - # 7
    frequency:    1.9054543661
  - # 8
    frequency:    3.2477961589
  - # 9
    frequency:    4.1799048946
  - # 10
    frequency:    5.1395764223
  - # 11
    frequency:    6.0956712044
  - # 12
    frequency:    7.7720861508
  - # 13
    frequency:    8.2994294569
  - # 14
    frequency:    9.8319841751
  - # 15
    frequency:   12.1719887249
  - # 16
    frequency:   12.5152913170
  - # 17
    frequency:   13.8100481855
  - # 18
    frequency:   14.4421840774
  - # 19
    frequency:   14.8678195700
  - # 20
    frequency:   17.7079767056
  - # 21
    frequency:   63.4260659293

- q-position: [    0.1313131,    0.0000000,    0.0000000 ]
  distance:    0.0460320
  band:
  - # 1
    frequency:   -3.3954117566
  - # 2
    frequency:   -2.4563265673
  - # 3
    frequency:   -2.1363113085
  - # 4
    frequency:   -1.9169822387
  - # 5
    frequency:    1.0263776322
  - # 6
    frequency:    1.2164497473
  - # 7
    frequency:    1.9800182090
  - # 8
    frequency:    3.3575022438
  - # 9
    frequency:    4.2214729602
  - # 10
    frequency:    5.2230258046
  - # 11
    frequency:    6.1009921954
  - # 12
    frequency:    7.7749602195
  - # 13
    frequency:    8.3329247327
  - # 14
    frequency:    9.8149504125
  - # 15
    frequency:   12.1763455195
  - # 16
    frequency:   12.4658900879
  - # 17
    frequency:   13.9002097543
  - # 18
    frequency:   14.4346800421
  - # 19
    frequency:   14.8577728096
  - # 20
    frequency:   17.7307998930
  - # 21
    frequency:   63.4193921313

- q-position: [    0.1363636,    0.0000000,    0.0000000 ]
  distance:    0.0478024
  band:
  - # 1
    frequency:   -3.4885770205
  - # 2
    frequency:   -2.5255874958
  - # 3
    frequency:   -2.1282392180
  - # 4
    frequency:   -1.9006659308
  - # 5
    frequency:    1.0656653893
  - # 6
    frequency:    1.2920921242
  - # 7
    frequency:    2.0541958596
  - # 8
    frequency:    3.4647936925
  - # 9
    frequency:    4.2637882312
  - # 10
    frequency:    5.3048151228
  - # 11
    frequency:    6.1083397759
  - # 12
    frequency:    7.7778031560
  - # 13
    frequency:    8.3664215414
  - # 14
    frequency:    9.7980064645
  - # 15
    frequency:   12.1807451506
  - # 16
    frequency:   12.4153304779
  - # 17
    frequency:   13.9930200198
  - # 18
    frequency:   14.4268652926
  - # 19
    frequency:   14.8454205331
  - # 20
    frequency:   17.7551102997
  - # 21
    frequency:   63.4126614701

- q-position: [    0.1414141,    0.0000000,    0.0000000 ]
  distance:    0.0495729
  band:
  - # 1
    frequency:   -3.5779799960
  - # 2
    frequency:   -2.5923134894
  - # 3
    frequency:   -2.1200816293
  - # 4
    frequency:   -1.8844027340
  - # 5
    frequency:    1.1050236939
  - # 6
    frequency:    1.3679159741
  - # 7
    frequency:    2.1279579533
  - # 8
    frequency:    3.5695546204
  - # 9
    frequency:    4.3067864708
  - # 10
    frequency:    5.3844963840
  - # 11
    frequency:    6.1180921183
  - # 12
    frequency:    7.7806068695
  - # 13
    frequency:    8.3998833552
  - # 14
    frequency:    9.7812171902
  - # 15
    frequency:   12.1851734017
  - # 16
    frequency:   12.3642927651
  - # 17
    frequency:   14.0876592668
  - # 18
    frequency:   14.4187460150
  - # 19
    frequency:   14.8308694863
  - # 20
    frequency:   17.7808425274
  - # 21
    frequency:   63.4058908800

- q-position: [    0.1464646,    0.0000000,    0.0000000 ]
  distance:    0.0513433
  band:
  - # 1
    frequency:   -3.6635523513
  - # 2
    frequency:   -2.6564508111
  - # 3
    frequency:   -2.1118500999
  - # 4
    frequency:   -1.8681459630
  - # 5
    frequency:    1.1444702126
  - # 6
    frequency:    1.4437733828
  - # 7
    frequency:    2.2012754626
  - # 8
    frequency:    3.6716610855
  - # 9
    frequency:    4.3504056895
  - # 10
    frequency:    5.4615677609
  - # 11
    frequency:    6.1306969507
  - # 12
    frequency:    7.7833640623
  - # 13
    frequency:    8.4332772021
  - # 14
    frequency:    9.7646531710
  - # 15
    frequency:   12.1896165540
  - # 16
    frequency:   12.3133159517
  - # 17
    frequency:   14.1834473404
  - # 18
    frequency:   14.4103289781
  - # 19
    frequency:   14.8142453439
  - # 20
    frequency:   17.8079204219
  - # 21
    frequency:   63.3990968850

- q-position: [    0.1515152,    0.0000000,    0.0000000 ]
  distance:    0.0531138
  band:
  - # 1
    frequency:   -3.7452330511
  - # 2
    frequency:   -2.7179505867
  - # 3
    frequency:   -2.1035553443
  - # 4
    frequency:   -1.8518456249
  - # 5
    frequency:    1.1840061019
  - # 6
    frequency:    1.5195461014
  - # 7
    frequency:    2.2741197754
  - # 8
    frequency:    3.7709810285
  - # 9
    frequency:    4.3945862360
  - # 10
    frequency:    5.5354713520
  - # 11
    frequency:    6.1466725176
  - # 12
    frequency:    7.7860682525
  - # 13
    frequency:    8.4665720513
  - # 14
    frequency:    9.7483916757
  - # 15
    frequency:   12.1940616037
  - # 16
    frequency:   12.2628428913
  - # 17
    frequency:   14.2797886794
  - # 18
    frequency:   14.4016214037
  - # 19
    frequency:   14.7957016161
  - # 20
    frequency:   17.8362586429
  - # 21