nqpoint: 300    
npath: 3      
segment_nqpoint:
- 100
- 100
- 100
labels:
- [ 'G', 'M' ]
- [ 'M', 'K' ]
- [ 'K', 'G' ]
reciprocal_lattice:
- [   0.30448375,   0.17579378,   0.00000000 ] # a*
- [   0.00000000,   0.35158756,   0.00000000 ] # b*
- [   0.00000000,   0.00000000,   0.03569455 ] # c*
natom: 9      
lattice:
- [     3.284247465018333,     0.000000000000000,     0.000000000000000 ] # a
- [    -1.642123732509166,     2.844241737073864,     0.000000000000000 ] # b
- [     0.000000000000000,     0.000000000000000,    28.015479380790978 ] # c
points:
- symbol: C # 1
  coordinates: [  0.333332985432215,  0.666666983183674,  0.635775734940677 ]
  mass: 12.010700
- symbol: C # 2
  coordinates: [  0.666666984744047,  0.333332985985145,  0.364224264597930 ]
  mass: 12.010700
- symbol: N # 3
  coordinates: [  0.000000000000000,  0.000000000000000,  0.500000030913890 ]
  mass: 14.006700
- symbol: N # 4
  coordinates: [  0.333332985432215,  0.666666983183674,  0.591316317831728 ]
  mass: 14.006700
- symbol: N # 5
  coordinates: [  0.666666984744047,  0.333332985985145,  0.408683682168280 ]
  mass: 14.006700
- symbol: O # 6
  coordinates: [  0.333332985432215,  0.666666983183674,  0.678749027361962 ]
  mass: 15.999400
- symbol: O # 7
  coordinates: [  0.666666984744047,  0.333332985985145,  0.321250972638038 ]
  mass: 15.999400
- symbol: Sc # 8
  coordinates: [  0.333332985432215,  0.666666983183674,  0.456699390277333 ]
  mass: 44.955912
- symbol: Sc # 9
  coordinates: [  0.666666984744047,  0.333332985985145,  0.543300609261265 ]
  mass: 44.955912

phonon:
- q-position: [    0.0000000,    0.0000000,    0.0000000 ]
  distance:    0.0000000
  band:
  - # 1
    frequency:   -1.2115112754
  - # 2
    frequency:   -1.2115112753
  - # 3
    frequency:   -1.0834152217
  - # 4
    frequency:   -1.0834152216
  - # 5
    frequency:   -0.0000055897
  - # 6
    frequency:    0.0000002363
  - # 7
    frequency:    0.0000055375
  - # 8
    frequency:    4.5649791790
  - # 9
    frequency:    4.5649791790
  - # 10
    frequency:    5.6072311281
  - # 11
    frequency:    7.2839251213
  - # 12
    frequency:    7.2839251214
  - # 13
    frequency:    7.6365571520
  - # 14
    frequency:    7.6365571520
  - # 15
    frequency:    9.3332795156
  - # 16
    frequency:   12.1227789868
  - # 17
    frequency:   13.8099792988
  - # 18
    frequency:   13.8099792988
  - # 19
    frequency:   14.4821977949
  - # 20
    frequency:   17.4354580084
  - # 21
    frequency:   17.4354580084
  - # 22
    frequency:   17.4607636300
  - # 23
    frequency:   17.4607636300
  - # 24
    frequency:   38.7001114503
  - # 25
    frequency:   38.7021438982
  - # 26
    frequency:   69.4538490420
  - # 27
    frequency:   69.7119662515

- q-position: [    0.0050505,    0.0000000,    0.0000000 ]
  distance:    0.0017757
  band:
  - # 1
    frequency:   -1.2102521795
  - # 2
    frequency:   -1.2071891051
  - # 3
    frequency:   -1.0829397107
  - # 4
    frequency:   -1.0816289268
  - # 5
    frequency:   -0.0262944355
  - # 6
    frequency:    0.0824217370
  - # 7
    frequency:    0.1492181290
  - # 8
    frequency:    4.5654607203
  - # 9
    frequency:    4.5672767320
  - # 10
    frequency:    5.6067727231
  - # 11
    frequency:    7.2847478364
  - # 12
    frequency:    7.2855695178
  - # 13
    frequency:    7.6367791273
  - # 14
    frequency:    7.6369056940
  - # 15
    frequency:    9.3324008881
  - # 16
    frequency:   12.1197343226
  - # 17
    frequency:   13.8100086482
  - # 18
    frequency:   13.8106643842
  - # 19
    frequency:   14.4804940828
  - # 20
    frequency:   17.4355388006
  - # 21
    frequency:   17.4358152504
  - # 22
    frequency:   17.4608287736
  - # 23
    frequency:   17.4611190978
  - # 24
    frequency:   38.7000286156
  - # 25
    frequency:   38.7021028273
  - # 26
    frequency:   69.4524719553
  - # 27
    frequency:   69.7101690987

- q-position: [    0.0101010,    0.0000000,    0.0000000 ]
  distance:    0.0035514
  band:
  - # 1
    frequency:   -1.2065105612
  - # 2
    frequency:   -1.1945475676
  - # 3
    frequency:   -1.0815127310
  - # 4
    frequency:   -1.0762577086
  - # 5
    frequency:   -0.0516848737
  - # 6
    frequency:    0.1651035871
  - # 7
    frequency:    0.2998814590
  - # 8
    frequency:    4.5669048794
  - # 9
    frequency:    4.5741424936
  - # 10
    frequency:    5.6054013650
  - # 11
    frequency:    7.2872122889
  - # 12
    frequency:    7.2904902718
  - # 13
    frequency:    7.6374436826
  - # 14
    frequency:    7.6379469515
  - # 15
    frequency:    9.3297695571
  - # 16
    frequency:   12.1106333674
  - # 17
    frequency:   13.8100950161
  - # 18
    frequency:   13.8126818400
  - # 19
    frequency:   14.4753986381
  - # 20
    frequency:   17.4357803944
  - # 21
    frequency:   17.4368853684
  - # 22
    frequency:   17.4610240006
  - # 23
    frequency:   17.4621841511
  - # 24
    frequency:   38.6997808098
  - # 25
    frequency:   38.7019798930
  - # 26
    frequency:   69.4483443148
  - # 27
    frequency:   69.7047835624

- q-position: [    0.0151515,    0.0000000,    0.0000000 ]
  distance:    0.0053271
  band:
  - # 1
    frequency:   -1.2003908953
  - # 2
    frequency:   -1.1744875672
  - # 3
    frequency:   -1.0791329287
  - # 4
    frequency:   -1.0672641014
  - # 5
    frequency:   -0.0752348986
  - # 6
    frequency:    0.2482869985
  - # 7
    frequency:    0.4531316593
  - # 8
    frequency:    4.5693102932
  - # 9
    frequency:    4.5854965812
  - # 10
    frequency:    5.6031286368
  - # 11
    frequency:    7.2913073623
  - # 12
    frequency:    7.2986501982
  - # 13
    frequency:    7.6385467702
  - # 14
    frequency:    7.6396678613
  - # 15
    frequency:    9.3253992432
  - # 16
    frequency:   12.0955732950
  - # 17
    frequency:   13.8102333641
  - # 18
    frequency:   13.8159200235
  - # 19
    frequency:   14.4669587216
  - # 20
    frequency:   17.4361804728
  - # 21
    frequency:   17.4386635745
  - # 22
    frequency:   17.4613486834
  - # 23
    frequency:   17.4639547310
  - # 24
    frequency:   38.6993701189
  - # 25
    frequency:   38.7017759287
  - # 26
    frequency:   69.4414769628
  - # 27
    frequency:   69.6958273783

- q-position: [    0.0202020,    0.0000000,    0.0000000 ]
  distance:    0.0071028
  band:
  - # 1
    frequency:   -1.1920588573
  - # 2
    frequency:   -1.1482691453
  - # 3
    frequency:   -1.0757980035
  - # 4
    frequency:   -1.0545840737
  - # 5
    frequency:   -0.0959326324
  - # 6
    frequency:    0.3321772326
  - # 7
    frequency:    0.6095685974
  - # 8
    frequency:    4.5726747891
  - # 9
    frequency:    4.6012084848
  - # 10
    frequency:    5.5999738846
  - # 11
    frequency:    7.2970143972
  - # 12
    frequency:    7.3099877225
  - # 13
    frequency:    7.6400818570
  - # 14
    frequency:    7.6420467935
  - # 15
    frequency:    9.3193130352
  - # 16
    frequency:   12.0747099059
  - # 17
    frequency:   13.8104153065
  - # 18
    frequency:   13.8201983915
  - # 19
    frequency:   14.4552537424
  - # 20
    frequency:   17.4367352769
  - # 21
    frequency:   17.4411420067
  - # 22
    frequency:   17.4618017218
  - # 23
    frequency:   17.4664240437
  - # 24
    frequency:   38.6987999944
  - # 25
    frequency:   38.7014923164
  - # 26
    frequency:   69.4318879145
  - # 27
    frequency:   69.6833300065

- q-position: [    0.0252525,    0.0000000,    0.0000000 ]
  distance:    0.0088785
  band:
  - # 1
    frequency:   -1.1817287783
  - # 2
    frequency:   -1.1171943206
  - # 3
    frequency:   -1.0715046416
  - # 4
    frequency:   -1.0381245133
  - # 5
    frequency:   -0.1126205979
  - # 6
    frequency:    0.4169283876
  - # 7
    frequency:    0.7691560273
  - # 8
    frequency:    4.5769955260
  - # 9
    frequency:    4.6211007718
  - # 10
    frequency:    5.5959642855
  - # 11
    frequency:    7.3043069932
  - # 12
    frequency:    7.3244174709
  - # 13
    frequency:    7.6420402443
  - # 14
    frequency:    7.6450537692
  - # 15
    frequency:    9.3115437176
  - # 16
    frequency:   12.0482493852
  - # 17
    frequency:   13.8106291291
  - # 18
    frequency:   13.8252747115
  - # 19
    frequency:   14.4403963037
  - # 20
    frequency:   17.4374397561
  - # 21
    frequency:   17.4443098958
  - # 22
    frequency:   17.4623814647
  - # 23
    frequency:   17.4695825240
  - # 24
    frequency:   38.6980752179
  - # 25
    frequency:   38.7011309749
  - # 26
    frequency:   69.4196022753
  - # 27
    frequency:   69.6673324811

- q-position: [    0.0303030,    0.0000000,    0.0000000 ]
  distance:    0.0106542
  band:
  - # 1
    frequency:   -1.1696467998
  - # 2
    frequency:   -1.0822959012
  - # 3
    frequency:   -1.0662484220
  - # 4
    frequency:   -1.0177594002
  - # 5
    frequency:   -0.1238635892
  - # 6
    frequency:    0.5026326422
  - # 7
    frequency:    0.9313150759
  - # 8
    frequency:    4.5822691776
  - # 9
    frequency:    4.6449538322
  - # 10
    frequency:    5.5911349563
  - # 11
    frequency:    7.3131507265
  - # 12
    frequency:    7.3418310690
  - # 13
    frequency:    7.6444115220
  - # 14
    frequency:    7.6486507787
  - # 15
    frequency:    9.3021342209
  - # 16
    frequency:   12.0164384781
  - # 17
    frequency:   13.8108598212
  - # 18
    frequency:   13.8308532612
  - # 19
    frequency:   14.4225338342
  - # 20
    frequency:   17.4382877692
  - # 21
    frequency:   17.4481537841
  - # 22
    frequency:   17.4630856087
  - # 23
    frequency:   17.4734177946
  - # 24
    frequency:   38.6972018530
  - # 25
    frequency:   38.7006943408
  - # 26
    frequency:   69.4046521265
  - # 27
    frequency:   69.6478872028

- q-position: [    0.0353535,    0.0000000,    0.0000000 ]
  distance:    0.0124299
  band:
  - # 1
    frequency:   -1.1560712116
  - # 2
    frequency:   -1.0600236945
  - # 3
    frequency:   -1.0441500740
  - # 4
    frequency:   -0.9933242443
  - # 5
    frequency:   -0.1276610345
  - # 6
    frequency:    0.5893153393
  - # 7
    frequency:    1.0951530992
  - # 8
    frequency:    4.5884921426
  - # 9
    frequency:    4.6725112938
  - # 10
    frequency:    5.5855291232
  - # 11
    frequency:    7.3235027762
  - # 12
    frequency:    7.3620981123
  - # 13
    frequency:    7.6471841614
  - # 14
    frequency:    7.6527922232
  - # 15
    frequency:    9.2911381846
  - # 16
    frequency:   11.9795542686
  - # 17
    frequency:   13.8110891232
  - # 18
    frequency:   13.8365926494
  - # 19
    frequency:   14.4018509748
  - # 20
    frequency:   17.4392723268
  - # 21
    frequency:   17.4526577790
  - # 22
    frequency:   17.4639110800
  - # 23
    frequency:   17.4779146343
  - # 24
    frequency:   38.6961871872
  - # 25
    frequency:   38.7001853442
  - # 26
    frequency:   69.3870763783
  - # 27
    frequency:   69.6250576728

- q-position: [    0.0404040,    0.0000000,    0.0000000 ]
  distance:    0.0142056
  band:
  - # 1
    frequency:   -1.1412523332
  - # 2
    frequency:   -1.0528234279
  - # 3
    frequency:   -1.0028494821
  - # 4
    frequency:   -0.9646079118
  - # 5
    frequency:   -0.1206774175
  - # 6
    frequency:    0.6769368695
  - # 7
    frequency:    1.2597065006
  - # 8
    frequency:    4.5956607676
  - # 9
    frequency:    4.7034857170
  - # 10
    frequency:    5.5791983823
  - # 11
    frequency:    7.3353114457
  - # 12
    frequency:    7.3850672419
  - # 13
    frequency:    7.6503462626
  - # 14
    frequency:    7.6574255280
  - # 15
    frequency:    9.2786206219
  - # 16
    frequency:   11.9378945661
  - # 17
    frequency:   13.8112955961
  - # 18
    frequency:   13.8421120371
  - # 19
    frequency:   14.3785729214
  - # 20
    frequency:   17.4403858620
  - # 21
    frequency:   17.4578038260
  - # 22
    frequency:   17.4648539105
  - # 23
    frequency:   17.4830549647
  - # 24
    frequency:   38.6950396615
  - # 25
    frequency:   38.6996073792
  - # 26
    frequency:   69.3669205927
  - # 27
    frequency:   69.5989181715

- q-position: [    0.0454545,    0.0000000,    0.0000000 ]
  distance:    0.0159813
  band:
  - # 1
    frequency:   -1.1254147186
  - # 2
    frequency:   -1.0446390274
  - # 3
    frequency:   -0.9580777294
  - # 4
    frequency:   -0.9313395325
  - # 5
    frequency:   -0.0952186005
  - # 6
    frequency:    0.7654010948
  - # 7
    frequency:    1.4241034077
  - # 8
    frequency:    4.6037715632
  - # 9
    frequency:    4.7375641854
  - # 10
    frequency:    5.5722031005
  - # 11
    frequency:    7.3485155535
  - # 12
    frequency:    7.4105672060
  - # 13
    frequency:    7.6538864793
  - # 14
    frequency:    7.6624920256
  - # 15
    frequency:    9.2646586681
  - # 16
    frequency:   11.8917695782
  - # 17
    frequency:   13.8114547181
  - # 18
    frequency:   13.8469948771
  - # 19
    frequency:   14.3529699069
  - # 20
    frequency:   17.4416205149
  - # 21
    frequency:   17.4635719835
  - # 22
    frequency:   17.4659091229
  - # 23
    frequency:   17.4888178695
  - # 24
    frequency:   38.6937687900
  - # 25
    frequency:   38.6989642696
  - # 26
    frequency:   69.3442367768
  - # 27
    frequency:   69.5695533822

- q-position: [    0.0505051,    0.0000000,    0.0000000 ]
  distance:    0.0177569
  band:
  - # 1
    frequency:   -1.1087440889
  - # 2
    frequency:   -1.0354601164
  - # 3
    frequency:   -0.9092041082
  - # 4
    frequency:   -0.8931604390
  - # 5
    frequency:    0.0365890549
  - # 6
    frequency:    0.8545686868
  - # 7
    frequency:    1.5876287223
  - # 8
    frequency:    4.6128213968
  - # 9
    frequency:    4.7744134525
  - # 10
    frequency:    5.5646130295
  - # 11
    frequency:    7.3630436528
  - # 12
    frequency:    7.4384076803
  - # 13
    frequency:    7.6577951617
  - # 14
    frequency:    7.6679283109
  - # 15
    frequency:    9.2493423909
  - # 16
    frequency:   11.8414952102
  - # 17
    frequency:   13.8115390132
  - # 18
    frequency:   13.8507897766
  - # 19
    frequency:   14.3253628585
  - # 20
    frequency:   17.4429684105
  - # 21
    frequency:   17.4670706369
  - # 22
    frequency:   17.4699406843
  - # 23
    frequency:   17.4951796564
  - # 24
    frequency:   38.6923850690
  - # 25
    frequency:   38.6982602318
  - # 26
    frequency:   69.3190831478
  - # 27
    frequency:   69.5370579635

- q-position: [    0.0555556,    0.0000000,    0.0000000 ]
  distance:    0.0195326
  band:
  - # 1
    frequency:   -1.0913802797
  - # 2
    frequency:   -1.0252742797
  - # 3
    frequency:   -0.8554603062
  - # 4
    frequency:   -0.8494529298
  - # 5
    frequency:    0.1336608832
  - # 6
    frequency:    0.9442728130
  - # 7
    frequency:    1.7497232464
  - # 8
    frequency:    4.6228076441
  - # 9
    frequency:    4.8136843416
  - # 10
    frequency:    5.5565082411
  - # 11
    frequency:    7.3788130164
  - # 12
    frequency:    7.4683793857
  - # 13
    frequency:    7.6620657783
  - # 14
    frequency:    7.6736685097
  - # 15
    frequency:    9.2327756337
  - # 16
    frequency:   11.7873880344
  - # 17
    frequency:   13.8115182183
  - # 18
    frequency:   13.8530088332
  - # 19
    frequency:   14.2961298136
  - # 20
    frequency:   17.4444219150
  - # 21
    frequency:   17.4683312138
  - # 22
    frequency:   17.4768869722
  - # 23
    frequency:   17.5021139708
  - # 24
    frequency:   38.6908998792
  - # 25
    frequency:   38.6974998332
  - # 26
    frequency:   69.2915238701
  - # 27
    frequency:   69.5015360711

- q-position: [    0.0606061,    0.0000000,    0.0000000 ]
  distance:    0.0213083
  band:
  - # 1
    frequency:   -1.0734160746
  - # 2
    frequency:   -1.0140667614
  - # 3
    frequency:   -0.8009527819
  - # 4
    frequency:   -0.7942273270
  - # 5
    frequency:    0.2044132135
  - # 6
    frequency:    1.0343344683
  - # 7
    frequency:    1.9099542511
  - # 8
    frequency:    4.6337282841
  - # 9
    frequency:    4.8550151260
  - # 10
    frequency:    5.5479805499
  - # 11
    frequency:    7.3957282893
  - # 12
    frequency:    7.5002524587
  - # 13
    frequency:    7.6666967121
  - # 14
    frequency:    7.6796484833
  - # 15
    frequency:    9.2150768553
  - # 16
    frequency:   11.7297617725
  - # 17
    frequency:   13.8113594920
  - # 18
    frequency:   13.8531250523
  - # 19
    frequency:   14.2657116235
  - # 20
    frequency:   17.4459738506
  - # 21
    frequency:   17.4696824517
  - # 22
    frequency:   17.4843867048
  - # 23
    frequency:   17.5095919653
  - # 24
    frequency:   38.6893253787
  - # 25
    frequency:   38.6966879482
  - # 26
    frequency:   69.2616287683
  - # 27
    frequency:   69.4631008334

- q-position: [    0.0656566,    0.0000000,    0.0000000 ]
  distance:    0.0230840
  band:
  - # 1
    frequency:   -1.0549006419
  - # 2
    frequency:   -1.0018201090
  - # 3
    frequency:   -0.7447222148
  - # 4
    frequency:   -0.7257893325
  - # 5
    frequency:    0.2728003622
  - # 6
    frequency:    1.1245753730
  - # 7
    frequency:    2.0679809934
  - # 8
    frequency:    4.6455819258
  - # 9
    frequency:    4.8980336098
  - # 10
    frequency:    5.5391356728
  - # 11
    frequency:    7.4136796712
  - # 12
    frequency:    7.5337704149
  - # 13
    frequency:    7.6716935670
  - # 14
    frequency:    7.6858146202
  - # 15
    frequency:    9.1963799183
  - # 16
    frequency:   11.6689250199
  - # 17
    frequency:   13.8110276709
  - # 18
    frequency:   13.8505726657
  - # 19
    frequency:   14.2346133733
  - # 20
    frequency:   17.4476176565
  - # 21
    frequency:   17.4711148416
  - # 22
    frequency:   17.4924147198
  - # 23
    frequency:   17.5175825250
  - # 24
    frequency:   38.6876743918
  - # 25
    frequency:   38.6958297115
  - # 26
    frequency:   69.2294730155
  - # 27
    frequency:   69.4218737822

- q-position: [    0.0707071,    0.0000000,    0.0000000 ]
  distance:    0.0248597
  band:
  - # 1
    frequency:   -1.0358457519
  - # 2
    frequency:   -0.9885137518
  - # 3
    frequency:   -0.6808448381
  - # 4
    frequency:   -0.6460163681
  - # 5
    frequency:    0.3422283055
  - # 6
    frequency:    1.2148273699
  - # 7
    frequency:    2.2235251148
  - # 8
    frequency:    4.6583677579
  - # 9
    frequency:    4.9423575463
  - # 10
    frequency:    5.5300965247
  - # 11
    frequency:    7.4325404355
  - # 12
    frequency:    7.5686318416
  - # 13
    frequency:    7.6770721737
  - # 14
    frequency:    7.6921450747
  - # 15
    frequency:    9.1768347695
  - # 16
    frequency:   11.6051799084
  - # 17
    frequency:   13.8104855745
  - # 18
    frequency:   13.8447575949
  - # 19
    frequency:   14.2033945646
  - # 20
    frequency:   17.4493474895
  - # 21
    frequency:   17.4726178877
  - # 22
    frequency:   17.5009449676
  - # 23
    frequency:   17.5260525461
  - # 24
    frequency:   38.6859602920
  - # 25
    frequency:   38.6949304699
  - # 26
    frequency:   69.1951368001
  - # 27
    frequency:   69.3779842437

- q-position: [    0.0757576,    0.0000000,    0.0000000 ]
  distance:    0.0266354
  band:
  - # 1
    frequency:   -1.0162330050
  - # 2
    frequency:   -0.9741234983
  - # 3
    frequency:   -0.6072522543
  - # 4
    frequency:   -0.5500119672
  - # 5
    frequency:    0.4137646221
  - # 6
    frequency:    1.3049382109
  - # 7
    frequency:    2.3763481509
  - # 8
    frequency:    4.6720854168
  - # 9
    frequency:    4.9875928326
  - # 10
    frequency:    5.5210083028
  - # 11
    frequency:    7.4521635354
  - # 12
    frequency:    7.6044318335
  - # 13
    frequency:    7.6828625423
  - # 14
    frequency:    7.6987114508
  - # 15
    frequency:    9.1566079378
  - # 16
    frequency:   11.5388214140
  - # 17
    frequency:   13.8096943599
  - # 18
    frequency:   13.8350889409
  - # 19
    frequency:   14.1726374554
  - # 20
    frequency:   17.4511582593
  - # 21
    frequency:   17.4741802901
  - # 22
    frequency:   17.5099506126
  - # 23
    frequency:   17.5349672589
  - # 24
    frequency:   38.6841968825
  - # 25
    frequency:   38.6939957316
  - # 26
    frequency:   69.1587049730
  - # 27
    frequency:   69.3315686920

- q-position: [    0.0808081,    0.0000000,    0.0000000 ]
  distance:    0.0284111
  band:
  - # 1
    frequency:   -0.9960207418
  - # 2
    frequency:   -0.9586209318
  - # 3
    frequency:   -0.5203795240
  - # 4
    frequency:   -0.4267819120
  - # 5
    frequency:    0.4876771587
  - # 6
    frequency:    1.3947742644
  - # 7
    frequency:    2.5262352530
  - # 8
    frequency:    4.6867347757
  - # 9
    frequency:    5.0333285017
  - # 10
    frequency:    5.5120464695
  - # 11
    frequency:    7.4723770179
  - # 12
    frequency:    7.6404361577
  - # 13
    frequency:    7.6891140394
  - # 14
    frequency:    7.7059079676
  - # 15
    frequency:    9.1358827680
  - # 16
    frequency:   11.4701370621
  - # 17
    frequency:   13.8086139273
  - # 18
    frequency:   13.8210420087
  - # 19
    frequency:   14.1428832948
  - # 20
    frequency:   17.4530456068
  - # 21
    frequency:   17.4757901810
  - # 22
    frequency:   17.5194041133
  - # 23
    frequency:   17.5442905860
  - # 24
    frequency:   38.6823982745
  - # 25
    frequency:   38.6930311160
  - # 26
    frequency:   69.1202666765
  - # 27
    frequency:   69.2827700689

- q-position: [    0.0858586,    0.0000000,    0.0000000 ]
  distance:    0.0301868
  band:
  - # 1
    frequency:   -0.9751498374
  - # 2
    frequency:   -0.9419726755
  - # 3
    frequency:   -0.4123180132
  - # 4
    frequency:   -0.2368531832
  - # 5
    frequency:    0.5637791500
  - # 6
    frequency:    1.4842209464
  - # 7
    frequency:    2.6729834342
  - # 8
    frequency:    4.7023156596
  - # 9
    frequency:    5.0791267249
  - # 10
    frequency:    5.5034295747
  - # 11
    frequency:    7.4929780318
  - # 12
    frequency:    7.6744454904
  - # 13
    frequency:    7.6959020005
  - # 14
    frequency:    7.7155908018
  - # 15
    frequency:    9.1148592897
  - # 16
    frequency:   11.3994068321
  - # 17
    frequency:   13.8022513505
  - # 18
    frequency:   13.8072033709
  - # 19
    frequency:   14.1145381610
  - # 20
    frequency:   17.4550058317
  - # 21
    frequency:   17.4774354006
  - # 22
    frequency:   17.5292772877
  - # 23
    frequency:   17.5539855252
  - # 24
    frequency:   38.6805787647
  - # 25
    frequency:   38.6920423018
  - # 26
    frequency:   69.0799149576
  - # 27
    frequency:   69.2317370757

- q-position: [    0.0909091,    0.0000000,    0.0000000 ]
  distance:    0.0319625
  band:
  - # 1
    frequency:   -0.9535480370
  - # 2
    frequency:   -0.9241394895
  - # 3
    frequency:   -0.2574832265
  - # 4
    frequency:    0.2751424917
  - # 5
    frequency:    0.6415582520
  - # 6
    frequency:    1.5731816761
  - # 7
    frequency:    2.8163927732
  - # 8
    frequency:    4.7188274977
  - # 9
    frequency:    5.1245045377
  - # 10
    frequency:    5.4954403840
  - # 11
    frequency:    7.5137255537
  - # 12
    frequency:    7.6987629007
  - # 13
    frequency:    7.7033356532
  - # 14
    frequency:    7.7351144749
  - # 15
    frequency:    9.0937536157
  - # 16
    frequency:   11.3269031199
  - # 17
    frequency:   13.7786061736
  - # 18
    frequency:   13.8054214743
  - # 19
    frequency:   14.0877762102
  - # 20
    frequency:   17.4570357853
  - # 21
    frequency:   17.4791037961
  - # 22
    frequency:   17.5395413710
  - # 23
    frequency:   17.5640145446
  - # 24
    frequency:   38.6787527130
  - # 25
    frequency:   38.6910349764
  - # 26
    frequency:   69.0377463678
  - # 27
    frequency:   69.1786234398

- q-position: [    0.0959596,    0.0000000,    0.0000000 ]
  distance:    0.0337382
  band:
  - # 1
    frequency:   -0.9311327896
  - # 2
    frequency:   -0.9050751484
  - # 3
    frequency:    0.2023498813
  - # 4
    frequency:    0.4618592914
  - # 5
    frequency:    0.7203022088
  - # 6
    frequency:    1.6615760033
  - # 7
    frequency:    2.9562593581
  - # 8
    frequency:    4.7362689299
  - # 9
    frequency:    5.1689013431
  - # 10
    frequency:    5.4884614356
  - # 11
    frequency:    7.5343329103
  - # 12
    frequency:    7.7098178588
  - # 13
    frequency:    7.7115662741
  - # 14
    frequency:    7.7677120541
  - # 15
    frequency:    9.0727967573
  - # 16
    frequency:   11.2528906604
  - # 17
    frequency:   13.7502986354
  - # 18
    frequency:   13.8032272412
  - # 19
    frequency:   14.0624899250
  - # 20
    frequency:   17.4591327388
  - # 21
    frequency:   17.4807835260
  - # 22
    frequency:   17.5501670730
  - # 23
    frequency:   17.5743399818
  - # 24
    frequency:   38.6769344230
  - # 25
    frequency:   38.6900147853
  - # 26
    frequency:   68.9938605510
  - # 27
    frequency:   69.1235871617

- q-position: [    0.1010101,    0.0000000,    0.0000000 ]
  distance:    0.0355139
  band:
  - # 1
    frequency:   -0.9078126812
  - # 2
    frequency:   -0.8847250271
  - # 3
    frequency:    0.3908837171
  - # 4
    frequency:    0.5972827571
  - # 5
    frequency:    0.7992553686
  - # 6
    frequency:    1.7493373684
  - # 7
    frequency:    3.0923690983
  - # 8
    frequency:    4.7546373869
  - # 9
    frequency:    5.2116224109
  - # 10
    frequency:    5.4830349915
  - # 11
    frequency:    7.5544632467
  - # 12
    frequency:    7.7158210761
  - # 13
    frequency:    7.7207924299
  - # 14
    frequency:    7.8048448948
  - # 15
    frequency:    9.0522327519
  - # 16
    frequency:   11.1776263533
  - # 17
    frequency:   13.7177900097
  - # 18
    frequency:   13.8005804545
  - # 19
    frequency:   14.0383224619
  - # 20
    frequency:   17.4612942430
  - # 21
    frequency:   17.4824633544
  - # 22
    frequency:   17.5611246366
  - # 23
    frequency:   17.5849244361
  - # 24
    frequency:   38.6751380233
  - # 25
    frequency:   38.6889872832
  - # 26
    frequency:   68.9483598219
  - # 27
    frequency:   69.0667897476

- q-position: [    0.1060606,    0.0000000,    0.0000000 ]
  distance:    0.0372896
  band:
  - # 1
    frequency:   -0.8834876039
  - # 2
    frequency:   -0.8630242987
  - # 3
    frequency:    0.5201504910
  - # 4
    frequency:    0.7113271313
  - # 5
    frequency:    0.8777591096
  - # 6
    frequency:    1.8364107817
  - # 7
    frequency:    3.2244918144
  - # 8
    frequency:    4.7739286658
  - # 9
    frequency:    5.2517473696
  - # 10
    frequency:    5.4799585421
  - # 11
    frequency:    7.5737345215
  - # 12
    frequency:    7.7199637325
  - # 13
    frequency:    7.7312557250
  - # 14
    frequency:    7.8430083763
  - # 15
    frequency:    9.0323160174
  - # 16
    frequency:   11.1013589672
  - # 17
    frequency:   13.6817093324
  - # 18
    frequency:   13.7974422545
  - # 19
    frequency:   14.0147675450
  - # 20
    frequency:   17.4635179878
  - # 21
    frequency:   17.4841329210
  - # 22
    frequency:   17.5723839001
  - # 23
    frequency:   17.5957311485
  - # 24
    frequency:   38.6733773544
  - # 25
    frequency:   38.6879578865
  - # 26
    frequency:   68.9013487356
  - # 27
    frequency:   69.0083954336

- q-position: [    0.1111111,    0.0000000,    0.0000000 ]
  distance:    0.0390653
  band:
  - # 1
    frequency:   -0.8580477562
  - # 2
    frequency:   -0.8398956013
  - # 3
    frequency:    0.6289678103
  - # 4
    frequency:    0.8130148586
  - # 5
    frequency:    0.9553272085
  - # 6
    frequency:    1.9227505790
  - # 7
    frequency:    3.3523752469
  - # 8
    frequency:    4.7941365263
  - # 9
    frequency:    5.2880165994
  - # 10
    frequency:    5.4804030720
  - # 11
    frequency:    7.5917438135
  - # 12
    frequency:    7.7229502373
  - # 13
    frequency:    7.7432172731
  - # 14
    frequency:    7.8812044534
  - # 15
    frequency:    9.0133078810
  - # 16
    frequency:   11.0243287198
  - # 17
    frequency:   13.6427358950
  - # 18
    frequency:   13.7937757236
  - # 19
    frequency:   13.9912855858
  - # 20
    frequency:   17.4658016688
  - # 21
    frequency:   17.4857829778
  - # 22
    frequency:   17.5839143601
  - # 23
    frequency:   17.6067243650
  - # 24
    frequency:   38.6716658584
  - # 25
    frequency:   38.6869318284
  - # 26
    frequency:   68.8529336485
  - # 27
    frequency:   68.9485704085

- q-position: [    0.1161616,    0.0000000,    0.0000000 ]
  distance:    0.0408410
  band:
  - # 1
    frequency:   -0.8313714779
  - # 2
    frequency:   -0.8152459738
  - # 3
    frequency:    0.7274340073
  - # 4
    frequency:    0.9064813207
  - # 5
    frequency:    1.0316525225
  - # 6
    frequency:    2.0083183279
  - # 7
    frequency:    3.4757388487
  - # 8
    frequency:    4.8152523303
  - # 9
    frequency:    5.3188315210
  - # 10
    frequency:    5.4859180994
  - # 11
    frequency:    7.6081180990
  - # 12
    frequency:    7.7249809513
  - # 13
    frequency:    7.7569077390
  - # 14
    frequency:    7.9189644993
  - # 15
    frequency:    8.9954722819
  - # 16
    frequency:   10.9467667516
  - # 17
    frequency:   13.6015092415
  - # 18
    frequency:   13.7895464659
  - # 19
    frequency:   13.9673924007
  - # 20
    frequency:   17.4681428660
  - # 21
    frequency:   17.4874055849
  - # 22
    frequency:   17.5956852305
  - # 23
    frequency:   17.6178696802
  - # 24
    frequency:   38.6700164748
  - # 25
    frequency:   38.6859141166
  - # 26
    frequency:   68.8032222706
  - # 27
    frequency:   68.8874820443

- q-position: [    0.1212121,    0.0000000,    0.0000000 ]
  distance:    0.0426167
  band:
  - # 1
    frequency:   -0.8033217850
  - # 2
    frequency:   -0.7889627605
  - # 3
    frequency:    0.8199302755
  - # 4
    frequency:    0.9940115857
  - # 5
    frequency:    1.1065739218
  - # 6
    frequency:    2.0930809071
  - # 7
    frequency:    3.5942674941
  - # 8
    frequency:    4.8372647473
  - # 9
    frequency:    5.3427609954
  - # 10
    frequency:    5.4979311073