nqpoint: 300    
npath: 3      
segment_nqpoint:
- 100
- 100
- 100
labels:
- [ 'G', 'M' ]
- [ 'M', 'K' ]
- [ 'K', 'G' ]
reciprocal_lattice:
- [   0.30448375,   0.17579378,   0.00000000 ] # a*
- [   0.00000000,   0.35158756,   0.00000000 ] # b*
- [   0.00000000,   0.00000000,   0.03569455 ] # c*
natom: 9      
lattice:
- [     3.284247465018333,     0.000000000000000,     0.000000000000000 ] # a
- [    -1.642123732509166,     2.844241737073864,     0.000000000000000 ] # b
- [     0.000000000000000,     0.000000000000000,    28.015479380790978 ] # c
points:
- symbol: C # 1
  coordinates: [  0.333332985432215,  0.666666983183674,  0.635775734940677 ]
  mass: 12.010700
- symbol: C # 2
  coordinates: [  0.666666984744047,  0.333332985985145,  0.364224264597930 ]
  mass: 12.010700
- symbol: N # 3
  coordinates: [  0.000000000000000,  0.000000000000000,  0.500000030913890 ]
  mass: 14.006700
- symbol: N # 4
  coordinates: [  0.333332985432215,  0.666666983183674,  0.591316317831728 ]
  mass: 14.006700
- symbol: N # 5
  coordinates: [  0.666666984744047,  0.333332985985145,  0.408683682168280 ]
  mass: 14.006700
- symbol: O # 6
  coordinates: [  0.333332985432215,  0.666666983183674,  0.678749027361962 ]
  mass: 15.999400
- symbol: O # 7
  coordinates: [  0.666666984744047,  0.333332985985145,  0.321250972638038 ]
  mass: 15.999400
- symbol: Sc # 8
  coordinates: [  0.333332985432215,  0.666666983183674,  0.456699390277333 ]
  mass: 44.955912
- symbol: Sc # 9
  coordinates: [  0.666666984744047,  0.333332985985145,  0.543300609261265 ]
  mass: 44.955912

phonon:
- q-position: [    0.0000000,    0.0000000,    0.0000000 ]
  distance:    0.0000000
  band:
  - # 1
    frequency:   -0.9142716122
  - # 2
    frequency:   -0.9142716113
  - # 3
    frequency:   -0.7318622529
  - # 4
    frequency:   -0.7318622525
  - # 5
    frequency:   -0.0000290681
  - # 6
    frequency:   -0.0000008254
  - # 7
    frequency:    0.0000545096
  - # 8
    frequency:    4.9785801118
  - # 9
    frequency:    4.9785801121
  - # 10
    frequency:    5.7392324733
  - # 11
    frequency:    7.7737193141
  - # 12
    frequency:    7.7737193142
  - # 13
    frequency:    7.9000969953
  - # 14
    frequency:    7.9000969954
  - # 15
    frequency:    9.2163952889
  - # 16
    frequency:   11.6730671727
  - # 17
    frequency:   13.6003868927
  - # 18
    frequency:   14.2914758859
  - # 19
    frequency:   14.2914758860
  - # 20
    frequency:   17.4929839230
  - # 21
    frequency:   17.4929839234
  - # 22
    frequency:   17.4945809592
  - # 23
    frequency:   17.4945809595
  - # 24
    frequency:   38.6668743842
  - # 25
    frequency:   38.6739810810
  - # 26
    frequency:   69.4338168670
  - # 27
    frequency:   69.4743480660

- q-position: [    0.0050505,    0.0000000,    0.0000000 ]
  distance:    0.0017757
  band:
  - # 1
    frequency:   -0.9219944496
  - # 2
    frequency:   -0.9210866805
  - # 3
    frequency:   -0.7407342255
  - # 4
    frequency:   -0.7391996727
  - # 5
    frequency:    0.0021557154
  - # 6
    frequency:    0.2009292844
  - # 7
    frequency:    0.2093656085
  - # 8
    frequency:    4.9779027978
  - # 9
    frequency:    4.9794579564
  - # 10
    frequency:    5.7387005416
  - # 11
    frequency:    7.7734417182
  - # 12
    frequency:    7.7737426421
  - # 13
    frequency:    7.8998254904
  - # 14
    frequency:    7.9004377817
  - # 15
    frequency:    9.2158275458
  - # 16
    frequency:   11.6713505738
  - # 17
    frequency:   13.6006827125
  - # 18
    frequency:   14.2897019896
  - # 19
    frequency:   14.2913083791
  - # 20
    frequency:   17.4930211692
  - # 21
    frequency:   17.4932521419
  - # 22
    frequency:   17.4946532074
  - # 23
    frequency:   17.4949289266
  - # 24
    frequency:   38.6668839465
  - # 25
    frequency:   38.6739854148
  - # 26
    frequency:   69.4325292846
  - # 27
    frequency:   69.4730578676

- q-position: [    0.0101010,    0.0000000,    0.0000000 ]
  distance:    0.0035514
  band:
  - # 1
    frequency:   -0.9441129342
  - # 2
    frequency:   -0.9412161975
  - # 3
    frequency:   -0.7567413479
  - # 4
    frequency:   -0.7509785841
  - # 5
    frequency:    0.0086322585
  - # 6
    frequency:    0.3828831946
  - # 7
    frequency:    0.3984762104
  - # 8
    frequency:    4.9758748729
  - # 9
    frequency:    4.9820839179
  - # 10
    frequency:    5.7371094969
  - # 11
    frequency:    7.7726123844
  - # 12
    frequency:    7.7738098715
  - # 13
    frequency:    7.8990170890
  - # 14
    frequency:    7.9014569049
  - # 15
    frequency:    9.2141280510
  - # 16
    frequency:   11.6662051170
  - # 17
    frequency:   13.6015681705
  - # 18
    frequency:   14.2843845797
  - # 19
    frequency:   14.2908040127
  - # 20
    frequency:   17.4931357138
  - # 21
    frequency:   17.4940619717
  - # 22
    frequency:   17.4948669248
  - # 23
    frequency:   17.4959658678
  - # 24
    frequency:   38.6669126008
  - # 25
    frequency:   38.6739984328
  - # 26
    frequency:   69.4286692697
  - # 27
    frequency:   69.4691900020

- q-position: [    0.0151515,    0.0000000,    0.0000000 ]
  distance:    0.0053271
  band:
  - # 1
    frequency:   -0.9762191682
  - # 2
    frequency:   -0.9714703929
  - # 3
    frequency:   -0.7677183552
  - # 4
    frequency:   -0.7547493068
  - # 5
    frequency:    0.0194345630
  - # 6
    frequency:    0.5434807934
  - # 7
    frequency:    0.5655179327
  - # 8
    frequency:    4.9725084865
  - # 9
    frequency:    4.9864353356
  - # 10
    frequency:    5.7344735795
  - # 11
    frequency:    7.7712404292
  - # 12
    frequency:    7.7739124529
  - # 13
    frequency:    7.8976903352
  - # 14
    frequency:    7.9031458951
  - # 15
    frequency:    9.2113080174
  - # 16
    frequency:   11.6576438048
  - # 17
    frequency:   13.6030372765
  - # 18
    frequency:   14.2755364973
  - # 19
    frequency:   14.2899572663
  - # 20
    frequency:   17.4933344583
  - # 21
    frequency:   17.4952145481
  - # 22
    frequency:   17.4954229876
  - # 23
    frequency:   17.4976768582
  - # 24
    frequency:   38.6669602493
  - # 25
    frequency:   38.6740201853
  - # 26
    frequency:   69.4222450115
  - # 27
    frequency:   69.4627526510

- q-position: [    0.0202020,    0.0000000,    0.0000000 ]
  distance:    0.0071028
  band:
  - # 1
    frequency:   -1.0120030808
  - # 2
    frequency:   -1.0058919369
  - # 3
    frequency:   -0.7717872896
  - # 4
    frequency:   -0.7481163952
  - # 5
    frequency:    0.0345760873
  - # 6
    frequency:    0.6874624135
  - # 7
    frequency:    0.7158866588
  - # 8
    frequency:    4.9678242081
  - # 9
    frequency:    4.9924746210
  - # 10
    frequency:    5.7308164891
  - # 11
    frequency:    7.7693372906
  - # 12
    frequency:    7.7740351770
  - # 13
    frequency:    7.8958768288
  - # 14
    frequency:    7.9054943660
  - # 15
    frequency:    9.2073861658
  - # 16
    frequency:   11.6456882499
  - # 17
    frequency:   13.6050800951
  - # 18
    frequency:   14.2631791581
  - # 19
    frequency:   14.2887589991
  - # 20
    frequency:   17.4936254489
  - # 21
    frequency:   17.4956869305
  - # 22
    frequency:   17.4973407631
  - # 23
    frequency:   17.5000474422
  - # 24
    frequency:   38.6670267260
  - # 25
    frequency:   38.6740507565
  - # 26
    frequency:   69.4132701325
  - # 27
    frequency:   69.4537594247

- q-position: [    0.0252525,    0.0000000,    0.0000000 ]
  distance:    0.0088785
  band:
  - # 1
    frequency:   -1.0468582637
  - # 2
    frequency:   -1.0396063511
  - # 3
    frequency:   -0.7706935963
  - # 4
    frequency:   -0.7325786320
  - # 5
    frequency:    0.0540786825
  - # 6
    frequency:    0.8194019223
  - # 7
    frequency:    0.8544321370
  - # 8
    frequency:    4.9618514990
  - # 9
    frequency:    5.0001495172
  - # 10
    frequency:    5.7261713291
  - # 11
    frequency:    7.7669123090
  - # 12
    frequency:    7.7741547064
  - # 13
    frequency:    7.8936222996
  - # 14
    frequency:    7.9084944060
  - # 15
    frequency:    9.2023887710
  - # 16
    frequency:   11.6303685899
  - # 17
    frequency:   13.6076828174
  - # 18
    frequency:   14.2473425736
  - # 19
    frequency:   14.2871965391
  - # 20
    frequency:   17.4940158188
  - # 21
    frequency:   17.4962754033
  - # 22
    frequency:   17.4998146076
  - # 23
    frequency:   17.5030659456
  - # 24
    frequency:   38.6671117927
  - # 25
    frequency:   38.6740902649
  - # 26
    frequency:   69.4017636499
  - # 27
    frequency:   69.4422293228

- q-position: [    0.0303030,    0.0000000,    0.0000000 ]
  distance:    0.0106542
  band:
  - # 1
    frequency:   -1.0784987515
  - # 2
    frequency:   -1.0699973045
  - # 3
    frequency:   -0.7659495766
  - # 4
    frequency:   -0.7093656622
  - # 5
    frequency:    0.0779763986
  - # 6
    frequency:    0.9425411900
  - # 7
    frequency:    0.9844639056
  - # 8
    frequency:    4.9546293553
  - # 9
    frequency:    5.0093934469
  - # 10
    frequency:    5.7205805222
  - # 11
    frequency:    7.7639684635
  - # 12
    frequency:    7.7742374904
  - # 13
    frequency:    7.8909881535
  - # 14
    frequency:    7.9121448221
  - # 15
    frequency:    9.1963497225
  - # 16
    frequency:   11.6117233703
  - # 17
    frequency:   13.6108278565
  - # 18
    frequency:   14.2280653803
  - # 19
    frequency:   14.2852538064
  - # 20
    frequency:   17.4945111105
  - # 21
    frequency:   17.4969724586
  - # 22
    frequency:   17.5028388692
  - # 23
    frequency:   17.5067222425
  - # 24
    frequency:   38.6672151330
  - # 25
    frequency:   38.6741388647
  - # 26
    frequency:   69.3877499212
  - # 27
    frequency:   69.4281866806

- q-position: [    0.0353535,    0.0000000,    0.0000000 ]
  distance:    0.0124299
  band:
  - # 1
    frequency:   -1.1060366305
  - # 2
    frequency:   -1.0959192814
  - # 3
    frequency:   -0.7584128340
  - # 4
    frequency:   -0.6788758919
  - # 5
    frequency:    0.1063218191
  - # 6
    frequency:    1.0590811185
  - # 7
    frequency:    1.1081545621
  - # 8
    frequency:    4.9462071048
  - # 9
    frequency:    5.0201259311
  - # 10
    frequency:    5.7140956914
  - # 11
    frequency:    7.7604993217
  - # 12
    frequency:    7.7742371058
  - # 13
    frequency:    7.8880534633
  - # 14
    frequency:    7.9164541955
  - # 15
    frequency:    9.1893105957
  - # 16
    frequency:   11.5897993997
  - # 17
    frequency:   13.6144939655
  - # 18
    frequency:   14.2053948798
  - # 19
    frequency:   14.2829114709
  - # 20
    frequency:   17.4951153605
  - # 21
    frequency:   17.4977716709
  - # 22
    frequency:   17.5064045405
  - # 23
    frequency:   17.5110062380
  - # 24
    frequency:   38.6673363442
  - # 25
    frequency:   38.6741967481
  - # 26
    frequency:   69.3712585747
  - # 27
    frequency:   69.4116610993

- q-position: [    0.0404040,    0.0000000,    0.0000000 ]
  distance:    0.0142056
  band:
  - # 1
    frequency:   -1.1292476066
  - # 2
    frequency:   -1.1169534097
  - # 3
    frequency:   -0.7485242151
  - # 4
    frequency:   -0.6408492669
  - # 5
    frequency:    0.1391966306
  - # 6
    frequency:    1.1705373591
  - # 7
    frequency:    1.2269425545
  - # 8
    frequency:    4.9366453330
  - # 9
    frequency:    5.0322530636
  - # 10
    frequency:    5.7067775028
  - # 11
    frequency:    7.7564878585
  - # 12
    frequency:    7.7740912152
  - # 13
    frequency:    7.8849172259
  - # 14
    frequency:    7.9214421127
  - # 15
    frequency:    9.1813207296
  - # 16
    frequency:   11.5646515801
  - # 17
    frequency:   13.6186563694
  - # 18
    frequency:   14.1793870909
  - # 19
    frequency:   14.2801471414
  - # 20
    frequency:   17.4958313996
  - # 21
    frequency:   17.4986674038
  - # 22
    frequency:   17.5105003142
  - # 23
    frequency:   17.5159069177
  - # 24
    frequency:   38.6674749274
  - # 25
    frequency:   38.6742641476
  - # 26
    frequency:   69.3523244249
  - # 27
    frequency:   69.3926873616

- q-position: [    0.0454545,    0.0000000,    0.0000000 ]
  distance:    0.0159813
  band:
  - # 1
    frequency:   -1.1481958757
  - # 2
    frequency:   -1.1330130155
  - # 3
    frequency:   -0.7364962777
  - # 4
    frequency:   -0.5944439268
  - # 5
    frequency:    0.1767293561
  - # 6
    frequency:    1.2779823721
  - # 7
    frequency:    1.3417945343
  - # 8
    frequency:    4.9260169124
  - # 9
    frequency:    5.0456680200
  - # 10
    frequency:    5.6986954666
  - # 11
    frequency:    7.7519073632
  - # 12
    frequency:    7.7737186407
  - # 13
    frequency:    7.8817004115
  - # 14
    frequency:    7.9271383699
  - # 15
    frequency:    9.1724373042
  - # 16
    frequency:   11.5363427175
  - # 17
    frequency:   13.6232869027
  - # 18
    frequency:   14.1501068209
  - # 19
    frequency:   14.2769355866
  - # 20
    frequency:   17.4966611366
  - # 21
    frequency:   17.4996545348
  - # 22
    frequency:   17.5151131752
  - # 23
    frequency:   17.5214118784
  - # 24
    frequency:   38.6676302753
  - # 25
    frequency:   38.6743413419
  - # 26
    frequency:   69.3309873729
  - # 27
    frequency:   69.3713053324

- q-position: [    0.0505051,    0.0000000,    0.0000000 ]
  distance:    0.0177569
  band:
  - # 1
    frequency:   -1.1630611452
  - # 2
    frequency:   -1.1441584343
  - # 3
    frequency:   -0.7224136811
  - # 4
    frequency:   -0.5381025353
  - # 5
    frequency:    0.2191247537
  - # 6
    frequency:    1.3821963715
  - # 7
    frequency:    1.4533663648
  - # 8
    frequency:    4.9144080996
  - # 9
    frequency:    5.0602515846
  - # 10
    frequency:    5.6899277006
  - # 11
    frequency:    7.7467242808
  - # 12
    frequency:    7.7730175611
  - # 13
    frequency:    7.8785468139
  - # 14
    frequency:    7.9335803208
  - # 15
    frequency:    9.1627254152
  - # 16
    frequency:   11.5049433180
  - # 17
    frequency:   13.6283541346
  - # 18
    frequency:   14.1176277669
  - # 19
    frequency:   14.2732489831
  - # 20
    frequency:   17.4976057681
  - # 21
    frequency:   17.5007282537
  - # 22
    frequency:   17.5202287235
  - # 23
    frequency:   17.5275071419
  - # 24
    frequency:   38.6678016571
  - # 25
    frequency:   38.6744286615
  - # 26
    frequency:   69.3072922930
  - # 27
    frequency:   69.3475598446

- q-position: [    0.0555556,    0.0000000,    0.0000000 ]
  distance:    0.0195326
  band:
  - # 1
    frequency:   -1.1740601516
  - # 2
    frequency:   -1.1505106712
  - # 3
    frequency:   -0.7062825548
  - # 4
    frequency:   -0.4690635152
  - # 5
    frequency:    0.2667094326
  - # 6
    frequency:    1.4837610604
  - # 7
    frequency:    1.5621028451
  - # 8
    frequency:    4.9019196606
  - # 9
    frequency:    5.0758726781
  - # 10
    frequency:    5.6805606593
  - # 11
    frequency:    7.7409025667
  - # 12
    frequency:    7.7718665006
  - # 13
    frequency:    7.8756210634
  - # 14
    frequency:    7.9408087982
  - # 15
    frequency:    9.1522581378
  - # 16
    frequency:   11.4705313754
  - # 17
    frequency:   13.6338234490
  - # 18
    frequency:   14.0820326771
  - # 19
    frequency:   14.2690571920
  - # 20
    frequency:   17.4986659196
  - # 21
    frequency:   17.5018839303
  - # 22
    frequency:   17.5258313640
  - # 23
    frequency:   17.5341771177
  - # 24
    frequency:   38.6679882024
  - # 25
    frequency:   38.6745264983
  - # 26
    frequency:   69.2812889037
  - # 27
    frequency:   69.3215005713

- q-position: [    0.0606061,    0.0000000,    0.0000000 ]
  distance:    0.0213083
  band:
  - # 1
    frequency:   -1.1814110688
  - # 2
    frequency:   -1.1522092210
  - # 3
    frequency:   -0.6880535870
  - # 4
    frequency:   -0.3818485468
  - # 5
    frequency:    0.3199868774
  - # 6
    frequency:    1.5831188213
  - # 7
    frequency:    1.6683011744
  - # 8
    frequency:    4.8886679799
  - # 9
    frequency:    5.0923888720
  - # 10
    frequency:    5.6706888441
  - # 11
    frequency:    7.7344089744
  - # 12
    frequency:    7.7701302165
  - # 13
    frequency:    7.8731017138
  - # 14
    frequency:    7.9488631903
  - # 15
    frequency:    9.1411165776
  - # 16
    frequency:   11.4331921577
  - # 17
    frequency:   13.6396570151
  - # 18
    frequency:   14.0434136299
  - # 19
    frequency:   14.2643280579
  - # 20
    frequency:   17.4998417360
  - # 21
    frequency:   17.5031170335
  - # 22
    frequency:   17.5319044329
  - # 23
    frequency:   17.5414046392
  - # 24
    frequency:   38.6681888809
  - # 25
    frequency:   38.6746353162
  - # 26
    frequency:   69.2530316263
  - # 27
    frequency:   69.2931818834

- q-position: [    0.0656566,    0.0000000,    0.0000000 ]
  distance:    0.0230840
  band:
  - # 1
    frequency:   -1.1853176028
  - # 2
    frequency:   -1.1493888113
  - # 3
    frequency:   -0.6676310057
  - # 4
    frequency:   -0.2615941268
  - # 5
    frequency:    0.3796364423
  - # 6
    frequency:    1.6806108484
  - # 7
    frequency:    1.7721526264
  - # 8
    frequency:    4.8747860987
  - # 9
    frequency:    5.1096468816
  - # 10
    frequency:    5.6604145112
  - # 11
    frequency:    7.7272186504
  - # 12
    frequency:    7.7676720203
  - # 13
    frequency:    7.8711679003
  - # 14
    frequency:    7.9577762923
  - # 15
    frequency:    9.1293899019
  - # 16
    frequency:   11.3930180006
  - # 17
    frequency:   13.6458134999
  - # 18
    frequency:   14.0018725733
  - # 19
    frequency:   14.2590277304
  - # 20
    frequency:   17.5011329355
  - # 21
    frequency:   17.5044230859
  - # 22
    frequency:   17.5384302992
  - # 23
    frequency:   17.5491710377
  - # 24
    frequency:   38.6684024819
  - # 25
    frequency:   38.6747556652
  - # 26
    frequency:   69.2225794289
  - # 27
    frequency:   69.2626626941

- q-position: [    0.0707071,    0.0000000,    0.0000000 ]
  distance:    0.0248597
  band:
  - # 1
    frequency:   -1.1859622741
  - # 2
    frequency:   -1.1421631668
  - # 3
    frequency:   -0.6448728089
  - # 4
    frequency:    0.1008444368
  - # 5
    frequency:    0.4462256943
  - # 6
    frequency:    1.7765021328
  - # 7
    frequency:    1.8737707887
  - # 8
    frequency:    4.8604246233
  - # 9
    frequency:    5.1274830343
  - # 10
    frequency:    5.6498474048
  - # 11
    frequency:    7.7193204634
  - # 12
    frequency:    7.7643716347
  - # 13
    frequency:    7.8699804872
  - # 14
    frequency:    7.9675694856
  - # 15
    frequency:    9.1171753488
  - # 16
    frequency:   11.3501081154
  - # 17
    frequency:   13.6522471515
  - # 18
    frequency:   13.9575224924
  - # 19
    frequency:   14.2531210039
  - # 20
    frequency:   17.5025388400
  - # 21
    frequency:   17.5057976425
  - # 22
    frequency:   17.5453904582
  - # 23
    frequency:   17.5574562326
  - # 24
    frequency:   38.6686275917
  - # 25
    frequency:   38.6748881965
  - # 26
    frequency:   69.1899956578
  - # 27
    frequency:   69.2300062905

- q-position: [    0.0757576,    0.0000000,    0.0000000 ]
  distance:    0.0266354
  band:
  - # 1
    frequency:   -1.1835040134
  - # 2
    frequency:   -1.1306098658
  - # 3
    frequency:   -0.6195839780
  - # 4
    frequency:    0.2974488139
  - # 5
    frequency:    0.5193503808
  - # 6
    frequency:    1.8709980005
  - # 7
    frequency:    1.9732112991
  - # 8
    frequency:    4.8457524330
  - # 9
    frequency:    5.1457237178
  - # 10
    frequency:    5.6391045461
  - # 11
    frequency:    7.7107216365
  - # 12
    frequency:    7.7601438720
  - # 13
    frequency:    7.8696624450
  - # 14
    frequency:    7.9782486464
  - # 15
    frequency:    9.1045782070
  - # 16
    frequency:   11.3045684236
  - # 17
    frequency:   13.6589051746
  - # 18
    frequency:   13.9104902735
  - # 19
    frequency:   14.2465716723
  - # 20
    frequency:   17.5040583851
  - # 21
    frequency:   17.5072362894
  - # 22
    frequency:   17.5527656231
  - # 23
    frequency:   17.5662388312
  - # 24
    frequency:   38.6688625712
  - # 25
    frequency:   38.6750336786
  - # 26
    frequency:   69.1553478567
  - # 27
    frequency:   69.1952801518

- q-position: [    0.0808081,    0.0000000,    0.0000000 ]
  distance:    0.0284111
  band:
  - # 1
    frequency:   -1.1780777413
  - # 2
    frequency:   -1.1147531668
  - # 3
    frequency:   -0.5915020004
  - # 4
    frequency:    0.4085804206
  - # 5
    frequency:    0.5968884311
  - # 6
    frequency:    1.9642550739
  - # 7
    frequency:    2.0704860821
  - # 8
    frequency:    4.8309571087
  - # 9
    frequency:    5.1641858244
  - # 10
    frequency:    5.6283101152
  - # 11
    frequency:    7.7014514215
  - # 12
    frequency:    7.7549510038
  - # 13
    frequency:    7.8702856111
  - # 14
    frequency:    7.9898010009
  - # 15
    frequency:    9.0917117608
  - # 16
    frequency:   11.2565114258
  - # 17
    frequency:   13.6657196175
  - # 18
    frequency:   13.8609250457
  - # 19
    frequency:   14.2393428958
  - # 20
    frequency:   17.5056901151
  - # 21
    frequency:   17.5087346568
  - # 22
    frequency:   17.5605358185
  - # 23
    frequency:   17.5754962335
  - # 24
    frequency:   38.6691055363
  - # 25
    frequency:   38.6751930126
  - # 26
    frequency:   69.1187075730
  - # 27
    frequency:   69.1585557561

- q-position: [    0.0858586,    0.0000000,    0.0000000 ]
  distance:    0.0301868
  band:
  - # 1
    frequency:   -1.1697947799
  - # 2
    frequency:   -1.0945430729
  - # 3
    frequency:   -0.5602715047
  - # 4
    frequency:    0.4981687004
  - # 5
    frequency:    0.6759003809
  - # 6
    frequency:    2.0563884495
  - # 7
    frequency:    2.1655739786
  - # 8
    frequency:    4.8162449885
  - # 9
    frequency:    5.1826772174
  - # 10
    frequency:    5.6175954631
  - # 11
    frequency:    7.6915637206
  - # 12
    frequency:    7.7488037485
  - # 13
    frequency:    7.8718689237
  - # 14
    frequency:    8.0021929690
  - # 15
    frequency:    9.0786971865
  - # 16
    frequency:   11.2060561179
  - # 17
    frequency:   13.6725761922
  - # 18
    frequency:   13.8090295669
  - # 19
    frequency:   14.2313975764
  - # 20
    frequency:   17.5074321590
  - # 21
    frequency:   17.5102884515
  - # 22
    frequency:   17.5686804752
  - # 23
    frequency:   17.5852047396
  - # 24
    frequency:   38.6693543434
  - # 25
    frequency:   38.6753672424
  - # 26
    frequency:   69.0801501532
  - # 27
    frequency:   69.1199083757

- q-position: [    0.0909091,    0.0000000,    0.0000000 ]
  distance:    0.0319625
  band:
  - # 1
    frequency:   -1.1587435144
  - # 2
    frequency:   -1.0698294986
  - # 3
    frequency:   -0.5254007076
  - # 4
    frequency:    0.5790589004
  - # 5
    frequency:    0.7542183833
  - # 6
    frequency:    2.1474762587
  - # 7
    frequency:    2.2584290151
  - # 8
    frequency:    4.8018407470
  - # 9
    frequency:    5.2009972704
  - # 10
    frequency:    5.6070992816
  - # 11
    frequency:    7.6811386762
  - # 12
    frequency:    7.7417515580
  - # 13
    frequency:    7.8743874685
  - # 14
    frequency:    8.0153689152
  - # 15
    frequency:    9.0656633821
  - # 16
    frequency:   11.1533279674
  - # 17
    frequency:   13.6791264906
  - # 18
    frequency:   13.7552481912
  - # 19
    frequency:   14.2226987371
  - # 20
    frequency:   17.5092821749
  - # 21
    frequency:   17.5118935199
  - # 22
    frequency:   17.5771785254
  - # 23
    frequency:   17.5953396593
  - # 24
    frequency:   38.6696065847
  - # 25
    frequency:   38.6755575582
  - # 26
    frequency:   69.0397545274
  - # 27
    frequency:   69.0794168608

- q-position: [    0.0959596,    0.0000000,    0.0000000 ]
  distance:    0.0337382
  band:
  - # 1
    frequency:   -1.1449899854
  - # 2
    frequency:   -1.0403302133
  - # 3
    frequency:   -0.4861837152
  - # 4
    frequency:    0.6563213667
  - # 5
    frequency:    0.8308252958
  - # 6
    frequency:    2.2375623899
  - # 7
    frequency:    2.3489871647
  - # 8
    frequency:    4.7879863761
  - # 9
    frequency:    5.2189375598
  - # 10
    frequency:    5.5969679406
  - # 11
    frequency:    7.6702833066
  - # 12
    frequency:    7.7338676272
  - # 13
    frequency:    7.8777869246
  - # 14
    frequency:    8.0292506634
  - # 15
    frequency:    9.0527466955
  - # 16
    frequency:   11.0984589601
  - # 17
    frequency:   13.6809965408
  - # 18
    frequency:   13.7040584652
  - # 19
    frequency:   14.2132099021
  - # 20
    frequency:   17.5112372291
  - # 21
    frequency:   17.5135459772
  - # 22
    frequency:   17.5860084984
  - # 23
    frequency:   17.6058754241
  - # 24
    frequency:   38.6698595984
  - # 25
    frequency:   38.6757652853
  - # 26
    frequency:   68.9976029832
  - # 27
    frequency:   69.0371634136

- q-position: [    0.1010101,    0.0000000,    0.0000000 ]
  distance:    0.0355139
  band:
  - # 1
    frequency:   -1.1285782269
  - # 2
    frequency:   -1.0055898700
  - # 3
    frequency:   -0.4415512186
  - # 4
    frequency:    0.7321438509
  - # 5
    frequency:    0.9054309692
  - # 6
    frequency:    2.3266579186
  - # 7
    frequency:    2.4371722196
  - # 8
    frequency:    4.7749394377
  - # 9
    frequency:    5.2362828442
  - # 10
    frequency:    5.5873559477
  - # 11
    frequency:    7.6591312680
  - # 12
    frequency:    7.7252345316
  - # 13
    frequency:    7.8819975160
  - # 14
    frequency:    8.0437376397
  - # 15
    frequency:    9.0400905019
  - # 16
    frequency:   11.0415877335
  - # 17
    frequency:   13.6366125029
  - # 18
    frequency:   13.6971455523
  - # 19
    frequency:   14.2028954743
  - # 20
    frequency:   17.5132934927
  - # 21
    frequency:   17.5152425186
  - # 22
    frequency:   17.5951486140
  - # 23
    frequency:   17.6167856995
  - # 24
    frequency:   38.6701104999
  - # 25
    frequency:   38.6759918554
  - # 26
    frequency:   68.9537809304
  - # 27
    frequency:   68.9932333522

- q-position: [    0.1060606,    0.0000000,    0.0000000 ]
  distance:    0.0372896
  band:
  - # 1
    frequency:   -1.1095302085
  - # 2
    frequency:   -0.9649240534
  - # 3
    frequency:   -0.3897493955
  - # 4
    frequency:    0.8074490697
  - # 5
    frequency:    0.9780720605
  - # 6
    frequency:    2.4147416465
  - # 7
    frequency:    2.5229012391
  - # 8
    frequency:    4.7629704439
  - # 9
    frequency:    5.2528125586
  - # 10
    frequency:    5.5784263982
  - # 11
    frequency:    7.6478417949
  - # 12
    frequency:    7.7159337872
  - # 13
    frequency:    7.8869441807
  - # 14
    frequency:    8.0587075473
  - # 15
    frequency:    9.0278445503
  - # 16
    frequency:   10.9828598092
  - # 17
    frequency:   13.5771714255
  - # 18
    frequency:   13.7034315587
  - # 19
    frequency:   14.1917211040
  - # 20
    frequency:   17.5154453305
  - # 21
    frequency:   17.5169813396
  - # 22
    frequency:   17.6045768739
  - # 23
    frequency:   17.6280434994
  - # 24
    frequency:   38.6703562363
  - # 25
    frequency:   38.6762387542
  - # 26
    frequency:   68.9083766563
  - # 27
    frequency:   68.9477148658

- q-position: [    0.1111111,    0.0000000,    0.0000000 ]
  distance:    0.0390653
  band:
  - # 1
    frequency:   -1.0878452506
  - # 2
    frequency:   -0.9173350992
  - # 3
    frequency:   -0.3275195427
  - # 4
    frequency:    0.8825696985
  - # 5
    frequency:    1.0489025304
  - # 6
    frequency:    2.5017600658
  - # 7
    frequency:    2.6060899384
  - # 8
    frequency:    4.7523592265
  - # 9
    frequency:    5.2683031857
  - # 10
    frequency:    5.5703511226
  - # 11
    frequency:    7.6365978302
  - # 12
    frequency:    7.7060398238
  - # 13
    frequency:    7.8925524690
  - # 14
    frequency:    8.0740175530
  - # 15
    frequency:    9.0161639709
  - # 16
    frequency:   10.9224279375
  - # 17
    frequency:   13.5153672788
  - # 18
    frequency:   13.7103495438
  - # 19
    frequency:   14.1796540482
  - # 20
    frequency:   17.5176816808
  - # 21
    frequency:   17.5187657648
  - # 22
    frequency:   17.6142711506
  - # 23
    frequency:   17.6396213005
  - # 24
    frequency:   38.6705936690
  - # 25
    frequency:   38.6765074457
  - # 26
    frequency:   68.8614810735
  - # 27
    frequency:   68.9006987622

- q-position: [    0.1161616,    0.0000000,    0.0000000 ]
  distance:    0.0408410
  band:
  - # 1
    frequency:   -1.0634987468
  - # 2
    frequency:   -0.8613709194
  - # 3
    frequency:   -0.2472793046
  - # 4
    frequency:    0.9575546237
  - # 5
    frequency:    1.1181043150
  - # 6
    frequency:    2.5876270127
  - # 7
    frequency:    2.6866582923
  - # 8
    frequency:    4.7433901717
  - # 9
    frequency:    5.2825320629
  - # 10
    frequency:    5.5633100234
  - # 11
    frequency:    7.6256033256
  - # 12
    frequency:    7.6956173829
  - # 13
    frequency:    7.8987511596
  - # 14
    frequency:    8.0895060387
  - # 15
    frequency:    9.0052077938
  - # 16
    frequency:   10.8604525700
  - # 17
    frequency:   13.4519146511
  - # 18
    frequency:   13.7173198260
  - # 19
    frequency:   14.1666635130
  - # 20
    frequency:   17.5199649390
  - # 21
    frequency:   17.5206253758
  - # 22
    frequency:   17.6242092709
  - # 23
    frequency:   17.6514911567
  - # 24
    frequency:   38.6708196770
  - # 25
    frequency:   38.6767992749
  - # 26
    frequency:   68.8131874596
  - # 27
    frequency:   68.8522782067

- q-position: [    0.1212121,    0.0000000,    0.0000000 ]
  distance:    0.0426167
  band:
  - # 1
    frequency:   -1.0364399649
  - # 2
    frequency:   -0.7948607835
  - # 3
    frequency:   -0.1167383012
  - # 4
    frequency:    1.0323174526
  - # 5
    frequency:    1.1858537279
  - # 6
    frequency:    2.6722232544
  - # 7
    frequency:    2.7645365467
  - # 8
    frequency:    4.7363462409
  - # 9
    frequency:    5.2952833628
  - # 10
    frequency:    5.5574888524