nqpoint: 300    
npath: 3      
segment_nqpoint:
- 100
- 100
- 100
labels:
- [ 'G', 'M' ]
- [ 'M', 'K' ]
- [ 'K', 'G' ]
reciprocal_lattice:
- [   0.29845984,   0.17231587,   0.00000000 ] # a*
- [   0.00000000,   0.34463173,   0.00000000 ] # b*
- [   0.00000000,   0.00000000,   0.04045184 ] # c*
natom: 6      
lattice:
- [     3.350534560726287,     0.000000000000000,     0.000000000000000 ] # a
- [    -1.675267280363144,     2.901648045847717,     0.000000000000000 ] # b
- [     0.000000000000000,     0.000000000000000,    24.720755628557793 ] # c
points:
- symbol: C # 1
  coordinates: [  0.333332985432215,  0.666666983183674,  0.587397964568227 ]
  mass: 12.010700
- symbol: Cl # 2
  coordinates: [  0.666666984744047,  0.333332985985145,  0.364066541299533 ]
  mass: 35.453000
- symbol: N # 3
  coordinates: [  0.000000000000000,  0.000000000000000,  0.480288275122944 ]
  mass: 14.006700
- symbol: N # 4
  coordinates: [  0.333332985432215,  0.666666983183674,  0.635933458700467 ]
  mass: 14.006700
- symbol: Sc # 5
  coordinates: [  0.333332985432215,  0.666666983183674,  0.432607411180451 ]
  mass: 44.955912
- symbol: Sc # 6
  coordinates: [  0.666666984744047,  0.333332985985145,  0.529804061806839 ]
  mass: 44.955912

phonon:
- q-position: [    0.0000000,    0.0000000,    0.0000000 ]
  distance:    0.0000000
  band:
  - # 1
    frequency:   -2.6683507729
  - # 2
    frequency:   -2.6683507729
  - # 3
    frequency:   -0.0000062461
  - # 4
    frequency:   -0.0000002785
  - # 5
    frequency:    0.0000061456
  - # 6
    frequency:    4.1362429712
  - # 7
    frequency:    4.1362429712
  - # 8
    frequency:    6.0302406387
  - # 9
    frequency:    6.9032304566
  - # 10
    frequency:    6.9032304566
  - # 11
    frequency:    8.5438777087
  - # 12
    frequency:    8.5438777087
  - # 13
    frequency:    9.2000767173
  - # 14
    frequency:   11.2264547919
  - # 15
    frequency:   13.1194018683
  - # 16
    frequency:   13.3446598970
  - # 17
    frequency:   13.3446598970
  - # 18
    frequency:   61.8535561017

- q-position: [    0.0050505,    0.0000000,    0.0000000 ]
  distance:    0.0017406
  band:
  - # 1
    frequency:   -2.6681041173
  - # 2
    frequency:   -2.6680945836
  - # 3
    frequency:    0.0020612911
  - # 4
    frequency:    0.1008951448
  - # 5
    frequency:    0.1009472790
  - # 6
    frequency:    4.1364908061
  - # 7
    frequency:    4.1375743618
  - # 8
    frequency:    6.0300446447
  - # 9
    frequency:    6.9029261665
  - # 10
    frequency:    6.9032778066
  - # 11
    frequency:    8.5438329908
  - # 12
    frequency:    8.5439183300
  - # 13
    frequency:    9.1999339490
  - # 14
    frequency:   11.2254682127
  - # 15
    frequency:   13.1193259563
  - # 16
    frequency:   13.3439257355
  - # 17
    frequency:   13.3442913268
  - # 18
    frequency:   61.8534928355

- q-position: [    0.0101010,    0.0000000,    0.0000000 ]
  distance:    0.0034811
  band:
  - # 1
    frequency:   -2.6673663793
  - # 2
    frequency:   -2.6673317796
  - # 3
    frequency:    0.0082339444
  - # 4
    frequency:    0.2017071235
  - # 5
    frequency:    0.2019221985
  - # 6
    frequency:    4.1372356365
  - # 7
    frequency:    4.1415581011
  - # 8
    frequency:    6.0294560391
  - # 9
    frequency:    6.9020156988
  - # 10
    frequency:    6.9034222294
  - # 11
    frequency:    8.5437004425
  - # 12
    frequency:    8.5440396806
  - # 13
    frequency:    9.1995075520
  - # 14
    frequency:   11.2225089695
  - # 15
    frequency:   13.1190989854
  - # 16
    frequency:   13.3417244118
  - # 17
    frequency:   13.3431855045
  - # 18
    frequency:   61.8533031880

- q-position: [    0.0151515,    0.0000000,    0.0000000 ]
  distance:    0.0052217
  band:
  - # 1
    frequency:   -2.6661441907
  - # 2
    frequency:   -2.6660794938
  - # 3
    frequency:    0.0184849968
  - # 4
    frequency:    0.3023526122
  - # 5
    frequency:    0.3029511196
  - # 6
    frequency:    4.1384814489
  - # 7
    frequency:    4.1481631471
  - # 8
    frequency:    6.0284729795
  - # 9
    frequency:    6.9005062380
  - # 10
    frequency:    6.9036707928
  - # 11
    frequency:    8.5434848852
  - # 12
    frequency:    8.5442402158
  - # 13
    frequency:    9.1988032239
  - # 14
    frequency:   11.2175786168
  - # 15
    frequency:   13.1187229220
  - # 16
    frequency:   13.3380596798
  - # 17
    frequency:   13.3413420990
  - # 18
    frequency:   61.8529876124

- q-position: [    0.0202020,    0.0000000,    0.0000000 ]
  distance:    0.0069623
  band:
  - # 1
    frequency:   -2.6644484304
  - # 2
    frequency:   -2.6643657555
  - # 3
    frequency:    0.0327601352
  - # 4
    frequency:    0.4027480010
  - # 5
    frequency:    0.4040578823
  - # 6
    frequency:    4.1402349157
  - # 7
    frequency:    4.1573385976
  - # 8
    frequency:    6.0270924900
  - # 9
    frequency:    6.8984096818
  - # 10
    frequency:    6.9040351114
  - # 11
    frequency:    8.5431943698
  - # 12
    frequency:    8.5445173466
  - # 13
    frequency:    9.1978303730
  - # 14
    frequency:   11.2106799777
  - # 15
    frequency:   13.1181999162
  - # 16
    frequency:   13.3329387317
  - # 17
    frequency:   13.3387605705
  - # 18
    frequency:   61.8525468625

- q-position: [    0.0252525,    0.0000000,    0.0000000 ]
  distance:    0.0087028
  band:
  - # 1
    frequency:   -2.6622939767
  - # 2
    frequency:   -2.6622287158
  - # 3
    frequency:    0.0509847653
  - # 4
    frequency:    0.5028093196
  - # 5
    frequency:    0.5052626357
  - # 6
    frequency:    4.1425054369
  - # 7
    frequency:    4.1690148937
  - # 8
    frequency:    6.0253105999
  - # 9
    frequency:    6.8957425260
  - # 10
    frequency:    6.9045311045
  - # 11
    frequency:    8.5428401950
  - # 12
    frequency:    8.5448674203
  - # 13
    frequency:    9.1966019909
  - # 14
    frequency:   11.2018174793
  - # 15
    frequency:   13.1175304984
  - # 16
    frequency:   13.3263737277
  - # 17
    frequency:   13.3354401894
  - # 18
    frequency:   61.8519819900

- q-position: [    0.0303030,    0.0000000,    0.0000000 ]
  distance:    0.0104434
  band:
  - # 1
    frequency:   -2.6597155929
  - # 2
    frequency:   -2.6596993867
  - # 3
    frequency:    0.0730653691
  - # 4
    frequency:    0.6024522381
  - # 5
    frequency:    0.6065807754
  - # 6
    frequency:    4.1453051921
  - # 7
    frequency:    4.1831054118
  - # 8
    frequency:    6.0231225350
  - # 9
    frequency:    6.8925257026
  - # 10
    frequency:    6.9051786691
  - # 11
    frequency:    8.5424369223
  - # 12
    frequency:    8.5452856941
  - # 13
    frequency:    9.1951344787
  - # 14
    frequency:   11.1909975981
  - # 15
    frequency:   13.1167107889
  - # 16
    frequency:   13.3183842260
  - # 17
    frequency:   13.3313800614
  - # 18
    frequency:   61.8512943413

- q-position: [    0.0353535,    0.0000000,    0.0000000 ]
  distance:    0.0121840
  band:
  - # 1
    frequency:   -2.6568813656
  - # 2
    frequency:   -2.6566865253
  - # 3
    frequency:    0.0988911380
  - # 4
    frequency:    0.7015921569
  - # 5
    frequency:    0.7080220140
  - # 6
    frequency:    4.1486492000
  - # 7
    frequency:    4.1995083618
  - # 8
    frequency:    6.0205229550
  - # 9
    frequency:    6.8887843707
  - # 10
    frequency:    6.9060012792
  - # 11
    frequency:    8.5420023799
  - # 12
    frequency:    8.5457663070
  - # 13
    frequency:    9.1934474344
  - # 14
    frequency:   11.1782293916
  - # 15
    frequency:   13.1157283606
  - # 16
    frequency:   13.3090008964
  - # 17
    frequency:   13.3265791605
  - # 18
    frequency:   61.8504855530

- q-position: [    0.0404040,    0.0000000,    0.0000000 ]
  distance:    0.0139245
  band:
  - # 1
    frequency:   -2.6537872540
  - # 2
    frequency:   -2.6532801665
  - # 3
    frequency:    0.1283358177
  - # 4
    frequency:    0.8001443917
  - # 5
    frequency:    0.8095896075
  - # 6
    frequency:    4.1525553789
  - # 7
    frequency:    4.2181089019
  - # 8
    frequency:    6.0175062327
  - # 9
    frequency:    6.8845476589
  - # 10
    frequency:    6.9070255264
  - # 11
    frequency:    8.5415576432
  - # 12
    frequency:    8.5463022507
  - # 13
    frequency:    9.1915634076
  - # 14
    frequency:   11.1635250892
  - # 15
    frequency:   13.1145561142
  - # 16
    frequency:   13.2982711829
  - # 17
    frequency:   13.3210363675
  - # 18
    frequency:   61.8495575470

- q-position: [    0.0454545,    0.0000000,    0.0000000 ]
  distance:    0.0156651
  band:
  - # 1
    frequency:   -2.6504990354
  - # 2
    frequency:   -2.6495075903
  - # 3
    frequency:    0.1612596985
  - # 4
    frequency:    0.8980244530
  - # 5
    frequency:    0.9112797529
  - # 6
    frequency:    4.1570446005
  - # 7
    frequency:    4.2387813763
  - # 8
    frequency:    6.0140667693
  - # 9
    frequency:    6.8798483610
  - # 10
    frequency:    6.9082806152
  - # 11
    frequency:    8.5411269795
  - # 12
    frequency:    8.5468853438
  - # 13
    frequency:    9.1895076288
  - # 14
    frequency:   11.1469007125
  - # 15
    frequency:   13.1131430658
  - # 16
    frequency:   13.2862680454
  - # 17
    frequency:   13.3147505163
  - # 18
    frequency:   61.8485125239

- q-position: [    0.0505051,    0.0000000,    0.0000000 ]
  distance:    0.0174056
  band:
  - # 1
    frequency:   -2.6470852505
  - # 2
    frequency:   -2.6453981947
  - # 3
    frequency:    0.1975116980
  - # 4
    frequency:    0.9951484129
  - # 5
    frequency:    1.0130811621
  - # 6
    frequency:    4.1621407287
  - # 7
    frequency:    4.2613915880
  - # 8
    frequency:    6.0101993379
  - # 9
    frequency:    6.8747225837
  - # 10
    frequency:    6.9097978333
  - # 11
    frequency:    8.5407377449
  - # 12
    frequency:    8.5475062112
  - # 13
    frequency:    9.1873077236
  - # 14
    frequency:   11.1283766943
  - # 15
    frequency:   13.1114001865
  - # 16
    frequency:   13.2731036687
  - # 17
    frequency:   13.3077204447
  - # 18
    frequency:   61.8473529557

- q-position: [    0.0555556,    0.0000000,    0.0000000 ]
  distance:    0.0191462
  band:
  - # 1
    frequency:   -2.6436153633
  - # 2
    frequency:   -2.6409831361
  - # 3
    frequency:    0.2369314855
  - # 4
    frequency:    1.0914333470
  - # 5
    frequency:    1.1149748090
  - # 6
    frequency:    4.1678706329
  - # 7
    frequency:    4.2857990305
  - # 8
    frequency:    6.0058994486
  - # 9
    frequency:    6.8692093487
  - # 10
    frequency:    6.9116100121
  - # 11
    frequency:    8.5404202191
  - # 12
    frequency:    8.5481542742
  - # 13
    frequency:    9.1849934182
  - # 14
    frequency:   11.1079784665
  - # 15
    frequency:   13.1091783485
  - # 16
    frequency:   13.2589511140
  - # 17
    frequency:   13.2999450517
  - # 18
    frequency:   61.8460815787

- q-position: [    0.0606061,    0.0000000,    0.0000000 ]
  distance:    0.0208868
  band:
  - # 1
    frequency:   -2.6401579423
  - # 2
    frequency:   -2.6362950092
  - # 3
    frequency:    0.2793516166
  - # 4
    frequency:    1.1867978384
  - # 5
    frequency:    1.2169338398
  - # 6
    frequency:    4.1742641669
  - # 7
    frequency:    4.3118590127
  - # 8
    frequency:    6.0011637292
  - # 9
    frequency:    6.8633501518
  - # 10
    frequency:    6.9137509964
  - # 11
    frequency:    8.5402073668
  - # 12
    frequency:    8.5488177515
  - # 13
    frequency:    9.1825962478
  - # 14
    frequency:   11.0857369893
  - # 15
    frequency:   13.1062344261
  - # 16
    frequency:   13.2440778874
  - # 17
    frequency:   13.2914233597
  - # 18
    frequency:   61.8447013836

- q-position: [    0.0656566,    0.0000000,    0.0000000 ]
  distance:    0.0226273
  band:
  - # 1
    frequency:   -2.6367789320
  - # 2
    frequency:   -2.6313675689
  - # 3
    frequency:    0.3245996487
  - # 4
    frequency:    1.2811625259
  - # 5
    frequency:    1.3189236254
  - # 6
    frequency:    4.1813540988
  - # 7
    frequency:    4.3394246296
  - # 8
    frequency:    5.9959903152
  - # 9
    frequency:    6.8571884816
  - # 10
    frequency:    6.9162551385
  - # 11
    frequency:    8.5401345138
  - # 12
    frequency:    8.5494836755
  - # 13
    frequency:    9.1801492750
  - # 14
    frequency:   11.0616891988
  - # 15
    frequency:   13.1021830636
  - # 16
    frequency:   13.2288939378
  - # 17
    frequency:   13.2821545805
  - # 18
    frequency:   61.8432156067

- q-position: [    0.0707071,    0.0000000,    0.0000000 ]
  distance:    0.0243679
  band:
  - # 1
    frequency:   -2.6335400854
  - # 2
    frequency:   -2.6262354939
  - # 3
    frequency:    0.3725002209
  - # 4
    frequency:    1.3744506847
  - # 5
    frequency:    1.4209019325
  - # 6
    frequency:    4.1891759838
  - # 7
    frequency:    4.3683485459
  - # 8
    frequency:    5.9903792433
  - # 9
    frequency:    6.8507693037
  - # 10
    frequency:    6.9191568302
  - # 11
    frequency:    8.5402389298
  - # 12
    frequency:    8.5501379262
  - # 13
    frequency:    9.1776868264
  - # 14
    frequency:   11.0358783553
  - # 15
    frequency:   13.0964435726
  - # 16
    frequency:   13.2140046345
  - # 17
    frequency:   13.2721381868
  - # 18
    frequency:   61.8416277190

- q-position: [    0.0757576,    0.0000000,    0.0000000 ]
  distance:    0.0261085
  band:
  - # 1
    frequency:   -2.6304976202
  - # 2
    frequency:   -2.6209341877
  - # 3
    frequency:    0.4228770802
  - # 4
    frequency:    1.4665888231
  - # 5
    frequency:    1.5228191846
  - # 6
    frequency:    4.1977679639
  - # 7
    frequency:    4.3984845716
  - # 8
    frequency:    5.9843328480
  - # 9
    frequency:    6.8441385159
  - # 10
    frequency:    6.9224900841
  - # 11
    frequency:    8.5405593107
  - # 12
    frequency:    8.5507652829
  - # 13
    frequency:    9.1752442568
  - # 14
    frequency:   11.0083542800
  - # 15
    frequency:   13.0882293698
  - # 16
    frequency:   13.2002213252
  - # 17
    frequency:   13.2613739853
  - # 18
    frequency:   61.8399414152

- q-position: [    0.0808081,    0.0000000,    0.0000000 ]
  distance:    0.0278490
  band:
  - # 1
    frequency:   -2.6277011554
  - # 2
    frequency:   -2.6154996082
  - # 3
    frequency:    0.4755550405
  - # 4
    frequency:    1.5575072854
  - # 5
    frequency:    1.6246187832
  - # 6
    frequency:    4.2071704866
  - # 7
    frequency:    4.4296890229
  - # 8
    frequency:    5.9778561575
  - # 9
    frequency:    6.8373423826
  - # 10
    frequency:    6.9262881696
  - # 11
    frequency:    8.5411351584
  - # 12
    frequency:    8.5513494958
  - # 13
    frequency:    9.1728577450
  - # 14
    frequency:   10.9791734736
  - # 15
    frequency:   13.0766815703
  - # 16
    frequency:   13.1884278611
  - # 17
    frequency:   13.2498621943
  - # 18
    frequency:   61.8381606020

- q-position: [    0.0858586,    0.0000000,    0.0000000 ]
  distance:    0.0295896
  band:
  - # 1
    frequency:   -2.6251929718
  - # 2
    frequency:   -2.6099681195
  - # 3
    frequency:    0.5303618523
  - # 4
    frequency:    1.6471408507
  - # 5
    frequency:    1.7262374616
  - # 6
    frequency:    4.2174259311
  - # 7
    frequency:    4.4618218685
  - # 8
    frequency:    5.9709572930
  - # 9
    frequency:    6.8304269565
  - # 10
    frequency:    6.9305833065
  - # 11
    frequency:    8.5420060554
  - # 12
    frequency:    8.5518733771
  - # 13
    frequency:    9.1705641305
  - # 14
    frequency:   10.9483991176
  - # 15
    frequency:   13.0611909297
  - # 16
    frequency:   13.1792588957
  - # 17
    frequency:   13.2376035223
  - # 18
    frequency:   61.8362893853

- q-position: [    0.0909091,    0.0000000,    0.0000000 ]
  distance:    0.0313302
  band:
  - # 1
    frequency:   -2.6230076240
  - # 2
    frequency:   -2.6043763545
  - # 3
    frequency:    0.5871299598
  - # 4
    frequency:    1.7354293192
  - # 5
    frequency:    1.8276056464
  - # 6
    frequency:    4.2285781337
  - # 7
    frequency:    4.4947476705
  - # 8
    frequency:    5.9636478734
  - # 9
    frequency:    6.8234374987
  - # 10
    frequency:    6.9354064151
  - # 11
    frequency:    8.5432108403
  - # 12
    frequency:    8.5523189118
  - # 13
    frequency:    9.1684007943
  - # 14
    frequency:   10.9161009632
  - # 15
    frequency:   13.0416766621
  - # 16
    frequency:   13.1728214182
  - # 17
    frequency:   13.2245992487
  - # 18
    frequency:   61.8343320570

- q-position: [    0.0959596,    0.0000000,    0.0000000 ]
  distance:    0.0330707
  band:
  - # 1
    frequency:   -2.6211719165
  - # 2
    frequency:   -2.5987610809
  - # 3
    frequency:    0.6456981160
  - # 4
    frequency:    1.8223180786
  - # 5
    frequency:    1.9286478079
  - # 6
    frequency:    4.2406718085
  - # 7
    frequency:    4.5283363287
  - # 8
    frequency:    5.9559434327
  - # 9
    frequency:    6.8164179063
  - # 10
    frequency:    6.9407869145
  - # 11
    frequency:    8.5447866873
  - # 12
    frequency:    8.5526673870
  - # 13
    frequency:    9.1664055899
  - # 14
    frequency:   10.8823551175
  - # 15
    frequency:   13.0185210060
  - # 16
    frequency:   13.1687606411
  - # 17
    frequency:   13.2108513052
  - # 18
    frequency:   61.8322930816

- q-position: [    0.1010101,    0.0000000,    0.0000000 ]
  distance:    0.0348113
  band:
  - # 1
    frequency:   -2.6197052335
  - # 2
    frequency:   -2.5931590640
  - # 3
    frequency:    0.7059128213
  - # 4
    frequency:    1.9077586433
  - # 5
    frequency:    2.0292827856
  - # 6
    frequency:    4.2537518621
  - # 7
    frequency:    4.5624636423
  - # 8
    frequency:    5.9478638573
  - # 9
    frequency:    6.8094101614
  - # 10
    frequency:    6.9467525625
  - # 11
    frequency:    8.5467681012
  - # 12
    frequency:    8.5528995368
  - # 13
    frequency:    9.1646168287
  - # 14
    frequency:   10.8472437382
  - # 15
    frequency:   12.9922773616
  - # 16
    frequency:   13.1665523976
  - # 17
    frequency:   13.1963623578
  - # 18
    frequency:   61.8301770817

- q-position: [    0.1060606,    0.0000000,    0.0000000 ]
  distance:    0.0365519
  band:
  - # 1
    frequency:   -2.6186201979
  - # 2
    frequency:   -2.5876069191
  - # 3
    frequency:    0.7676295544
  - # 4
    frequency:    1.9917091565
  - # 5
    frequency:    2.1294240811
  - # 6
    frequency:    4.2678626049
  - # 7
    frequency:    4.5970116989
  - # 8
    frequency:    5.9394338531
  - # 9
    frequency:    6.8024538112
  - # 10
    frequency:    6.9533293224
  - # 11
    frequency:    8.5491858364
  - # 12
    frequency:    8.5529957026
  - # 13
    frequency:    9.1630733248
  - # 14
    frequency:   10.8108546538
  - # 15
    frequency:   12.9634554116
  - # 16
    frequency:   13.1657186218
  - # 17
    frequency:   13.1811358879
  - # 18
    frequency:   61.8279888236

- q-position: [    0.1111111,    0.0000000,    0.0000000 ]
  distance:    0.0382924
  band:
  - # 1
    frequency:   -2.6179236168
  - # 2
    frequency:   -2.5821409514
  - # 3
    frequency:    0.8307137627
  - # 4
    frequency:    2.0741348471
  - # 5
    frequency:    2.2289801188
  - # 6
    frequency:    4.2830468709
  - # 7
    frequency:    4.6318690997
  - # 8
    frequency:    5.9306834517
  - # 9
    frequency:    6.7955854921
  - # 10
    frequency:    6.9605412457
  - # 11
    frequency:    8.5520657560
  - # 12
    frequency:    8.5529360043
  - # 13
    frequency:    9.1618145030
  - # 14
    frequency:   10.7732809213
  - # 15
    frequency:   12.9324559555
  - # 16
    frequency:   13.1651762724
  - # 17
    frequency:   13.1658931589
  - # 18
    frequency:   61.8257332016

- q-position: [    0.1161616,    0.0000000,    0.0000000 ]
  distance:    0.0400330
  band:
  - # 1
    frequency:   -2.6176176548
  - # 2
    frequency:   -2.5767969812
  - # 3
    frequency:    0.8950415887
  - # 4
    frequency:    2.1550084253
  - # 5
    frequency:    2.3278544786
  - # 6
    frequency:    4.2993450580
  - # 7
    frequency:    4.6669310265
  - # 8
    frequency:    5.9216485673
  - # 9
    frequency:    6.7888385100
  - # 10
    frequency:    6.9684103561
  - # 11
    frequency:    8.5527005196
  - # 12
    frequency:    8.5554276425
  - # 13
    frequency:    9.1608805753
  - # 14
    frequency:   10.7346203391
  - # 15
    frequency:   12.8995822076
  - # 16
    frequency:   13.1484888623
  - # 17
    frequency:   13.1668111355
  - # 18
    frequency:   61.8234152231

- q-position: [    0.1212121,    0.0000000,    0.0000000 ]
  distance:    0.0417735
  band:
  - # 1
    frequency:   -2.6177011718
  - # 2
    frequency:   -2.5716101551
  - # 3
    frequency:    0.9605003156
  - # 4
    frequency:    2.2343104044
  - # 5
    frequency:    2.4259461100
  - # 6
    frequency:    4.3167941144
  - # 7
    frequency:    4.7020991469
  - # 8
    frequency:    5.9123716136
  - # 9
    frequency:    6.7822424857
  - # 10
    frequency:    6.9769565244
  - # 11
    frequency:    8.5522694687
  - # 12
    frequency:    8.5592839779
  - # 13
    frequency:    9.1603127892
  - # 14
    frequency:   10.6949749250
  - # 15
    frequency:   12.8650685725
  - # 16
    frequency:   13.1310800590
  - # 17
    frequency:   13.1682808563
  - # 18
    frequency:   61.8210399922

- q-position: [    0.1262626,    0.0000000,    0.0000000 ]
  distance:    0.0435141
  band:
  - # 1
    frequency:   -2.6181711518
  - # 2
    frequency:   -2.5666147447
  - # 3
    frequency:    1.0269885270
  - # 4
    frequency:    2.3120293290
  - # 5
    frequency:    2.5231495432
  - # 6
    frequency:    4.3354264962
  - # 7
    frequency:    4.7372813539
  - # 8
    frequency:    5.9029021920
  - # 9
    frequency:    6.7758230777
  - # 10
    frequency:    6.9861973239
  - # 11
    frequency:    8.5516233995
  - # 12
    frequency:    8.5636387098
  - # 13
    frequency:    9.1601537502
  - # 14
    frequency:   10.6544503734
  - # 15
    frequency:   12.8291055907
  - # 16
    frequency:   13.1129573870
  - # 17
    frequency:   13.1701595155
  - # 18
    frequency:   61.8186126944

- q-position: [    0.1313131,    0.0000000,    0.0000000 ]
  distance:    0.0452547
  band:
  - # 1
    frequency:   -2.6190241502
  - # 2
    frequency:   -2.5618439375
  - # 3
    frequency:    1.0944159841
  - # 4
    frequency:    2.3881618897
  - # 5
    frequency:    2.6193551142
  - # 6
    frequency:    4.3552691313
  - # 7
    frequency:    4.7723913250
  - # 8
    frequency:    5.8932978595
  - # 9
    frequency:    6.7696017881
  - # 10
    frequency:    6.9961478630
  - # 11
    frequency:    8.5507433691
  - # 12
    frequency:    8.5684860215
  - # 13
    frequency:    9.1604478216
  - # 14
    frequency:   10.6131554971
  - # 15
    frequency:   12.7918574922
  - # 16
    frequency:   13.0941295632
  - # 17
    frequency:   13.1723362667
  - # 18
    frequency:   61.8161385795

- q-position: [    0.1363636,    0.0000000,    0.0000000 ]
  distance:    0.0469952
  band:
  - # 1
    frequency:   -2.6202576920
  - # 2
    frequency:   -2.5573296244
  - # 3
    frequency:    1.1627032377
  - # 4
    frequency:    2.4627129042
  - # 5
    frequency:    2.7144492243
  - # 6
    frequency:    4.3763424276
  - # 7
    frequency:    4.8073478813
  - # 8
    frequency:    5.8836249854
  - # 9
    frequency:    6.7635958609
  - # 10
    frequency:    7.0068205920
  - # 11
    frequency:    8.5496111197
  - # 12
    frequency:    8.5738091294
  - # 13
    frequency:    9.1612415949
  - # 14
    frequency:   10.5712016608
  - # 15
    frequency:   12.7534737215
  - # 16
    frequency:   13.0746065627
  - # 17
    frequency:   13.1747212715
  - # 18
    frequency:   61.8136229458

- q-position: [    0.1414141,    0.0000000,    0.0000000 ]
  distance:    0.0487358
  band:
  - # 1
    frequency:   -2.6218715531
  - # 2
    frequency:   -2.5531021892
  - # 3
    frequency:    1.2317809946
  - # 4
    frequency:    2.5356951438
  - # 5
    frequency:    2.8083146586
  - # 6
    frequency:    4.3986593633
  - # 7
    frequency:    4.8420741214
  - # 8
    frequency:    5.8739597059
  - # 9
    frequency:    6.7578182761
  - # 10
    frequency:    7.0182250887
  - # 11
    frequency:    8.5482092417
  - # 12
    frequency:    8.5795791349
  - # 13
    frequency:    9.1625844231
  - # 14
    frequency:   10.5287022075
  - # 15
    frequency:   12.7140963400
  - # 16
    frequency:   13.0543996782
  - # 17
    frequency:   13.1772388065
  - # 18
    frequency:   61.8110711235

- q-position: [    0.1464646,    0.0000000,    0.0000000 ]
  distance:    0.0504764
  band:
  - # 1
    frequency:   -2.6238688719
  - # 2
    frequency:   -2.5491903071
  - # 3
    frequency:    1.3015892711
  - # 4
    frequency:    2.6071289892
  - # 5
    frequency:    2.9008309870
  - # 6
    frequency:    4.4222247011
  - # 7
    frequency:    4.8764963027
  - # 8
    frequency:    5.8643889804
  - # 9
    frequency:    6.7522778432
  - # 10
    frequency:    7.0303678296
  - # 11
    frequency:    8.5465213233
  - # 12
    frequency:    8.5857539678
  - # 13
    frequency:    9.1645289958
  - # 14
    frequency:   10.4857718771
  - # 15
    frequency:   12.6738647533
  - # 16
    frequency:   13.0335215755
  - # 17
    frequency:   13.1798229670
  - # 18
    frequency:   61.8084884581

- q-position: [    0.1515152,    0.0000000,    0.0000000 ]
  distance:    0.0522169
  band:
  - # 1
    frequency:   -2.6262570423
  - # 2
    frequency:   -2.5456207570
  - # 3
    frequency:    1.3720763658
  - # 4
    frequency:    2.6770419014
  - # 5
    frequency:    2.9918750740
  - # 6
    frequency:    4.4470343605
  - # 7
    frequency:    4.9105424385
  - # 8
    frequency:    5.8550117519
  - # 9
    frequency:    6.7469793952
  - # 10
    frequency:    7.0432519581
  - # 11
    frequency:    8.5445320804
  - # 12
    frequency:    8.5922774712
  - # 13
    frequency:    9.1671319211
  - # 14
    frequency:   10.4425262129
  - # 15
    frequency:   12.6329187174
  - # 16
    frequency:   13.0119863420
  - # 17
    frequency:   13.1824150010
  - # 18
    frequency:   61.8058802942

- q-position: [    0.1565657,    0.0000000,    0.0000000 ]
  distance:    0.0539575
  band:
  - # 1
    frequency:   -2.6290483505
  - # 2
    frequency:   -2.5424182547
  - # 3
    frequency:    1.4431976873
  - # 4
    frequency:    2.7454677059
  - # 5
    frequency:    3.0813217240
  - # 6
    frequency:    4.4730749789
  - # 7
    frequency:    4.9441405927
  - # 8
    frequency:    5.8459402036
  - # 9
    frequency:    6.7419240817
  - # 10
    frequency:    7.0568770637
  - # 11
    frequency:    8.5422274653
  - # 12
    frequency:    8.5990786939
  - # 13
    frequency:    9.1704542609
  - # 14
    frequency:   10.3990809498
  - # 15
    frequency:   12.5914002189
  - # 16
    frequency:   12.9898095291
  - # 17
    frequency:   13.1849616662
  - # 18
    frequency:   61.8032519588

- q-position: [    0.1616162,    0.0000000,    0.0000000 ]
  distance:    0.0556981
  band:
  - # 1
    frequency:   -2.6322603306
  - # 2
    frequency:   -2.5396053110
  - # 3
    frequency:    1.5149144754
  - # 4
    frequency:    2.8124456899
  - # 5
    frequency:    3.1690444861
  - # 6
    frequency:    4.5003236817
  - # 7
    frequency:    4.9772168654
  - # 8
    frequency:    5.8373010855
  - # 9
    frequency:    6.7371097571
  - # 10
    frequency:    7.0712389847
  - # 11
    frequency:    8.5395947511
  - # 12
    frequency:    8.6060714795
  - # 13
    frequency:    9.1745619441
  - # 14
    frequency:   10.3555513765
  - # 15
    frequency:   12.5494545996
  - # 16
    frequency:   12.9670081873
  - # 17
    frequency:   13.1874142290
  - # 18
    frequency:   61.8006087459

- q-position: [    0.1666667,    0.0000000,    0.0000000 ]
  distance:    0.0574386
  band:
  - # 1
    frequency:   -2.6359158191
  - # 2
    frequency:   -2.5372021183
  - # 3
    frequency:    1.5871924500
  - # 4
    frequency:    2.8780195315
  - # 5
    frequency:    3.2549166418
  - # 6
    frequency:    4.5287480720
  - # 7
    frequency:    5.0096931017
  - # 8
    frequency:    5.8292370526
  - # 9
    frequency:    6.7325314607
  - # 10
    frequency:    7.0863296528
  - # 11
    frequency:    8.5366225886
  - # 12
    frequency:    8.6131544636
  - # 13
    frequency:    9.1795259567
  - # 14
    frequency:   10.3120516620
  - # 15
    frequency:   12.5072311488
  - # 16
    frequency:   12.9436008942
  - # 17
    frequency:   13.1897278707
  - # 18
    frequency:   61.7979558997

- q-position: [    0.1717172,    0.0000000,    0.0000000 ]
  distance:    0.0591792
  band:
  - # 1
    frequency:   -2.6400427043
  - # 2
    frequency:   -2.5352264689
  - # 3
    frequency:    1.6600004245
  - # 4
    frequency:    2.9422360836
  - # 5
    frequency:    3.3388123913
  - # 6
    frequency:    4.5583064356
  - # 7
    frequency:    5.0414844160
  - # 8
    frequency:    5.8219079024
  - # 9
    frequency:    6.7281819788
  - # 10
    frequency:    7.1021369896
  - # 11
    frequency:    8.5333010353
  - # 12
    frequency:    8.6202116106
  - # 13
    frequency:    9.1854221864
  - # 14
    frequency:   10.2686941366
  - # 15
    frequency:   12.4648833039
  - # 16
    frequency:   12.9196077738
  - # 17
    frequency:   13.1918613492
  - # 18
    frequency:   61.7952985995

- q-position: [    0.1767677,    0.0000000,    0.0000000 ]
  distance:    0.0609198
  band:
  - # 1
    frequency:   -2.6446733727
  - # 2
    frequency:   -2.5336937062
  - # 3
    frequency:    1.7333089161
  - # 4
    frequency:    3.0051440488
  - # 5
    frequency:    3.4206082488
  - # 6
    frequency:    4.5889481481
  - # 7
    frequency:    5.0724967202
  - # 8
    frequency:    5.8154915130
  - # 9
    frequency:    6.7240524803
  - # 10
    frequency:    7.1186448687
  - # 11
    frequency:    8.5296215557
  - # 12
    frequency:    8.6271134312
  - # 13
    frequency:    9.1923307868
  - # 14