nqpoint: 300    
npath: 3      
segment_nqpoint:
- 100
- 100
- 100
labels:
- [ 'G', 'M' ]
- [ 'M', 'K' ]
- [ 'K', 'G' ]
reciprocal_lattice:
- [   0.29198362,   0.16857682,   0.00000000 ] # a*
- [   0.00000000,   0.33715364,   0.00000000 ] # b*
- [   0.00000000,   0.00000000,   0.03645414 ] # c*
natom: 8      
lattice:
- [     3.424849659456550,     0.000000000000000,     0.000000000000000 ] # a
- [    -1.712424829728275,     2.966006809233400,     0.000000000000000 ] # b
- [     0.000000000000000,     0.000000000000000,    27.431724895883349 ] # c
points:
- symbol: C # 1
  coordinates: [  0.000000000000000,  0.000000000000000,  0.522365882194811 ]
  mass: 12.010700
- symbol: C # 2
  coordinates: [  0.666666984744047,  0.333332985985145,  0.384820040689760 ]
  mass: 12.010700
- symbol: Cl # 3
  coordinates: [  0.333332985432215,  0.666666983183674,  0.671912720247839 ]
  mass: 35.453000
- symbol: N # 4
  coordinates: [  0.666666984744047,  0.333332985985145,  0.430259831542832 ]
  mass: 14.006700
- symbol: O # 5
  coordinates: [  0.333332985432215,  0.666666983183674,  0.608138033496854 ]
  mass: 15.999400
- symbol: S # 6
  coordinates: [  0.666666984744047,  0.333332985985145,  0.328087279752161 ]
  mass: 32.065000
- symbol: Sc # 7
  coordinates: [  0.333332985432215,  0.666666983183674,  0.477611913752504 ]
  mass: 44.955912
- symbol: Sc # 8
  coordinates: [  0.666666984744047,  0.333332985985145,  0.568644422968706 ]
  mass: 44.955912

phonon:
- q-position: [    0.0000000,    0.0000000,    0.0000000 ]
  distance:    0.0000000
  band:
  - # 1
    frequency:   -1.3642400846
  - # 2
    frequency:   -1.3642400845
  - # 3
    frequency:   -0.0000062835
  - # 4
    frequency:   -0.0000005235
  - # 5
    frequency:    0.0000076836
  - # 6
    frequency:    0.3264826998
  - # 7
    frequency:    0.3264826999
  - # 8
    frequency:    4.3309028683
  - # 9
    frequency:    4.3309028683
  - # 10
    frequency:    4.6128307601
  - # 11
    frequency:    6.2066100949
  - # 12
    frequency:    6.2066100950
  - # 13
    frequency:    7.5259258418
  - # 14
    frequency:    8.1919334099
  - # 15
    frequency:    8.1919334099
  - # 16
    frequency:   10.9923892594
  - # 17
    frequency:   11.2750289720
  - # 18
    frequency:   11.2750289720
  - # 19
    frequency:   14.4565292001
  - # 20
    frequency:   14.4565292001
  - # 21
    frequency:   15.8898442879
  - # 22
    frequency:   18.8421387672
  - # 23
    frequency:   27.3316330254
  - # 24
    frequency:   59.5672469770

- q-position: [    0.0050505,    0.0000000,    0.0000000 ]
  distance:    0.0017028
  band:
  - # 1
    frequency:   -1.3631843730
  - # 2
    frequency:   -1.3599213814
  - # 3
    frequency:    0.0029060901
  - # 4
    frequency:    0.0668752243
  - # 5
    frequency:    0.1238911348
  - # 6
    frequency:    0.3302903397
  - # 7
    frequency:    0.3406640109
  - # 8
    frequency:    4.3310359639
  - # 9
    frequency:    4.3321425580
  - # 10
    frequency:    4.6125731821
  - # 11
    frequency:    6.2065494802
  - # 12
    frequency:    6.2081428396
  - # 13
    frequency:    7.5256642570
  - # 14
    frequency:    8.1919216749
  - # 15
    frequency:    8.1938506026
  - # 16
    frequency:   10.9898322471
  - # 17
    frequency:   11.2748091753
  - # 18
    frequency:   11.2816424654
  - # 19
    frequency:   14.4566072237
  - # 20
    frequency:   14.4568592469
  - # 21
    frequency:   15.8896569368
  - # 22
    frequency:   18.8409513815
  - # 23
    frequency:   27.3315431118
  - # 24
    frequency:   59.5659014270

- q-position: [    0.0101010,    0.0000000,    0.0000000 ]
  distance:    0.0034056
  band:
  - # 1
    frequency:   -1.3600194100
  - # 2
    frequency:   -1.3469681426
  - # 3
    frequency:    0.0111913581
  - # 4
    frequency:    0.1326455292
  - # 5
    frequency:    0.2428040461
  - # 6
    frequency:    0.3418947263
  - # 7
    frequency:    0.3833853849
  - # 8
    frequency:    4.3314358220
  - # 9
    frequency:    4.3358411481
  - # 10
    frequency:    4.6118031212
  - # 11
    frequency:    6.2063678368
  - # 12
    frequency:    6.2127067330
  - # 13
    frequency:    7.5248971657
  - # 14
    frequency:    8.1918857462
  - # 15
    frequency:    8.1995588016
  - # 16
    frequency:   10.9826356877
  - # 17
    frequency:   11.2741505232
  - # 18
    frequency:   11.3010143922
  - # 19
    frequency:   14.4568412216
  - # 20
    frequency:   14.4578489327
  - # 21
    frequency:   15.8890952578
  - # 22
    frequency:   18.8373915193
  - # 23
    frequency:   27.3312734775
  - # 24
    frequency:   59.5618673706

- q-position: [    0.0151515,    0.0000000,    0.0000000 ]
  distance:    0.0051084
  band:
  - # 1
    frequency:   -1.3547514664
  - # 2
    frequency:   -1.3253828150
  - # 3
    frequency:    0.0241163640
  - # 4
    frequency:    0.1957531966
  - # 5
    frequency:    0.3467518441
  - # 6
    frequency:    0.3620089249
  - # 7
    frequency:    0.4585979917
  - # 8
    frequency:    4.3321041531
  - # 9
    frequency:    4.3419381851
  - # 10
    frequency:    4.6105286860
  - # 11
    frequency:    6.2060657648
  - # 12
    frequency:    6.2202007387
  - # 13
    frequency:    7.5236754947
  - # 14
    frequency:    8.1918234512
  - # 15
    frequency:    8.2089306223
  - # 16
    frequency:   10.9718804846
  - # 17
    frequency:   11.2730552303
  - # 18
    frequency:   11.3320800016
  - # 19
    frequency:   14.4572309758
  - # 20
    frequency:   14.4594968952
  - # 21
    frequency:   15.8881603718
  - # 22
    frequency:   18.8314660644
  - # 23
    frequency:   27.3308244424
  - # 24
    frequency:   59.5551525818

- q-position: [    0.0202020,    0.0000000,    0.0000000 ]
  distance:    0.0068112
  band:
  - # 1
    frequency:   -1.3473901912
  - # 2
    frequency:   -1.2951485292
  - # 3
    frequency:    0.0413087184
  - # 4
    frequency:    0.2538141250
  - # 5
    frequency:    0.3921810593
  - # 6
    frequency:    0.4308279012
  - # 7
    frequency:    0.5658591377
  - # 8
    frequency:    4.3330437973
  - # 9
    frequency:    4.3503360483
  - # 10
    frequency:    4.6087637151
  - # 11
    frequency:    6.2056442557
  - # 12
    frequency:    6.2304629122
  - # 13
    frequency:    7.5220777394
  - # 14
    frequency:    8.1917311662
  - # 15
    frequency:    8.2217624784
  - # 16
    frequency:   10.9586530894
  - # 17
    frequency:   11.2715269901
  - # 18
    frequency:   11.3737744720
  - # 19
    frequency:   14.4577761219
  - # 20
    frequency:   14.4618008701
  - # 21
    frequency:   15.8868541383
  - # 22
    frequency:   18.8231864846
  - # 23
    frequency:   27.3301965385
  - # 24
    frequency:   59.5457699928

- q-position: [    0.0252525,    0.0000000,    0.0000000 ]
  distance:    0.0085140
  band:
  - # 1
    frequency:   -1.3379474335
  - # 2
    frequency:   -1.2561966979
  - # 3
    frequency:    0.0627893706
  - # 4
    frequency:    0.3042775390
  - # 5
    frequency:    0.4341558322
  - # 6
    frequency:    0.5066611486
  - # 7
    frequency:    0.6897273160
  - # 8
    frequency:    4.3342587080
  - # 9
    frequency:    4.3609041682
  - # 10
    frequency:    4.6065283495
  - # 11
    frequency:    6.2051046788
  - # 12
    frequency:    6.2432795041
  - # 13
    frequency:    7.5202019141
  - # 14
    frequency:    8.1916038124
  - # 15
    frequency:    8.2377862502
  - # 16
    frequency:   10.9437269545
  - # 17
    frequency:   11.2695709793
  - # 18
    frequency:   11.4253438957
  - # 19
    frequency:   14.4584761489
  - # 20
    frequency:   14.4647577006
  - # 21
    frequency:   15.8851791439
  - # 22
    frequency:   18.8125688254
  - # 23
    frequency:   27.3293905087
  - # 24
    frequency:   59.5337376589

- q-position: [    0.0303030,    0.0000000,    0.0000000 ]
  distance:    0.0102168
  band:
  - # 1
    frequency:   -1.3264356477
  - # 2
    frequency:   -1.2083610543
  - # 3
    frequency:    0.0888103144
  - # 4
    frequency:    0.3469301361
  - # 5
    frequency:    0.4874086265
  - # 6
    frequency:    0.5817970317
  - # 7
    frequency:    0.8201437728
  - # 8
    frequency:    4.3357539287
  - # 9
    frequency:    4.3734840050
  - # 10
    frequency:    4.6038500429
  - # 11
    frequency:    6.2044487641
  - # 12
    frequency:    6.2583966122
  - # 13
    frequency:    7.5181567495
  - # 14
    frequency:    8.1914348517
  - # 15
    frequency:    8.2566833051
  - # 16
    frequency:   10.9275445934
  - # 17
    frequency:   11.2671938620
  - # 18
    frequency:   11.4863533802
  - # 19
    frequency:   14.4593303977
  - # 20
    frequency:   14.4683633514
  - # 21
    frequency:   15.8831386862
  - # 22
    frequency:   18.7996337006
  - # 23
    frequency:   27.3284073047
  - # 24
    frequency:   59.5190787085

- q-position: [    0.0353535,    0.0000000,    0.0000000 ]
  distance:    0.0119196
  band:
  - # 1
    frequency:   -1.3128659308
  - # 2
    frequency:   -1.1513204026
  - # 3
    frequency:    0.1197953178
  - # 4
    frequency:    0.3844346279
  - # 5
    frequency:    0.5486311005
  - # 6
    frequency:    0.6579556155
  - # 7
    frequency:    0.9537164742
  - # 8
    frequency:    4.3375355638
  - # 9
    frequency:    4.3878939191
  - # 10
    frequency:    4.6007653171
  - # 11
    frequency:    6.2036785791
  - # 12
    frequency:    6.2755334206
  - # 13
    frequency:    7.5160535667
  - # 14
    frequency:    8.1912162831
  - # 15
    frequency:    8.2780994566
  - # 16
    frequency:   10.9103121416
  - # 17
    frequency:   11.2644037938
  - # 18
    frequency:   11.5565811049
  - # 19
    frequency:   14.4603380604
  - # 20
    frequency:   14.4726129284
  - # 21
    frequency:   15.8807367554
  - # 22
    frequency:   18.7844062799
  - # 23
    frequency:   27.3272480849
  - # 24
    frequency:   59.5018212786

- q-position: [    0.0404040,    0.0000000,    0.0000000 ]
  distance:    0.0136224
  band:
  - # 1
    frequency:   -1.2972457528
  - # 2
    frequency:   -1.0845373788
  - # 3
    frequency:    0.1563974562
  - # 4
    frequency:    0.4195803144
  - # 5
    frequency:    0.6144860854
  - # 6
    frequency:    0.7352508126
  - # 7
    frequency:    1.0891541095
  - # 8
    frequency:    4.3396107408
  - # 9
    frequency:    4.4039327740
  - # 10
    frequency:    4.5973228824
  - # 11
    frequency:    6.2027965024
  - # 12
    frequency:    6.2943959615
  - # 13
    frequency:    7.5139997742
  - # 14
    frequency:    8.1909386402
  - # 15
    frequency:    8.3016597857
  - # 16
    frequency:   10.8920948606
  - # 17
    frequency:   11.2612104253
  - # 18
    frequency:   11.6359107926
  - # 19
    frequency:   14.4614981776
  - # 20
    frequency:   14.4775007050
  - # 21
    frequency:   15.8779780147
  - # 22
    frequency:   18.7669162762
  - # 23
    frequency:   27.3259142108
  - # 24
    frequency:   59.4819984381

- q-position: [    0.0454545,    0.0000000,    0.0000000 ]
  distance:    0.0153252
  band:
  - # 1
    frequency:   -1.2795764390
  - # 2
    frequency:   -1.0072135504
  - # 3
    frequency:    0.1996625384
  - # 4
    frequency:    0.4539649698
  - # 5
    frequency:    0.6829183859
  - # 6
    frequency:    0.8134709329
  - # 7
    frequency:    1.2257762826
  - # 8
    frequency:    4.3419875664
  - # 9
    frequency:    4.4213805040
  - # 10
    frequency:    4.5935894464
  - # 11
    frequency:    6.2018051931
  - # 12
    frequency:    6.3146903512
  - # 13
    frequency:    7.5120943758
  - # 14
    frequency:    8.1905909925
  - # 15
    frequency:    8.3269826129
  - # 16
    frequency:   10.8728841449
  - # 17
    frequency:   11.2576249023
  - # 18
    frequency:   11.7242530341
  - # 19
    frequency:   14.4628096377
  - # 20
    frequency:   14.4830201584
  - # 21
    frequency:   15.8748677811
  - # 22
    frequency:   18.7471979293
  - # 23
    frequency:   27.3244072446
  - # 24
    frequency:   59.4596480960

- q-position: [    0.0505051,    0.0000000,    0.0000000 ]
  distance:    0.0170280
  band:
  - # 1
    frequency:   -1.2598504546
  - # 2
    frequency:   -0.9183222716
  - # 3
    frequency:    0.2513337085
  - # 4
    frequency:    0.4883107046
  - # 5
    frequency:    0.7528257532
  - # 6
    frequency:    0.8923739769
  - # 7
    frequency:    1.3631040695
  - # 8
    frequency:    4.3446750748
  - # 9
    frequency:    4.4399922816
  - # 10
    frequency:    4.5896612700
  - # 11
    frequency:    6.2007075573
  - # 12
    frequency:    6.3361345874
  - # 13
    frequency:    7.5104254346
  - # 14
    frequency:    8.1901609515
  - # 15
    frequency:    8.3536921646
  - # 16
    frequency:   10.8526383082
  - # 17
    frequency:   11.2536598628
  - # 18
    frequency:   11.8214941992
  - # 19
    frequency:   14.4642711741
  - # 20
    frequency:   14.4891640168
  - # 21
    frequency:   15.8714120103
  - # 22
    frequency:   18.7252899902
  - # 23
    frequency:   27.3227289452
  - # 24
    frequency:   59.4348128970

- q-position: [    0.0555556,    0.0000000,    0.0000000 ]
  distance:    0.0187308
  band:
  - # 1
    frequency:   -1.2380485173
  - # 2
    frequency:   -0.8169102532
  - # 3
    frequency:    0.3143516258
  - # 4
    frequency:    0.5229032437
  - # 5
    frequency:    0.8236053597
  - # 6
    frequency:    0.9717502012
  - # 7
    frequency:    1.5007384523
  - # 8
    frequency:    4.3476831673
  - # 9
    frequency:    4.4594783995
  - # 10
    frequency:    4.5856892088
  - # 11
    frequency:    6.1995067116
  - # 12
    frequency:    6.3584682119
  - # 13
    frequency:    7.5090691741
  - # 14
    frequency:    8.1896346827
  - # 15
    frequency:    8.3814296012
  - # 16
    frequency:   10.8313055006
  - # 17
    frequency:   11.2493294284
  - # 18
    frequency:   11.9274654832
  - # 19
    frequency:   14.4658813632
  - # 20
    frequency:   14.4959243247
  - # 21
    frequency:   15.8676172876
  - # 22
    frequency:   18.7012357043
  - # 23
    frequency:   27.3208812640
  - # 24
    frequency:   59.4075401047

- q-position: [    0.0606061,    0.0000000,    0.0000000 ]
  distance:    0.0204336
  band:
  - # 1
    frequency:   -1.2141365206
  - # 2
    frequency:   -0.7031777191
  - # 3
    frequency:    0.3933777333
  - # 4
    frequency:    0.5578315303
  - # 5
    frequency:    0.8949013122
  - # 6
    frequency:    1.0514289213
  - # 7
    frequency:    1.6383230078
  - # 8
    frequency:    4.3510225456
  - # 9
    frequency:    4.4794482579
  - # 10
    frequency:    4.5819388461
  - # 11
    frequency:    6.1982059447
  - # 12
    frequency:    6.3814594305
  - # 13
    frequency:    7.5080902901
  - # 14
    frequency:    8.1889969269
  - # 15
    frequency:    8.4098621283
  - # 16
    frequency:   10.8088357448
  - # 17
    frequency:   11.2446491882
  - # 18
    frequency:   12.0419257835
  - # 19
    frequency:   14.4676386224
  - # 20
    frequency:   14.5032925316
  - # 21
    frequency:   15.8634908320
  - # 22
    frequency:   18.6750827949
  - # 23
    frequency:   27.3188663415
  - # 24
    frequency:   59.3778814714

- q-position: [    0.0656566,    0.0000000,    0.0000000 ]
  distance:    0.0221364
  band:
  - # 1
    frequency:   -1.1880621922
  - # 2
    frequency:   -0.5809097477
  - # 3
    frequency:    0.4938965144
  - # 4
    frequency:    0.5930985486
  - # 5
    frequency:    0.9664832091
  - # 6
    frequency:    1.1312727686
  - # 7
    frequency:    1.7755321227
  - # 8
    frequency:    4.3547046355
  - # 9
    frequency:    4.4992529465
  - # 10
    frequency:    4.5789513440
  - # 11
    frequency:    6.1968086769
  - # 12
    frequency:    6.4049095653
  - # 13
    frequency:    7.5075430661
  - # 14
    frequency:    8.1882310318
  - # 15
    frequency:    8.4386899615
  - # 16
    frequency:   10.7851867293
  - # 17
    frequency:   11.2396361750
  - # 18
    frequency:   12.1645541444
  - # 19
    frequency:   14.4695412071
  - # 20
    frequency:   14.5112596156
  - # 21
    frequency:   15.8590405169
  - # 22
    frequency:   18.6468834488
  - # 23
    frequency:   27.3166865027
  - # 24
    frequency:   59.3458930967

- q-position: [    0.0707071,    0.0000000,    0.0000000 ]
  distance:    0.0238391
  band:
  - # 1
    frequency:   -1.1597513287
  - # 2
    frequency:   -0.4582916185
  - # 3
    frequency:    0.6167365418
  - # 4
    frequency:    0.6286713226
  - # 5
    frequency:    1.0381878443
  - # 6
    frequency:    1.2111703978
  - # 7
    frequency:    1.9120657374
  - # 8
    frequency:    4.3587415038
  - # 9
    frequency:    4.5175380790
  - # 10
    frequency:    4.5779935599
  - # 11
    frequency:    6.1953184194
  - # 12
    frequency:    6.4286549781
  - # 13
    frequency:    7.5074729428
  - # 14
    frequency:    8.1873189965
  - # 15
    frequency:    8.4676510075
  - # 16
    frequency:   10.7603261746
  - # 17
    frequency:   11.2343088296
  - # 18
    frequency:   12.2949489749
  - # 19
    frequency:   14.4715872090
  - # 20
    frequency:   14.5198162599
  - # 21
    frequency:   15.8542749188
  - # 22
    frequency:   18.6166943046
  - # 23
    frequency:   27.3143442526
  - # 24
    frequency:   59.3116352737

- q-position: [    0.0757576,    0.0000000,    0.0000000 ]
  distance:    0.0255419
  band:
  - # 1
    frequency:   -1.1291033366
  - # 2
    frequency:   -0.3384302318
  - # 3
    frequency:    0.6645035861
  - # 4
    frequency:    0.7528131392
  - # 5
    frequency:    1.1098902593
  - # 6
    frequency:    1.2910302548
  - # 7
    frequency:    2.0476444890
  - # 8
    frequency:    4.3631457667
  - # 9
    frequency:    4.5314001251
  - # 10
    frequency:    4.5819044438
  - # 11
    frequency:    6.1937387323
  - # 12
    frequency:    6.4525667967
  - # 13
    frequency:    7.5079182824
  - # 14
    frequency:    8.1862415298
  - # 15
    frequency:    8.4965232589
  - # 16
    frequency:   10.7342324071
  - # 17
    frequency:   11.2286869536
  - # 18
    frequency:   12.4326320858
  - # 19
    frequency:   14.4737745532
  - # 20
    frequency:   14.5289531073
  - # 21
    frequency:   15.8492034045
  - # 22
    frequency:   18.5845764457
  - # 23
    frequency:   27.3118422726
  - # 24
    frequency:   59.2751723249

- q-position: [    0.0808081,    0.0000000,    0.0000000 ]
  distance:    0.0272447
  band:
  - # 1
    frequency:   -1.0959856567
  - # 2
    frequency:   -0.2013589150
  - # 3
    frequency:    0.7005460504
  - # 4
    frequency:    0.8904824306
  - # 5
    frequency:    1.1814888111
  - # 6
    frequency:    1.3707757619
  - # 7
    frequency:    2.1820036565
  - # 8
    frequency:    4.3679304909
  - # 9
    frequency:    4.5377777397
  - # 10
    frequency:    4.5937065175
  - # 11
    frequency:    6.1920731835
  - # 12
    frequency:    6.4765488939
  - # 13
    frequency:    7.5089121437
  - # 14
    frequency:    8.1849781257
  - # 15
    frequency:    8.5251250596
  - # 16
    frequency:   10.7068940644
  - # 17
    frequency:   11.2227916487
  - # 18
    frequency:   12.5770560133
  - # 19
    frequency:   14.4761009964
  - # 20
    frequency:   14.5386611406
  - # 21
    frequency:   15.8438362749
  - # 22
    frequency:   18.5505953996
  - # 23
    frequency:   27.3091834151
  - # 24
    frequency:   59.2365724266

- q-position: [    0.0858586,    0.0000000,    0.0000000 ]
  distance:    0.0289475
  band:
  - # 1
    frequency:   -1.0602264234
  - # 2
    frequency:    0.1531373716
  - # 3
    frequency:    0.7367509246
  - # 4
    frequency:    1.0236647387
  - # 5
    frequency:    1.2528972072
  - # 6
    frequency:    1.4503417237
  - # 7
    frequency:    2.3148858055
  - # 8
    frequency:    4.3731090876
  - # 9
    frequency:    4.5382036938
  - # 10
    frequency:    4.6118571572
  - # 11
    frequency:    6.1903253069
  - # 12
    frequency:    6.5005346145
  - # 13
    frequency:    7.5104839492
  - # 14
    frequency:    8.1835071568
  - # 15
    frequency:    8.5533135350
  - # 16
    frequency:   10.6783094378
  - # 17
    frequency:   11.2166452394
  - # 18
    frequency:   12.7276133081
  - # 19
    frequency:   14.4785641245
  - # 20
    frequency:   14.5489322612
  - # 21
    frequency:   15.8381849883
  - # 22
    frequency:   18.5148211473
  - # 23
    frequency:   27.3063707005
  - # 24
    frequency:   59.1959074245

- q-position: [    0.0909091,    0.0000000,    0.0000000 ]
  distance:    0.0306503
  band:
  - # 1
    frequency:   -1.0216043534
  - # 2
    frequency:    0.2913601895
  - # 3
    frequency:    0.7730737299
  - # 4
    frequency:    1.1508244663
  - # 5
    frequency:    1.3240401353
  - # 6
    frequency:    1.5296716700
  - # 7
    frequency:    2.4460323326
  - # 8
    frequency:    4.3786951995
  - # 9
    frequency:    4.5359847540
  - # 10
    frequency:    4.6330726909
  - # 11
    frequency:    6.1884985628
  - # 12
    frequency:    6.5244827239
  - # 13
    frequency:    7.5126609717
  - # 14
    frequency:    8.1818059878
  - # 15
    frequency:    8.5809815846
  - # 16
    frequency:   10.6484857197
  - # 17
    frequency:   11.2102711800
  - # 18
    frequency:   12.8836465788
  - # 19
    frequency:   14.4811613507
  - # 20
    frequency:   14.5597602017
  - # 21
    frequency:   15.8322625014
  - # 22
    frequency:   18.4773281446
  - # 23
    frequency:   27.3034073121
  - # 24
    frequency:   59.1532526385

- q-position: [    0.0959596,    0.0000000,    0.0000000 ]
  distance:    0.0323531
  band:
  - # 1
    frequency:   -0.9798342622
  - # 2
    frequency:    0.3847337435
  - # 3
    frequency:    0.8094738416
  - # 4
    frequency:    1.2722048676
  - # 5
    frequency:    1.3948508006
  - # 6
    frequency:    1.6087158925
  - # 7
    frequency:    2.5751739871
  - # 8
    frequency:    4.3847025823
  - # 9
    frequency:    4.5329053998
  - # 10
    frequency:    4.6556298144
  - # 11
    frequency:    6.1865962987
  - # 12
    frequency:    6.5483729947
  - # 13
    frequency:    7.5154696018
  - # 14
    frequency:    8.1798511093
  - # 15
    frequency:    8.6080538699
  - # 16
    frequency:   10.6174382945
  - # 17
    frequency:   11.2036939430
  - # 18
    frequency:   13.0444581165
  - # 19
    frequency:   14.4838899142
  - # 20
    frequency:   14.5711420133
  - # 21
    frequency:   15.8260837798
  - # 22
    frequency:   18.4381953613
  - # 23
    frequency:   27.3002965923
  - # 24
    frequency:   59.1086866597

- q-position: [    0.1010101,    0.0000000,    0.0000000 ]
  distance:    0.0340559
  band:
  - # 1
    frequency:   -0.9345455352
  - # 2
    frequency:    0.4640403503
  - # 3
    frequency:    0.8459144442
  - # 4
    frequency:    1.3885020561
  - # 5
    frequency:    1.4652694898
  - # 6
    frequency:    1.6874299880
  - # 7
    frequency:    2.7020202183
  - # 8
    frequency:    4.3911449815
  - # 9
    frequency:    4.5297990277
  - # 10
    frequency:    4.6788011200
  - # 11
    frequency:    6.1846217123
  - # 12
    frequency:    6.5722017615
  - # 13
    frequency:    7.5189363809
  - # 14
    frequency:    8.1776182940
  - # 15
    frequency:    8.6344822208
  - # 16
    frequency:   10.5851901359
  - # 17
    frequency:   11.1969388895
  - # 18
    frequency:   13.2093178625
  - # 19
    frequency:   14.4867468790
  - # 20
    frequency:   14.5830805941
  - # 21
    frequency:   15.8196665599
  - # 22
    frequency:   18.3975063420
  - # 23
    frequency:   27.2970420390
  - # 24
    frequency:   59.0622911392

- q-position: [    0.1060606,    0.0000000,    0.0000000 ]
  distance:    0.0357587
  band:
  - # 1
    frequency:   -0.8852488628
  - # 2
    frequency:    0.5370373502
  - # 3
    frequency:    0.8823622375
  - # 4
    frequency:    1.5004259630
  - # 5
    frequency:    1.5352426952
  - # 6
    frequency:    1.7657737721
  - # 7
    frequency:    2.8262469967
  - # 8
    frequency:    4.3980360044
  - # 9
    frequency:    4.5271614983
  - # 10
    frequency:    4.7022503677
  - # 11
    frequency:    6.1825778157
  - # 12
    frequency:    6.5959776911
  - # 13
    frequency:    7.5230887945
  - # 14
    frequency:    8.1750827749
  - # 15
    frequency:    8.6602408222
  - # 16
    frequency:   10.5517713389
  - # 17
    frequency:   11.1900321197
  - # 18
    frequency:   13.3774681316
  - # 19
    frequency:   14.4897291324
  - # 20
    frequency:   14.5955892026
  - # 21
    frequency:   15.8130324928
  - # 22
    frequency:   18.3553492969
  - # 23
    frequency:   27.2936473014
  - # 24
    frequency:   59.0141505686

- q-position: [    0.1111111,    0.0000000,    0.0000000 ]
  distance:    0.0374615
  band:
  - # 1
    frequency:   -0.8312824577
  - # 2
    frequency:    0.6068989568
  - # 3
    frequency:    0.9187870541
  - # 4
    frequency:    1.6047225396
  - # 5
    frequency:    1.6085855596
  - # 6
    frequency:    1.8437104656
  - # 7
    frequency:    2.9474826449
  - # 8
    frequency:    4.4053889900
  - # 9
    frequency:    4.5253888066
  - # 10
    frequency:    4.7258062077
  - # 11
    frequency:    6.1804674030
  - # 12
    frequency:    6.6197179285
  - # 13
    frequency:    7.5279558341
  - # 14
    frequency:    8.1722194454
  - # 15
    frequency:    8.6853214680
  - # 16
    frequency:   10.5172187964
  - # 17
    frequency:   11.1830003052
  - # 18
    frequency:   13.5481224918
  - # 19
    frequency:   14.4928333855
  - # 20
    frequency:   14.6087000180
  - # 21
    frequency:   15.8062088762
  - # 22
    frequency:   18.3118172309
  - # 23
    frequency:   27.2901161766
  - # 24
    frequency:   58.9643520546

- q-position: [    0.1161616,    0.0000000,    0.0000000 ]
  distance:    0.0391643
  band:
  - # 1
    frequency:   -0.7717200654
  - # 2
    frequency:    0.6751839423
  - # 3
    frequency:    0.9551614683
  - # 4
    frequency:    1.6736663645
  - # 5
    frequency:    1.7134754131
  - # 6
    frequency:    1.9212060861
  - # 7
    frequency:    3.0652912761
  - # 8
    frequency:    4.4132168773
  - # 9
    frequency:    4.5248709565
  - # 10
    frequency:    4.7493826431
  - # 11
    frequency:    6.1782930186
  - # 12
    frequency:    6.6434447152
  - # 13
    frequency:    7.5335683359
  - # 14
    frequency:    8.1690030813
  - # 15
    frequency:    8.7097290754
  - # 16
    frequency:   10.4815760233
  - # 17
    frequency:   11.1758705026
  - # 18
    frequency:   13.7204533773
  - # 19
    frequency:   14.4960561730
  - # 20
    frequency:   14.6224816430
  - # 21
    frequency:   15.7992313220
  - # 22
    frequency:   18.2670081240
  - # 23
    frequency:   27.2864526060
  - # 24
    frequency:   58.9129850873

- q-position: [    0.1212121,    0.0000000,    0.0000000 ]
  distance:    0.0408671
  band:
  - # 1
    frequency:   -0.7052016463
  - # 2
    frequency:    0.7427345151
  - # 3
    frequency:    0.9914604297
  - # 4
    frequency:    1.7420364036
  - # 5
    frequency:    1.8154898046
  - # 6
    frequency:    1.9982289972
  - # 7
    frequency:    3.1791538558
  - # 8
    frequency:    4.4215320738
  - # 9
    frequency:    4.5260374454
  - # 10
    frequency:    4.7729507458
  - # 11
    frequency:    6.1760569298
  - # 12
    frequency:    6.6671825196
  - # 13
    frequency:    7.5399591096
  - # 14
    frequency:    8.1654085826
  - # 15
    frequency:    8.7334775741
  - # 16
    frequency:   10.4448931323
  - # 17
    frequency:   11.1686699489
  - # 18
    frequency:   13.8935548201
  - # 19
    frequency:   14.4993938537
  - # 20
    frequency:   14.6370785042
  - # 21
    frequency:   15.7921479573
  - # 22
    frequency:   18.2210251784
  - # 23
    frequency:   27.2826606717
  - # 24
    frequency:   58.8601413029

- q-position: [    0.1262626,    0.0000000,    0.0000000 ]
  distance:    0.0425699
  band:
  - # 1
    frequency:   -0.6295889880
  - # 2
    frequency:    0.8100298784
  - # 3
    frequency:    1.0276609360
  - # 4
    frequency:    1.8097995015
  - # 5
    frequency:    1.9149414740
  - # 6
    frequency:    2.0747495856
  - # 7
    frequency:    3.2884479987
  - # 8
    frequency:    4.4303463247
  - # 9
    frequency:    4.5293839204
  - # 10
    frequency:    4.7965308842
  - # 11
    frequency:    6.1737611005
  - # 12
    frequency:    6.6909556839
  - # 13
    frequency:    7.5471628702
  - # 14
    frequency:    8.1614112337
  - # 15
    frequency:    8.7565862107
  - # 16
    frequency:   10.4072269669
  - # 17
    frequency:   11.1614258424
  - # 18
    frequency:   14.0663398178
  - # 19
    frequency:   14.5028426122
  - # 20
    frequency:   14.6528115890
  - # 21
    frequency:   15.7850262320
  - # 22
    frequency:   18.1739771566
  - # 23
    frequency:   27.2787445928
  - # 24
    frequency:   58.8059142421

- q-position: [    0.1313131,    0.0000000,    0.0000000 ]
  distance:    0.0442727
  band:
  - # 1
    frequency:   -0.5411565271
  - # 2
    frequency:    0.8773482687
  - # 3
    frequency:    1.0637417479
  - # 4
    frequency:    1.8769268572
  - # 5
    frequency:    2.0120784605
  - # 6
    frequency:    2.1507400545
  - # 7
    frequency:    3.3924299738
  - # 8
    frequency:    4.4396705864
  - # 9
    frequency:    4.5354863811
  - # 10
    frequency:    4.8201955475
  - # 11
    frequency:    6.1714071689
  - # 12
    frequency:    6.7147865651
  - # 13
    frequency:    7.5552159867
  - # 14
    frequency:    8.1569869798
  - # 15
    frequency:    8.7790762528
  - # 16
    frequency:   10.3686414063
  - # 17
    frequency:   11.1541651083
  - # 18
    frequency:   14.2372258589
  - # 19
    frequency:   14.5063984609
  - # 20
    frequency:   14.6704850608
  - # 21
    frequency:   15.7779643470
  - # 22
    frequency:   18.1259788389
  - # 23
    frequency:   27.2747087225
  - # 24
    frequency:   58.7503991040

- q-position: [    0.1363636,    0.0000000,    0.0000000 ]
  distance:    0.0459755
  band:
  - # 1
    frequency:   -0.4321974844
  - # 2
    frequency:    0.9448492884
  - # 3
    frequency:    1.0996831445
  - # 4
    frequency:    1.9433937807
  - # 5
    frequency:    2.1070976725
  - # 6
    frequency:    2.2261743397
  - # 7