nqpoint: 300    
npath: 3      
segment_nqpoint:
- 100
- 100
- 100
labels:
- [ 'G', 'M' ]
- [ 'M', 'K' ]
- [ 'K', 'G' ]
reciprocal_lattice:
- [   0.27527554,   0.15893041,   0.00000000 ] # a*
- [   0.00000000,   0.31786081,   0.00000000 ] # b*
- [   0.00000000,   0.00000000,   0.03729512 ] # c*
natom: 8      
lattice:
- [     3.632723826402576,     0.000000000000000,     0.000000000000000 ] # a
- [    -1.816361913201288,     3.146031118598685,     0.000000000000000 ] # b
- [     0.000000000000000,     0.000000000000000,    26.813156177561083 ] # c
points:
- symbol: C # 1
  coordinates: [  0.000000000000000,  0.000000000000000,  0.528305834620965 ]
  mass: 12.010700
- symbol: C # 2
  coordinates: [  0.666666984744047,  0.333332985985145,  0.380006181583236 ]
  mass: 12.010700
- symbol: H # 3
  coordinates: [  0.333332985432215,  0.666666983183674,  0.664343878788437 ]
  mass: 1.007940
- symbol: N # 4
  coordinates: [  0.666666984744047,  0.333332985985145,  0.335656121211563 ]
  mass: 14.006700
- symbol: O # 5
  coordinates: [  0.333332985432215,  0.666666983183674,  0.627578271136979 ]
  mass: 15.999400
- symbol: O # 6
  coordinates: [  0.666666984744047,  0.333332985985145,  0.429665348148224 ]
  mass: 15.999400
- symbol: Y # 7
  coordinates: [  0.333332985432215,  0.666666983183674,  0.477853892223126 ]
  mass: 88.905850
- symbol: Y # 8
  coordinates: [  0.666666984744047,  0.333332985985145,  0.580039262154561 ]
  mass: 88.905850

phonon:
- q-position: [    0.0000000,    0.0000000,    0.0000000 ]
  distance:    0.0000000
  band:
  - # 1
    frequency:   -1.3376783657
  - # 2
    frequency:   -1.3376783657
  - # 3
    frequency:   -0.0000042073
  - # 4
    frequency:    0.0000003784
  - # 5
    frequency:    0.0000051705
  - # 6
    frequency:    3.4493107781
  - # 7
    frequency:    3.4493107781
  - # 8
    frequency:    5.2054318290
  - # 9
    frequency:    5.3157472606
  - # 10
    frequency:    5.3157472606
  - # 11
    frequency:    5.9108328091
  - # 12
    frequency:    5.9108328091
  - # 13
    frequency:    7.8609756562
  - # 14
    frequency:    9.6835119832
  - # 15
    frequency:    9.6835119832
  - # 16
    frequency:   10.9765340991
  - # 17
    frequency:   12.8661234307
  - # 18
    frequency:   12.8661234307
  - # 19
    frequency:   13.9750966436
  - # 20
    frequency:   13.9750966436
  - # 21
    frequency:   16.8269848831
  - # 22
    frequency:   32.3730405557
  - # 23
    frequency:   67.9237322287
  - # 24
    frequency:  114.3820949742

- q-position: [    0.0050505,    0.0000000,    0.0000000 ]
  distance:    0.0016054
  band:
  - # 1
    frequency:   -1.3374953697
  - # 2
    frequency:   -1.3361585859
  - # 3
    frequency:    0.0014310364
  - # 4
    frequency:    0.0578020985
  - # 5
    frequency:    0.1022502784
  - # 6
    frequency:    3.4493399024
  - # 7
    frequency:    3.4500664557
  - # 8
    frequency:    5.2050068729
  - # 9
    frequency:    5.3156478910
  - # 10
    frequency:    5.3199056021
  - # 11
    frequency:    5.9108891617
  - # 12
    frequency:    5.9126609046
  - # 13
    frequency:    7.8604737022
  - # 14
    frequency:    9.6833277243
  - # 15
    frequency:    9.6867071069
  - # 16
    frequency:   10.9754957944
  - # 17
    frequency:   12.8659444924
  - # 18
    frequency:   12.8691107702
  - # 19
    frequency:   13.9751235729
  - # 20
    frequency:   13.9751990926
  - # 21
    frequency:   16.8258956735
  - # 22
    frequency:   32.3726328459
  - # 23
    frequency:   67.9234738691
  - # 24
    frequency:  114.3820682381

- q-position: [    0.0101010,    0.0000000,    0.0000000 ]
  distance:    0.0032107
  band:
  - # 1
    frequency:   -1.3369488140
  - # 2
    frequency:   -1.3316187237
  - # 3
    frequency:    0.0057312907
  - # 4
    frequency:    0.1156041918
  - # 5
    frequency:    0.2046023310
  - # 6
    frequency:    3.4494275438
  - # 7
    frequency:    3.4523290487
  - # 8
    frequency:    5.2038821982
  - # 9
    frequency:    5.3153506452
  - # 10
    frequency:    5.3320208210
  - # 11
    frequency:    5.9110579393
  - # 12
    frequency:    5.9182085172
  - # 13
    frequency:    7.8589683381
  - # 14
    frequency:    9.6827755173
  - # 15
    frequency:    9.6962520692
  - # 16
    frequency:   10.9724901902
  - # 17
    frequency:   12.8654087991
  - # 18
    frequency:   12.8780296986
  - # 19
    frequency:   13.9752043522
  - # 20
    frequency:   13.9755064546
  - # 21
    frequency:   16.8226295913
  - # 22
    frequency:   32.3714106866
  - # 23
    frequency:   67.9226993570
  - # 24
    frequency:  114.3819880955

- q-position: [    0.0151515,    0.0000000,    0.0000000 ]
  distance:    0.0048161
  band:
  - # 1
    frequency:   -1.3360458521
  - # 2
    frequency:   -1.3241147278
  - # 3
    frequency:    0.0128856833
  - # 4
    frequency:    0.1734051950
  - # 5
    frequency:    0.3071466977
  - # 6
    frequency:    3.4495745059
  - # 7
    frequency:    3.4560854776
  - # 8
    frequency:    5.2023661223
  - # 9
    frequency:    5.3148581024
  - # 10
    frequency:    5.3511659101
  - # 11
    frequency:    5.9113383066
  - # 12
    frequency:    5.9276626329
  - # 13
    frequency:    7.8564610637
  - # 14
    frequency:    9.6818570709
  - # 15
    frequency:    9.7120175847
  - # 16
    frequency:   10.9678478674
  - # 17
    frequency:   12.8645197107
  - # 18
    frequency:   12.8927542735
  - # 19
    frequency:   13.9753389552
  - # 20
    frequency:   13.9760187792
  - # 21
    frequency:   16.8171912779
  - # 22
    frequency:   32.3693769845
  - # 23
    frequency:   67.9214103908
  - # 24
    frequency:  114.3818547424

- q-position: [    0.0202020,    0.0000000,    0.0000000 ]
  distance:    0.0064214
  band:
  - # 1
    frequency:   -1.3347979432
  - # 2
    frequency:   -1.3137319426
  - # 3
    frequency:    0.0228753669
  - # 4
    frequency:    0.2312019448
  - # 5
    frequency:    0.4099529615
  - # 6
    frequency:    3.4497821203
  - # 7
    frequency:    3.4613147022
  - # 8
    frequency:    5.2007098689
  - # 9
    frequency:    5.3141745285
  - # 10
    frequency:    5.3760946463
  - # 11
    frequency:    5.9117288840
  - # 12
    frequency:    5.9413220790
  - # 13
    frequency:    7.8529544024
  - # 14
    frequency:    9.6805752314
  - # 15
    frequency:    9.7337608777
  - # 16
    frequency:   10.9621296461
  - # 17
    frequency:   12.8632828121
  - # 18
    frequency:   12.9130851132
  - # 19
    frequency:   13.9755273381
  - # 20
    frequency:   13.9767361629
  - # 21
    frequency:   16.8095884724
  - # 22
    frequency:   32.3665365728
  - # 23
    frequency:   67.9196097946
  - # 24
    frequency:  114.3816685053

- q-position: [    0.0252525,    0.0000000,    0.0000000 ]
  distance:    0.0080268
  band:
  - # 1
    frequency:   -1.3332201990
  - # 2
    frequency:   -1.3005745065
  - # 3
    frequency:    0.0356743381
  - # 4
    frequency:    0.2889883488
  - # 5
    frequency:    0.5130628003
  - # 6
    frequency:    3.4500522364
  - # 7
    frequency:    3.4679887279
  - # 8
    frequency:    5.1990406355
  - # 9
    frequency:    5.3133058279
  - # 10
    frequency:    5.4053706611
  - # 11
    frequency:    5.9122277679
  - # 12
    frequency:    5.9595686754
  - # 13
    frequency:    7.8484519345
  - # 14
    frequency:    9.6789339794
  - # 15
    frequency:    9.7610834402
  - # 16
    frequency:   10.9561445334
  - # 17
    frequency:   12.8617058907
  - # 18
    frequency:   12.9387633461
  - # 19
    frequency:   13.9757694380
  - # 20
    frequency:   13.9776587720
  - # 21
    frequency:   16.7998320183
  - # 22
    frequency:   32.3628961941
  - # 23
    frequency:   67.9173015091
  - # 24
    frequency:  114.3814298392

- q-position: [    0.0303030,    0.0000000,    0.0000000 ]
  distance:    0.0096321
  band:
  - # 1
    frequency:   -1.3313305474
  - # 2
    frequency:   -1.2847527926
  - # 3
    frequency:    0.0512498379
  - # 4
    frequency:    0.3467547424
  - # 5
    frequency:    0.6164865986
  - # 6
    frequency:    3.4503872058
  - # 7
    frequency:    3.4760737947
  - # 8
    frequency:    5.1973974978
  - # 9
    frequency:    5.3122594770
  - # 10
    frequency:    5.4374322982
  - # 11
    frequency:    5.9128325568
  - # 12
    frequency:    5.9828098494
  - # 13
    frequency:    7.8429583442
  - # 14
    frequency:    9.6769384259
  - # 15
    frequency:    9.7933703678
  - # 16
    frequency:   10.9509796740
  - # 17
    frequency:   12.8597989049
  - # 18
    frequency:   12.9694870190
  - # 19
    frequency:   13.9760651725
  - # 20
    frequency:   13.9787868759
  - # 21
    frequency:   16.7879358729
  - # 22
    frequency:   32.3584644775
  - # 23
    frequency:   67.9144905780
  - # 24
    frequency:  114.3811393270

- q-position: [    0.0353535,    0.0000000,    0.0000000 ]
  distance:    0.0112375
  band:
  - # 1
    frequency:   -1.3291487811
  - # 2
    frequency:   -1.2663706578
  - # 3
    frequency:    0.0695628711
  - # 4
    frequency:    0.4044874869
  - # 5
    frequency:    0.7202037608
  - # 6
    frequency:    3.4507898641
  - # 7
    frequency:    3.4855316082
  - # 8
    frequency:    5.1957785146
  - # 9
    frequency:    5.3110444409
  - # 10
    frequency:    5.4706902381
  - # 11
    frequency:    5.9135403833
  - # 12
    frequency:    6.0113845461
  - # 13
    frequency:    7.8364794772
  - # 14
    frequency:    9.6745948063
  - # 15
    frequency:    9.8297130314
  - # 16
    frequency:   10.9480429928
  - # 17
    frequency:   12.8575739439
  - # 18
    frequency:   13.0049278729
  - # 19
    frequency:   13.9764144381
  - # 20
    frequency:   13.9801208959
  - # 21
    frequency:   16.7739171212
  - # 22
    frequency:   32.3532519079
  - # 23
    frequency:   67.9111831315
  - # 24
    frequency:  114.3807976769

- q-position: [    0.0404040,    0.0000000,    0.0000000 ]
  distance:    0.0128429
  band:
  - # 1
    frequency:   -1.3266955621
  - # 2
    frequency:   -1.2455140868
  - # 3
    frequency:    0.0905688362
  - # 4
    frequency:    0.4621688215
  - # 5
    frequency:    0.8241662070
  - # 6
    frequency:    3.4512635090
  - # 7
    frequency:    3.4963205081
  - # 8
    frequency:    5.1941693563
  - # 9
    frequency:    5.3096710752
  - # 10
    frequency:    5.5036770127
  - # 11
    frequency:    5.9143479523
  - # 12
    frequency:    6.0454398317
  - # 13
    frequency:    7.8290224083
  - # 14
    frequency:    9.6719104724
  - # 15
    frequency:    9.8688242227
  - # 16
    frequency:   10.9491117582
  - # 17
    frequency:   12.8550451785
  - # 18
    frequency:   13.0447468042
  - # 19
    frequency:   13.9768171085
  - # 20
    frequency:   13.9816614729
  - # 21
    frequency:   16.7577959956
  - # 22
    frequency:   32.3472707903
  - # 23
    frequency:   67.9073863652
  - # 24
    frequency:  114.3804057202

- q-position: [    0.0454545,    0.0000000,    0.0000000 ]
  distance:    0.0144482
  band:
  - # 1
    frequency:   -1.3239914542
  - # 2
    frequency:   -1.2222422940
  - # 3
    frequency:    0.1142182416
  - # 4
    frequency:    0.5197769611
  - # 5
    frequency:    0.9283040197
  - # 6
    frequency:    3.4518118758
  - # 7
    frequency:    3.5083965134
  - # 8
    frequency:    5.1925561487
  - # 9
    frequency:    5.3081510133
  - # 10
    frequency:    5.5352091047
  - # 11
    frequency:    5.9152515816
  - # 12
    frequency:    6.0848115192
  - # 13
    frequency:    7.8205955196
  - # 14
    frequency:    9.6688938818
  - # 15
    frequency:    9.9089706376
  - # 16
    frequency:   10.9563643597
  - # 17
    frequency:   12.8522288036
  - # 18
    frequency:   13.0886069369
  - # 19
    frequency:   13.9772730329
  - # 20
    frequency:   13.9834095619
  - # 21
    frequency:   16.7395959026
  - # 22
    frequency:   32.3405352069
  - # 23
    frequency:   67.9031085167
  - # 24
    frequency:  114.3799644084

- q-position: [    0.0505051,    0.0000000,    0.0000000 ]
  distance:    0.0160536
  band:
  - # 1
    frequency:   -1.3210560407
  - # 2
    frequency:   -1.1965816394
  - # 3
    frequency:    0.1404574724
  - # 4
    frequency:    0.5772864082
  - # 5
    frequency:    1.0325320004
  - # 6
    frequency:    3.4524391108
  - # 7
    frequency:    3.5217142254
  - # 8
    frequency:    5.1909298895
  - # 9
    frequency:    5.3064970429
  - # 10
    frequency:    5.5644998976
  - # 11
    frequency:    5.9162472463
  - # 12
    frequency:    6.1289599722
  - # 13
    frequency:    7.8112085856
  - # 14
    frequency:    9.6655545847
  - # 15
    frequency:    9.9479726259
  - # 16
    frequency:   10.9723473255
  - # 17
    frequency:   12.8491429717
  - # 18
    frequency:   13.1361838526
  - # 19
    frequency:   13.9777820337
  - # 20
    frequency:   13.9853665633
  - # 21
    frequency:   16.7193434603
  - # 22
    frequency:   32.3330609694
  - # 23
    frequency:   67.8983588381
  - # 24
    frequency:  114.3794748104

- q-position: [    0.0555556,    0.0000000,    0.0000000 ]
  distance:    0.0176589
  band:
  - # 1
    frequency:   -1.3179071744
  - # 2
    frequency:   -1.1685220220
  - # 3
    frequency:    0.1692295520
  - # 4
    frequency:    0.6346684391
  - # 5
    frequency:    1.1367559975
  - # 6
    frequency:    3.4531497431
  - # 7
    frequency:    3.5362275966
  - # 8
    frequency:    5.1892872280
  - # 9
    frequency:    5.3047229719
  - # 10
    frequency:    5.5911790388
  - # 11
    frequency:    5.9173306252
  - # 12
    frequency:    6.1769977481
  - # 13
    frequency:    7.8008728686
  - # 14
    frequency:    9.6619032068
  - # 15
    frequency:    9.9833430982
  - # 16
    frequency:   10.9998074862
  - # 17
    frequency:   12.8458077179
  - # 18
    frequency:   13.1871730062
  - # 19
    frequency:   13.9783439042
  - # 20
    frequency:   13.9875345102
  - # 21
    frequency:   16.6970685479
  - # 22
    frequency:   32.3248655646
  - # 23
    frequency:   67.8931475651
  - # 24
    frequency:  114.3789381086

- q-position: [    0.0606061,    0.0000000,    0.0000000 ]
  distance:    0.0192643
  band:
  - # 1
    frequency:   -1.3145603878
  - # 2
    frequency:   -1.1380148922
  - # 3
    frequency:    0.2004748329
  - # 4
    frequency:    0.6918917109
  - # 5
    frequency:    1.2408781982
  - # 6
    frequency:    3.4539486556
  - # 7
    frequency:    3.5518905856
  - # 8
    frequency:    5.1876299459
  - # 9
    frequency:    5.3028434864
  - # 10
    frequency:    5.6152212563
  - # 11
    frequency:    5.9184971467
  - # 12
    frequency:    6.2278011470
  - # 13
    frequency:    7.7896012225
  - # 14
    frequency:    9.6579514288
  - # 15
    frequency:   10.0126174596
  - # 16
    frequency:   11.0413390137
  - # 17
    frequency:   12.8422448778
  - # 18
    frequency:   13.2412946637
  - # 19
    frequency:   13.9789584059
  - # 20
    frequency:   13.9899163395
  - # 21
    frequency:   16.6728043734
  - # 22
    frequency:   32.3159680956
  - # 23
    frequency:   67.8874858832
  - # 24
    frequency:  114.3783555948

- q-position: [    0.0656566,    0.0000000,    0.0000000 ]
  distance:    0.0208696
  band:
  - # 1
    frequency:   -1.3110284739
  - # 2
    frequency:   -1.1049717265
  - # 3
    frequency:    0.2341315292
  - # 4
    frequency:    0.7489229388
  - # 5
    frequency:    1.3448009893
  - # 6
    frequency:    3.4548410558
  - # 7
    frequency:    3.5686577236
  - # 8
    frequency:    5.1859641233
  - # 9
    frequency:    5.3008740021
  - # 10
    frequency:    5.6368285189
  - # 11
    frequency:    5.9197420359
  - # 12
    frequency:    6.2801588859
  - # 13
    frequency:    7.7774082071
  - # 14
    frequency:    9.6537119611
  - # 15
    frequency:   10.0338209286
  - # 16
    frequency:   11.0989002429
  - # 17
    frequency:   12.8384779957
  - # 18
    frequency:   13.2982968265
  - # 19
    frequency:   13.9796252658
  - # 20
    frequency:   13.9925162963
  - # 21
    frequency:   16.6465875644
  - # 22
    frequency:   32.3063892177
  - # 23
    frequency:   67.8813858913
  - # 24
    frequency:  114.3777286664

- q-position: [    0.0707071,    0.0000000,    0.0000000 ]
  distance:    0.0224750
  band:
  - # 1
    frequency:   -1.3073212329
  - # 2
    frequency:   -1.0692616545
  - # 3
    frequency:    0.2701359845
  - # 4
    frequency:    0.8057275940
  - # 5
    frequency:    1.4484293493
  - # 6
    frequency:    3.4558324477
  - # 7
    frequency:    3.5864846106
  - # 8
    frequency:    5.1842993522
  - # 9
    frequency:    5.2988305117
  - # 10
    frequency:    5.6563150854
  - # 11
    frequency:    5.9210603603
  - # 12
    frequency:    6.3329069260
  - # 13
    frequency:    7.7643102164
  - # 14
    frequency:    9.6491985131
  - # 15
    frequency:   10.0458720219
  - # 16
    frequency:   11.1734022324
  - # 17
    frequency:   12.8345322263
  - # 18
    frequency:   13.3579566018
  - # 19
    frequency:   13.9803441733
  - # 20
    frequency:   13.9953405586
  - # 21
    frequency:   16.6184582889
  - # 22
    frequency:   32.2961510692
  - # 23
    frequency:   67.8748605619
  - # 24
    frequency:  114.3770588212

- q-position: [    0.0757576,    0.0000000,    0.0000000 ]
  distance:    0.0240804
  band:
  - # 1
    frequency:   -1.3034453692
  - # 2
    frequency:   -1.0307067897
  - # 3
    frequency:    0.3084225468
  - # 4
    frequency:    0.8622705825
  - # 5
    frequency:    1.5516719662
  - # 6
    frequency:    3.4569286041
  - # 7
    frequency:    3.6053283577
  - # 8
    frequency:    5.1826481020
  - # 9
    frequency:    5.2967294292
  - # 10
    frequency:    5.6740234755
  - # 11
    frequency:    5.9224470737
  - # 12
    frequency:    6.3850212328
  - # 13
    frequency:    7.7503256234
  - # 14
    frequency:    9.6444257579
  - # 15
    frequency:   10.0486991339
  - # 16
    frequency:   11.2645921474
  - # 17
    frequency:   12.8304342285
  - # 18
    frequency:   13.4200803602
  - # 19
    frequency:   13.9811147772
  - # 20
    frequency:   13.9983982495
  - # 21
    frequency:   16.5884604181
  - # 22
    frequency:   32.2852771986
  - # 23
    frequency:   67.8679236987
  - # 24
    frequency:  114.3763476529

- q-position: [    0.0808081,    0.0000000,    0.0000000 ]
  distance:    0.0256857
  band:
  - # 1
    frequency:   -1.2994045142
  - # 2
    frequency:   -0.9890734851
  - # 3
    frequency:    0.3489228929
  - # 4
    frequency:    0.9185168747
  - # 5
    frequency:    1.6544413856
  - # 6
    frequency:    3.4581355419
  - # 7
    frequency:    3.6251479858
  - # 8
    frequency:    5.1810252461
  - # 9
    frequency:    5.2945874328
  - # 10
    frequency:    5.6902756102
  - # 11
    frequency:    5.9238970590
  - # 12
    frequency:    6.4356651025
  - # 13
    frequency:    7.7354749462
  - # 14
    frequency:    9.6394092905
  - # 15
    frequency:   10.0430328948
  - # 16
    frequency:   11.3712680110
  - # 17
    frequency:   12.8262120515
  - # 18
    frequency:   13.4845027796
  - # 19
    frequency:   13.9819366822
  - # 20
    frequency:   14.0017031676
  - # 21
    frequency:   16.5566417432
  - # 22
    frequency:   32.2737924877
  - # 23
    frequency:   67.8605898923
  - # 24
    frequency:  114.3755968454

- q-position: [    0.0858586,    0.0000000,    0.0000000 ]
  distance:    0.0272911
  band:
  - # 1
    frequency:   -1.2951993474
  - # 2
    frequency:   -0.9440569811
  - # 3
    frequency:    0.3915646334
  - # 4
    frequency:    0.9744320631
  - # 5
    frequency:    1.7566534998
  - # 6
    frequency:    3.4594594991
  - # 7
    frequency:    3.6459047874
  - # 8
    frequency:    5.1794477272
  - # 9
    frequency:    5.2924213074
  - # 10
    frequency:    5.7053508669
  - # 11
    frequency:    5.9254051690
  - # 12
    frequency:    6.4842010279
  - # 13
    frequency:    7.7197810436
  - # 14
    frequency:    9.6341655790
  - # 15
    frequency:   10.0300436271
  - # 16
    frequency:   11.4916540276
  - # 17
    frequency:   12.8218950150
  - # 18
    frequency:   13.5510843965
  - # 19
    frequency:   13.9828094456
  - # 20
    frequency:   14.0052769655
  - # 21
    frequency:   16.5230542672
  - # 22
    frequency:   32.2617230705
  - # 23
    frequency:   67.8528744728
  - # 24
    frequency:  114.3748081675

- q-position: [    0.0909091,    0.0000000,    0.0000000 ]
  distance:    0.0288964
  band:
  - # 1
    frequency:   -1.2908277879
  - # 2
    frequency:   -0.8952553100
  - # 3
    frequency:    0.4362690276
  - # 4
    frequency:    1.0299828404
  - # 5
    frequency:    1.8582266417
  - # 6
    frequency:    3.4609069152
  - # 7
    frequency:    3.6675626589
  - # 8
    frequency:    5.1779343324
  - # 9
    frequency:    5.2902477897
  - # 10
    frequency:    5.7194805538
  - # 11
    frequency:    5.9269662644
  - # 12
    frequency:    6.5301798466
  - # 13
    frequency:    7.7032693473
  - # 14
    frequency:    9.6287119104
  - # 15
    frequency:   10.0110184610
  - # 16
    frequency:   11.6237399754
  - # 17
    frequency:   12.8175135816
  - # 18
    frequency:   13.6197061819
  - # 19
    frequency:   13.9837325740
  - # 20
    frequency:   14.0091555221
  - # 21
    frequency:   16.4877545972
  - # 22
    frequency:   32.2490962497
  - # 23
    frequency:   67.8447934613
  - # 24
    frequency:  114.3739834670

- q-position: [    0.0959596,    0.0000000,    0.0000000 ]
  distance:    0.0305018
  band:
  - # 1
    frequency:   -1.2862852311
  - # 2
    frequency:   -0.8421250428
  - # 3
    frequency:    0.4829476996
  - # 4
    frequency:    1.0851373923
  - # 5
    frequency:    1.9590804812
  - # 6
    frequency:    3.4624844154
  - # 7
    frequency:    3.6900884092
  - # 8
    frequency:    5.1765055539
  - # 9
    frequency:    5.2880834140
  - # 10
    frequency:    5.7328507031
  - # 11
    frequency:    5.9285752512
  - # 12
    frequency:    6.5733176751
  - # 13
    frequency:    7.6859681427
  - # 14
    frequency:    9.6230663281
  - # 15
    frequency:    9.9871634080
  - # 16
    frequency:   11.7654972597
  - # 17
    frequency:   12.8130992244
  - # 18
    frequency:   13.6902565819
  - # 19
    frequency:   13.9847055198
  - # 20
    frequency:   14.0134032608
  - # 21
    frequency:   16.4508044747
  - # 22
    frequency:   32.2359404101
  - # 23
    frequency:   67.8363635186
  - # 24
    frequency:  114.3731246646

- q-position: [    0.1010101,    0.0000000,    0.0000000 ]
  distance:    0.0321072
  band:
  - # 1
    frequency:   -1.2815648084
  - # 2
    frequency:   -0.7839045096
  - # 3
    frequency:    0.5314983880
  - # 4
    frequency:    1.1398657100
  - # 5
    frequency:    2.0591348545
  - # 6
    frequency:    3.4641987979
  - # 7
    frequency:    3.7134520511
  - # 8
    frequency:    5.1751835142
  - # 9
    frequency:    5.2859443633
  - # 10
    frequency:    5.7456081928
  - # 11
    frequency:    5.9302271149
  - # 12
    frequency:    6.6134678560
  - # 13
    frequency:    7.6679089115
  - # 14
    frequency:    9.6172475633
  - # 15
    frequency:    9.9595187716
  - # 16
    frequency:   11.9149812983
  - # 17
    frequency:   12.8086842876
  - # 18
    frequency:   13.7625959734
  - # 19
    frequency:   13.9857276775
  - # 20
    frequency:   14.0181505665
  - # 21
    frequency:   16.4122714986
  - # 22
    frequency:   32.2222849294
  - # 23
    frequency:   67.8276018929
  - # 24
    frequency:  114.3722337476

- q-position: [    0.1060606,    0.0000000,    0.0000000 ]
  distance:    0.0337125
  band:
  - # 1
    frequency:   -1.2766576532
  - # 2
    frequency:   -0.7194741206
  - # 3
    frequency:    0.5818000280
  - # 4
    frequency:    1.1941398275
  - # 5
    frequency:    2.1583086052
  - # 6
    frequency:    3.4660570255
  - # 7
    frequency:    3.7376270850
  - # 8
    frequency:    5.1739919393
  - # 9
    frequency:    5.2838463243
  - # 10
    frequency:    5.7578675680
  - # 11
    frequency:    5.9319169544
  - # 12
    frequency:    6.6505923854
  - # 13
    frequency:    7.6491267550
  - # 14
    frequency:    9.6112749582
  - # 15
    frequency:    9.9289439466
  - # 16
    frequency:   12.0703626187
  - # 17
    frequency:   12.8043018431
  - # 18
    frequency:   13.8364382137
  - # 19
    frequency:   13.9867983808
  - # 20
    frequency:   14.0237146319
  - # 21
    frequency:   16.3722301190
  - # 22
    frequency:   32.2081600871
  - # 23
    frequency:   67.8185263658
  - # 24
    frequency:  114.3713127632

- q-position: [    0.1111111,    0.0000000,    0.0000000 ]
  distance:    0.0353179
  band:
  - # 1
    frequency:   -1.2715531599
  - # 2
    frequency:   -0.6470818904
  - # 3
    frequency:    0.6337078553
  - # 4
    frequency:    1.2479339929
  - # 5
    frequency:    2.2565184724
  - # 6
    frequency:    3.4680662209
  - # 7
    frequency:    3.7625907820
  - # 8
    frequency:    5.1729561685
  - # 9
    frequency:    5.2818043480
  - # 10
    frequency:    5.7697173635
  - # 11
    frequency:    5.9336400141
  - # 12
    frequency:    6.6847353310
  - # 13
    frequency:    7.6296609203
  - # 14
    frequency:    9.6051683830
  - # 15
    frequency:    9.8961343406
  - # 16
    frequency:   12.2299229042
  - # 17
    frequency:   12.7999855414
  - # 18
    frequency:   13.9108163440
  - # 19
    frequency:   13.9879168985
  - # 20
    frequency:   14.0311365448
  - # 21
    frequency:   16.3307630162
  - # 22
    frequency:   32.1935969717
  - # 23
    frequency:   67.8091551971
  - # 24
    frequency:  114.3703638124

- q-position: [    0.1161616,    0.0000000,    0.0000000 ]
  distance:    0.0369232
  band:
  - # 1
    frequency:   -1.2662392282
  - # 2
    frequency:   -0.5637350257
  - # 3
    frequency:    0.6870496489
  - # 4
    frequency:    1.3012247841
  - # 5
    frequency:    2.3536780413
  - # 6
    frequency:    3.4702336652
  - # 7
    frequency:    3.7883244770
  - # 8
    frequency:    5.1721031912
  - # 9
    frequency:    5.2798327177
  - # 10
    frequency:    5.7812255022
  - # 11
    frequency:    5.9353917154
  - # 12
    frequency:    6.7159994560
  - # 13
    frequency:    7.6095554597
  - # 14
    frequency:    9.5989481456
  - # 15
    frequency:    9.8616485180
  - # 16
    frequency:   12.3920374391
  - # 17
    frequency:   12.7957694589
  - # 18
    frequency:   13.9802856281
  - # 19
    frequency:   13.9890824322
  - # 20
    frequency:   14.0459811192
  - # 21
    frequency:   16.2879630422
  - # 22
    frequency:   32.1786273866
  - # 23
    frequency:   67.7995070687
  - # 24
    frequency:  114.3693890425

- q-position: [    0.1212121,    0.0000000,    0.0000000 ]
  distance:    0.0385286
  band:
  - # 1
    frequency:   -1.2607024858
  - # 2
    frequency:   -0.4635621600
  - # 3
    frequency:    0.7416245108
  - # 4
    frequency:    1.3539911767
  - # 5
    frequency:    2.4496967534
  - # 6
    frequency:    3.4725667994
  - # 7
    frequency:    3.8148138773
  - # 8
    frequency:    5.1714617044
  - # 9
    frequency:    5.2779448245
  - # 10
    frequency:    5.7924437109
  - # 11
    frequency:    5.9371676868
  - # 12
    frequency:    6.7445264351
  - # 13
    frequency:    7.5888600614
  - # 14
    frequency:    9.5926348947
  - # 15
    frequency:    9.8259353144
  - # 16
    frequency:   12.5551543008
  - # 17
    frequency:   12.7916879418
  - # 18
    frequency:   13.9902941125
  - # 19
    frequency:   14.0197581100
  - # 20
    frequency:   14.0935047224
  - # 21
    frequency:   16.2439359936
  - # 22
    frequency:   32.1632837547
  - # 23
    frequency:   67.7896010279
  - # 24
    frequency:  114.3683906406

- q-position: [    0.1262626,    0.0000000,    0.0000000 ]
  distance:    0.0401339
  band:
  - # 1
    frequency:   -1.2549284892
  - # 2
    frequency:   -0.3315164682
  - # 3
    frequency:    0.7972054472
  - # 4
    frequency:    1.4062145730
  - # 5
    frequency:    2.5444789686
  - # 6
    frequency:    3.4750732289
  - # 7
    frequency:    3.8420493935
  - # 8
    frequency:    5.1710621850
  - # 9
    frequency:    5.2761530513
  - # 10
    frequency:    5.8034110476
  - # 11
    frequency:    5.9389637944
  - # 12
    frequency:    6.7704805460
  - # 13
    frequency:    7.5676311010
  - # 14
    frequency:    9.5862495176
  - # 15
    frequency:    9.7893571470
  - # 16
    frequency:   12.7177745633
  - # 17
    frequency:   12.7877754463
  - # 18
    frequency:   13.9915509967
  - # 19
    frequency:   14.0330884480
  - # 20
    frequency:   14.1700705165
  - # 21
    frequency:   16.1988046460
  - # 22
    frequency:   32.1475990227
  - # 23
    frequency:   67.7794564294
  - # 24
    frequency:  114.3673708263

- q-position: [    0.1313131,    0.0000000,    0.0000000 ]
  distance:    0.0417393
  band:
  - # 1
    frequency:   -1.2489018999
  - # 2
    frequency:   -0.0514803692
  - # 3
    frequency:    0.8535462897
  - # 4
    frequency:    1.4578788001
  - # 5
    frequency:    2.6379230753
  - # 6
    frequency:    3.4777607280
  - # 7
    frequency:    3.8700264919
  - # 8
    frequency:    5.1709369749
  - # 9
    frequency:    5.2744686677
  - # 10
    frequency:    5.8141566855
  - # 11
    frequency:    5.9407761709
  - # 12
    frequency:    6.7940354283
  - # 13
    frequency:    7.5459329792
  - # 14
    frequency:    9.5798130318
  - # 15
    frequency:    9.7522087643
  - # 16
    frequency:   12.7840663774
  - # 17
    frequency:   12.8784347660
  - # 18
    frequency:   13.9928520660
  - # 19
    frequency:   14.0417144412
  - # 20
    frequency:   14.2545067935
  - # 21
    frequency:   16.1527147444
  - # 22
    frequency:   32.1316065647
  - # 23
    frequency:   67.7690928780
  - # 24
    frequency:  114.3663318450

- q-position: [    0.1363636,    0.0000000,    0.0000000 ]
  distance:    0.0433447
  band:
  - # 1
    frequency:   -1.2426066378
  - # 2
    frequency:    0.3273347294
  - # 3
    frequency:    0.9103923137
  - # 4
    frequency:    1.5089700815
  - # 5
    frequency:    2.7299206485
  - # 6
    frequency:    3.4806372458
  - # 7