nqpoint: 300    
npath: 3      
segment_nqpoint:
- 100
- 100
- 100
labels:
- [ 'G', 'M' ]
- [ 'M', 'K' ]
- [ 'K', 'G' ]
reciprocal_lattice:
- [   0.28860972,   0.16662890,   0.00000000 ] # a*
- [   0.00000000,   0.33325780,   0.00000000 ] # b*
- [   0.00000000,   0.00000000,   0.03806632 ] # c*
natom: 7      
lattice:
- [     3.464886789896391,     0.000000000000000,     0.000000000000000 ] # a
- [    -1.732443394948195,     3.000679981279418,     0.000000000000000 ] # b
- [     0.000000000000000,     0.000000000000000,    26.269940772648702 ] # c
points:
- symbol: C # 1
  coordinates: [  0.000000000000000,  0.000000000000000,  0.434705869065201 ]
  mass: 12.010700
- symbol: C # 2
  coordinates: [  0.333332985432215,  0.666666983183674,  0.612078373719471 ]
  mass: 12.010700
- symbol: F # 3
  coordinates: [  0.666666984744047,  0.333332985985145,  0.342596889650032 ]
  mass: 18.998403
- symbol: N # 4
  coordinates: [  0.333332985432215,  0.666666983183674,  0.657403110349968 ]
  mass: 14.006700
- symbol: S # 5
  coordinates: [  0.333332985432215,  0.666666983183674,  0.548032593269239 ]
  mass: 32.065000
- symbol: Zr # 6
  coordinates: [  0.333332985432215,  0.666666983183674,  0.391493159354087 ]
  mass: 91.224000
- symbol: Zr # 7
  coordinates: [  0.666666984744047,  0.333332985985145,  0.483501585204961 ]
  mass: 91.224000

phonon:
- q-position: [    0.0000000,    0.0000000,    0.0000000 ]
  distance:    0.0000000
  band:
  - # 1
    frequency:   -1.3896515728
  - # 2
    frequency:   -1.3896515727
  - # 3
    frequency:   -0.0000150430
  - # 4
    frequency:    0.0000001359
  - # 5
    frequency:    0.0000144175
  - # 6
    frequency:    3.9429549559
  - # 7
    frequency:    3.9429549559
  - # 8
    frequency:    5.1852428595
  - # 9
    frequency:    5.1852428596
  - # 10
    frequency:    5.3759436482
  - # 11
    frequency:    6.9154590041
  - # 12
    frequency:    6.9154590041
  - # 13
    frequency:    8.3470064898
  - # 14
    frequency:   10.7382808035
  - # 15
    frequency:   10.7382808035
  - # 16
    frequency:   11.1722606973
  - # 17
    frequency:   15.2672767514
  - # 18
    frequency:   16.4554006498
  - # 19
    frequency:   16.4554006498
  - # 20
    frequency:   19.9760480848
  - # 21
    frequency:   64.8065298603

- q-position: [    0.0050505,    0.0000000,    0.0000000 ]
  distance:    0.0016831
  band:
  - # 1
    frequency:   -1.3885198552
  - # 2
    frequency:   -1.3878685903
  - # 3
    frequency:    0.0019189400
  - # 4
    frequency:    0.0574473407
  - # 5
    frequency:    0.0948688755
  - # 6
    frequency:    3.9430934040
  - # 7
    frequency:    3.9440702767
  - # 8
    frequency:    5.1852907022
  - # 9
    frequency:    5.1857230832
  - # 10
    frequency:    5.3758611406
  - # 11
    frequency:    6.9154670968
  - # 12
    frequency:    6.9158677844
  - # 13
    frequency:    8.3466398170
  - # 14
    frequency:   10.7383526741
  - # 15
    frequency:   10.7384785303
  - # 16
    frequency:   11.1716214169
  - # 17
    frequency:   15.2668986753
  - # 18
    frequency:   16.4552805673
  - # 19
    frequency:   16.4559258456
  - # 20
    frequency:   19.9759870992
  - # 21
    frequency:   64.8064684954

- q-position: [    0.0101010,    0.0000000,    0.0000000 ]
  distance:    0.0033662
  band:
  - # 1
    frequency:   -1.3851223076
  - # 2
    frequency:   -1.3825144718
  - # 3
    frequency:    0.0076706779
  - # 4
    frequency:    0.1148821021
  - # 5
    frequency:    0.1897615372
  - # 6
    frequency:    3.9435083081
  - # 7
    frequency:    3.9474064845
  - # 8
    frequency:    5.1854343113
  - # 9
    frequency:    5.1871526453
  - # 10
    frequency:    5.3756275126
  - # 11
    frequency:    6.9154911717
  - # 12
    frequency:    6.9170910001
  - # 13
    frequency:    8.3455407349
  - # 14
    frequency:   10.7385680526
  - # 15
    frequency:   10.7390711087
  - # 16
    frequency:   11.1697046451
  - # 17
    frequency:   15.2657664916
  - # 18
    frequency:   16.4549213918
  - # 19
    frequency:   16.4574972414
  - # 20
    frequency:   19.9758042712
  - # 21
    frequency:   64.8062844930

- q-position: [    0.0151515,    0.0000000,    0.0000000 ]
  distance:    0.0050494
  band:
  - # 1
    frequency:   -1.3794516695
  - # 2
    frequency:   -1.3735733849
  - # 3
    frequency:    0.0172404734
  - # 4
    frequency:    0.1722917995
  - # 5
    frequency:    0.2847002935
  - # 6
    frequency:    3.9441983474
  - # 7
    frequency:    3.9529344716
  - # 8
    frequency:    5.1856739275
  - # 9
    frequency:    5.1894978908
  - # 10
    frequency:    5.3752847492
  - # 11
    frequency:    6.9155306229
  - # 12
    frequency:    6.9191193418
  - # 13
    frequency:    8.3437120438
  - # 14
    frequency:   10.7389262395
  - # 15
    frequency:   10.7400567243
  - # 16
    frequency:   11.1665136026
  - # 17
    frequency:   15.2638862968
  - # 18
    frequency:   16.4543263335
  - # 19
    frequency:   16.4601023192
  - # 20
    frequency:   19.9754999864
  - # 21
    frequency:   64.8059781301

- q-position: [    0.0202020,    0.0000000,    0.0000000 ]
  distance:    0.0067325
  band:
  - # 1
    frequency:   -1.3714955836
  - # 2
    frequency:   -1.3610178783
  - # 3
    frequency:    0.0306046184
  - # 4
    frequency:    0.2296641287
  - # 5
    frequency:    0.3797045724
  - # 6
    frequency:    3.9451613213
  - # 7
    frequency:    3.9606062372
  - # 8
    frequency:    5.1860099403
  - # 9
    frequency:    5.1927016680
  - # 10
    frequency:    5.3749037927
  - # 11
    frequency:    6.9155844532
  - # 12
    frequency:    6.9219375142
  - # 13
    frequency:    8.3411583813
  - # 14
    frequency:   10.7394260720
  - # 15
    frequency:   10.7414323246
  - # 16
    frequency:   11.1620537049
  - # 17
    frequency:   15.2612681310
  - # 18
    frequency:   16.4535007229
  - # 19
    frequency:   16.4637204051
  - # 20
    frequency:   19.9750748853
  - # 21
    frequency:   64.8055498671

- q-position: [    0.0252525,    0.0000000,    0.0000000 ]
  distance:    0.0084156
  band:
  - # 1
    frequency:   -1.3612361992
  - # 2
    frequency:   -1.3448072867
  - # 3
    frequency:    0.0477317984
  - # 4
    frequency:    0.2869870578
  - # 5
    frequency:    0.4747896483
  - # 6
    frequency:    3.9463941498
  - # 7
    frequency:    3.9703556286
  - # 8
    frequency:    5.1864428717
  - # 9
    frequency:    5.1966818914
  - # 10
    frequency:    5.3745858493
  - # 11
    frequency:    6.9156512926
  - # 12
    frequency:    6.9255245543
  - # 13
    frequency:    8.3378861795
  - # 14
    frequency:   10.7400659286
  - # 15
    frequency:   10.7431935725
  - # 16
    frequency:   11.1563326350
  - # 17
    frequency:   15.2579258034
  - # 18
    frequency:   16.4524519808
  - # 19
    frequency:   16.4683229450
  - # 20
    frequency:   19.9745298589
  - # 21
    frequency:   64.8050003477

- q-position: [    0.0303030,    0.0000000,    0.0000000 ]
  distance:    0.0100987
  band:
  - # 1
    frequency:   -1.3486495897
  - # 2
    frequency:   -1.3248854927
  - # 3
    frequency:    0.0685849473
  - # 4
    frequency:    0.3442489151
  - # 5
    frequency:    0.5699655567
  - # 6
    frequency:    3.9478928758
  - # 7
    frequency:    3.9820993280
  - # 8
    frequency:    5.1869733527
  - # 9
    frequency:    5.2013299442
  - # 10
    frequency:    5.3744638140
  - # 11
    frequency:    6.9157294242
  - # 12
    frequency:    6.9298542565
  - # 13
    frequency:    8.3339036052
  - # 14
    frequency:   10.7408437351
  - # 15
    frequency:   10.7453347731
  - # 16
    frequency:   11.1493604542
  - # 17
    frequency:   15.2538766615
  - # 18
    frequency:   16.4511895772
  - # 19
    frequency:   16.4738738748
  - # 20
    frequency:   19.9738660439
  - # 21
    frequency:   64.8043303964

- q-position: [    0.0353535,    0.0000000,    0.0000000 ]
  distance:    0.0117818
  band:
  - # 1
    frequency:   -1.3337049572
  - # 2
    frequency:   -1.3011780258
  - # 3
    frequency:    0.0931236065
  - # 4
    frequency:    0.4014384740
  - # 5
    frequency:    0.6652362326
  - # 6
    frequency:    3.9496526696
  - # 7
    frequency:    3.9957380424
  - # 8
    frequency:    5.1876020948
  - # 9
    frequency:    5.2065096069
  - # 10
    frequency:    5.3747031388
  - # 11
    frequency:    6.9158168169
  - # 12
    frequency:    6.9348956848
  - # 13
    frequency:    8.3292204865
  - # 14
    frequency:   10.7417569729
  - # 15
    frequency:   10.7478487635
  - # 16
    frequency:   11.1411497588
  - # 17
    frequency:   15.2491413138
  - # 18
    frequency:   16.4497249777
  - # 19
    frequency:   16.4803300736
  - # 20
    frequency:   19.9730848159
  - # 21
    frequency:   64.8035410173

- q-position: [    0.0404040,    0.0000000,    0.0000000 ]
  distance:    0.0134650
  band:
  - # 1
    frequency:   -1.3163635797
  - # 2
    frequency:   -1.2735884456
  - # 3
    frequency:    0.1213067762
  - # 4
    frequency:    0.4585450364
  - # 5
    frequency:    0.7605988903
  - # 6
    frequency:    3.9516678351
  - # 7
    frequency:    4.0111578477
  - # 8
    frequency:    5.1883298565
  - # 9
    frequency:    5.2120577730
  - # 10
    frequency:    5.3755008918
  - # 11
    frequency:    6.9159111629
  - # 12
    frequency:    6.9406137507
  - # 13
    frequency:    8.3238482255
  - # 14
    frequency:   10.7428026889
  - # 15
    frequency:   10.7507267502
  - # 16
    frequency:   11.1317158972
  - # 17
    frequency:   15.2437433211
  - # 18
    frequency:   16.4480715793
  - # 19
    frequency:   16.4876418814
  - # 20
    frequency:   19.9721877815
  - # 21
    frequency:   64.8026333914

- q-position: [    0.0454545,    0.0000000,    0.0000000 ]
  distance:    0.0151481
  band:
  - # 1
    frequency:   -1.2965774426
  - # 2
    frequency:   -1.2419938972
  - # 3
    frequency:    0.1530962401
  - # 4
    frequency:    0.5155585119
  - # 5
    frequency:    0.8560436413
  - # 6
    frequency:    3.9539318218
  - # 7
    frequency:    4.0282316417
  - # 8
    frequency:    5.1891574041
  - # 9
    frequency:    5.2177889397
  - # 10
    frequency:    5.3770810245
  - # 11
    frequency:    6.9160099229
  - # 12
    frequency:    6.9469698332
  - # 13
    frequency:    8.3177997011
  - # 14
    frequency:   10.7439775071
  - # 15
    frequency:   10.7539580693
  - # 16
    frequency:   11.1210772711
  - # 17
    frequency:   15.2377088671
  - # 18
    frequency:   16.4462446339
  - # 19
    frequency:   16.4957536676
  - # 20
    frequency:   19.9711767688
  - # 21
    frequency:   64.8016088740

- q-position: [    0.0505051,    0.0000000,    0.0000000 ]
  distance:    0.0168312
  band:
  - # 1
    frequency:   -1.2742874686
  - # 2
    frequency:   -1.2062396248
  - # 3
    frequency:    0.1884603258
  - # 4
    frequency:    0.5724694942
  - # 5
    frequency:    0.9515533297
  - # 6
    frequency:    3.9564372405
  - # 7
    frequency:    4.0468206664
  - # 8
    frequency:    5.1900854704
  - # 9
    frequency:    5.2235059531
  - # 10
    frequency:    5.3796833711
  - # 11
    frequency:    6.9161103742
  - # 12
    frequency:    6.9539224197
  - # 13
    frequency:    8.3110891615
  - # 14
    frequency:   10.7452776421
  - # 15
    frequency:   10.7575298315
  - # 16
    frequency:   11.1092557584
  - # 17
    frequency:   15.2310664221
  - # 18
    frequency:   16.4442611620
  - # 19
    frequency:   16.5046044335
  - # 20
    frequency:   19.9700538169
  - # 21
    frequency:   64.8004689914

- q-position: [    0.0555556,    0.0000000,    0.0000000 ]
  distance:    0.0185143
  band:
  - # 1
    frequency:   -1.2494212264
  - # 2
    frequency:   -1.1661320388
  - # 3
    frequency:    0.2273780032
  - # 4
    frequency:    0.6292693334
  - # 5
    frequency:    1.0471035463
  - # 6
    frequency:    3.9591758863
  - # 7
    frequency:    4.0667760683
  - # 8
    frequency:    5.1911147090
  - # 9
    frequency:    5.2290188781
  - # 10
    frequency:    5.3835445032
  - # 11
    frequency:    6.9162096642
  - # 12
    frequency:    6.9614277459
  - # 13
    frequency:    8.3037321119
  - # 14
    frequency:   10.7466989142
  - # 15
    frequency:   10.7614263869
  - # 16
    frequency:   11.0962773185
  - # 17
    frequency:   15.2238464092
  - # 18
    frequency:   16.4421398546
  - # 19
    frequency:   16.5141284348
  - # 20
    frequency:   19.9688211641
  - # 21
    frequency:   64.7992154376

- q-position: [    0.0606061,    0.0000000,    0.0000000 ]
  distance:    0.0201974
  band:
  - # 1
    frequency:   -1.2218899456
  - # 2
    frequency:   -1.1214295751
  - # 3
    frequency:    0.2698430846
  - # 4
    frequency:    0.6859502045
  - # 5
    frequency:    1.1426627753
  - # 6
    frequency:    3.9621387690
  - # 7
    frequency:    4.0879404827
  - # 8
    frequency:    5.1922456485
  - # 9
    frequency:    5.2341711261
  - # 10
    frequency:    5.3888712934
  - # 11
    frequency:    6.9163048662
  - # 12
    frequency:    6.9694404176
  - # 13
    frequency:    8.2957451967
  - # 14
    frequency:   10.7482367665
  - # 15
    frequency:   10.7656285075
  - # 16
    frequency:   11.0821728834
  - # 17
    frequency:   15.2160808835
  - # 18
    frequency:   16.4399009657
  - # 19
    frequency:   16.5242558102
  - # 20
    frequency:   19.9674812355
  - # 21
    frequency:   64.7978500702

- q-position: [    0.0656566,    0.0000000,    0.0000000 ]
  distance:    0.0218806
  band:
  - # 1
    frequency:   -1.1915845839
  - # 2
    frequency:   -1.0718298684
  - # 3
    frequency:    0.3158679944
  - # 4
    frequency:    0.7425051713
  - # 5
    frequency:    1.2381926232
  - # 6
    frequency:    3.9653161526
  - # 7
    frequency:    4.1101496394
  - # 8
    frequency:    5.1934786437
  - # 9
    frequency:    5.2388672673
  - # 10
    frequency:    5.3958127394
  - # 11
    frequency:    6.9163930390
  - # 12
    frequency:    6.9779139986
  - # 13
    frequency:    8.2871460815
  - # 14
    frequency:   10.7498862837
  - # 15
    frequency:   10.7701121077
  - # 16
    frequency:   11.0669797110
  - # 17
    frequency:   15.2078032293
  - # 18
    frequency:   16.4375661942
  - # 19
    frequency:   16.5349132076
  - # 20
    frequency:   19.9660366289
  - # 21
    frequency:   64.7963749063

- q-position: [    0.0707071,    0.0000000,    0.0000000 ]
  distance:    0.0235637
  band:
  - # 1
    frequency:   -1.1583705746
  - # 2
    frequency:   -1.0169502369
  - # 3
    frequency:    0.3654860161
  - # 4
    frequency:    0.7989282447
  - # 5
    frequency:    1.3336480806
  - # 6
    frequency:    3.9686976038
  - # 7
    frequency:    4.1332340062
  - # 8
    frequency:    5.1948138287
  - # 9
    frequency:    5.2430931338
  - # 10
    frequency:    5.4044394086
  - # 11
    frequency:    6.9164712868
  - # 12
    frequency:    6.9868015538
  - # 13
    frequency:    8.2779533367
  - # 14
    frequency:   10.7516422119
  - # 15
    frequency:   10.7748461869
  - # 16
    frequency:   11.0507435139
  - # 17
    frequency:   15.1990478807
  - # 18
    frequency:   16.4351585573
  - # 19
    frequency:   16.5460243968
  - # 20
    frequency:   19.9644901003
  - # 21
    frequency:   64.7947921177

- q-position: [    0.0757576,    0.0000000,    0.0000000 ]
  distance:    0.0252468
  band:
  - # 1
    frequency:   -1.1220806800
  - # 2
    frequency:   -0.9562951219
  - # 3
    frequency:    0.4187499546
  - # 4
    frequency:    0.8552144360
  - # 5
    frequency:    1.4289777772
  - # 6
    frequency:    3.9722720528
  - # 7
    frequency:    4.1570205027
  - # 8
    frequency:    5.1962510697
  - # 9
    frequency:    5.2469200788
  - # 10
    frequency:    5.4147385965
  - # 11
    frequency:    6.9165368211
  - # 12
    frequency:    6.9960561384
  - # 13
    frequency:    8.2681863243
  - # 14
    frequency:   10.7534989807
  - # 15
    frequency:   10.7797894144
  - # 16
    frequency:   11.0335219429
  - # 17
    frequency:   15.1898500675
  - # 18
    frequency:   16.4327022541
  - # 19
    frequency:   16.5575108654
  - # 20
    frequency:   19.9628445492
  - # 21
    frequency:   64.7931040259

- q-position: [    0.0808081,    0.0000000,    0.0000000 ]
  distance:    0.0269299
  band:
  - # 1
    frequency:   -1.0825050574
  - # 2
    frequency:   -0.8891964749
  - # 3
    frequency:    0.4757236994
  - # 4
    frequency:    0.9113598016
  - # 5
    frequency:    1.5241241983
  - # 6
    frequency:    3.9760278641
  - # 7
    frequency:    4.1813343278
  - # 8
    frequency:    5.1977899207
  - # 9
    frequency:    5.2504922296
  - # 10
    frequency:    5.4266263074
  - # 11
    frequency:    6.9165870220
  - # 12
    frequency:    7.0056312304
  - # 13
    frequency:    8.2578650934
  - # 14
    frequency:   10.7554507264
  - # 15
    frequency:   10.7848842397
  - # 16
    frequency:   11.0153905381
  - # 17
    frequency:   15.1802455875
  - # 18
    frequency:   16.4302225219
  - # 19
    frequency:   16.5692923906
  - # 20
    frequency:   19.9611030022
  - # 21
    frequency:   64.7913130973

- q-position: [    0.0858586,    0.0000000,    0.0000000 ]
  distance:    0.0286130
  band:
  - # 1
    frequency:   -1.0393770889
  - # 2
    frequency:   -0.8146950238
  - # 3
    frequency:    0.5364615849
  - # 4
    frequency:    0.9673614800
  - # 5
    frequency:    1.6190238434
  - # 6
    frequency:    3.9799529198
  - # 7
    frequency:    4.2060009543
  - # 8
    frequency:    5.1994295819
  - # 9
    frequency:    5.2540031245
  - # 10
    frequency:    5.4399696176
  - # 11
    frequency:    6.9166194988
  - # 12
    frequency:    7.0154811010
  - # 13
    frequency:    8.2470102842
  - # 14
    frequency:   10.7574913166
  - # 15
    frequency:   10.7900462875
  - # 16
    frequency:   10.9964533888
  - # 17
    frequency:   15.1702706036
  - # 18
    frequency:   16.4277454850
  - # 19
    frequency:   16.5812875867
  - # 20
    frequency:   19.9592685968
  - # 21
    frequency:   64.7894219371

- q-position: [    0.0909091,    0.0000000,    0.0000000 ]
  distance:    0.0302962
  band:
  - # 1
    frequency:   -0.9923525384
  - # 2
    frequency:   -0.7312850198
  - # 3
    frequency:    0.6009701211
  - # 4
    frequency:    1.0232177168
  - # 5
    frequency:    1.7136073175
  - # 6
    frequency:    3.9840347144
  - # 7
    frequency:    4.2308483481
  - # 8
    frequency:    5.2011688617
  - # 9
    frequency:    5.2576706591
  - # 10
    frequency:    5.4546104368
  - # 11
    frequency:    6.9166321496
  - # 12
    frequency:    7.0255611254
  - # 13
    frequency:    8.2356430453
  - # 14
    frequency:   10.7596143755
  - # 15
    frequency:   10.7951443075
  - # 16
    frequency:   10.9768632281
  - # 17
    frequency:   15.1599614648
  - # 18
    frequency:   16.4252979966
  - # 19
    frequency:   16.5934144247
  - # 20
    frequency:   19.9573445653
  - # 21
    frequency:   64.7874332836

- q-position: [    0.0959596,    0.0000000,    0.0000000 ]
  distance:    0.0319793
  band:
  - # 1
    frequency:   -0.9409777460
  - # 2
    frequency:   -0.6363160610
  - # 3
    frequency:    0.6691507778
  - # 4
    frequency:    1.0789278762
  - # 5
    frequency:    1.8077993544
  - # 6
    frequency:    3.9882604623
  - # 7
    frequency:    4.2557094567
  - # 8
    frequency:    5.2030061441
  - # 9
    frequency:    5.2617165439
  - # 10
    frequency:    5.4703844262
  - # 11
    frequency:    6.9166232177
  - # 12
    frequency:    7.0358280343
  - # 13
    frequency:    8.2237849661
  - # 14
    frequency:   10.7618133114
  - # 15
    frequency:   10.7999603080
  - # 16
    frequency:   10.9568613307
  - # 17
    frequency:   15.1493545485
  - # 18
    frequency:   16.4229074754
  - # 19
    frequency:   16.6055907248
  - # 20
    frequency:   19.9553342177
  - # 21
    frequency:   64.7853500023

- q-position: [    0.1010101,    0.0000000,    0.0000000 ]
  distance:    0.0336624
  band:
  - # 1
    frequency:   -0.8846388758
  - # 2
    frequency:   -0.5243788460
  - # 3
    frequency:    0.7407345741
  - # 4
    frequency:    1.1344924361
  - # 5
    frequency:    1.9015187774
  - # 6
    frequency:    3.9926172148
  - # 7
    frequency:    4.2804249944
  - # 8
    frequency:    5.2049393613
  - # 9
    frequency:    5.2663521985
  - # 10
    frequency:    5.4871331259
  - # 11
    frequency:    6.9165913461
  - # 12
    frequency:    7.0462401087
  - # 13
    frequency:    8.2114580276
  - # 14
    frequency:   10.7640813436
  - # 15
    frequency:   10.8041069410
  - # 16
    frequency:   10.9368601476
  - # 17
    frequency:   15.1384861212
  - # 18
    frequency:   16.4206017373
  - # 19
    frequency:   16.6177346209
  - # 20
    frequency:   19.9532409250
  - # 21
    frequency:   64.7831750792

- q-position: [    0.1060606,    0.0000000,    0.0000000 ]
  distance:    0.0353455
  band:
  - # 1
    frequency:   -0.8224762945
  - # 2
    frequency:   -0.3814283533
  - # 3
    frequency:    0.8152368422
  - # 4
    frequency:    1.1899129613
  - # 5
    frequency:    1.9946784087
  - # 6
    frequency:    3.9970919890
  - # 7
    frequency:    4.3048465160
  - # 8
    frequency:    5.2069659726
  - # 9
    frequency:    5.2717701575
  - # 10
    frequency:    5.5047102298
  - # 11
    frequency:    6.9165356279
  - # 12
    frequency:    7.0567573213
  - # 13
    frequency:    8.1986845721
  - # 14
    frequency:   10.7664115309
  - # 15
    frequency:   10.8068567877
  - # 16
    frequency:   10.9176140230
  - # 17
    frequency:   15.1273922148
  - # 18
    frequency:   16.4184088238
  - # 19
    frequency:   16.6297649980
  - # 20
    frequency:   19.9510681029
  - # 21
    frequency:   64.7809116146

- q-position: [    0.1111111,    0.0000000,    0.0000000 ]
  distance:    0.0370286
  band:
  - # 1
    frequency:   -0.7532294460
  - # 2
    frequency:   -0.1279229348
  - # 3
    frequency:    0.8919678785
  - # 4
    frequency:    1.2451920540
  - # 5
    frequency:    2.0871849405
  - # 6
    frequency:    4.0016719047
  - # 7
    frequency:    4.3288397194
  - # 8
    frequency:    5.2090829500
  - # 9
    frequency:    5.2781391476
  - # 10
    frequency:    5.5229839131
  - # 11
    frequency:    6.9164556529
  - # 12
    frequency:    7.0673414287
  - # 13
    frequency:    8.1854872972
  - # 14
    frequency:   10.7687968005
  - # 15
    frequency:   10.8068457053
  - # 16
    frequency:   10.9005158355
  - # 17
    frequency:   15.1161085161
  - # 18
    frequency:   16.4163568273
  - # 19
    frequency:   16.6416019027
  - # 20
    frequency:   19.9488191951
  - # 21
    frequency:   64.7785628158

- q-position: [    0.1161616,    0.0000000,    0.0000000 ]
  distance:    0.0387118
  band:
  - # 1
    frequency:   -0.6749277208
  - # 2
    frequency:    0.3362515997
  - # 3
    frequency:    0.9701129503
  - # 4
    frequency:    1.3003332757
  - # 5
    frequency:    2.1789387827
  - # 6
    frequency:    4.0063443296
  - # 7
    frequency:    4.3522878599
  - # 8
    frequency:    5.2112867714
  - # 9
    frequency:    5.2856012408
  - # 10
    frequency:    5.5418369290
  - # 11
    frequency:    6.9163515493
  - # 12
    frequency:    7.0779560168
  - # 13
    frequency:    8.1718892737
  - # 14
    frequency:   10.7712299765
  - # 15
    frequency:   10.8019306189
  - # 16
    frequency:   10.8877391742
  - # 17
    frequency:   15.1046702668
  - # 18
    frequency:   16.4144737159
  - # 19
    frequency:   16.6531669275
  - # 20
    frequency:   19.9464976579
  - # 21
    frequency:   64.7761319909

- q-position: [    0.1212121,    0.0000000,    0.0000000 ]
  distance:    0.0403949
  band:
  - # 1
    frequency:   -0.5841855106
  - # 2
    frequency:    0.4938951165
  - # 3
    frequency:    1.0488519401
  - # 4
    frequency:    1.3553410367
  - # 5
    frequency:    2.2698339035
  - # 6
    frequency:    4.0110970295
  - # 7
    frequency:    4.3750950914
  - # 8
    frequency:    5.2135734213
  - # 9
    frequency:    5.2942700876
  - # 10
    frequency:    5.5611656533
  - # 11
    frequency:    6.9162240209
  - # 12
    frequency:    7.0885665035
  - # 13
    frequency:    8.1579139905
  - # 14
    frequency:   10.7737038093
  - # 15
    frequency:   10.7903123861
  - # 16
    frequency:   10.8811154254
  - # 17
    frequency:   15.0931121720
  - # 18
    frequency:   16.4127871572
  - # 19
    frequency:   16.6643835704
  - # 20
    frequency:   19.9441069448
  - # 21
    frequency:   64.7736225409

- q-position: [    0.1262626,    0.0000000,    0.0000000 ]
  distance:    0.0420780
  band:
  - # 1
    frequency:   -0.4742198381
  - # 2
    frequency:    0.6145025105
  - # 3
    frequency:    1.1274652414
  - # 4
    frequency:    1.4102204529
  - # 5
    frequency:    2.3597576815
  - # 6
    frequency:    4.0159183234
  - # 7
    frequency:    4.3971895015
  - # 8
    frequency:    5.2159383991
  - # 9
    frequency:    5.3042297811
  - # 10
    frequency:    5.5808787612
  - # 11
    frequency:    6.9160743785
  - # 12
    frequency:    7.0991401012
  - # 13
    frequency:    8.1435854283
  - # 14
    frequency:   10.7724331787
  - # 15
    frequency:   10.7762110041
  - # 16
    frequency:   10.8802363225
  - # 17
    frequency:   15.0814683150
  - # 18
    frequency:   16.4113243439
  - # 19
    frequency:   16.6751775688
  - # 20
    frequency:   19.9416504922
  - # 21
    frequency:   64.7710379529

- q-position: [    0.1313131,    0.0000000,    0.0000000 ]
  distance:    0.0437611
  band:
  - # 1
    frequency:   -0.3265932764
  - # 2
    frequency:    0.7179944982
  - # 3
    frequency:    1.2053902685
  - # 4
    frequency:    1.4649771649
  - # 5
    frequency:    2.4485907876
  - # 6
    frequency:    4.0207972392
  - # 7
    frequency:    4.4185255722
  - # 8
    frequency:    5.2183767350
  - # 9
    frequency:    5.3155342663
  - # 10
    frequency:    5.6008958776
  - # 11
    frequency:    6.9159045661
  - # 12
    frequency:    7.1096457418
  - # 13
    frequency:    8.1289281639
  - # 14
    frequency:   10.7502290108
  - # 15
    frequency:   10.7787442494
  - # 16
    frequency:   10.8832013297
  - # 17
    frequency:   15.0697720770
  - # 18
    frequency:   16.4101118218
  - # 19
    frequency:   16.6854772098
  - # 20
    frequency:   19.9391317055
  - # 21
    frequency:   64.7683817924

- q-position: [    0.1363636,    0.0000000,    0.0000000 ]
  distance:    0.0454442
  band:
  - # 1
    frequency:    0.1143887789
  - # 2
    frequency:    0.8117494201
  - # 3
    frequency:    1.2822279129
  - # 4
    frequency:    1.5196171218
  - # 5
    frequency:    2.5362071214
  - # 6
    frequency:    4.0257236697
  - # 7
    frequency:    4.4390858080
  - # 8
    frequency:    5.2208830143
  - # 9
    frequency:    5.3282073974
  - # 10
    frequency:    5.6211463496
  - # 11
    frequency:    6.9157171808
  - # 12
    frequency:    7.1200539647
  - # 13
    frequency:    8.1139675064
  - # 14
    frequency:   10.7253234088
  - # 15
    frequency:   10.7812962449
  - # 16
    frequency:   10.8884238666
  - # 17
    frequency:   15.0580560608
  - # 18
    frequency:   16.4091753214
  - # 19
    frequency:   16.6952136162
  - # 20
    frequency:   19.9365539473
  - # 21
    frequency:   64.7656576965

- q-position: [    0.1414141,    0.0000000,    0.0000000 ]
  distance:    0.0471274
  band:
  - # 1
    frequency:    0.3661256649
  - # 2
    frequency:    0.8994399381
  - # 3
    frequency:    1.3577187060
  - # 4
    frequency:    1.5741463289
  - # 5
    frequency:    2.6224738265
  - # 6
    frequency:    4.0306885252
  - # 7
    frequency:    4.4588813225
  - # 8
    frequency:    5.2234514078
  - # 9
    frequency:    5.3422437892
  - # 10
    frequency:    5.6415681804
  - # 11
    frequency:    6.9155154870
  - # 12
    frequency:    7.1303367701
  - # 13
    frequency:    8.0987296659
  - # 14
    frequency:   10.6986672697
  - # 15
    frequency:   10.7838597283
  - # 16
    frequency:   10.8949913246
  - # 17
    frequency:   15.0463520172
  - # 18
    frequency:   16.4085395944
  - # 19
    frequency:   16.7043210094
  - # 20
    frequency:   19.9339205258
  - # 21
    frequency:   64.7628693654

- q-position: [    0.1464646,    0.0000000,    0.0000000 ]
  distance:    0.0488105
  band:
  - # 1
    frequency:    0.5058763614
  - # 2
    frequency:    0.9831585165
  - # 3
    frequency:    1.4317089461
  - # 4
    frequency:    1.6285705639
  - # 5
    frequency:    2.7072514218
  - # 6
    frequency:    4.0356838815
  - # 7
    frequency:    4.4779512610
  - # 8
    frequency:    5.2260757102
  - # 9
    frequency:    5.3576105649
  - # 10
    frequency:    5.6621071201
  - # 11
    frequency:    6.9153034243
  - # 12
    frequency:    7.1404674379
  - # 13
    frequency:    8.0832419576
  - # 14
    frequency:   10.6707889248
  - # 15
    frequency:   10.7864275018
  - # 16
    frequency:   10.9024148615
  - # 17
    frequency:   15.0346907730
  - # 18
    frequency:   16.4082282578
  - # 19
    frequency:   16.7127369490
  - # 20
    frequency:   19.9312346849
  - # 21
    frequency:   64.7600205556

- q-position: [    0.1515152,    0.0000000,    0.0000000 ]
  distance:    0.0504936
  band:
  - # 1
    frequency:    0.6151055495
  - # 2
    frequency:    1.0641887084
  - # 3
    frequency:    1.5041189133
  - # 4
    frequency:    1.6828950653
  - # 5
    frequency:    2.7903940873
  - # 6
    frequency:    4.0407031203
  - # 7
    frequency:    4.4963610503
  - # 8
    frequency:    5.2287493834
  - # 9
    frequency:    5.3742499941
  - # 10
    frequency:    5.6827158886
  - # 11
    frequency:    6.9150856086
  - # 12
    frequency:    7.1504203112
  - # 13
    frequency:    8.0675330392
  - # 14
    frequency:   10.6419999987
  - # 15
    frequency:   10.7889924568
  - # 16
    frequency:   10.9104233848
  - # 17
    frequency:   15.0231021613
  - # 18
    frequency:   16.4082636436
  - # 19
    frequency:   16.7204025494
  - # 20
    frequency:   19.9284995959
  - # 21
    frequency:   64.7571150721