nqpoint: 300    
npath: 3      
segment_nqpoint:
- 100
- 100
- 100
labels:
- [ 'G', 'M' ]
- [ 'M', 'K' ]
- [ 'K', 'G' ]
reciprocal_lattice:
- [   0.29598753,   0.17088848,   0.00000000 ] # a*
- [   0.00000000,   0.34177696,   0.00000000 ] # b*
- [   0.00000000,   0.00000000,   0.03892600 ] # c*
natom: 7      
lattice:
- [     3.378520703086160,     0.000000000000000,     0.000000000000000 ] # a
- [    -1.689260351543080,     2.925884756088320,     0.000000000000000 ] # b
- [     0.000000000000000,     0.000000000000000,    25.689772963545693 ] # c
points:
- symbol: C # 1
  coordinates: [  0.000000000000000,  0.000000000000000,  0.437772030980829 ]
  mass: 12.010700
- symbol: C # 2
  coordinates: [  0.333332985432215,  0.666666983183674,  0.589188766352846 ]
  mass: 12.010700
- symbol: H # 3
  coordinates: [  0.666666984744048,  0.333332985985145,  0.350333964133166 ]
  mass: 1.007940
- symbol: N # 4
  coordinates: [  0.333332985432215,  0.666666983183674,  0.540458517883887 ]
  mass: 14.006700
- symbol: S # 5
  coordinates: [  0.333332985432215,  0.666666983183674,  0.649666035866834 ]
  mass: 32.065000
- symbol: Zr # 6
  coordinates: [  0.333332985432215,  0.666666983183674,  0.389134849123083 ]
  mass: 91.224000
- symbol: Zr # 7
  coordinates: [  0.666666984744048,  0.333332985985145,  0.485991858728657 ]
  mass: 91.224000

phonon:
- q-position: [    0.0000000,    0.0000000,    0.0000000 ]
  distance:    0.0000000
  band:
  - # 1
    frequency:   -0.0000101548
  - # 2
    frequency:   -0.0000002823
  - # 3
    frequency:    0.0000126597
  - # 4
    frequency:    1.3748374103
  - # 5
    frequency:    1.3748374104
  - # 6
    frequency:    4.8335909882
  - # 7
    frequency:    4.8335909883
  - # 8
    frequency:    5.5896302057
  - # 9
    frequency:    6.7213063106
  - # 10
    frequency:    6.7213063106
  - # 11
    frequency:    8.0118609251
  - # 12
    frequency:   13.8682006501
  - # 13
    frequency:   13.8682006501
  - # 14
    frequency:   16.2003806558
  - # 15
    frequency:   16.5934400524
  - # 16
    frequency:   16.5934400524
  - # 17
    frequency:   26.4246904335
  - # 18
    frequency:   27.1484499470
  - # 19
    frequency:   29.0996888896
  - # 20
    frequency:   29.0996888896
  - # 21
    frequency:   57.8969919657

- q-position: [    0.0050505,    0.0000000,    0.0000000 ]
  distance:    0.0017261
  band:
  - # 1
    frequency:    0.0022559301
  - # 2
    frequency:    0.0611556351
  - # 3
    frequency:    0.1128056441
  - # 4
    frequency:    1.3749864759
  - # 5
    frequency:    1.3777455125
  - # 6
    frequency:    4.8336179837
  - # 7
    frequency:    4.8343112332
  - # 8
    frequency:    5.5894885478
  - # 9
    frequency:    6.7217136768
  - # 10
    frequency:    6.7221198025
  - # 11
    frequency:    8.0115191949
  - # 12
    frequency:   13.8682687550
  - # 13
    frequency:   13.8684932820
  - # 14
    frequency:   16.1998621146
  - # 15
    frequency:   16.5932648771
  - # 16
    frequency:   16.5932763100
  - # 17
    frequency:   26.4242562091
  - # 18
    frequency:   27.1483106806
  - # 19
    frequency:   29.0988359081
  - # 20
    frequency:   29.0996914718
  - # 21
    frequency:   57.8960244084

- q-position: [    0.0101010,    0.0000000,    0.0000000 ]
  distance:    0.0034523
  band:
  - # 1
    frequency:    0.0089821040
  - # 2
    frequency:    0.1223313968
  - # 3
    frequency:    0.2255102541
  - # 4
    frequency:    1.3754361908
  - # 5
    frequency:    1.3864271261
  - # 6
    frequency:    4.8336995249
  - # 7
    frequency:    4.8364662217
  - # 8
    frequency:    5.5890676994
  - # 9
    frequency:    6.7229345663
  - # 10
    frequency:    6.7245557637
  - # 11
    frequency:    8.0104946491
  - # 12
    frequency:   13.8684727828
  - # 13
    frequency:   13.8693706267
  - # 14
    frequency:   16.1983090909
  - # 15
    frequency:   16.5927394021
  - # 16
    frequency:   16.5927854027
  - # 17
    frequency:   26.4229547718
  - # 18
    frequency:   27.1478937405
  - # 19
    frequency:   29.0962794061
  - # 20
    frequency:   29.0996977745
  - # 21
    frequency:   57.8931233703

- q-position: [    0.0151515,    0.0000000,    0.0000000 ]
  distance:    0.0051784
  band:
  - # 1
    frequency:    0.0200582072
  - # 2
    frequency:    0.1835471618
  - # 3
    frequency:    0.3380088125
  - # 4
    frequency:    1.3761941062
  - # 5
    frequency:    1.4007594953
  - # 6
    frequency:    4.8338372768
  - # 7
    frequency:    4.8400387262
  - # 8
    frequency:    5.5883800251
  - # 9
    frequency:    6.7249653515
  - # 10
    frequency:    6.7286007208
  - # 11
    frequency:    8.0087892237
  - # 12
    frequency:   13.8688118753
  - # 13
    frequency:   13.8708310337
  - # 14
    frequency:   16.1957293450
  - # 15
    frequency:   16.5918638026
  - # 16
    frequency:   16.5919682895
  - # 17
    frequency:   26.4207898221
  - # 18
    frequency:   27.1472016858
  - # 19
    frequency:   29.0920267041
  - # 20
    frequency:   29.0997034963
  - # 21
    frequency:   57.8882937489

- q-position: [    0.0202020,    0.0000000,    0.0000000 ]
  distance:    0.0069046
  band:
  - # 1
    frequency:    0.0352978451
  - # 2
    frequency:    0.2448222883
  - # 3
    frequency:    0.4501880112
  - # 4
    frequency:    1.3772728009
  - # 5
    frequency:    1.4205547341
  - # 6
    frequency:    4.8340340124
  - # 7
    frequency:    4.8450000682
  - # 8
    frequency:    5.5874461000
  - # 9
    frequency:    6.7277999868
  - # 10
    frequency:    6.7342324453
  - # 11
    frequency:    8.0064061516
  - # 12
    frequency:   13.8692846120
  - # 13
    frequency:   13.8728717624
  - # 14
    frequency:   16.1921356824
  - # 15
    frequency:   16.5906384452
  - # 16
    frequency:   16.5908265661
  - # 17
    frequency:   26.4177675037
  - # 18
    frequency:   27.1462387190
  - # 19
    frequency:   29.0860899777
  - # 20
    frequency:   29.0997015679
  - # 21
    frequency:   57.8815436934

- q-position: [    0.0252525,    0.0000000,    0.0000000 ]
  distance:    0.0086307
  band:
  - # 1
    frequency:    0.0544663990
  - # 2
    frequency:    0.3061752990
  - # 3
    frequency:    0.5619212759
  - # 4
    frequency:    1.3786898831
  - # 5
    frequency:    1.4455816860
  - # 6
    frequency:    4.8342936106
  - # 7
    frequency:    4.8513101678
  - # 8
    frequency:    5.5862946722
  - # 9
    frequency:    6.7314300099
  - # 10
    frequency:    6.7414202811
  - # 11
    frequency:    8.0033499735
  - # 12
    frequency:   13.8698890233
  - # 13
    frequency:   13.8754889970
  - # 14
    frequency:   16.1875457682
  - # 15
    frequency:   16.5890639935
  - # 16
    frequency:   16.5893624616
  - # 17
    frequency:   26.4138963679
  - # 18
    frequency:   27.1450105949
  - # 19
    frequency:   29.0784862205
  - # 20
    frequency:   29.0996822980
  - # 21
    frequency:   57.8728845853

- q-position: [    0.0303030,    0.0000000,    0.0000000 ]
  distance:    0.0103569
  band:
  - # 1
    frequency:    0.0773006408
  - # 2
    frequency:    0.3676234906
  - # 3
    frequency:    0.6730627124
  - # 4
    frequency:    1.3804680190
  - # 5
    frequency:    1.4755914091
  - # 6
    frequency:    4.8346210519
  - # 7
    frequency:    4.8589176061
  - # 8
    frequency:    5.5849626343
  - # 9
    frequency:    6.7358445444
  - # 10
    frequency:    6.7501255761
  - # 11
    frequency:    7.9996265527
  - # 12
    frequency:   13.8706226105
  - # 13
    frequency:   13.8786778668
  - # 14
    frequency:   16.1819818774
  - # 15
    frequency:   16.5871415469
  - # 16
    frequency:   16.5875788334
  - # 17
    frequency:   26.4091873227
  - # 18
    frequency:   27.1435244991
  - # 19
    frequency:   29.0692371917
  - # 20
    frequency:   29.0996335730
  - # 21
    frequency:   57.8623310104

- q-position: [    0.0353535,    0.0000000,    0.0000000 ]
  distance:    0.0120830
  band:
  - # 1
    frequency:    0.1035269869
  - # 2
    frequency:    0.4291824328
  - # 3
    frequency:    0.7834395077
  - # 4
    frequency:    1.3826350184
  - # 5
    frequency:    1.5103434495
  - # 6
    frequency:    4.8350224112
  - # 7
    frequency:    4.8677596978
  - # 8
    frequency:    5.5834950204
  - # 9
    frequency:    6.7410303045
  - # 10
    frequency:    6.7603021954
  - # 11
    frequency:    7.9952430963
  - # 12
    frequency:   13.8714823698
  - # 13
    frequency:   13.8824324728
  - # 14
    frequency:   16.1754705928
  - # 15
    frequency:   16.5848728014
  - # 16
    frequency:   16.5854791613
  - # 17
    frequency:   26.4036535673
  - # 18
    frequency:   27.1417888993
  - # 19
    frequency:   29.0583693493
  - # 20
    frequency:   29.0995411043
  - # 21
    frequency:   57.8499007235

- q-position: [    0.0404040,    0.0000000,    0.0000000 ]
  distance:    0.0138092
  band:
  - # 1
    frequency:    0.1328763314
  - # 2
    frequency:    0.4908653055
  - # 3
    frequency:    0.8928422956
  - # 4
    frequency:    1.3852240247
  - # 5
    frequency:    1.5496311601
  - # 6
    frequency:    4.8355048470
  - # 7
    frequency:    4.8777625717
  - # 8
    frequency:    5.5819450465
  - # 9
    frequency:    6.7469716034
  - # 10
    frequency:    6.7718970892
  - # 11
    frequency:    7.9902081838
  - # 12
    frequency:   13.8724648222
  - # 13
    frequency:   13.8867459184
  - # 14
    frequency:   16.1680424601
  - # 15
    frequency:   16.5822602254
  - # 16
    frequency:   16.5830675412
  - # 17
    frequency:   26.3973105103
  - # 18
    frequency:   27.1398133768
  - # 19
    frequency:   29.0459137682
  - # 20
    frequency:   29.0993887174
  - # 21
    frequency:   57.8356146058

- q-position: [    0.0454545,    0.0000000,    0.0000000 ]
  distance:    0.0155353
  band:
  - # 1
    frequency:    0.1650946059
  - # 2
    frequency:    0.5526820022
  - # 3
    frequency:    1.0010131474
  - # 4
    frequency:    1.3882738811
  - # 5
    frequency:    1.5933053987
  - # 6
    frequency:    4.8360765862
  - # 7
    frequency:    4.8888412604
  - # 8
    frequency:    5.5803742064
  - # 9
    frequency:    6.7536503658
  - # 10
    frequency:    6.7848508906
  - # 11
    frequency:    7.9845318043
  - # 12
    frequency:   13.8735660472
  - # 13
    frequency:   13.8916103460
  - # 14
    frequency:   16.1597316126
  - # 15
    frequency:   16.5793072381
  - # 16
    frequency:   16.5803486777
  - # 17
    frequency:   26.3901756733
  - # 18
    frequency:   27.1376084432
  - # 19
    frequency:   29.0319060441
  - # 20
    frequency:   29.0991586745
  - # 21
    frequency:   57.8194966134

- q-position: [    0.0505051,    0.0000000,    0.0000000 ]
  distance:    0.0172615
  band:
  - # 1
    frequency:    0.1999491749
  - # 2
    frequency:    0.6146378891
  - # 3
    frequency:    1.1076314661
  - # 4
    frequency:    1.3918297843
  - # 5
    frequency:    1.6412963040
  - # 6
    frequency:    4.8367469030
  - # 7
    frequency:    4.9008998076
  - # 8
    frequency:    5.5788524259
  - # 9
    frequency:    6.7610461467
  - # 10
    frequency:    6.7990985166
  - # 11
    frequency:    7.9782254049
  - # 12
    frequency:   13.8747817215
  - # 13
    frequency:   13.8970169767
  - # 14
    frequency:   16.1505753746
  - # 15
    frequency:   16.5760183844
  - # 16
    frequency:   16.5773278768
  - # 17
    frequency:   26.3822685784
  - # 18
    frequency:   27.1351853496
  - # 19
    frequency:   29.0163861832
  - # 20
    frequency:   29.0988320255
  - # 21
    frequency:   57.8015737199

- q-position: [    0.0555556,    0.0000000,    0.0000000 ]
  distance:    0.0189876
  band:
  - # 1
    frequency:    0.2372317492
  - # 2
    frequency:    0.6767320496
  - # 3
    frequency:    1.2122997465
  - # 4
    frequency:    1.3959444021
  - # 5
    frequency:    1.6936317557
  - # 6
    frequency:    4.8375260904
  - # 7
    frequency:    4.9138314138
  - # 8
    frequency:    5.5774582623
  - # 9
    frequency:    6.7691361569
  - # 10
    frequency:    6.8145697501
  - # 11
    frequency:    7.9713019528
  - # 12
    frequency:   13.8761071606
  - # 13
    frequency:   13.9029561549
  - # 14
    frequency:   16.1406138544
  - # 15
    frequency:   16.5723994970
  - # 16
    frequency:   16.5740110386
  - # 17
    frequency:   26.3736106209
  - # 18
    frequency:   27.1325558936
  - # 19
    frequency:   28.9993984770
  - # 20
    frequency:   29.0983889766
  - # 21
    frequency:   57.7818758504

- q-position: [    0.0606061,    0.0000000,    0.0000000 ]
  distance:    0.0207138
  band:
  - # 1
    frequency:    0.2767587118
  - # 2
    frequency:    0.7389547353
  - # 3
    frequency:    1.3145348580
  - # 4
    frequency:    1.4006797380
  - # 5
    frequency:    1.7504476726
  - # 6
    frequency:    4.8384254241
  - # 7
    frequency:    4.9275186559
  - # 8
    frequency:    5.5762791170
  - # 9
    frequency:    6.7778952965
  - # 10
    frequency:    6.8311897839
  - # 11
    frequency:    7.9637760148
  - # 12
    frequency:   13.8775373654
  - # 13
    frequency:   13.9094173956
  - # 14
    frequency:   16.1298895332
  - # 15
    frequency:   16.5684578420
  - # 16
    frequency:   16.5704046510
  - # 17
    frequency:   26.3642249285
  - # 18
    frequency:   27.1297322301
  - # 19
    frequency:   28.9809913646
  - # 20
    frequency:   29.0978092704
  - # 21
    frequency:   57.7604358087

- q-position: [    0.0656566,    0.0000000,    0.0000000 ]
  distance:    0.0224399
  band:
  - # 1
    frequency:    0.3183697280
  - # 2
    frequency:    0.8012835612
  - # 3
    frequency:    1.4061102147
  - # 4
    frequency:    1.4137768887
  - # 5
    frequency:    1.8119789125
  - # 6
    frequency:    4.8394571171
  - # 7
    frequency:    4.9418338417
  - # 8
    frequency:    5.5754114010
  - # 9
    frequency:    6.7872961982
  - # 10
    frequency:    6.8488797102
  - # 11
    frequency:    7.9556638584
  - # 12
    frequency:   13.8790670699
  - # 13
    frequency:   13.9163894342
  - # 14
    frequency:   16.1184468571
  - # 15
    frequency:   16.5642022424
  - # 16
    frequency:   16.5665157834
  - # 17
    frequency:   26.3541362076
  - # 18
    frequency:   27.1267266905
  - # 19
    frequency:   28.9612172797
  - # 20
    frequency:   29.0970725689
  - # 21
    frequency:   57.7372891977

- q-position: [    0.0707071,    0.0000000,    0.0000000 ]
  distance:    0.0241660
  band:
  - # 1
    frequency:    0.3619253619
  - # 2
    frequency:    0.8636776500
  - # 3
    frequency:    1.4123277811
  - # 4
    frequency:    1.5094345368
  - # 5
    frequency:    1.8785124680
  - # 6
    frequency:    4.8406342640
  - # 7
    frequency:    4.9566395874
  - # 8
    frequency:    5.5749605601
  - # 9
    frequency:    6.7973092808
  - # 10
    frequency:    6.8675569427
  - # 11
    frequency:    7.9469835800
  - # 12
    frequency:   13.8806907932
  - # 13
    frequency:   13.9238602787
  - # 14
    frequency:   16.1063318368
  - # 15
    frequency:   16.5596431784
  - # 16
    frequency:   16.5623520821
  - # 17
    frequency:   26.3433705793
  - # 18
    frequency:   27.1235516153
  - # 19
    frequency:   28.9401324856
  - # 20
    frequency:   29.0961588327
  - # 21
    frequency:   57.7124743322

- q-position: [    0.0757576,    0.0000000,    0.0000000 ]
  distance:    0.0258922
  band:
  - # 1
    frequency:    0.4073042366
  - # 2
    frequency:    0.9260683190
  - # 3
    frequency:    1.4194504614
  - # 4
    frequency:    1.6009838171
  - # 5
    frequency:    1.9502867026
  - # 6
    frequency:    4.8419707744
  - # 7
    frequency:    4.9717897437
  - # 8
    frequency:    5.5750408277
  - # 9
    frequency:    6.8079028135
  - # 10
    frequency:    6.8871355608
  - # 11
    frequency:    7.9377552674
  - # 12
    frequency:   13.8824028919
  - # 13
    frequency:   13.9318172631
  - # 14
    frequency:   16.0935916568
  - # 15
    frequency:   16.5547928648
  - # 16
    frequency:   16.5579217666
  - # 17
    frequency:   26.3319554059
  - # 18
    frequency:   27.1202192012
  - # 19
    frequency:   28.9177968968
  - # 20
    frequency:   29.0950486894
  - # 21
    frequency:   57.6860321463

- q-position: [    0.0808081,    0.0000000,    0.0000000 ]
  distance:    0.0276183
  band:
  - # 1
    frequency:    0.4544001070
  - # 2
    frequency:    0.9883437520
  - # 3
    frequency:    1.4276369155
  - # 4
    frequency:    1.6881092122
  - # 5
    frequency:    2.0273478536
  - # 6
    frequency:    4.8434812959
  - # 7
    frequency:    4.9871308316
  - # 8
    frequency:    5.5757745371
  - # 9
    frequency:    6.8190429920
  - # 10
    frequency:    6.9075265657
  - # 11
    frequency:    7.9280012050
  - # 12
    frequency:   13.8841976154
  - # 13
    frequency:   13.9402471016
  - # 14
    frequency:   16.0802742995
  - # 15
    frequency:   16.5496653035
  - # 16
    frequency:   16.5532336279
  - # 17
    frequency:   26.3199191118
  - # 18
    frequency:   27.1167413670
  - # 19
    frequency:   28.8942738878
  - # 20
    frequency:   29.0937237848
  - # 21
    frequency:   57.6580060929

- q-position: [    0.0858586,    0.0000000,    0.0000000 ]
  distance:    0.0293445
  band:
  - # 1
    frequency:    0.5031190728
  - # 2
    frequency:    1.0503229246
  - # 3
    frequency:    1.4371117575
  - # 4
    frequency:    1.7708257259
  - # 5
    frequency:    2.1094255756
  - # 6
    frequency:    4.8451811241
  - # 7
    frequency:    5.0025041802
  - # 8
    frequency:    5.5772907878
  - # 9
    frequency:    6.8306940266
  - # 10
    frequency:    6.9286380413
  - # 11
    frequency:    7.9177461322
  - # 12
    frequency:   13.8860691606
  - # 13
    frequency:   13.9491359418
  - # 14
    frequency:   16.0664281819
  - # 15
    frequency:   16.5442763146
  - # 16
    frequency:   16.5482970286
  - # 17
    frequency:   26.3072910003
  - # 18
    frequency:   27.1131296380
  - # 19
    frequency:   28.8696300900
  - # 20
    frequency:   29.0921671134
  - # 21
    frequency:   57.6284420381

- q-position: [    0.0909091,    0.0000000,    0.0000000 ]
  distance:    0.0310706
  band:
  - # 1
    frequency:    0.5533770568
  - # 2
    frequency:    1.1117100241
  - # 3
    frequency:    1.4482104024
  - # 4
    frequency:    1.8494991036
  - # 5
    frequency:    2.1959103941
  - # 6
    frequency:    4.8470861016
  - # 7
    frequency:    5.0177489683
  - # 8
    frequency:    5.5797232566
  - # 9
    frequency:    6.8428182425
  - # 10
    frequency:    6.9503752060
  - # 11
    frequency:    7.9070175706
  - # 12
    frequency:   13.8880117285
  - # 13
    frequency:   13.9584694188
  - # 14
    frequency:   16.0521018100
  - # 15
    frequency:   16.5386435466
  - # 16
    frequency:   16.5431219036
  - # 17
    frequency:   26.2941010690
  - # 18
    frequency:   27.1093950490
  - # 19
    frequency:   28.8439351772
  - # 20
    frequency:   29.0903633213
  - # 21
    frequency:   57.5973881492

- q-position: [    0.0959596,    0.0000000,    0.0000000 ]
  distance:    0.0327968
  band:
  - # 1
    frequency:    0.6050976070
  - # 2
    frequency:    1.1720140352
  - # 3
    frequency:    1.4614587849
  - # 4
    frequency:    1.9247418802
  - # 5
    frequency:    2.2859554828
  - # 6
    frequency:    4.8492125060
  - # 7
    frequency:    5.0327063397
  - # 8
    frequency:    5.5832069705
  - # 9
    frequency:    6.8553761909
  - # 10
    frequency:    6.9726403455
  - # 11
    frequency:    7.8958462347
  - # 12
    frequency:   13.8900195791
  - # 13
    frequency:   13.9682327057
  - # 14
    frequency:   16.0373434487
  - # 15
    frequency:   16.5327864677
  - # 16
    frequency:   16.5377187647
  - # 17
    frequency:   26.2803798265
  - # 18
    frequency:   27.1055480676
  - # 19
    frequency:   28.8172616392
  - # 20
    frequency:   29.0882989806
  - # 21
    frequency:   57.5648947777

- q-position: [    0.1010101,    0.0000000,    0.0000000 ]
  distance:    0.0345229
  band:
  - # 1
    frequency:    0.6582100311
  - # 2
    frequency:    1.2304124762
  - # 3
    frequency:    1.4777089778
  - # 4
    frequency:    1.9972525154
  - # 5
    frequency:    2.3786355346
  - # 6
    frequency:    4.8515769255
  - # 7
    frequency:    5.0472246667
  - # 8
    frequency:    5.5878739575
  - # 9
    frequency:    6.8683267729
  - # 10
    frequency:    6.9953326074
  - # 11
    frequency:    7.8842665505
  - # 12
    frequency:   13.8920870864
  - # 13
    frequency:   13.9784105641
  - # 14
    frequency:   16.0222008103
  - # 15
    frequency:   16.5267263396
  - # 16
    frequency:   16.5320987046
  - # 17
    frequency:   26.2661581121
  - # 18
    frequency:   27.1015985341
  - # 19
    frequency:   28.7896845458
  - # 20
    frequency:   29.0859628311
  - # 21
    frequency:   57.5310143359

- q-position: [    0.1060606,    0.0000000,    0.0000000 ]
  distance:    0.0362491
  band:
  - # 1
    frequency:    0.7126478501
  - # 2
    frequency:    1.2855606461
  - # 3
    frequency:    1.4983293603
  - # 4
    frequency:    2.0676837138
  - # 5
    frequency:    2.4730766339
  - # 6
    frequency:    4.8541961258
  - # 7
    frequency:    5.0611658639
  - # 8
    frequency:    5.5938478620
  - # 9
    frequency:    6.8816273731
  - # 10
    frequency:    7.0183476354
  - # 11
    frequency:    7.8723173078
  - # 12
    frequency:   13.8942087919
  - # 13
    frequency:   13.9889873894
  - # 14
    frequency:   16.0067207624
  - # 15
    frequency:   16.5204861757
  - # 16
    frequency:   16.5262734045
  - # 17
    frequency:   26.2514669218
  - # 18
    frequency:   27.0975556193
  - # 19
    frequency:   28.7612813000
  - # 20
    frequency:   29.0833459880
  - # 21
    frequency:   57.4958011703

- q-position: [    0.1111111,    0.0000000,    0.0000000 ]
  distance:    0.0379752
  band:
  - # 1
    frequency:    0.7683475404
  - # 2
    frequency:    1.3354997286
  - # 3
    frequency:    1.5252960021
  - # 4
    frequency:    2.1365757249
  - # 5
    frequency:    2.5685213309
  - # 6
    frequency:    4.8570869062
  - # 7
    frequency:    5.0744124087
  - # 8
    frequency:    5.6012378569
  - # 9
    frequency:    6.8952340038
  - # 10
    frequency:    7.0415770142
  - # 11
    frequency:    7.8600424809
  - # 12
    frequency:   13.8963794561
  - # 13
    frequency:   13.9999472549
  - # 14
    frequency:   15.9909490555
  - # 15
    frequency:   16.5140906839
  - # 16
    frequency:   16.5202551412
  - # 17
    frequency:   26.2363372410
  - # 18
    frequency:   27.0934277965
  - # 19
    frequency:   28.7321313826
  - # 20
    frequency:   29.0804421137
  - # 21
    frequency:   57.4593114288

- q-position: [    0.1161616,    0.0000000,    0.0000000 ]
  distance:    0.0397014
  band:
  - # 1
    frequency:    0.8252475291
  - # 2
    frequency:    1.3781768302
  - # 3
    frequency:    1.5606721916
  - # 4
    frequency:    2.2043427363
  - # 5
    frequency:    2.6643407901
  - # 6
    frequency:    4.8602659485
  - # 7
    frequency:    5.0868744525
  - # 8
    frequency:    5.6101324582
  - # 9
    frequency:    6.9091014578
  - # 10
    frequency:    7.0649074857
  - # 11
    frequency:    7.8474922595
  - # 12
    frequency:   13.8985941074
  - # 13
    frequency:   14.0112739499
  - # 14
    frequency:   15.9749300741
  - # 15
    frequency:   16.5075661956
  - # 16
    frequency:   16.5140567966
  - # 17
    frequency:   26.2207998855
  - # 18
    frequency:   27.0892228281
  - # 19
    frequency:   28.7023160879
  - # 20
    frequency:   29.0772475553
  - # 21
    frequency:   57.4216029250

- q-position: [    0.1212121,    0.0000000,    0.0000000 ]
  distance:    0.0414275
  band:
  - # 1
    frequency:    0.8832874061
  - # 2
    frequency:    1.4128468283
  - # 3
    frequency:    1.6052062412
  - # 4
    frequency:    2.2712868675
  - # 5
    frequency:    2.7600194931
  - # 6
    frequency:    4.8637496585
  - # 7
    frequency:    5.0984961919
  - # 8
    frequency:    5.6205940566
  - # 9
    frequency:    6.9231834690
  - # 10
    frequency:    7.0882198926
  - # 11
    frequency:    7.8347243394
  - # 12
    frequency:   13.9008480883
  - # 13
    frequency:   14.0229510140
  - # 14
    frequency:   15.9587066114
  - # 15
    frequency:   16.5009405805
  - # 16
    frequency:   16.5076918663
  - # 17
    frequency:   26.2048853537
  - # 18
    frequency:   27.0849477633
  - # 19
    frequency:   28.6719182515
  - # 20
    frequency:   29.0737614446
  - # 21
    frequency:   57.3827349980

- q-position: [    0.1262626,    0.0000000,    0.0000000 ]
  distance:    0.0431537
  band:
  - # 1
    frequency:    0.9424073177
  - # 2
    frequency:    1.4408110789
  - # 3
    frequency:    1.6575925221
  - # 4
    frequency:    2.3376208621
  - # 5
    frequency:    2.8551313925
  - # 6
    frequency:    4.8675540025
  - # 7
    frequency:    5.1092606081
  - # 8
    frequency:    5.6326550428
  - # 9
    frequency:    6.9374328801
  - # 10
    frequency:    7.1113877923
  - # 11
    frequency:    7.8218055295
  - # 12
    frequency:   13.9031370979
  - # 13
    frequency:   14.0349617672
  - # 14
    frequency:   15.9423196701
  - # 15
    frequency:   16.4942431471
  - # 16
    frequency:   16.5011744690
  - # 17
    frequency:   26.1886236880
  - # 18
    frequency:   27.0806089466
  - # 19
    frequency:   28.6410219718
  - # 20
    frequency:   29.0699857640
  - # 21
    frequency:   57.3427683693

- q-position: [    0.1313131,    0.0000000,    0.0000000 ]
  distance:    0.0448798
  band:
  - # 1
    frequency:    1.0025475106
  - # 2
    frequency:    1.4642937395
  - # 3
    frequency:    1.7155949758
  - # 4
    frequency:    2.4034900730
  - # 5
    frequency:    2.9493169186
  - # 6
    frequency:    4.8716943404
  - # 7
    frequency:    5.1191918452
  - # 8
    frequency:    5.6463162310
  - # 9
    frequency:    6.9518018154
  - # 10
    frequency:    7.1342756854
  - # 11
    frequency:    7.8088137369
  - # 12
    frequency:   13.9054572309
  - # 13
    frequency:   14.0472893329
  - # 14
    frequency:   15.9258082924
  - # 15
    frequency:   16.4875045284
  - # 16
    frequency:   16.4945193548
  - # 17
    frequency:   26.1720443481
  - # 18
    frequency:   27.0762120352
  - # 19
    frequency:   28.6097123245
  - # 20
    frequency:   29.0659253778
  - # 21
    frequency:   57.3017649974

- q-position: [    0.1363636,    0.0000000,    0.0000000 ]
  distance:    0.0466059
  band:
  - # 1
    frequency:    1.0636479984
  - # 2
    frequency:    1.4851787990
  - # 3
    frequency:    1.7773100103
  - # 4
    frequency:    2.4689904948
  - # 5
    frequency:    3.0422640967
  - # 6
    frequency:    4.8761852563
  - # 7
    frequency:    5.1283548739
  - # 8
    frequency:    5.6615479048
  - # 9
    frequency:    6.9662418575
  - # 10
    frequency:    7.1567368068
  - # 11
    frequency:    7.7958403815
  - # 12
    frequency:   13.9078050113
  - # 13
    frequency:   14.0599166572
  - # 14
    frequency:   15.9092094196
  - # 15
    frequency:   16.4807565527
  - # 16
    frequency:   16.4877419119
  - # 17
    frequency:   26.1551760960
  - # 18
    frequency:   27.0717620239
  - # 19
    frequency:   28.5780750730
  - # 20
    frequency:   29.0615880299
  - # 21
    frequency:   57.2597879285

- q-position: [    0.1414141,    0.0000000,    0.0000000 ]
  distance:    0.0483321
  band:
  - # 1
    frequency:    1.1256483271
  - # 2
    frequency:    1.5047021502
  - # 3
    frequency:    1.8414744419
  - # 4
    frequency:    2.5341824804
  - # 5
    frequency:    3.1336941610
  - # 6
    frequency:    4.8810403905
  - # 7
    frequency:    5.1368525596
  - # 8
    frequency:    5.6782933231
  - # 9
    frequency:    6.9807042276
  - # 10
    frequency:    7.1786104559
  - # 11
    frequency:    7.7829932652
  - # 12
    frequency:   13.9101774225
  - # 13
    frequency:   14.0728265213
  - # 14
    frequency:   15.8925577850
  - # 15
    frequency:   16.4740320977
  - # 16
    frequency:   16.4808581712
  - # 17
    frequency:   26.1380468921
  - # 18
    frequency:   27.0672632757
  - # 19
    frequency:   28.5461963741
  - # 20
    frequency:   29.0569843111
  - # 21
    frequency:   57.2169011477

- q-position: [    0.1464646,    0.0000000,    0.0000000 ]
  distance:    0.0500582
  band:
  - # 1
    frequency:    1.1884874177
  - # 2
    frequency:    1.5236088141
  - # 3
    frequency:    1.9073083728
  - # 4
    frequency:    2.5991007975
  - # 5
    frequency:    3.2233510494
  - # 6
    frequency:    4.8862722722
  - # 7
    frequency:    5.1448206779
  - # 8
    frequency:    5.6964740870
  - # 9
    frequency:    6.9951399664
  - # 10
    frequency:    7.1997189143
  - # 11
    frequency:    7.7703998490
  - # 12
    frequency:   13.9125719312
  - # 13
    frequency:   14.0860015487
  - # 14
    frequency:   15.8758858407
  - # 15
    frequency:   16.4673649284
  - # 16
    frequency:   16.4738848078
  - # 17
    frequency:   26.1206838033
  - # 18
    frequency:   27.0627195588
  - # 19
    frequency:   28.5141624802
  - # 20
    frequency:   29.0521275949
  - # 21
    frequency:   57.1731694264

- q-position: [    0.1515152,    0.0000000,    0.0000000 ]
  distance:    0.0517844
  band:
  - # 1
    frequency:    1.2521034723
  - # 2
    frequency:    1.5423424576
  - # 3
    frequency:    1.9743258530
  - # 4
    frequency:    2.6637618765
  - # 5
    frequency:    3.3109939919
  - # 6
    frequency:    4.8918921574
  - # 7
    frequency:    5.1524216524
  - # 8
    frequency:    5.7159965162
  - # 9
    frequency:    7.0095001165
  - # 10
    frequency:    7.2198641442
  - # 11
    frequency:    7.7582107443
  - # 12
    frequency:   13.9149865060
  - # 13
    frequency:   14.0994242072
  - # 14
    frequency:   15.8592237191
  - # 15
    frequency:   16.4607895167
  - # 16
    frequency:   16.4668391384
  - # 17
    frequency:   26.1031129223
  - # 18
    frequency:   27.0581340871
  - # 19
    frequency:   28.4820594405
  - # 20
    frequency:   29.0470339467
  - # 21
    frequency:   57.1286581708
