nqpoint: 300    
npath: 3      
segment_nqpoint:
- 100
- 100
- 100
labels:
- [ 'G', 'M' ]
- [ 'M', 'K' ]
- [ 'K', 'G' ]
reciprocal_lattice:
- [   0.31354801,   0.18102703,   0.00000000 ] # a*
- [   0.00000000,   0.36205405,   0.00000000 ] # b*
- [   0.00000000,   0.00000000,   0.03884199 ] # c*
natom: 7      
lattice:
- [     3.189304257980940,     0.000000000000000,     0.000000000000000 ] # a
- [    -1.594652128990470,     2.762018507810220,     0.000000000000000 ] # b
- [     0.000000000000000,     0.000000000000000,    25.745331330364259 ] # c
points:
- symbol: C # 1
  coordinates: [  0.000000000000000,  0.000000000000000,  0.434180056038320 ]
  mass: 12.010700
- symbol: C # 2
  coordinates: [  0.333332985432215,  0.666666983183674,  0.604164799819214 ]
  mass: 12.010700
- symbol: N # 3
  coordinates: [  0.333332985432215,  0.666666983183674,  0.650422055769571 ]
  mass: 14.006700
- symbol: O # 4
  coordinates: [  0.666666984744047,  0.333332985985145,  0.349577944230429 ]
  mass: 15.999400
- symbol: S # 5
  coordinates: [  0.333332985432215,  0.666666983183674,  0.539130394288110 ]
  mass: 32.065000
- symbol: Ti # 6
  coordinates: [  0.333332985432215,  0.666666983183674,  0.382732015732837 ]
  mass: 47.867000
- symbol: Ti # 7
  coordinates: [  0.666666984744047,  0.333332985985145,  0.477413287851892 ]
  mass: 47.867000

phonon:
- q-position: [    0.0000000,    0.0000000,    0.0000000 ]
  distance:    0.0000000
  band:
  - # 1
    frequency:   -6.8215200470
  - # 2
    frequency:   -6.8215200470
  - # 3
    frequency:   -0.0000060901
  - # 4
    frequency:   -0.0000005168
  - # 5
    frequency:    0.0000050824
  - # 6
    frequency:    0.6770183324
  - # 7
    frequency:    0.6770183324
  - # 8
    frequency:    4.7828889613
  - # 9
    frequency:    4.7828889613
  - # 10
    frequency:    6.4586707267
  - # 11
    frequency:    7.1646267498
  - # 12
    frequency:    7.1646267498
  - # 13
    frequency:   10.4469768953
  - # 14
    frequency:   10.6757144092
  - # 15
    frequency:   10.6757144092
  - # 16
    frequency:   13.8817017167
  - # 17
    frequency:   13.8817017167
  - # 18
    frequency:   15.4135370265
  - # 19
    frequency:   17.2002130752
  - # 20
    frequency:   20.4274111448
  - # 21
    frequency:   64.7348047303

- q-position: [    0.0050505,    0.0000000,    0.0000000 ]
  distance:    0.0018286
  band:
  - # 1
    frequency:   -6.8242548110
  - # 2
    frequency:   -6.8205949982
  - # 3
    frequency:    0.0032476341
  - # 4
    frequency:    0.0727261921
  - # 5
    frequency:    0.0997775634
  - # 6
    frequency:    0.6805470056
  - # 7
    frequency:    0.6841646247
  - # 8
    frequency:    4.7827809761
  - # 9
    frequency:    4.7843020646
  - # 10
    frequency:    6.4578771369
  - # 11
    frequency:    7.1648359977
  - # 12
    frequency:    7.1651035746
  - # 13
    frequency:   10.4469516298
  - # 14
    frequency:   10.6757201583
  - # 15
    frequency:   10.6760477682
  - # 16
    frequency:   13.8809600274
  - # 17
    frequency:   13.8811637303
  - # 18
    frequency:   15.4131212454
  - # 19
    frequency:   17.2004863470
  - # 20
    frequency:   20.4274035188
  - # 21
    frequency:   64.7346878282

- q-position: [    0.0101010,    0.0000000,    0.0000000 ]
  distance:    0.0036571
  band:
  - # 1
    frequency:   -6.8324543239
  - # 2
    frequency:   -6.8178199118
  - # 3
    frequency:    0.0128560496
  - # 4
    frequency:    0.1449285881
  - # 5
    frequency:    0.1995307064
  - # 6
    frequency:    0.6911495990
  - # 7
    frequency:    0.7052624428
  - # 8
    frequency:    4.7824613466
  - # 9
    frequency:    4.7885278773
  - # 10
    frequency:    6.4555079185
  - # 11
    frequency:    7.1654644739
  - # 12
    frequency:    7.1665423224
  - # 13
    frequency:   10.4468683062
  - # 14
    frequency:   10.6757376081
  - # 15
    frequency:   10.6770462513
  - # 16
    frequency:   13.8787377844
  - # 17
    frequency:   13.8795519530
  - # 18
    frequency:   15.4118710560
  - # 19
    frequency:   17.2013062603
  - # 20
    frequency:   20.4273801015
  - # 21
    frequency:   64.7343372594

- q-position: [    0.0151515,    0.0000000,    0.0000000 ]
  distance:    0.0054857
  band:
  - # 1
    frequency:   -6.8461036496
  - # 2
    frequency:   -6.8131949628
  - # 3
    frequency:    0.0284825329
  - # 4
    frequency:    0.2160571944
  - # 5
    frequency:    0.2992078955
  - # 6
    frequency:    0.7088794561
  - # 7
    frequency:    0.7394045589
  - # 8
    frequency:    4.7819429994
  - # 9
    frequency:    4.7955262150
  - # 10
    frequency:    6.4515977069
  - # 11
    frequency:    7.1665143616
  - # 12
    frequency:    7.1689672263
  - # 13
    frequency:   10.4467047023
  - # 14
    frequency:   10.6757673690
  - # 15
    frequency:   10.6787050270
  - # 16
    frequency:   13.8750434597
  - # 17
    frequency:   13.8768729263
  - # 18
    frequency:   15.4097780013
  - # 19
    frequency:   17.2026730524
  - # 20
    frequency:   20.4273392798
  - # 21
    frequency:   64.7337534367

- q-position: [    0.0202020,    0.0000000,    0.0000000 ]
  distance:    0.0073142
  band:
  - # 1
    frequency:   -6.8651759464
  - # 2
    frequency:   -6.8067204260
  - # 3
    frequency:    0.0497045098
  - # 4
    frequency:    0.2855224880
  - # 5
    frequency:    0.3987043456
  - # 6
    frequency:    0.7338309983
  - # 7
    frequency:    0.7853895102
  - # 8
    frequency:    4.7812473048
  - # 9
    frequency:    4.8052311248
  - # 10
    frequency:    6.4462041377
  - # 11
    frequency:    7.1679892553
  - # 12
    frequency:    7.1724167878
  - # 13
    frequency:   10.4464249441
  - # 14
    frequency:   10.6758104654
  - # 15
    frequency:   10.6810158910
  - # 16
    frequency:   13.8698911630
  - # 17
    frequency:   13.8731375396
  - # 18
    frequency:   15.4068282555
  - # 19
    frequency:   17.2045869343
  - # 20
    frequency:   20.4272783811
  - # 21
    frequency:   64.7329370473

- q-position: [    0.0252525,    0.0000000,    0.0000000 ]
  distance:    0.0091428
  band:
  - # 1
    frequency:   -6.8896297066
  - # 2
    frequency:   -6.7983966499
  - # 3
    frequency:    0.0761280094
  - # 4
    frequency:    0.3527112692
  - # 5
    frequency:    0.4978405206
  - # 6
    frequency:    0.7661266853
  - # 7
    frequency:    0.8419991419
  - # 8
    frequency:    4.7804038186
  - # 9
    frequency:    4.8175524028
  - # 10
    frequency:    6.4394076119
  - # 11
    frequency:    7.1698940960
  - # 12
    frequency:    7.1769411769
  - # 13
    frequency:   10.4459811351
  - # 14
    frequency:   10.6758683465
  - # 15
    frequency:   10.6839670898
  - # 16
    frequency:   13.8633006282
  - # 17
    frequency:   13.8683610103
  - # 18
    frequency:   15.4030030186
  - # 19
    frequency:   17.2070478211
  - # 20
    frequency:   20.4271936974
  - # 21
    frequency:   64.7318890518

- q-position: [    0.0303030,    0.0000000,    0.0000000 ]
  distance:    0.0109713
  band:
  - # 1
    frequency:   -6.9194052086
  - # 2
    frequency:   -6.7882240193
  - # 3
    frequency:    0.1074325998
  - # 4
    frequency:    0.4170482135
  - # 5
    frequency:    0.5963540605
  - # 6
    frequency:    0.8058650946
  - # 7
    frequency:    0.9081781641
  - # 8
    frequency:    4.7794499232
  - # 9
    frequency:    4.8323776915
  - # 10
    frequency:    6.4313108034
  - # 11
    frequency:    7.1722350843
  - # 12
    frequency:    7.1825990075
  - # 13
    frequency:   10.4453154232
  - # 14
    frequency:   10.6759429012
  - # 15
    frequency:   10.6875431660
  - # 16
    frequency:   13.8552971954
  - # 17
    frequency:   13.8625628547
  - # 18
    frequency:   15.3982790533
  - # 19
    frequency:   17.2100549704
  - # 20
    frequency:   20.4270805184
  - # 21
    frequency:   64.7306106825

- q-position: [    0.0353535,    0.0000000,    0.0000000 ]
  distance:    0.0127999
  band:
  - # 1
    frequency:   -6.9544204721
  - # 2
    frequency:   -6.7762029050
  - # 3
    frequency:    0.1433659393
  - # 4
    frequency:    0.4781033616
  - # 5
    frequency:    0.6939189465
  - # 6
    frequency:    0.8530248011
  - # 7
    frequency:    0.9830898571
  - # 8
    frequency:    4.7784303736
  - # 9
    frequency:    4.8495751269
  - # 10
    frequency:    6.4220378098
  - # 11
    frequency:    7.1750195729
  - # 12
    frequency:    7.1894538073
  - # 13
    frequency:   10.4443623293
  - # 14
    frequency:   10.6760364767
  - # 15
    frequency:   10.6917248952
  - # 16
    frequency:   13.8459117907
  - # 17
    frequency:   13.8557668509
  - # 18
    frequency:   15.3926293471
  - # 19
    frequency:   17.2136065418
  - # 20
    frequency:   20.4269331725
  - # 21
    frequency:   64.7291034420

- q-position: [    0.0404040,    0.0000000,    0.0000000 ]
  distance:    0.0146284
  band:
  - # 1
    frequency:   -6.9945670607
  - # 2
    frequency:   -6.7623335995
  - # 3
    frequency:    0.1837178295
  - # 4
    frequency:    0.5357072298
  - # 5
    frequency:    0.7902028795
  - # 6
    frequency:    0.9073588473
  - # 7
    frequency:    1.0660671339
  - # 8
    frequency:    4.7773967540
  - # 9
    frequency:    4.8689965001
  - # 10
    frequency:    6.4117328885
  - # 11
    frequency:    7.1782559449
  - # 12
    frequency:    7.1975704874
  - # 13
    frequency:   10.4430511542
  - # 14
    frequency:   10.6761519004
  - # 15
    frequency:   10.6964893767
  - # 16
    frequency:   13.8351809052
  - # 17
    frequency:   13.8480009904
  - # 18
    frequency:   15.3860238805
  - # 19
    frequency:   17.2176990959
  - # 20
    frequency:   20.4267450766
  - # 21
    frequency:   64.7273691001

- q-position: [    0.0454545,    0.0000000,    0.0000000 ]
  distance:    0.0164570
  band:
  - # 1
    frequency:   -7.0397060964
  - # 2
    frequency:   -6.7466162376
  - # 3
    frequency:    0.2282943245
  - # 4
    frequency:    0.5900037317
  - # 5
    frequency:    0.8849534215
  - # 6
    frequency:    0.9683479541
  - # 7
    frequency:    1.1565018946
  - # 8
    frequency:    4.7764068522
  - # 9
    frequency:    4.8904808901
  - # 10
    frequency:    6.4005587841
  - # 11
    frequency:    7.1819534785
  - # 12
    frequency:    7.2070120556
  - # 13
    frequency:   10.4413083042
  - # 14
    frequency:   10.6762925056
  - # 15
    frequency:   10.7018103201
  - # 16
    frequency:   13.8231465751
  - # 17
    frequency:   13.8392974204
  - # 18
    frequency:   15.3784304786
  - # 19
    frequency:   17.2223270542
  - # 20
    frequency:   20.4265087922
  - # 21
    frequency:   64.7254096916

- q-position: [    0.0505051,    0.0000000,    0.0000000 ]
  distance:    0.0182856
  band:
  - # 1
    frequency:   -7.0896648443
  - # 2
    frequency:   -6.7290506992
  - # 3
    frequency:    0.2768997825
  - # 4
    frequency:    0.6413973372
  - # 5
    frequency:    0.9780722375
  - # 6
    frequency:    1.0352558203
  - # 7
    frequency:    1.2537357328
  - # 8
    frequency:    4.7755239633
  - # 9
    frequency:    4.9138587208
  - # 10
    frequency:    6.3886947136
  - # 11
    frequency:    7.1861222059
  - # 12
    frequency:    7.2178367379
  - # 13
    frequency:   10.4390594104
  - # 14
    frequency:   10.6764621587
  - # 15
    frequency:   10.7076585366
  - # 16
    frequency:   13.8098563627
  - # 17
    frequency:   13.8296923730
  - # 18
    frequency:   15.3698157217
  - # 19
    frequency:   17.2274821404
  - # 20
    frequency:   20.4262160880
  - # 21
    frequency:   64.7232275132

- q-position: [    0.0555556,    0.0000000,    0.0000000 ]
  distance:    0.0201141
  band:
  - # 1
    frequency:   -7.1442341836
  - # 2
    frequency:   -6.7096364942
  - # 3
    frequency:    0.3293274075
  - # 4
    frequency:    0.6904254156
  - # 5
    frequency:    1.0696302417
  - # 6
    frequency:    1.1072561541
  - # 7
    frequency:    1.3570107267
  - # 8
    frequency:    4.7748161361
  - # 9
    frequency:    4.9389561990
  - # 10
    frequency:    6.3763341256
  - # 11
    frequency:    7.1907727675
  - # 12
    frequency:    7.2300955882
  - # 13
    frequency:   10.4362311685
  - # 14
    frequency:   10.6766652899
  - # 15
    frequency:   10.7140026107
  - # 16
    frequency:   13.7953633403
  - # 17
    frequency:   13.8192260833
  - # 18
    frequency:   15.3601458889
  - # 19
    frequency:   17.2331528278
  - # 20
    frequency:   20.4258580083
  - # 21
    frequency:   64.7208251193

- q-position: [    0.0606061,    0.0000000,    0.0000000 ]
  distance:    0.0219427
  band:
  - # 1
    frequency:   -7.2031672133
  - # 2
    frequency:   -6.6883726276
  - # 3
    frequency:    0.3853562207
  - # 4
    frequency:    0.7376294343
  - # 5
    frequency:    1.1598164436
  - # 6
    frequency:    1.1835586344
  - # 7
    frequency:    1.4654921132
  - # 8
    frequency:    4.7743553772
  - # 9
    frequency:    4.9656000923
  - # 10
    frequency:    6.3636823714
  - # 11
    frequency:    7.1959162681
  - # 12
    frequency:    7.2438305908
  - # 13
    frequency:   10.4327528715
  - # 14
    frequency:   10.6769069246
  - # 15
    frequency:   10.7208096999
  - # 16
    frequency:   13.7797260763
  - # 17
    frequency:   13.8079426925
  - # 18
    frequency:   15.3493879095
  - # 19
    frequency:   17.2393238153
  - # 20
    frequency:   20.4254249454
  - # 21
    frequency:   64.7182053188

- q-position: [    0.0656566,    0.0000000,    0.0000000 ]
  distance:    0.0237712
  band:
  - # 1
    frequency:   -7.2661791424
  - # 2
    frequency:   -6.6652574430
  - # 3
    frequency:    0.4447521242
  - # 4
    frequency:    0.7834742993
  - # 5
    frequency:    1.2488599302
  - # 6
    frequency:    1.2634853628
  - # 7
    frequency:    1.5783244042
  - # 8
    frequency:    4.7742168339
  - # 9
    frequency:    4.9936228124
  - # 10
    frequency:    6.3509544160
  - # 11
    frequency:    7.2015641368
  - # 12
    frequency:    7.2590732137
  - # 13
    frequency:   10.4285576504
  - # 14
    frequency:   10.6771927159
  - # 15
    frequency:   10.7280463899
  - # 16
    frequency:   13.7630086213
  - # 17
    frequency:   13.7958901375
  - # 18
    frequency:   15.3375102965
  - # 19
    frequency:   17.2459755543
  - # 20
    frequency:   20.4249067157
  - # 21
    frequency:   64.7153711705

- q-position: [    0.0707071,    0.0000000,    0.0000000 ]
  distance:    0.0255998
  band:
  - # 1
    frequency:   -7.3329485118
  - # 2
    frequency:   -6.6402884458
  - # 3
    frequency:    0.5072711981
  - # 4
    frequency:    0.8283197210
  - # 5
    frequency:    1.3369684843
  - # 6
    frequency:    1.3464945910
  - # 7
    frequency:    1.6946768456
  - # 8
    frequency:    4.7744779770
  - # 9
    frequency:    5.0228677751
  - # 10
    frequency:    6.3383726828
  - # 11
    frequency:    7.2077279951
  - # 12
    frequency:    7.2758433412
  - # 13
    frequency:   10.4235834625
  - # 14
    frequency:   10.6775289782
  - # 15
    frequency:   10.7356795303
  - # 16
    frequency:   13.7452804938
  - # 17
    frequency:   13.7831200245
  - # 18
    frequency:   15.3244840408
  - # 19
    frequency:   17.2530838458
  - # 20
    frequency:   20.4242926387
  - # 21
    frequency:   64.7123259780

- q-position: [    0.0757576,    0.0000000,    0.0000000 ]
  distance:    0.0274283
  band:
  - # 1
    frequency:   -7.4031196865
  - # 2
    frequency:   -6.6134621042
  - # 3
    frequency:    0.5726639441
  - # 4
    frequency:    0.8724244504
  - # 5
    frequency:    1.4242994427
  - # 6
    frequency:    1.4321713552
  - # 7
    frequency:    1.8137614774
  - # 8
    frequency:    4.7752178095
  - # 9
    frequency:    5.0531950051
  - # 10
    frequency:    6.3261650782
  - # 11
    frequency:    7.2144195355
  - # 12
    frequency:    7.2941485077
  - # 13
    frequency:   10.4177738802
  - # 14
    frequency:   10.6779227193
  - # 15
    frequency:   10.7436769843
  - # 16
    frequency:   13.7266166613
  - # 17
    frequency:   13.7696874856
  - # 18
    frequency:   15.3102834466
  - # 19
    frequency:   17.2606195247
  - # 20
    frequency:   20.4235716173
  - # 21
    frequency:   64.7090732854

- q-position: [    0.0808081,    0.0000000,    0.0000000 ]
  distance:    0.0292569
  band:
  - # 1
    frequency:   -7.4763064606
  - # 2
    frequency:   -6.5847736303
  - # 3
    frequency:    0.6406796493
  - # 4
    frequency:    0.9159641771
  - # 5
    frequency:    1.5109555971
  - # 6
    frequency:    1.5202045240
  - # 7
    frequency:    1.9348298129
  - # 8
    frequency:    4.7765161292
  - # 9
    frequency:    5.0844869323
  - # 10
    frequency:    6.3145631862
  - # 11
    frequency:    7.2216504125
  - # 12
    frequency:    7.3139833648
  - # 13
    frequency:   10.4110787289
  - # 14
    frequency:   10.6783816723
  - # 15
    frequency:   10.7520082465
  - # 16
    frequency:   13.7070975122
  - # 17
    frequency:   13.7556510194
  - # 18
    frequency:   15.2948868933
  - # 19
    frequency:   17.2685482435
  - # 20
    frequency:   20.4227322194
  - # 21
    frequency:   64.7056168714

- q-position: [    0.0858586,    0.0000000,    0.0000000 ]
  distance:    0.0310854
  band:
  - # 1
    frequency:   -7.5520965510
  - # 2
    frequency:   -6.5542167419
  - # 3
    frequency:    0.7110703768
  - # 4
    frequency:    0.9590516407
  - # 5
    frequency:    1.5969934368
  - # 6
    frequency:    1.6103618788
  - # 7
    frequency:    2.0571598364
  - # 8
    frequency:    4.7784528745
  - # 9
    frequency:    5.1166542871
  - # 10
    frequency:    6.3038005849
  - # 11
    frequency:    7.2294321474
  - # 12
    frequency:    7.3353293250
  - # 13
    frequency:   10.4034546170
  - # 14
    frequency:   10.6789143246
  - # 15
    frequency:   10.7606449029
  - # 16
    frequency:   13.6868088142
  - # 17
    frequency:   13.7410723131
  - # 18
    frequency:   15.2782775131
  - # 19
    frequency:   17.2768303628
  - # 20
    frequency:   20.4217627595
  - # 21
    frequency:   64.7019607434

- q-position: [    0.0909091,    0.0000000,    0.0000000 ]
  distance:    0.0329140
  band:
  - # 1
    frequency:   -7.6300567057
  - # 2
    frequency:   -6.5217834094
  - # 3
    frequency:    0.7835943188
  - # 4
    frequency:    1.0017540955
  - # 5
    frequency:    1.6824347218
  - # 6
    frequency:    1.7024681659
  - # 7
    frequency:    2.1800415965
  - # 8
    frequency:    4.7811075855
  - # 9
    frequency:    5.1496419183
  - # 10
    frequency:    6.2941112158
  - # 11
    frequency:    7.2377760477
  - # 12
    frequency:    7.3581543432
  - # 13
    frequency:   10.3948653891
  - # 14
    frequency:   10.6795299451
  - # 15
    frequency:   10.7695609353
  - # 16
    frequency:   13.6658416516
  - # 17
    frequency:   13.7260160463
  - # 18
    frequency:   15.2604437789
  - # 19
    frequency:   17.2854209536
  - # 20
    frequency:   20.4206513798
  - # 21
    frequency:   64.6981091323

- q-position: [    0.0959596,    0.0000000,    0.0000000 ]
  distance:    0.0347426
  band:
  - # 1
    frequency:   -7.7097381461
  - # 2
    frequency:   -6.4874635891
  - # 3
    frequency:    0.8580184037
  - # 4
    frequency:    1.0441069004
  - # 5
    frequency:    1.7672770750
  - # 6
    frequency:    1.7963873763
  - # 7
    frequency:    2.3027652748
  - # 8
    frequency:    4.7845590123
  - # 9
    frequency:    5.1834342291
  - # 10
    frequency:    6.2857277481
  - # 11
    frequency:    7.2466931423
  - # 12
    frequency:    7.3824128119
  - # 13
    frequency:   10.3852825178
  - # 14
    frequency:   10.6802386065
  - # 15
    frequency:   10.7787328850
  - # 16
    frequency:   13.6442923357
  - # 17
    frequency:   13.7105496774
  - # 18
    frequency:   15.2413800040
  - # 19
    frequency:   17.2942699078
  - # 20
    frequency:   20.4193861301
  - # 21
    frequency:   64.6940664850

- q-position: [    0.1010101,    0.0000000,    0.0000000 ]
  distance:    0.0365711
  band:
  - # 1
    frequency:   -7.7906820698
  - # 2
    frequency:   -6.4512449514
  - # 3
    frequency:    0.9341201474
  - # 4
    frequency:    1.0861235213
  - # 5
    frequency:    1.8515022428
  - # 6
    frequency:    1.8920089545
  - # 7
    frequency:    2.4246129656
  - # 8
    frequency:    4.7888849040
  - # 9
    frequency:    5.2180597448
  - # 10
    frequency:    6.2788799316
  - # 11
    frequency:    7.2561941303
  - # 12
    frequency:    7.4080455561
  - # 13
    frequency:   10.3746854493
  - # 14
    frequency:   10.6810512037
  - # 15
    frequency:   10.7881399073
  - # 16
    frequency:   13.6222622782
  - # 17
    frequency:   13.6947432117
  - # 18
    frequency:   15.2210867547
  - # 19
    frequency:   17.3033221532
  - # 20
    frequency:   20.4179550456
  - # 21
    frequency:   64.6898374587

- q-position: [    0.1060606,    0.0000000,    0.0000000 ]
  distance:    0.0383997
  band:
  - # 1
    frequency:   -7.8724249809
  - # 2
    frequency:   -6.4131126064
  - # 3
    frequency:    1.0116888035
  - # 4
    frequency:    1.1278026805
  - # 5
    frequency:    1.9350820256
  - # 6
    frequency:    1.9892371769
  - # 7
    frequency:    2.5448543737
  - # 8
    frequency:    4.7941620108
  - # 9
    frequency:    5.2535940814
  - # 10
    frequency:    6.2737930086
  - # 11
    frequency:    7.2662893451
  - # 12
    frequency:    7.4349799179
  - # 13
    frequency:   10.3630619060
  - # 14
    frequency:   10.6819794658
  - # 15
    frequency:   10.7977637506
  - # 16
    frequency:   13.5998578208
  - # 17
    frequency:   13.6786689514
  - # 18
    frequency:   15.1995711883
  - # 19
    frequency:   17.3125179625
  - # 20
    frequency:   20.4163462235
  - # 21
    frequency:   64.6854269136

- q-position: [    0.1111111,    0.0000000,    0.0000000 ]
  distance:    0.0402282
  band:
  - # 1
    frequency:   -7.9545036565
  - # 2
    frequency:   -6.3730488379
  - # 3
    frequency:    1.0905258962
  - # 4
    frequency:    1.1691333885
  - # 5
    frequency:    2.0179823255
  - # 6
    frequency:    2.0879829255
  - # 7
    frequency:    2.6627464952
  - # 8
    frequency:    4.8004663310
  - # 9
    frequency:    5.2901603137
  - # 10
    frequency:    6.2706863746
  - # 11
    frequency:    7.2769887308
  - # 12
    frequency:    7.4631299290
  - # 13
    frequency:   10.3504081540
  - # 14
    frequency:   10.6830359618
  - # 15
    frequency:   10.8075886946
  - # 16
    frequency:   13.5771900102
  - # 17
    frequency:   13.6624012300
  - # 18
    frequency:   15.1768473255
  - # 19
    frequency:   17.3217933454
  - # 20
    frequency:   20.4145478956
  - # 21
    frequency:   64.6808399057

- q-position: [    0.1161616,    0.0000000,    0.0000000 ]
  distance:    0.0420568
  band:
  - # 1
    frequency:   -8.0364596158
  - # 2
    frequency:   -6.3310328503
  - # 3
    frequency:    1.1704452364
  - # 4
    frequency:    1.2100984600
  - # 5
    frequency:    2.1001658058
  - # 6
    frequency:    2.1881572135
  - # 7
    frequency:    2.7775375624
  - # 8
    frequency:    4.8078736362
  - # 9
    frequency:    5.3279254656
  - # 10
    frequency:    6.2697727908
  - # 11
    frequency:    7.2883018320
  - # 12
    frequency:    7.4923965627
  - # 13
    frequency:   10.3367292421
  - # 14
    frequency:   10.6842340978
  - # 15
    frequency:   10.8176014784
  - # 16
    frequency:   13.5543743090
  - # 17
    frequency:   13.6460161308
  - # 18
    frequency:   15.1529362742
  - # 19
    frequency:   17.3310805079
  - # 20
    frequency:   20.4125484994
  - # 21
    frequency:   64.6760816794

- q-position: [    0.1212121,    0.0000000,    0.0000000 ]
  distance:    0.0438853
  band:
  - # 1
    frequency:   -8.1178430099
  - # 2
    frequency:   -6.2870405401
  - # 3
    frequency:    1.2506769642
  - # 4
    frequency:    1.2512725160
  - # 5
    frequency:    2.1815935789
  - # 6
    frequency:    2.2896659649
  - # 7
    frequency:    2.8884757794
  - # 8
    frequency:    4.8164603038
  - # 9
    frequency:    5.3670916727
  - # 10
    frequency:    6.2712585686
  - # 11
    frequency:    7.3002377946
  - # 12
    frequency:    7.5226680630
  - # 13
    frequency:   10.3220392219
  - # 14
    frequency:   10.6855881066
  - # 15
    frequency:   10.8277912386
  - # 16
    frequency:   13.5315302321
  - # 17
    frequency:   13.6295911918
  - # 18
    frequency:   15.1278664205
  - # 19
    frequency:   17.3403083662
  - # 20
    frequency:   20.4103367450
  - # 21
    frequency:   64.6711576598

- q-position: [    0.1262626,    0.0000000,    0.0000000 ]
  distance:    0.0457139
  band:
  - # 1
    frequency:   -8.1982158949
  - # 2
    frequency:   -6.2410442999
  - # 3
    frequency:    1.2908459305
  - # 4
    frequency:    1.3328445704
  - # 5
    frequency:    2.2622262256
  - # 6
    frequency:    2.3924056720
  - # 7
    frequency:    2.9948234614
  - # 8
    frequency:    4.8263044901
  - # 9
    frequency:    5.4078806004
  - # 10
    frequency:    6.2753451950
  - # 11
    frequency:    7.3128053773
  - # 12
    frequency:    7.5538203429
  - # 13
    frequency:   10.3063613600
  - # 14
    frequency:   10.6871130257
  - # 15
    frequency:   10.8381494745
  - # 16
    frequency:   13.5087808983
  - # 17
    frequency:   13.6132050988
  - # 18
    frequency:   15.1016736050
  - # 19
    frequency:   17.3494030977
  - # 20
    frequency:   20.4079016793
  - # 21
    frequency:   64.6660734451

- q-position: [    0.1313131,    0.0000000,    0.0000000 ]
  distance:    0.0475425
  band:
  - # 1
    frequency:   -8.2771548953
  - # 2
    frequency:   -6.1930128632
  - # 3
    frequency:    1.3305815385
  - # 4
    frequency:    1.4150083780
  - # 5
    frequency:    2.3420243605
  - # 6
    frequency:    2.4962596490
  - # 7
    frequency:    3.0958769593
  - # 8
    frequency:    4.8374876725
  - # 9
    frequency:    5.4505101083
  - # 10
    frequency:    6.2822328382
  - # 11
    frequency:    7.3260129735
  - # 12
    frequency:    7.5857174469
  - # 13
    frequency:   10.2897283535
  - # 14
    frequency:   10.6888246665
  - # 15
    frequency:   10.8486700444
  - # 16
    frequency:   13.4862524845
  - # 17
    frequency:   13.5969373691
  - # 18
    frequency:   15.0744013032
  - # 19
    frequency:   17.3582887158
  - # 20
    frequency:   20.4052327462
  - # 21
    frequency:   64.6608347982

- q-position: [    0.1363636,    0.0000000,    0.0000000 ]
  distance:    0.0493710
  band:
  - # 1
    frequency:   -8.3542532878
  - # 2
    frequency:   -6.1429111998
  - # 3
    frequency:    1.3698599475
  - # 4
    frequency:    1.4976198543
  - # 5
    frequency:    2.4209488858
  - # 6
    frequency:    2.6010946593
  - # 7
    frequency:    3.1909921201
  - # 8
    frequency:    4.8500965906
  - # 9
    frequency:    5.4951630734
  - # 10
    frequency:    6.2921259852
  - # 11
    frequency:    7.3398686420
  - # 12
    frequency:    7.6182120767
  - # 13
    frequency:   10.2721825575
  - # 14
    frequency:   10.6907395703
  - # 15
    frequency:   10.8593491934
  - # 16
    frequency:   13.4640735737
  - # 17
    frequency:   13.5808680288
  - # 18
    frequency:   15.0461008282
  - # 19
    frequency:   17.3668876552
  - # 20
    frequency:   20.4023198440
  - # 21
    frequency:   64.6554476388

- q-position: [    0.1414141,    0.0000000,    0.0000000 ]
  distance:    0.0511996
  band:
  - # 1
    frequency:   -8.4291225611
  - # 2
    frequency:   -6.0907004671
  - # 3
    frequency:    1.4086578754
  - # 4
    frequency:    1.5805424765
  - # 5
    frequency:    2.4989610247
  - # 6
    frequency:    2.7067577451
  - # 7
    frequency:    3.2796139765
  - # 8
    frequency:    4.8642256146
  - # 9
    frequency:    5.5419497990
  - # 10
    frequency:    6.3052410784
  - # 11
    frequency:    7.3543801487
  - # 12
    frequency:    7.6511461819
  - # 13
    frequency:   10.2537762320
  - # 14
    frequency:   10.6928749536
  - # 15
    frequency:   10.8701856045
  - # 16
    frequency:   13.4423743817
  - # 17
    frequency:   13.5650772861
  - # 18
    frequency:   15.0168315746
  - # 19
    frequency:   17.3751213542
  - # 20
    frequency:   20.3991533781
  - # 21
    frequency:   64.6499180345

- q-position: [    0.1464646,    0.0000000,    0.0000000 ]
  distance:    0.0530281
  band:
  - # 1
    frequency:   -8.5013935167
  - # 2
    frequency:   -6.0363380250
  - # 3
    frequency:    1.4469530020
  - # 4
    frequency:    1.6636457604
  - # 5
    frequency:    2.5760221912
  - # 6
    frequency:    2.8130731167
  - # 7
    frequency:    3.3613080495
  - # 8
    frequency:    4.8799795584
  - # 9
    frequency:    5.5908674712
  - # 10
    frequency:    6.3218153332
  - # 11
    frequency:    7.3695550173
  - # 12
    frequency:    7.6843516296
  - # 13
    frequency:   10.2345718029
  - # 14
    frequency:   10.6952486391
  - # 15
    frequency:   10.8811804630
  - # 16
    frequency:   13.4212858520
  - # 17
    frequency:   13.5496452045
  - # 18
    frequency:   14.9866613202
  - # 19
    frequency:   17.3829108268
  - # 20
    frequency:   20.3957243112
  - # 21
    frequency:   64.6442521929

- q-position: [    0.1515152,    0.0000000,    0.0000000 ]
  distance:    0.0548567
  band:
  - # 1
    frequency:   -8.5707169805
  - # 2
    frequency:   -5.9797775151
  - # 3
    frequency:    1.4847242479
  - # 4
    frequency:    1.7468035939
  - # 5
    frequency:    2.6520937277
  - # 6
    frequency:    2.9198389935
  - # 7
    frequency:    3.4357894580
  - # 8
    frequency:    4.8974769483
  - # 9
    frequency:    5.6417624211
  - # 10
    frequency:    6.3421148424
  - # 11
    frequency:    7.3854005916
  - # 12
    frequency:    7.7176509797
  - # 13
    frequency:   10.2146421291
  - # 14
    frequency:   10.6978789749
  - # 15
    frequency:   10.8923375169
  - # 16
    frequency:   13.4009386044
  - # 17
    frequency:   13.5346513788
  - # 18
    frequency:   14.9556666050
  - # 19
    frequency:   17.3901772147
  - # 20
    frequency:   20.3920242087
  - # 21
    frequency:   64.6384564525