nqpoint: 300    
npath: 3      
segment_nqpoint:
- 100
- 100
- 100
labels:
- [ 'G', 'M' ]
- [ 'M', 'K' ]
- [ 'K', 'G' ]
reciprocal_lattice:
- [   0.31354801,   0.18102703,   0.00000000 ] # a*
- [   0.00000000,   0.36205405,   0.00000000 ] # b*
- [   0.00000000,   0.00000000,   0.03884199 ] # c*
natom: 7      
lattice:
- [     3.189304257980940,     0.000000000000000,     0.000000000000000 ] # a
- [    -1.594652128990470,     2.762018507810220,     0.000000000000000 ] # b
- [     0.000000000000000,     0.000000000000000,    25.745331330364259 ] # c
points:
- symbol: C # 1
  coordinates: [  0.000000000000000,  0.000000000000000,  0.434180056038320 ]
  mass: 12.010700
- symbol: C # 2
  coordinates: [  0.333332985432215,  0.666666983183674,  0.604164799819214 ]
  mass: 12.010700
- symbol: N # 3
  coordinates: [  0.333332985432215,  0.666666983183674,  0.650422055769571 ]
  mass: 14.006700
- symbol: O # 4
  coordinates: [  0.666666984744047,  0.333332985985145,  0.349577944230429 ]
  mass: 15.999400
- symbol: S # 5
  coordinates: [  0.333332985432215,  0.666666983183674,  0.539130394288110 ]
  mass: 32.065000
- symbol: Ti # 6
  coordinates: [  0.333332985432215,  0.666666983183674,  0.382732015732837 ]
  mass: 47.867000
- symbol: Ti # 7
  coordinates: [  0.666666984744047,  0.333332985985145,  0.477413287851892 ]
  mass: 47.867000

phonon:
- q-position: [    0.0000000,    0.0000000,    0.0000000 ]
  distance:    0.0000000
  band:
  - # 1
    frequency:   -5.7828547342
  - # 2
    frequency:   -5.7828547342
  - # 3
    frequency:   -0.0000015761
  - # 4
    frequency:    0.0000003095
  - # 5
    frequency:    0.0000012185
  - # 6
    frequency:    1.0887725426
  - # 7
    frequency:    1.0887725426
  - # 8
    frequency:    4.6140313643
  - # 9
    frequency:    4.6140313643
  - # 10
    frequency:    6.0747783553
  - # 11
    frequency:    7.2072160037
  - # 12
    frequency:    7.2072160037
  - # 13
    frequency:   10.4619767338
  - # 14
    frequency:   10.6682670817
  - # 15
    frequency:   10.6682670817
  - # 16
    frequency:   14.1881561194
  - # 17
    frequency:   14.1881561194
  - # 18
    frequency:   15.5379387302
  - # 19
    frequency:   17.0097074660
  - # 20
    frequency:   20.4721780467
  - # 21
    frequency:   64.7372928868

- q-position: [    0.0050505,    0.0000000,    0.0000000 ]
  distance:    0.0018286
  band:
  - # 1
    frequency:   -5.7881942890
  - # 2
    frequency:   -5.7843381534
  - # 3
    frequency:   -0.3095401668
  - # 4
    frequency:    0.0977121104
  - # 5
    frequency:    0.3347096562
  - # 6
    frequency:    1.0900526426
  - # 7
    frequency:    1.0942590312
  - # 8
    frequency:    4.6142197683
  - # 9
    frequency:    4.6163283506
  - # 10
    frequency:    6.0742641477
  - # 11
    frequency:    7.2071452755
  - # 12
    frequency:    7.2077329781
  - # 13
    frequency:   10.4616894859
  - # 14
    frequency:   10.6681644711
  - # 15
    frequency:   10.6687420277
  - # 16
    frequency:   14.1871560200
  - # 17
    frequency:   14.1874957232
  - # 18
    frequency:   15.5372586122
  - # 19
    frequency:   17.0106707573
  - # 20
    frequency:   20.4720397427
  - # 21
    frequency:   64.7371720488

- q-position: [    0.0101010,    0.0000000,    0.0000000 ]
  distance:    0.0036571
  band:
  - # 1
    frequency:   -5.8041598877
  - # 2
    frequency:   -5.7887689459
  - # 3
    frequency:   -0.4208784205
  - # 4
    frequency:    0.1951227049
  - # 5
    frequency:    0.4917409522
  - # 6
    frequency:    1.0939174538
  - # 7
    frequency:    1.1107093565
  - # 8
    frequency:    4.6147833948
  - # 9
    frequency:    4.6231910907
  - # 10
    frequency:    6.0727321044
  - # 11
    frequency:    7.2069378838
  - # 12
    frequency:    7.2092796639
  - # 13
    frequency:   10.4608341049
  - # 14
    frequency:   10.6678597867
  - # 15
    frequency:   10.6701570430
  - # 16
    frequency:   14.1841617255
  - # 17
    frequency:   14.1855174454
  - # 18
    frequency:   15.5352188808
  - # 19
    frequency:   17.0135526448
  - # 20
    frequency:   20.4716253413
  - # 21
    frequency:   64.7368096966

- q-position: [    0.0151515,    0.0000000,    0.0000000 ]
  distance:    0.0054857
  band:
  - # 1
    frequency:   -5.8305932636
  - # 2
    frequency:   -5.7960890016
  - # 3
    frequency:   -0.4955439028
  - # 4
    frequency:    0.2919086919
  - # 5
    frequency:    0.6246624011
  - # 6
    frequency:    1.1004452574
  - # 7
    frequency:    1.1381569840
  - # 8
    frequency:    4.6157176232
  - # 9
    frequency:    4.6345359887
  - # 10
    frequency:    6.0702139353
  - # 11
    frequency:    7.2066081388
  - # 12
    frequency:    7.2118434952
  - # 13
    frequency:   10.4594285505
  - # 14
    frequency:   10.6673624200
  - # 15
    frequency:   10.6724838347
  - # 16
    frequency:   14.1791912033
  - # 17
    frequency:   14.1822299865
  - # 18
    frequency:   15.5318214283
  - # 19
    frequency:   17.0183292589
  - # 20
    frequency:   20.4709363695
  - # 21
    frequency:   64.7362063142

- q-position: [    0.0202020,    0.0000000,    0.0000000 ]
  distance:    0.0073142
  band:
  - # 1
    frequency:   -5.8672337776
  - # 2
    frequency:   -5.8062024090
  - # 3
    frequency:   -0.5498744114
  - # 4
    frequency:    0.3876994654
  - # 5
    frequency:    0.7461699098
  - # 6
    frequency:    1.1097833320
  - # 7
    frequency:    1.1768443793
  - # 8
    frequency:    4.6170152025
  - # 9
    frequency:    4.6502271665
  - # 10
    frequency:    6.0667623862
  - # 11
    frequency:    7.2061796645
  - # 12
    frequency:    7.2154040127
  - # 13
    frequency:   10.4574992756
  - # 14
    frequency:   10.6666878572
  - # 15
    frequency:   10.6756788824
  - # 16
    frequency:   14.1722742557
  - # 17
    frequency:   14.1776477412
  - # 18
    frequency:   15.5270694861
  - # 19
    frequency:   17.0249611131
  - # 20
    frequency:   20.4699753600
  - # 21
    frequency:   64.7353627073

- q-position: [    0.0252525,    0.0000000,    0.0000000 ]
  distance:    0.0091428
  band:
  - # 1
    frequency:   -5.9137232349
  - # 2
    frequency:   -5.8189768233
  - # 3
    frequency:   -0.5902534742
  - # 4
    frequency:    0.4820414357
  - # 5
    frequency:    0.8596467596
  - # 6
    frequency:    1.1221767067
  - # 7
    frequency:    1.2274243294
  - # 8
    frequency:    4.6186669170
  - # 9
    frequency:    4.6700813494
  - # 10
    frequency:    6.0624510595
  - # 11
    frequency:    7.2056850565
  - # 12
    frequency:    7.2199335863
  - # 13
    frequency:   10.4550768719
  - # 14
    frequency:   10.6658574306
  - # 15
    frequency:   10.6796880192
  - # 16
    frequency:   14.1634523057
  - # 17
    frequency:   14.1717906450
  - # 18
    frequency:   15.5209677346
  - # 19
    frequency:   17.0333935452
  - # 20
    frequency:   20.4687458324
  - # 21
    frequency:   64.7342800013

- q-position: [    0.0303030,    0.0000000,    0.0000000 ]
  distance:    0.0109713
  band:
  - # 1
    frequency:   -5.9696127553
  - # 2
    frequency:   -5.8342453075
  - # 3
    frequency:   -0.6197839601
  - # 4
    frequency:    0.5743466683
  - # 5
    frequency:    0.9652968982
  - # 6
    frequency:    1.1380154407
  - # 7
    frequency:    1.2909898366
  - # 8
    frequency:    4.6206625015
  - # 9
    frequency:    4.6938741786
  - # 10
    frequency:    6.0573741184
  - # 11
    frequency:    7.2051654028
  - # 12
    frequency:    7.2253984109
  - # 13
    frequency:   10.4521913664
  - # 14
    frequency:   10.6648979734
  - # 15
    frequency:   10.6844514401
  - # 16
    frequency:   14.1527781030
  - # 17
    frequency:   14.1646839679
  - # 18
    frequency:   15.5135224474
  - # 19
    frequency:   17.0435573229
  - # 20
    frequency:   20.4672522656
  - # 21
    frequency:   64.7329596385

- q-position: [    0.0353535,    0.0000000,    0.0000000 ]
  distance:    0.0127999
  band:
  - # 1
    frequency:   -6.0343716585
  - # 2
    frequency:   -5.8518085788
  - # 3
    frequency:   -0.6400405964
  - # 4
    frequency:    0.6638197397
  - # 5
    frequency:    1.0622780853
  - # 6
    frequency:    1.1579054487
  - # 7
    frequency:    1.3685496158
  - # 8
    frequency:    4.6229917834
  - # 9
    frequency:    4.7213475298
  - # 10
    frequency:    6.0516458399
  - # 11
    frequency:    7.2046696644
  - # 12
    frequency:    7.2317597572
  - # 13
    frequency:   10.4488679629
  - # 14
    frequency:   10.6638413820
  - # 15
    frequency:   10.6899083352
  - # 16
    frequency:   14.1403153511
  - # 17
    frequency:   14.1563580660
  - # 18
    frequency:   15.5047416561
  - # 19
    frequency:   17.0553694069
  - # 20
    frequency:   20.4655000631
  - # 21
    frequency:   64.7314033749

- q-position: [    0.0404040,    0.0000000,    0.0000000 ]
  distance:    0.0146284
  band:
  - # 1
    frequency:   -6.1073981529
  - # 2
    frequency:   -5.8714375811
  - # 3
    frequency:   -0.6517297240
  - # 4
    frequency:    0.7493664164
  - # 5
    frequency:    1.1504375714
  - # 6
    frequency:    1.1827586840
  - # 7
    frequency:    1.4599037985
  - # 8
    frequency:    4.6256460284
  - # 9
    frequency:    4.7522174091
  - # 10
    frequency:    6.0453999746
  - # 11
    frequency:    7.2042539182
  - # 12
    frequency:    7.2389754413
  - # 13
    frequency:   10.4451237527
  - # 14
    frequency:   10.6627240882
  - # 15
    frequency:   10.6960006137
  - # 16
    frequency:   14.1261382634
  - # 17
    frequency:   14.1468480985
  - # 18
    frequency:   15.4946353297
  - # 19
    frequency:   17.0687338563
  - # 20
    frequency:   20.4634955083
  - # 21
    frequency:   64.7296132762

- q-position: [    0.0454545,    0.0000000,    0.0000000 ]
  distance:    0.0164570
  band:
  - # 1
    frequency:   -6.1880314345
  - # 2
    frequency:   -5.8928763040
  - # 3
    frequency:   -0.6549799467
  - # 4
    frequency:    0.8295258630
  - # 5
    frequency:    1.2138605907
  - # 6
    frequency:    1.2312067920
  - # 7
    frequency:    1.5630272425
  - # 8
    frequency:    4.6286194508
  - # 9
    frequency:    4.7861820576
  - # 10
    frequency:    6.0387888701
  - # 11
    frequency:    7.2039804643
  - # 12
    frequency:    7.2470014671
  - # 13
    frequency:   10.4409656140
  - # 14
    frequency:   10.6615864487
  - # 15
    frequency:   10.7026754886
  - # 16
    frequency:   14.1103310522
  - # 17
    frequency:   14.1361937227
  - # 18
    frequency:   15.4832155545
  - # 19
    frequency:   17.0835428622
  - # 20
    frequency:   20.4612457111
  - # 21
    frequency:   64.7275917130

- q-position: [    0.0505051,    0.0000000,    0.0000000 ]
  distance:    0.0182856
  band:
  - # 1
    frequency:   -6.2755646494
  - # 2
    frequency:   -5.9158447633
  - # 3
    frequency:   -0.6494638129
  - # 4
    frequency:    0.9025595749
  - # 5
    frequency:    1.2527813682
  - # 6
    frequency:    1.3069388671
  - # 7
    frequency:    1.6748687674
  - # 8
    frequency:    4.6319108462
  - # 9
    frequency:    4.8229299827
  - # 10
    frequency:    6.0319823089
  - # 11
    frequency:    7.2039168051
  - # 12
    frequency:    7.2557937759
  - # 13
    frequency:   10.4363892863
  - # 14
    frequency:   10.6604720585
  - # 15
    frequency:   10.7098869300
  - # 16
    frequency:   14.0929873576
  - # 17
    frequency:   14.1244387770
  - # 18
    frequency:   15.4704967062
  - # 19
    frequency:   17.0996778903
  - # 20
    frequency:   20.4587585448
  - # 21
    frequency:   64.7253413548

- q-position: [    0.0555556,    0.0000000,    0.0000000 ]
  distance:    0.0201141
  band:
  - # 1
    frequency:   -6.3692580981
  - # 2
    frequency:   -5.9400420675
  - # 3
    frequency:   -0.6344103494
  - # 4
    frequency:    0.9669099631
  - # 5
    frequency:    1.3009179520
  - # 6
    frequency:    1.3797917879
  - # 7
    frequency:    1.7925364855
  - # 8
    frequency:    4.6355252883
  - # 9
    frequency:    4.8621477488
  - # 10
    frequency:    6.0251659976
  - # 11
    frequency:    7.2041345069
  - # 12
    frequency:    7.2653100325
  - # 13
    frequency:   10.4313794616
  - # 14
    frequency:   10.6594269975
  - # 15
    frequency:   10.7175961388
  - # 16
    frequency:   14.0742096244
  - # 17
    frequency:   14.1116309608
  - # 18
    frequency:   15.4564956080
  - # 19
    frequency:   17.1170109131
  - # 20
    frequency:   20.4560425722
  - # 21
    frequency:   64.7228651648

- q-position: [    0.0606061,    0.0000000,    0.0000000 ]
  distance:    0.0219427
  band:
  - # 1
    frequency:   -6.4683520648
  - # 2
    frequency:   -5.9651494991
  - # 3
    frequency:   -0.6085064584
  - # 4
    frequency:    1.0219955598
  - # 5
    frequency:    1.3586996238
  - # 6
    frequency:    1.4512619798
  - # 7
    frequency:    1.9137976760
  - # 8
    frequency:    4.6394758252
  - # 9
    frequency:    4.9035274718
  - # 10
    frequency:    6.0185396307
  - # 11
    frequency:    7.2047079609
  - # 12
    frequency:    7.2755113637
  - # 13
    frequency:   10.4259106734
  - # 14
    frequency:   10.6584990206
  - # 15
    frequency:   10.7257712577
  - # 16
    frequency:   14.0541084326
  - # 17
    frequency:   14.0978215205
  - # 18
    frequency:   15.4412316659
  - # 19
    frequency:   17.1354057107
  - # 20
    frequency:   20.4531069629
  - # 21
    frequency:   64.7201663924

- q-position: [    0.0656566,    0.0000000,    0.0000000 ]
  distance:    0.0237712
  band:
  - # 1
    frequency:   -6.5720787384
  - # 2
    frequency:   -5.9908335524
  - # 3
    frequency:   -0.5696189704
  - # 4
    frequency:    1.0686744573
  - # 5
    frequency:    1.4251255684
  - # 6
    frequency:    1.5222472062
  - # 7
    frequency:    2.0370308385
  - # 8
    frequency:    4.6437850976
  - # 9
    frequency:    4.9467740629
  - # 10
    frequency:    6.0123144231
  - # 11
    frequency:    7.2057130676
  - # 12
    frequency:    7.2863639677
  - # 13
    frequency:   10.4199487561
  - # 14
    frequency:   10.6577367053
  - # 15
    frequency:   10.7343865471
  - # 16
    frequency:   14.0328017903
  - # 17
    frequency:   14.0830649492
  - # 18
    frequency:   15.4247269808
  - # 19
    frequency:   17.1547192179
  - # 20
    frequency:   20.4499613986
  - # 21
    frequency:   64.7172485658

- q-position: [    0.0707071,    0.0000000,    0.0000000 ]
  distance:    0.0255998
  band:
  - # 1
    frequency:   -6.6796728249
  - # 2
    frequency:   -6.0167488777
  - # 3
    frequency:   -0.5141077886
  - # 4
    frequency:    1.1087961088
  - # 5
    frequency:    1.4982141997
  - # 6
    frequency:    1.5932409031
  - # 7
    frequency:    2.1610365550
  - # 8
    frequency:    4.6484867950
  - # 9
    frequency:    4.9916123346
  - # 10
    frequency:    6.0067099878
  - # 11
    frequency:    7.2072258718
  - # 12
    frequency:    7.2978405143
  - # 13
    frequency:   10.4134526653
  - # 14
    frequency:   10.6571885704
  - # 15
    frequency:   10.7434212387
  - # 16
    frequency:   14.0104143968
  - # 17
    frequency:   14.0674187028
  - # 18
    frequency:   15.4070064338
  - # 19
    frequency:   17.1748028977
  - # 20
    frequency:   20.4466159700
  - # 21
    frequency:   64.7141154842

- q-position: [    0.0757576,    0.0000000,    0.0000000 ]
  distance:    0.0274283
  band:
  - # 1
    frequency:   -6.7903806044
  - # 2
    frequency:   -6.0425410948
  - # 3
    frequency:   -0.4348828374
  - # 4
    frequency:    1.1443436039
  - # 5
    frequency:    1.5758621094
  - # 6
    frequency:    1.6644911675
  - # 7
    frequency:    2.2848786429
  - # 8
    frequency:    4.6536268567
  - # 9
    frequency:    5.0377941065
  - # 10
    frequency:    6.0019504129
  - # 11
    frequency:    7.2093211847
  - # 12
    frequency:    7.3099212599
  - # 13
    frequency:   10.4063764756
  - # 14
    frequency:   10.6569021833
  - # 15
    frequency:   10.7528582513
  - # 16
    frequency:   13.9870768818
  - # 17
    frequency:   14.0509429378
  - # 18
    frequency:   15.3880977476
  - # 19
    frequency:   17.1955041195
  - # 20
    frequency:   20.4430810626
  - # 21
    frequency:   64.7107712093

- q-position: [    0.0808081,    0.0000000,    0.0000000 ]
  distance:    0.0292569
  band:
  - # 1
    frequency:   -6.9034673329
  - # 2
    frequency:   -6.0678494505
  - # 3
    frequency:   -0.3135283255
  - # 4
    frequency:    1.1769165798
  - # 5
    frequency:    1.6563624514
  - # 6
    frequency:    1.7361028541
  - # 7
    frequency:    2.4077797684
  - # 8
    frequency:    4.6592643274
  - # 9
    frequency:    5.0851054202
  - # 10
    frequency:    5.9982594009
  - # 11
    frequency:    7.2120712313
  - # 12
    frequency:    7.3225948143
  - # 13
    frequency:   10.3986714084
  - # 14
    frequency:   10.6569232733
  - # 15
    frequency:   10.7626829228
  - # 16
    frequency:   13.9629250280
  - # 17
    frequency:   14.0337002702
  - # 18
    frequency:   15.3680315245
  - # 19
    frequency:   17.2166675242
  - # 20
    frequency:   20.4393672355
  - # 21
    frequency:   64.7072200559

- q-position: [    0.0858586,    0.0000000,    0.0000000 ]
  distance:    0.0310854
  band:
  - # 1
    frequency:   -7.0182230118
  - # 2
    frequency:   -6.0923093021
  - # 3
    frequency:    0.0932573970
  - # 4
    frequency:    1.2076393639
  - # 5
    frequency:    1.7384981393
  - # 6
    frequency:    1.8080982457
  - # 7
    frequency:    2.5290576173
  - # 8
    frequency:    4.6654717799
  - # 9
    frequency:    5.1333738601
  - # 10
    frequency:    5.9958543776
  - # 11
    frequency:    7.2155443657
  - # 12
    frequency:    7.3358585064
  - # 13
    frequency:   10.3902877693
  - # 14
    frequency:   10.6572948701
  - # 15
    frequency:   10.7728818781
  - # 16
    frequency:   13.9380989840
  - # 17
    frequency:   14.0157555540
  - # 18
    frequency:   15.3468412664
  - # 19
    frequency:   17.2381363593
  - # 20
    frequency:   20.4354850916
  - # 21
    frequency:   64.7034665822

- q-position: [    0.0909091,    0.0000000,    0.0000000 ]
  distance:    0.0329140
  band:
  - # 1
    frequency:   -7.1339666418
  - # 2
    frequency:   -6.1155544187
  - # 3
    frequency:    0.3637469697
  - # 4
    frequency:    1.2372547193
  - # 5
    frequency:    1.8214494461
  - # 6
    frequency:    1.8804523492
  - # 7
    frequency:    2.6480866301
  - # 8
    frequency:    4.6723352267
  - # 9
    frequency:    5.1824757876
  - # 10
    frequency:    5.9949395811
  - # 11
    frequency:    7.2198038971
  - # 12
    frequency:    7.3497183072
  - # 13
    frequency:   10.3811767123
  - # 14
    frequency:   10.6580564872
  - # 15
    frequency:   10.7834421199
  - # 16
    frequency:   13.9127424706
  - # 17
    frequency:   13.9971756786
  - # 18
    frequency:   15.3245633818
  - # 19
    frequency:   17.2597537689
  - # 20
    frequency:   20.4314451421
  - # 21
    frequency:   64.6995155802

- q-position: [    0.0959596,    0.0000000,    0.0000000 ]
  distance:    0.0347426
  band:
  - # 1
    frequency:   -7.2500491343
  - # 2
    frequency:   -6.1372191006
  - # 3
    frequency:    0.5223898436
  - # 4
    frequency:    1.2662416709
  - # 5
    frequency:    1.9046774835
  - # 6
    frequency:    1.9531134305
  - # 7
    frequency:    2.7642755252
  - # 8
    frequency:    4.6799534687
  - # 9
    frequency:    5.2323429969
  - # 10
    frequency:    5.9956983254
  - # 11
    frequency:    7.2249070657
  - # 12
    frequency:    7.3641882847
  - # 13
    frequency:   10.3712917727
  - # 14
    frequency:   10.6592433703
  - # 15
    frequency:   10.7943503934
  - # 16
    frequency:   13.8870019876
  - # 17
    frequency:   13.9780293785
  - # 18
    frequency:   15.3012371857
  - # 19
    frequency:   17.2813640264
  - # 20
    frequency:   20.4272576679
  - # 21
    frequency:   64.6953720650

- q-position: [    0.1010101,    0.0000000,    0.0000000 ]
  distance:    0.0365711
  band:
  - # 1
    frequency:   -7.3658550840
  - # 2
    frequency:   -6.1569401206
  - # 3
    frequency:    0.6562613985
  - # 4
    frequency:    1.2949067986
  - # 5
    frequency:    1.9878341064
  - # 6
    frequency:    2.0260150420
  - # 7
    frequency:    2.8770551202
  - # 8
    frequency:    4.6884368504
  - # 9
    frequency:    5.2829679313
  - # 10
    frequency:    5.9982848954
  - # 11
    frequency:    7.2309042055
  - # 12
    frequency:    7.3792895787
  - # 13
    frequency:   10.3605901471
  - # 14
    frequency:   10.6608858293
  - # 15
    frequency:   10.8055928458
  - # 16
    frequency:   13.8610260215
  - # 17
    frequency:   13.9583870518
  - # 18
    frequency:   15.2769048992
  - # 19
    frequency:   17.3028136997
  - # 20
    frequency:   20.4229325780
  - # 21
    frequency:   64.6910412638

- q-position: [    0.1060606,    0.0000000,    0.0000000 ]
  distance:    0.0383997
  band:
  - # 1
    frequency:   -7.4808036104
  - # 2
    frequency:   -6.1743584973
  - # 3
    frequency:    0.7783412600
  - # 4
    frequency:    1.3234456727
  - # 5
    frequency:    2.0707014839
  - # 6
    frequency:    2.0990831098
  - # 7
    frequency:    2.9858736151
  - # 8
    frequency:    4.6979054334
  - # 9
    frequency:    5.3344061866
  - # 10
    frequency:    6.0028168600
  - # 11
    frequency:    7.2378381204
  - # 12
    frequency:    7.3950488994
  - # 13
    frequency:   10.3490337180
  - # 14
    frequency:   10.6630086718
  - # 15
    frequency:   10.8171549689
  - # 16
    frequency:   13.8349642590
  - # 17
    frequency:   13.9383205811
  - # 18
    frequency:   15.2516116576
  - # 19
    frequency:   17.3239527404
  - # 20
    frequency:   20.4184792701
  - # 21
    frequency:   64.6865286053

- q-position: [    0.1111111,    0.0000000,    0.0000000 ]
  distance:    0.0402282
  band:
  - # 1
    frequency:   -7.5943484703
  - # 2
    frequency:   -6.1891211134
  - # 3
    frequency:    0.8934952957
  - # 4
    frequency:    1.3519822582
  - # 5
    frequency:    2.1531534095
  - # 6
    frequency:    2.1722401123
  - # 7
    frequency:    3.0901979584
  - # 8
    frequency:    4.7084866383
  - # 9
    frequency:    5.3867746812
  - # 10
    frequency:    6.0093689271
  - # 11
    frequency:    7.2457436924
  - # 12
    frequency:    7.4114965740
  - # 13
    frequency:   10.3365898481
  - # 14
    frequency:   10.6656307543
  - # 15
    frequency:   10.8290217892
  - # 16
    frequency:   13.8089668064
  - # 17
    frequency:   13.9179031503
  - # 18
    frequency:   15.2254055330
  - # 19
    frequency:   17.3446354901
  - # 20
    frequency:   20.4139064946
  - # 21
    frequency:   64.6818397078

- q-position: [    0.1161616,    0.0000000,    0.0000000 ]
  distance:    0.0420568
  band:
  - # 1
    frequency:   -7.7059776208
  - # 2
    frequency:   -6.2008821935
  - # 3
    frequency:    1.0040742344
  - # 4
    frequency:    1.3805938850
  - # 5
    frequency:    2.2351306351
  - # 6
    frequency:    2.2454075246
  - # 7
    frequency:    3.1895205934
  - # 8
    frequency:    4.7203124525
  - # 9
    frequency:    5.4402437212
  - # 10
    frequency:    6.0179697425
  - # 11
    frequency:    7.2546477293
  - # 12
    frequency:    7.4286641848
  - # 13
    frequency:   10.3232319793
  - # 14
    frequency:   10.6687646630
  - # 15
    frequency:   10.8411782533
  - # 16
    frequency:   13.7831834167
  - # 17
    frequency:   13.8972090521
  - # 18
    frequency:   15.1983375805
  - # 19
    frequency:   17.3647216002
  - # 20
    frequency:   20.4092222255
  - # 21
    frequency:   64.6769803681

- q-position: [    0.1212121,    0.0000000,    0.0000000 ]
  distance:    0.0438853
  band:
  - # 1
    frequency:   -7.8152123894
  - # 2
    frequency:   -6.2093046606
  - # 3
    frequency:    1.1113666177
  - # 4
    frequency:    1.4093271039
  - # 5
    frequency:    2.3166247845
  - # 6
    frequency:    2.3185072167
  - # 7
    frequency:    3.2833710049
  - # 8
    frequency:    4.7335163472
  - # 9
    frequency:    5.4950213501
  - # 10
    frequency:    6.0286031814
  - # 11
    frequency:    7.2645690474
  - # 12
    frequency:    7.4465818690
  - # 13
    frequency:   10.3089400833
  - # 14
    frequency:   10.6724165345
  - # 15
    frequency:   10.8536097424
  - # 16
    frequency:   13.7577627241
  - # 17
    frequency:   13.8763134776
  - # 18
    frequency:   15.1704619164
  - # 19
    frequency:   17.3840768599
  - # 20
    frequency:   20.4044335413
  - # 21
    frequency:   64.6719565497

- q-position: [    0.1262626,    0.0000000,    0.0000000 ]
  distance:    0.0457139
  band:
  - # 1
    frequency:   -7.9216063820
  - # 2
    frequency:   -6.2140613875
  - # 3
    frequency:    1.2161300465
  - # 4
    frequency:    1.4382078137
  - # 5
    frequency:    2.3914622167
  - # 6
    frequency:    2.3976673371
  - # 7
    frequency:    3.3713311935
  - # 8
    frequency:    4.7482300816
  - # 9
    frequency:    5.5513288627
  - # 10
    frequency:    6.0412157109
  - # 11
    frequency:    7.2755187753
  - # 12
    frequency:    7.4652753719
  - # 13
    frequency:   10.2937010136
  - # 14
    frequency:   10.6765860225
  - # 15
    frequency:   10.8663026463
  - # 16
    frequency:   13.7328514879
  - # 17
    frequency:   13.8552922851
  - # 18
    frequency:   15.1418358358
  - # 19
    frequency:   17.4025739316
  - # 20
    frequency:   20.3995465190
  - # 21
    frequency:   64.6667743709

- q-position: [    0.1313131,    0.0000000,    0.0000000 ]
  distance:    0.0475425
  band:
  - # 1
    frequency:   -8.0247442363
  - # 2
    frequency:   -6.2148363640
  - # 3
    frequency:    1.3188264161
  - # 4
    frequency:    1.4672477538
  - # 5
    frequency:    2.4641970892
  - # 6
    frequency:    2.4783214773
  - # 7
    frequency:    3.4530536368
  - # 8
    frequency:    4.7645806065
  - # 9
    frequency:    5.6093669620
  - # 10
    frequency:    6.0557314910
  - # 11
    frequency:    7.2875008533
  - # 12
    frequency:    7.4847629738
  - # 13
    frequency:   10.2775088052
  - # 14
    frequency:   10.6812664104
  - # 15
    frequency:   10.8792449307
  - # 16
    frequency:   13.7085938444
  - # 17
    frequency:   13.8342217390
  - # 18
    frequency:   15.1125199774
  - # 19
    frequency:   17.4200929921
  - # 20
    frequency:   20.3945661450
  - # 21
    frequency:   64.6614400935

- q-position: [    0.1363636,    0.0000000,    0.0000000 ]
  distance:    0.0493710
  band:
  - # 1
    frequency:   -8.1242403027
  - # 2
    frequency:   -6.2113257979
  - # 3
    frequency:    1.4197399556
  - # 4
    frequency:    1.4964486604
  - # 5
    frequency:    2.5366380821
  - # 6
    frequency:    2.5586754300
  - # 7
    frequency:    3.5282796375
  - # 8
    frequency:    4.7826872876
  - # 9
    frequency:    5.6692721467
  - # 10
    frequency:    6.0720774949
  - # 11
    frequency:    7.3005126984
  - # 12
    frequency:    7.5050524333
  - # 13
    frequency:   10.2603649636
  - # 14
    frequency:   10.6864448683
  - # 15
    frequency:   10.8924266339
  - # 16
    frequency:   13.6851305703
  - # 17
    frequency:   13.8131782149
  - # 18
    frequency:   15.0825785445
  - # 19
    frequency:   17.4365222792
  - # 20
    frequency:   20.3894962434
  - # 21
    frequency:   64.6559601103

- q-position: [    0.1414141,    0.0000000,    0.0000000 ]
  distance:    0.0511996
  band:
  - # 1
    frequency:   -8.2197373182
  - # 2
    frequency:   -6.2032391687
  - # 3
    frequency:    1.5190419145
  - # 4
    frequency:    1.5258049041
  - # 5
    frequency:    2.6087131345
  - # 6
    frequency:    2.6388364249
  - # 7
    frequency:    3.5968554753
  - # 8
    frequency:    4.8026596660
  - # 9
    frequency:    5.7310613630
  - # 10
    frequency:    6.0902229922
  - # 11
    frequency:    7.3145459976
  - # 12
    frequency:    7.5261381018
  - # 13
    frequency:   10.2422787782
  - # 14
    frequency:   10.6921028457
  - # 15
    frequency:   10.9058402445
  - # 16
    frequency:   13.6625983576
  - # 17
    frequency:   13.7922378633
  - # 18
    frequency:   15.0520795880
  - # 19
    frequency:   17.4517585449
  - # 20
    frequency:   20.3843394260
  - # 21
    frequency:   64.6503409344

- q-position: [    0.1464646,    0.0000000,    0.0000000 ]
  distance:    0.0530281
  band:
  - # 1
    frequency:   -8.3109051210
  - # 2
    frequency:   -6.1903002547
  - # 3
    frequency:    1.5553051422
  - # 4
    frequency:    1.6168283634
  - # 5
    frequency:    2.6803518025
  - # 6
    frequency:    2.7189247738
  - # 7
    frequency:    3.6587437454
  - # 8
    frequency:    4.8245959461
  - # 9
    frequency:    5.7945577708
  - # 10
    frequency:    6.1102429859
  - # 11
    frequency:    7.3295875920
  - # 12
    frequency:    7.5479983747
  - # 13
    frequency:   10.2232676834
  - # 14
    frequency:   10.6982165886
  - # 15
    frequency:   10.9194809181
  - # 16
    frequency:   13.6411291061
  - # 17
    frequency:   13.7714762252
  - # 18
    frequency:   15.0210953591
  - # 19
    frequency:   17.4657074164
  - # 20
    frequency:   20.3790970652
  - # 21
    frequency:   64.6445891869

- q-position: [    0.1515152,    0.0000000,    0.0000000 ]
  distance:    0.0548567
  band:
  - # 1
    frequency:   -8.3974394397
  - # 2
    frequency:   -6.1722481491
  - # 3
    frequency:    1.5849333426
  - # 4
    frequency:    1.7131433392
  - # 5
    frequency:    2.7514851330
  - # 6
    frequency:    2.7990677839
  - # 7
    frequency:    3.7140278513
  - # 8
    frequency:    4.8485823586
  - # 9
    frequency:    5.8592785035
  - # 10
    frequency:    6.1324265946
  - # 11
    frequency:    7.3456204123
  - # 12
    frequency:    7.5705936348
  - # 13
    frequency:   10.2033576836
  - # 14
    frequency:   10.7047577647
  - # 15
    frequency:   10.9333465103
  - # 16
    frequency:   13.6208492355
  - # 17
    frequency:   13.7509677895
  - # 18
    frequency:   14.9897027396
  - # 19
    frequency:   17.4782836675
  - # 20
    frequency:   20.3737692896
  - # 21
    frequency:   64.6387115860