nqpoint: 300    
npath: 3      
segment_nqpoint:
- 100
- 100
- 100
labels:
- [ 'G', 'M' ]
- [ 'M', 'K' ]
- [ 'K', 'G' ]
reciprocal_lattice:
- [   0.27138640,   0.15668501,   0.00000000 ] # a*
- [   0.00000000,   0.31337002,   0.00000000 ] # b*
- [   0.00000000,   0.00000000,   0.04009211 ] # c*
natom: 6      
lattice:
- [     3.684783059866485,     0.000000000000000,     0.000000000000000 ] # a
- [    -1.842391529933243,     3.191115737314178,     0.000000000000000 ] # b
- [     0.000000000000000,     0.000000000000000,    24.942566472927233 ] # c
points:
- symbol: Br # 1
  coordinates: [  0.333332985432215,  0.666666983183674,  0.639171052835776 ]
  mass: 79.904000
- symbol: C # 2
  coordinates: [  0.000000000000000,  0.000000000000000,  0.506116805162793 ]
  mass: 12.010700
- symbol: H # 3
  coordinates: [  0.666666984744047,  0.333332985985145,  0.360828947164224 ]
  mass: 1.007940
- symbol: O # 4
  coordinates: [  0.666666984744047,  0.333332985985145,  0.400376910008838 ]
  mass: 15.999400
- symbol: Y # 5
  coordinates: [  0.333332985432215,  0.666666983183674,  0.450955775015201 ]
  mass: 88.905850
- symbol: Y # 6
  coordinates: [  0.666666984744047,  0.333332985985145,  0.559807545671246 ]
  mass: 88.905850

phonon:
- q-position: [    0.0000000,    0.0000000,    0.0000000 ]
  distance:    0.0000000
  band:
  - # 1
    frequency:   -0.0000226710
  - # 2
    frequency:    0.0000007757
  - # 3
    frequency:    0.0000263264
  - # 4
    frequency:    2.5978408635
  - # 5
    frequency:    2.5978408637
  - # 6
    frequency:    3.9120369013
  - # 7
    frequency:    3.9120369014
  - # 8
    frequency:    4.3514284385
  - # 9
    frequency:    5.4445135048
  - # 10
    frequency:    5.4445135049
  - # 11
    frequency:    7.4696639210
  - # 12
    frequency:    9.1245390962
  - # 13
    frequency:    9.1245390965
  - # 14
    frequency:   10.5139933468
  - # 15
    frequency:   12.6443434271
  - # 16
    frequency:   12.6443434273
  - # 17
    frequency:   16.2038448060
  - # 18
    frequency:  113.9900604319

- q-position: [    0.0050505,    0.0000000,    0.0000000 ]
  distance:    0.0015827
  band:
  - # 1
    frequency:    0.0014512212
  - # 2
    frequency:    0.0506934646
  - # 3
    frequency:    0.0926534895
  - # 4
    frequency:    2.5979838849
  - # 5
    frequency:    2.5994309992
  - # 6
    frequency:    3.9117552321
  - # 7
    frequency:    3.9120352480
  - # 8
    frequency:    4.3521193550
  - # 9
    frequency:    5.4446061836
  - # 10
    frequency:    5.4484791843
  - # 11
    frequency:    7.4691702290
  - # 12
    frequency:    9.1243465690
  - # 13
    frequency:    9.1281677398
  - # 14
    frequency:   10.5132193311
  - # 15
    frequency:   12.6442869950
  - # 16
    frequency:   12.6469819202
  - # 17
    frequency:   16.2027025988
  - # 18
    frequency:  113.9900305856

- q-position: [    0.0101010,    0.0000000,    0.0000000 ]
  distance:    0.0031654
  band:
  - # 1
    frequency:    0.0057959694
  - # 2
    frequency:    0.1013598536
  - # 3
    frequency:    0.1852564120
  - # 4
    frequency:    2.5984128166
  - # 5
    frequency:    2.6041851711
  - # 6
    frequency:    3.9109061842
  - # 7
    frequency:    3.9120304147
  - # 8
    frequency:    4.3541869324
  - # 9
    frequency:    5.4448842394
  - # 10
    frequency:    5.4602659318
  - # 11
    frequency:    7.4676898547
  - # 12
    frequency:    9.1237695832
  - # 13
    frequency:    9.1390213768
  - # 14
    frequency:   10.5109775341
  - # 15
    frequency:   12.6441184058
  - # 16
    frequency:   12.6548684257
  - # 17
    frequency:   16.1992778197
  - # 18
    frequency:  113.9899411235

- q-position: [    0.0151515,    0.0000000,    0.0000000 ]
  distance:    0.0047480
  band:
  - # 1
    frequency:    0.0130077870
  - # 2
    frequency:    0.1519721723
  - # 3
    frequency:    0.2777578634
  - # 4
    frequency:    2.5991272638
  - # 5
    frequency:    2.6120557012
  - # 6
    frequency:    3.9094791583
  - # 7
    frequency:    3.9120227786
  - # 8
    frequency:    4.3576154689
  - # 9
    frequency:    5.4453477294
  - # 10
    frequency:    5.4795477034
  - # 11
    frequency:    7.4652249031
  - # 12
    frequency:    9.1228099257
  - # 13
    frequency:    9.1569961148
  - # 14
    frequency:   10.5075116935
  - # 15
    frequency:   12.6438397767
  - # 16
    frequency:   12.6679176947
  - # 17
    frequency:   16.1935759996
  - # 18
    frequency:  113.9897922766

- q-position: [    0.0202020,    0.0000000,    0.0000000 ]
  distance:    0.0063307
  band:
  - # 1
    frequency:    0.0230434100
  - # 2
    frequency:    0.2025036068
  - # 3
    frequency:    0.3701062519
  - # 4
    frequency:    2.6001265737
  - # 5
    frequency:    2.6229663963
  - # 6
    frequency:    3.9074610720
  - # 7
    frequency:    3.9120129596
  - # 8
    frequency:    4.3623783668
  - # 9
    frequency:    5.4459967443
  - # 10
    frequency:    5.5057970813
  - # 11
    frequency:    7.4617788853
  - # 12
    frequency:    9.1214705702
  - # 13
    frequency:    9.1818950530
  - # 14
    frequency:   10.5032386589
  - # 15
    frequency:   12.6434546246
  - # 16
    frequency:   12.6859929931
  - # 17
    frequency:   16.1856063699
  - # 18
    frequency:  113.9895844287

- q-position: [    0.0252525,    0.0000000,    0.0000000 ]
  distance:    0.0079134
  band:
  - # 1
    frequency:    0.0358439732
  - # 2
    frequency:    0.2529276060
  - # 3
    frequency:    0.4622489722
  - # 4
    frequency:    2.6014098434
  - # 5
    frequency:    2.6368169676
  - # 6
    frequency:    3.9048417361
  - # 7
    frequency:    3.9120018072
  - # 8
    frequency:    4.3684380411
  - # 9
    frequency:    5.4468314006
  - # 10
    frequency:    5.5383088135
  - # 11
    frequency:    7.4573567213
  - # 12
    frequency:    9.1197556702
  - # 13
    frequency:    9.2133914713
  - # 14
    frequency:   10.4987665162
  - # 15
    frequency:   12.6429678477
  - # 16
    frequency:   12.7089133960
  - # 17
    frequency:   16.1753818827
  - # 18
    frequency:  113.9893181150

- q-position: [    0.0303030,    0.0000000,    0.0000000 ]
  distance:    0.0094961
  band:
  - # 1
    frequency:    0.0513365888
  - # 2
    frequency:    0.3032179681
  - # 3
    frequency:    0.5541320874
  - # 4
    frequency:    2.6029759313
  - # 5
    frequency:    2.6534883624
  - # 6
    frequency:    3.9016190199
  - # 7
    frequency:    3.9119903829
  - # 8
    frequency:    4.3757465749
  - # 9
    frequency:    5.4478518307
  - # 10
    frequency:    5.5762316572
  - # 11
    frequency:    7.4519647449
  - # 12
    frequency:    9.1176705499
  - # 13
    frequency:    9.2509753728
  - # 14
    frequency:   10.4949237921
  - # 15
    frequency:   12.6423857000
  - # 16
    frequency:   12.7364627138
  - # 17
    frequency:   16.1629192414
  - # 18
    frequency:  113.9889940209

- q-position: [    0.0353535,    0.0000000,    0.0000000 ]
  distance:    0.0110787
  band:
  - # 1
    frequency:    0.0694362086
  - # 2
    frequency:    0.3533489250
  - # 3
    frequency:    0.6457000276
  - # 4
    frequency:    2.6048234712
  - # 5
    frequency:    2.6728483997
  - # 6
    frequency:    3.8978025801
  - # 7
    frequency:    3.9119799385
  - # 8
    frequency:    4.3842473552
  - # 9
    frequency:    5.4490581697
  - # 10
    frequency:    5.6186070266
  - # 11
    frequency:    7.4456107080
  - # 12
    frequency:    9.1152216908
  - # 13
    frequency:    9.2938830021
  - # 14
    frequency:   10.4928018408
  - # 15
    frequency:   12.6417157588
  - # 16
    frequency:   12.7683991027
  - # 17
    frequency:   16.1482389446
  - # 18
    frequency:  113.9886129789

- q-position: [    0.0404040,    0.0000000,    0.0000000 ]
  distance:    0.0126614
  band:
  - # 1
    frequency:    0.0900476680
  - # 2
    frequency:    0.4032952255
  - # 3
    frequency:    0.7368953091
  - # 4
    frequency:    2.6069508891
  - # 5
    frequency:    2.6947571687
  - # 6
    frequency:    3.8934155453
  - # 7
    frequency:    3.9119718920
  - # 8
    frequency:    4.3938775953
  - # 9
    frequency:    5.4504505397
  - # 10
    frequency:    5.6644122234
  - # 11
    frequency:    7.4383037880
  - # 12
    frequency:    9.1124167161
  - # 13
    frequency:    9.3410124625
  - # 14
    frequency:   10.4938092872
  - # 15
    frequency:   12.6409668859
  - # 16
    frequency:   12.8044644986
  - # 17
    frequency:   16.1313653446
  - # 18
    frequency:  113.9881759663

- q-position: [    0.0454545,    0.0000000,    0.0000000 ]
  distance:    0.0142441
  band:
  - # 1
    frequency:    0.1130678016
  - # 2
    frequency:    0.4530322148
  - # 3
    frequency:    0.8276582782
  - # 4
    frequency:    2.6093564234
  - # 5
    frequency:    2.7190718019
  - # 6
    frequency:    3.8884941930
  - # 7
    frequency:    3.9119678000
  - # 8
    frequency:    4.4045713817
  - # 9
    frequency:    5.4520290312
  - # 10
    frequency:    5.7126054163
  - # 11
    frequency:    7.4300545939
  - # 12
    frequency:    9.1092643710
  - # 13
    frequency:    9.3908375937
  - # 14
    frequency:   10.4997285362
  - # 15
    frequency:   12.6401491811
  - # 16
    frequency:   12.8443932121
  - # 17
    frequency:   16.1123267268
  - # 18
    frequency:  113.9876841012

- q-position: [    0.0505051,    0.0000000,    0.0000000 ]
  distance:    0.0158268
  band:
  - # 1
    frequency:    0.1383875358
  - # 2
    frequency:    0.5025359120
  - # 3
    frequency:    0.9179268837
  - # 4
    frequency:    2.6120381475
  - # 5
    frequency:    2.7456504004
  - # 6
    frequency:    3.8830861069
  - # 7
    frequency:    3.9119693304
  - # 8
    frequency:    4.4162627829
  - # 9
    frequency:    5.4537936814
  - # 10
    frequency:    5.7621691954
  - # 11
    frequency:    7.4208751747
  - # 12
    frequency:    9.1057744993
  - # 13
    frequency:    9.4413505847
  - # 14
    frequency:   10.5127460679
  - # 15
    frequency:   12.6392739295
  - # 16
    frequency:   12.8879192659
  - # 17
    frequency:   16.0911554149
  - # 18
    frequency:  113.9871386392

- q-position: [    0.0555556,    0.0000000,    0.0000000 ]
  distance:    0.0174094
  band:
  - # 1
    frequency:    0.1658938708
  - # 2
    frequency:    0.5517830837
  - # 3
    frequency:    1.0076364871
  - # 4
    frequency:    2.6149939943
  - # 5
    frequency:    2.7743550407
  - # 6
    frequency:    3.8772474769
  - # 7
    frequency:    3.9119782337
  - # 8
    frequency:    4.4288886165
  - # 9
    frequency:    5.4557444505
  - # 10
    frequency:    5.8121495883
  - # 11
    frequency:    7.4107790296
  - # 12
    frequency:    9.1019580158
  - # 13
    frequency:    9.4900912100
  - # 14
    frequency:   10.5354006711
  - # 15
    frequency:   12.6383535431
  - # 16
    frequency:   12.9347822900
  - # 17
    frequency:   16.0678879084
  - # 18
    frequency:  113.9865409688

- q-position: [    0.0606061,    0.0000000,    0.0000000 ]
  distance:    0.0189921
  band:
  - # 1
    frequency:    0.1954716876
  - # 2
    frequency:    0.6007513137
  - # 3
    frequency:    1.0967197152
  - # 4
    frequency:    2.6182217839
  - # 5
    frequency:    2.8050539024
  - # 6
    frequency:    3.8710401559
  - # 7
    frequency:    3.9119963161
  - # 8
    frequency:    4.4423906149
  - # 9
    frequency:    5.4578811952
  - # 10
    frequency:    5.8616879038
  - # 11
    frequency:    7.3997811202
  - # 12
    frequency:    9.0978268743
  - # 13
    frequency:    9.5343396351
  - # 14
    frequency:   10.5703743278
  - # 15
    frequency:   12.6374014954
  - # 16
    frequency:   12.9847319756
  - # 17
    frequency:   16.0425650646
  - # 18
    frequency:  113.9858926066

- q-position: [    0.0656566,    0.0000000,    0.0000000 ]
  distance:    0.0205748
  band:
  - # 1
    frequency:    0.2270053351
  - # 2
    frequency:    0.6494190670
  - # 3
    frequency:    1.1851063677
  - # 4
    frequency:    2.6217192528
  - # 5
    frequency:    2.8376226204
  - # 6
    frequency:    3.8645289215
  - # 7
    frequency:    3.9120254149
  - # 8
    frequency:    4.4567169003
  - # 9
    frequency:    5.4602036404
  - # 10
    frequency:    5.9100436132
  - # 11
    frequency:    7.3878978860
  - # 12
    frequency:    9.0933940308
  - # 13
    frequency:    9.5715134408
  - # 14
    frequency:   10.6200861444
  - # 15
    frequency:   12.6364322507
  - # 16
    frequency:   13.0375312124
  - # 17
    frequency:   16.0152323361
  - # 18
    frequency:  113.9851951922

- q-position: [    0.0707071,    0.0000000,    0.0000000 ]
  distance:    0.0221575
  band:
  - # 1
    frequency:    0.2603799736
  - # 2
    frequency:    0.6977657495
  - # 3
    frequency:    1.2727233915
  - # 4
    frequency:    2.6254840850
  - # 5
    frequency:    2.8719449881
  - # 6
    frequency:    3.8577791959
  - # 7
    frequency:    3.9120673770
  - # 8
    frequency:    4.4718228024
  - # 9
    frequency:    5.4627113484
  - # 10
    frequency:    5.9566075277
  - # 11
    frequency:    7.3751472652
  - # 12
    frequency:    9.0886734016
  - # 13
    frequency:    9.5996779523
  - # 14
    frequency:   10.6861805232
  - # 15
    frequency:   12.6354611884
  - # 16
    frequency:   13.0929581032
  - # 17
    frequency:   15.9859400822
  - # 18
    frequency:  113.9844504822

- q-position: [    0.0757576,    0.0000000,    0.0000000 ]
  distance:    0.0237402
  band:
  - # 1
    frequency:    0.2954826684
  - # 2
    frequency:    0.7457717606
  - # 3
    frequency:    1.3594949335
  - # 4
    frequency:    2.6295139445
  - # 5
    frequency:    2.9079131363
  - # 6
    frequency:    3.8508553195
  - # 7
    frequency:    3.9121240419
  - # 8
    frequency:    4.4876711311
  - # 9
    frequency:    5.4654036869
  - # 10
    frequency:    6.0009056078
  - # 11
    frequency:    7.3615487211
  - # 12
    frequency:    9.0836798160
  - # 13
    frequency:    9.6179284155
  - # 14
    frequency:   10.7691504982
  - # 15
    frequency:   12.6345045216
  - # 16
    frequency:   13.1508070648
  - # 17
    frequency:   15.9547439786
  - # 18
    frequency:  113.9836603448

- q-position: [    0.0808081,    0.0000000,    0.0000000 ]
  distance:    0.0253228
  band:
  - # 1
    frequency:    0.3322032415
  - # 2
    frequency:    0.7934185387
  - # 3
    frequency:    1.4453424893
  - # 4
    frequency:    2.6338065094
  - # 5
    frequency:    2.9454272913
  - # 6
    frequency:    3.8438193663
  - # 7
    frequency:    3.9121972307
  - # 8
    frequency:    4.5042320402
  - # 9
    frequency:    5.4682797953
  - # 10
    frequency:    6.0425946499
  - # 11
    frequency:    7.3471232768
  - # 12
    frequency:    9.0784289639
  - # 13
    frequency:    9.6264269672
  - # 14
    frequency:   10.8683120627
  - # 15
    frequency:   12.6335792110
  - # 16
    frequency:   13.2108892133
  - # 17
    frequency:   15.9217055556
  - # 18
    frequency:  113.9828267529

- q-position: [    0.0858586,    0.0000000,    0.0000000 ]
  distance:    0.0269055
  band:
  - # 1
    frequency:    0.3704348993
  - # 2
    frequency:    0.8406885997
  - # 3
    frequency:    1.5301851624
  - # 4
    frequency:    2.6383595062
  - # 5
    frequency:    2.9843951912
  - # 6
    frequency:    3.8367304349
  - # 7
    frequency:    3.9122887411
  - # 8
    frequency:    4.5214826149
  - # 9
    frequency:    5.4713385508
  - # 10
    frequency:    6.0814517007
  - # 11
    frequency:    7.3318935598
  - # 12
    frequency:    9.0729373364
  - # 13
    frequency:    9.6261123234
  - # 14
    frequency:   10.9821098771
  - # 15
    frequency:   12.6327028754
  - # 16
    frequency:   13.2730321898
  - # 17
    frequency:   15.8868929116
  - # 18
    frequency:  113.9819517774

- q-position: [    0.0909091,    0.0000000,    0.0000000 ]
  distance:    0.0284882
  band:
  - # 1
    frequency:    0.4100746630
  - # 2
    frequency:    0.8875655668
  - # 3
    frequency:    1.6139400492
  - # 4
    frequency:    2.6431707459
  - # 5
    frequency:    3.0247312119
  - # 6
    frequency:    3.8296443316
  - # 7
    frequency:    3.9124003496
  - # 8
    frequency:    4.5394062911
  - # 9
    frequency:    5.4745785337
  - # 10
    frequency:    6.1173593041
  - # 11
    frequency:    7.3158838594
  - # 12
    frequency:    9.0672221620
  - # 13
    frequency:    9.6182964564
  - # 14
    frequency:   11.1085382357
  - # 15
    frequency:   12.6318936973
  - # 16
    frequency:   13.3370795361
  - # 17
    frequency:   15.8503816608
  - # 18
    frequency:  113.9810375804

- q-position: [    0.0959596,    0.0000000,    0.0000000 ]
  distance:    0.0300709
  band:
  - # 1
    frequency:    0.4510236287
  - # 2
    frequency:    0.9340341903
  - # 3
    frequency:    1.6965227643
  - # 4
    frequency:    2.6482381591
  - # 5
    frequency:    3.0663552309
  - # 6
    frequency:    3.8226135685
  - # 7
    frequency:    3.9125338217
  - # 8
    frequency:    4.5579921880
  - # 9
    frequency:    5.4779979925
  - # 10
    frequency:    6.1502886063
  - # 11
    frequency:    7.2991201989
  - # 12
    frequency:    9.0613013363
  - # 13
    frequency:    9.6043424661
  - # 14
    frequency:   11.2454813485
  - # 15
    frequency:   12.6311703258
  - # 16
    frequency:   13.4028896623
  - # 17
    frequency:   15.8122562027
  - # 18
    frequency:  113.9800864076

- q-position: [    0.1010101,    0.0000000,    0.0000000 ]
  distance:    0.0316535
  band:
  - # 1
    frequency:    0.4931870856
  - # 2
    frequency:    0.9800803594
  - # 3
    frequency:    1.7778481142
  - # 4
    frequency:    2.6535598319
  - # 5
    frequency:    3.1091912365
  - # 6
    frequency:    3.8156876240
  - # 7
    frequency:    3.9126909293
  - # 8
    frequency:    4.5772344096
  - # 9
    frequency:    5.4815948110
  - # 10
    frequency:    6.1802820341
  - # 11
    frequency:    7.2816304272
  - # 12
    frequency:    9.0551933450
  - # 13
    frequency:    9.5854856597
  - # 14
    frequency:   11.3909095049
  - # 15
    frequency:   12.6305517766
  - # 16
    frequency:   13.4703343733
  - # 17
    frequency:   15.7726114373
  - # 18
    frequency:  113.9791005810

- q-position: [    0.1060606,    0.0000000,    0.0000000 ]
  distance:    0.0332362
  band:
  - # 1
    frequency:    0.5364745235
  - # 2
    frequency:    1.0256911022
  - # 3
    frequency:    1.8578309249
  - # 4
    frequency:    2.6591340414
  - # 5
    frequency:    3.1531656661
  - # 6
    frequency:    3.8089134430
  - # 7
    frequency:    3.9128734771
  - # 8
    frequency:    4.5971313472
  - # 9
    frequency:    5.4853664755
  - # 10
    frequency:    6.2074368258
  - # 11
    frequency:    7.2634443318
  - # 12
    frequency:    9.0489171826
  - # 13
    frequency:    9.5627683918
  - # 14
    frequency:   11.5429595778
  - # 15
    frequency:   12.6300573294
  - # 16
    frequency:   13.5392968254
  - # 17
    frequency:   15.7315551040
  - # 18
    frequency:  113.9780824906

- q-position: [    0.1111111,    0.0000000,    0.0000000 ]
  distance:    0.0348189
  band:
  - # 1
    frequency:    0.5807995512
  - # 2
    frequency:    1.0708545759
  - # 3
    frequency:    1.9363870157
  - # 4
    frequency:    2.6649592898
  - # 5
    frequency:    3.1982054313
  - # 6
    frequency:    3.8023362027
  - # 7
    frequency:    3.9130833357
  - # 8
    frequency:    4.6176850004
  - # 9
    frequency:    5.4893100447
  - # 10
    frequency:    6.2318902360
  - # 11
    frequency:    7.2445937805
  - # 12
    frequency:    9.0424922647
  - # 13
    frequency:    9.5370384838
  - # 14
    frequency:   11.6999494963
  - # 15
    frequency:   12.6297064235
  - # 16
    frequency:   13.6096686525
  - # 17
    frequency:   15.6892110077
  - # 18
    frequency:  113.9770345867

- q-position: [    0.1161616,    0.0000000,    0.0000000 ]
  distance:    0.0364016
  band:
  - # 1
    frequency:    0.6260797523
  - # 2
    frequency:    1.1155600455
  - # 3
    frequency:    2.0134343038
  - # 4
    frequency:    2.6710343388
  - # 5
    frequency:    3.2442355385
  - # 6
    frequency:    3.7960004341
  - # 7
    frequency:    3.9133224829
  - # 8
    frequency:    4.6389003228
  - # 9
    frequency:    5.4934221222
  - # 10
    frequency:    6.2538068359
  - # 11
    frequency:    7.2251128950
  - # 12
    frequency:    9.0359383357
  - # 13
    frequency:    9.5089741144
  - # 14
    frequency:   11.8603636524
  - # 15
    frequency:   12.6295185521
  - # 16
    frequency:   13.6813458204
  - # 17
    frequency:   15.6457235266
  - # 18
    frequency:  113.9759593718

- q-position: [    0.1212121,    0.0000000,    0.0000000 ]
  distance:    0.0379842
  band:
  - # 1
    frequency:    0.6722364960
  - # 2
    frequency:    1.1597978520
  - # 3
    frequency:    2.0888940079
  - # 4
    frequency:    2.6773582410
  - # 5
    frequency:    3.2911761169
  - # 6
    frequency:    3.7899517118
  - # 7
    frequency:    3.9135930505
  - # 8
    frequency:    4.6607845868
  - # 9
    frequency:    5.4976988324
  - # 10
    frequency:    6.2733680126
  - # 11
    frequency:    7.2050382648
  - # 12
    frequency:    9.0292753712
  - # 13
    frequency:    9.4791151282
  - # 14
    frequency:   12.0228294694
  - # 15
    frequency:   12.6295131562
  - # 16
    frequency:   13.7542224961
  - # 17
    frequency:   15.6012639999
  - # 18
    frequency:  113.9748593919

- q-position: [    0.1262626,    0.0000000,    0.0000000 ]
  distance:    0.0395669
  band:
  - # 1
    frequency:    0.7191947202
  - # 2
    frequency:    1.2035593688
  - # 3
    frequency:    2.1626919037
  - # 4
    frequency:    2.6839303713
  - # 5
    frequency:    3.3389384574
  - # 6
    frequency:    3.7842393525
  - # 7
    frequency:    3.9138973775
  - # 8
    frequency:    4.6833467625
  - # 9
    frequency:    5.5021358000
  - # 10
    frequency:    6.2907635597
  - # 11
    frequency:    7.1844092102
  - # 12
    frequency:    9.0225234778
  - # 13
    frequency:    9.4478921324
  - # 14
    frequency:   12.1860941921
  - # 15
    frequency:   12.6297095173
  - # 16
    frequency:   13.8281818155
  - # 17
    frequency:   15.5560399216
  - # 18
    frequency:  113.9737372280

- q-position: [    0.1313131,    0.0000000,    0.0000000 ]
  distance:    0.0411496
  band:
  - # 1
    frequency:    0.7668826994
  - # 2
    frequency:    1.2468369473
  - # 3
    frequency:    2.2347595726
  - # 4
    frequency:    2.6907504555
  - # 5
    frequency:    3.3874191860
  - # 6
    frequency:    3.7789210627
  - # 7
    frequency:    3.9142380662
  - # 8
    frequency:    4.7065968962
  - # 9
    frequency:    5.5067281343
  - # 10
    frequency:    6.3061851184
  - # 11
    frequency:    7.1632681043
  - # 12
    frequency:    9.0157027882
  - # 13
    frequency:    9.4156506498
  - # 14
    frequency:   12.3490052396
  - # 15
    frequency:   12.6301266517
  - # 16
    frequency:   13.9030818128
  - # 17
    frequency:   15.5103083935
  - # 18
    frequency:  113.9725954883

- q-position: [    0.1363636,    0.0000000,    0.0000000 ]
  distance:    0.0427323
  band:
  - # 1
    frequency:    0.8152318095
  - # 2
    frequency:    1.2896238517
  - # 3
    frequency:    2.3050355661
  - # 4
    frequency:    2.6978185965
  - # 5
    frequency:    3.4364905226
  - # 6
    frequency:    3.7740716659
  - # 7
    frequency:    3.9146180416
  - # 8
    frequency:    4.7305454772
  - # 9
    frequency:    5.5114704186
  - # 10
    frequency:    6.3198211723
  - # 11
    frequency:    7.1416607681
  - # 12
    frequency:    9.0088333552
  - # 13
    frequency:    9.3826701539
  - # 14
    frequency:   12.5104950219
  - # 15
    frequency:   12.6307832049
  - # 16
    frequency:   13.9787338302
  - # 17
    frequency:   15.4643961474
  - # 18
    frequency:  113.9714367985

- q-position: [    0.1414141,    0.0000000,    0.0000000 ]
  distance:    0.0443150
  band:
  - # 1
    frequency:    0.8641762960
  - # 2
    frequency:    1.3319141835
  - # 3
    frequency:    2.3734664094
  - # 4
    frequency:    2.7051352993
  - # 5
    frequency:    3.4859814728
  - # 6
    frequency:    3.7698011515
  - # 7
    frequency:    3.9150406113
  - # 8
    frequency:    4.7552027775
  - # 9
    frequency:    5.5163567041
  - # 10
    frequency:    6.3318532809
  - # 11
    frequency:    7.1196369551
  - # 12
    frequency:    9.0019350438
  - # 13
    frequency:    9.3491787064
  - # 14
    frequency:   12.6316973471
  - # 15
    frequency:   12.6695702673
  - # 16
    frequency:   14.0548692881
  - # 17
    frequency:   15.4187298358
  - # 18
    frequency:  113.9702637944

- q-position: [    0.1464646,    0.0000000,    0.0000000 ]
  distance:    0.0458976
  band:
  - # 1
    frequency:    0.9136530528
  - # 2
    frequency:    1.3737027967
  - # 3
    frequency:    2.4400073588
  - # 4
    frequency:    2.7127014912
  - # 5
    frequency:    3.5356356313
  - # 6
    frequency:    3.7662964594
  - # 7
    frequency:    3.9155095241
  - # 8
    frequency:    4.7805781500
  - # 9
    frequency:    5.5213805110
  - # 10
    frequency:    6.3424532544
  - # 11
    frequency:    7.0972509462
  - # 12
    frequency:    8.9950274230
  - # 13
    frequency:    9.3153640965
  - # 14
    frequency:   12.6328866717
  - # 15
    frequency:   12.8253056327
  - # 16
    frequency:   14.1310885680
  - # 17
    frequency:   15.3738824723
  - # 18
    frequency:  113.9690791123

- q-position: [    0.1515152,    0.0000000,    0.0000000 ]
  distance:    0.0474803
  band:
  - # 1
    frequency:    0.9636014149
  - # 2
    frequency:    1.4149852038
  - # 3
    frequency:    2.5046228416
  - # 4
    frequency:    2.7205185414
  - # 5
    frequency:    3.5850003645
  - # 6
    frequency:    3.7639323157
  - # 7
    frequency:    3.9160290250
  - # 8
    frequency:    4.8066792735
  - # 9
    frequency:    5.5265348338
  - # 10
    frequency:    6.3517809987
  - # 11
    frequency:    7.0745622806
  - # 12
    frequency:    8.9881296590
  - # 13
    frequency:    9.2813822992
  - # 14
    frequency:   12.6343680955
  - # 15
    frequency:   12.9768411129
  - # 16
    frequency:   14.2067828964
  - # 17
    frequency:   15.3306450647
  - # 18
    frequency:  113.9678853813

- q-position: [    0.1565657,    0.0000000,    0.0000000 ]
  distance:    0.0490630
  band:
  - # 1
    frequency:    1.0139629689
  - # 2
    frequency:    1.4557574745
  - # 3
    frequency:    2.5672865217
  - # 4
    frequency:    2.7285882750
  - # 5
    frequency:    3.6330816965
  - # 6
    frequency:    3.7636168611
  - # 7
    frequency:    3.9166039057
  - # 8
    frequency:    4.8335113334
  - # 9
    frequency:    5.5318121541
  - # 10
    frequency:    6.3599827937
  - # 11
    frequency:    7.0516366539
  - # 12
    frequency:    8.9812604100
  - # 13
    frequency:    9.2473639119
  - # 14
    frequency:   12.6361577620
  - # 15
    frequency:   13.1233821549
  - # 16
    frequency:   14.2810173712
  - # 17
    frequency:   15.2901359486
  - # 18
    frequency:  113.9666852142

- q-position: [    0.1616162,    0.0000000,    0.0000000 ]
  distance:    0.0506457
  band:
  - # 1
    frequency:    1.0646813813
  - # 2
    frequency:    1.4960161276
  - # 3
    frequency:    2.6279809576
  - # 4
    frequency:    2.7369129850
  - # 5
    frequency:    3.6771162777
  - # 6
    frequency:    3.7680207293
  - # 7
    frequency:    3.9172395470
  - # 8
    frequency:    4.8610761327
  - # 9
    frequency:    5.5372044576
  - # 10
    frequency:    6.3671898004
  - # 11
    frequency:    7.0285470208
  - # 12
    frequency:    8.9744377249
  - # 13
    frequency:    9.2134190765
  - # 14
    frequency:   12.6382709486
  - # 15
    frequency:   13.2642001101
  - # 16
    frequency:   14.3523651750
  - # 17
    frequency:   15.2539598014
  - # 18
    frequency:  113.9654811999

- q-position: [    0.1666667,    0.0000000,    0.0000000 ]
  distance:    0.0522283
  band:
  - # 1
    frequency:    1.1157022472
  - # 2
    frequency:    1.5357580181
  - # 3
    frequency:    2.6866968495
  - # 4
    frequency:    2.7454954396
  - # 5
    frequency:    3.7095983803
  - # 6
    frequency:    3.7845516365
  - # 7
    frequency:    3.9179419516
  - # 8
    frequency:    4.8893711318
  - # 9
    frequency:    5.5427032585
  - # 10
    frequency:    6.3735166220
  - # 11
    frequency:    7.0053749449
  - # 12
    frequency:    8.9676789462
  - # 13
    frequency:    9.1796412677
  - # 14
    frequency:   12.6407219773
  - # 15
    frequency:   13.3986284288
  - # 16
    frequency:   14.4187058457
  - # 17
    frequency:   15.2244078140
  - # 18
    frequency:  113.9642758947

- q-position: [    0.1717172,    0.0000000,    0.0000000 ]
  distance:    0.0538110
  band:
  - # 1
    frequency:    1.1669729566
  - # 2
    frequency:    1.5749802201
  - # 3
    frequency:    2.7434319009
  - # 4
    frequency:    2.7543388851
  - # 5
    frequency:    3.7244726593
  - # 6
    frequency:    3.8191637071
  - # 7
    frequency:    3.9187177667
  - # 8
    frequency:    4.9183884257
  - # 9
    frequency:    5.5482996279
  - # 10
    frequency:    6.3790597688
  - # 11
    frequency:    6.9822122428
  - # 12
    frequency:    8.9610006194
  - # 13
    frequency:    9.1461102312
  - # 14
    frequency:   12.6435241301
  - # 15
    frequency:   13.5260465183
  - # 16
    frequency:   14.4770865691
  - # 17
    frequency:   15.2046079428
  - # 18
    frequency:  113.9630718144

- q-position: [    0.1767677,    0.0000000,    0.0000000 ]
  distance:    0.0553937
  band:
  - # 1
    frequency:    1.2184425804
  - # 2
    frequency:    1.6136799078
  - # 3
    frequency:    2.7634470442
  - # 4
    frequency:    2.7981893467
  - # 5
    frequency:    3.7294674801
  - # 6
    frequency:    3.8640266675
  - # 7
    frequency:    3.9195742921
  - # 8
    frequency:    4.9481136749
  - # 9
    frequency:    5.5539842276
  - # 10
    frequency:    6.3838959077
  - # 11
    frequency:    6.9591629659
  - # 12
    frequency:    8.9544184094
  - # 13
    frequency:    9.1128942788
  - # 14