nqpoint: 300    
npath: 3      
segment_nqpoint:
- 100
- 100
- 100
labels:
- [ 'G', 'M' ]
- [ 'M', 'K' ]
- [ 'K', 'G' ]
reciprocal_lattice:
- [   0.29410041,   0.16979895,   0.00000000 ] # a*
- [   0.00000000,   0.33959790,   0.00000000 ] # b*
- [   0.00000000,   0.00000000,   0.03495331 ] # c*
natom: 9      
lattice:
- [     3.400199302093437,     0.000000000000000,     0.000000000000000 ] # a
- [    -1.700099651046719,     2.944658973522847,     0.000000000000000 ] # b
- [     0.000000000000000,     0.000000000000000,    28.609596311399361 ] # c
points:
- symbol: C # 1
  coordinates: [  0.333332985432215,  0.666666983183674,  0.643808297534007 ]
  mass: 12.010700
- symbol: C # 2
  coordinates: [  0.666666984744047,  0.333332985985145,  0.356120640130341 ]
  mass: 12.010700
- symbol: N # 3
  coordinates: [  0.000000000000000,  0.000000000000000,  0.485339009852500 ]
  mass: 14.006700
- symbol: N # 4
  coordinates: [  0.333332985432215,  0.666666983183674,  0.685420237949531 ]
  mass: 14.006700
- symbol: N # 5
  coordinates: [  0.666666984744047,  0.333332985985145,  0.314579762050469 ]
  mass: 14.006700
- symbol: O # 6
  coordinates: [  0.666666984744047,  0.333332985985145,  0.402879896167765 ]
  mass: 15.999400
- symbol: S # 7
  coordinates: [  0.333332985432215,  0.666666983183674,  0.585254151631480 ]
  mass: 32.065000
- symbol: Sc # 8
  coordinates: [  0.333332985432215,  0.666666983183674,  0.445503712831758 ]
  mass: 44.955912
- symbol: Sc # 9
  coordinates: [  0.666666984744047,  0.333332985985145,  0.528482546822392 ]
  mass: 44.955912

phonon:
- q-position: [    0.0000000,    0.0000000,    0.0000000 ]
  distance:    0.0000000
  band:
  - # 1
    frequency:   -0.0000203647
  - # 2
    frequency:   -0.0000006609
  - # 3
    frequency:    0.0000233424
  - # 4
    frequency:    0.3227814330
  - # 5
    frequency:    0.3227814334
  - # 6
    frequency:    1.7926576997
  - # 7
    frequency:    1.7926576998
  - # 8
    frequency:    3.6239209015
  - # 9
    frequency:    3.6239209016
  - # 10
    frequency:    4.8604109268
  - # 11
    frequency:    6.4639115054
  - # 12
    frequency:    6.4639115055
  - # 13
    frequency:    7.4671511702
  - # 14
    frequency:    7.4671511703
  - # 15
    frequency:    8.5931950956
  - # 16
    frequency:   10.2713784214
  - # 17
    frequency:   10.2713784215
  - # 18
    frequency:   10.4518749795
  - # 19
    frequency:   12.2854813297
  - # 20
    frequency:   12.2854813298
  - # 21
    frequency:   12.9811729534
  - # 22
    frequency:   13.8882244414
  - # 23
    frequency:   13.8882244415
  - # 24
    frequency:   20.7010065994
  - # 25
    frequency:   31.9007786516
  - # 26
    frequency:   65.0381735412
  - # 27
    frequency:   67.7982291154

- q-position: [    0.0050505,    0.0000000,    0.0000000 ]
  distance:    0.0017151
  band:
  - # 1
    frequency:   -0.1157403790
  - # 2
    frequency:   -0.1154862302
  - # 3
    frequency:    0.0020069175
  - # 4
    frequency:    0.3429826914
  - # 5
    frequency:    0.3479200759
  - # 6
    frequency:    1.7948469717
  - # 7
    frequency:    1.7957323312
  - # 8
    frequency:    3.6244786891
  - # 9
    frequency:    3.6251324404
  - # 10
    frequency:    4.8602238918
  - # 11
    frequency:    6.4634126522
  - # 12
    frequency:    6.4639805124
  - # 13
    frequency:    7.4671213147
  - # 14
    frequency:    7.4671525401
  - # 15
    frequency:    8.5928884763
  - # 16
    frequency:   10.2710580374
  - # 17
    frequency:   10.2714300248
  - # 18
    frequency:   10.4515698887
  - # 19
    frequency:   12.2822689108
  - # 20
    frequency:   12.2856642024
  - # 21
    frequency:   12.9814288346
  - # 22
    frequency:   13.8882113660
  - # 23
    frequency:   13.8885077573
  - # 24
    frequency:   20.7009340991
  - # 25
    frequency:   31.9002832657
  - # 26
    frequency:   65.0380815008
  - # 27
    frequency:   67.7979937013

- q-position: [    0.0101010,    0.0000000,    0.0000000 ]
  distance:    0.0034303
  band:
  - # 1
    frequency:   -0.2057137041
  - # 2
    frequency:   -0.2018877231
  - # 3
    frequency:    0.0080491285
  - # 4
    frequency:    0.3834232051
  - # 5
    frequency:    0.3986506343
  - # 6
    frequency:    1.8013755009
  - # 7
    frequency:    1.8048847211
  - # 8
    frequency:    3.6261515014
  - # 9
    frequency:    3.6287601063
  - # 10
    frequency:    4.8596642604
  - # 11
    frequency:    6.4619179987
  - # 12
    frequency:    6.4641865016
  - # 13
    frequency:    7.4670283264
  - # 14
    frequency:    7.4671571984
  - # 15
    frequency:    8.5919708613
  - # 16
    frequency:   10.2700846761
  - # 17
    frequency:   10.2715839737
  - # 18
    frequency:   10.4506617692
  - # 19
    frequency:   12.2726890032
  - # 20
    frequency:   12.2862111906
  - # 21
    frequency:   12.9821533122
  - # 22
    frequency:   13.8881723790
  - # 23
    frequency:   13.8893537808
  - # 24
    frequency:   20.7007166500
  - # 25
    frequency:   31.8987984132
  - # 26
    frequency:   65.0378055148
  - # 27
    frequency:   67.7972879734

- q-position: [    0.0151515,    0.0000000,    0.0000000 ]
  distance:    0.0051454
  band:
  - # 1
    frequency:   -0.2756842783
  - # 2
    frequency:   -0.2653133506
  - # 3
    frequency:    0.0181427045
  - # 4
    frequency:    0.4260832721
  - # 5
    frequency:    0.4543668456
  - # 6
    frequency:    1.8121279969
  - # 7
    frequency:    1.8199077217
  - # 8
    frequency:    3.6289376658
  - # 9
    frequency:    3.6347830058
  - # 10
    frequency:    4.8587364432
  - # 11
    frequency:    6.4594330248
  - # 12
    frequency:    6.4645263927
  - # 13
    frequency:    7.4668621117
  - # 14
    frequency:    7.4671667852
  - # 15
    frequency:    8.5904489604
  - # 16
    frequency:   10.2684215821
  - # 17
    frequency:   10.2718377011
  - # 18
    frequency:   10.4491721095
  - # 19
    frequency:   12.2569069447
  - # 20
    frequency:   12.2871173971
  - # 21
    frequency:   12.9832235321
  - # 22
    frequency:   13.8881081978
  - # 23
    frequency:   13.8907509648
  - # 24
    frequency:   20.7003544070
  - # 25
    frequency:   31.8963280041
  - # 26
    frequency:   65.0373459886
  - # 27
    frequency:   67.7961134735

- q-position: [    0.0202020,    0.0000000,    0.0000000 ]
  distance:    0.0068606
  band:
  - # 1
    frequency:   -0.3324068122
  - # 2
    frequency:   -0.3140799494
  - # 3
    frequency:    0.0323207300
  - # 4
    frequency:    0.4664952729
  - # 5
    frequency:    0.5103904643
  - # 6
    frequency:    1.8269205096
  - # 7
    frequency:    1.8404789695
  - # 8
    frequency:    3.6328343191
  - # 9
    frequency:    3.6431661797
  - # 10
    frequency:    4.8574477599
  - # 11
    frequency:    6.4559660774
  - # 12
    frequency:    6.4649951013
  - # 13
    frequency:    7.4666064132
  - # 14
    frequency:    7.4671840118
  - # 15
    frequency:    8.5883338967
  - # 16
    frequency:   10.2660071314
  - # 17
    frequency:   10.2721869816
  - # 18
    frequency:   10.4471367585
  - # 19
    frequency:   12.2351780546
  - # 20
    frequency:   12.2883746377
  - # 21
    frequency:   12.9844547845
  - # 22
    frequency:   13.8880200185
  - # 23
    frequency:   13.8926807963
  - # 24
    frequency:   20.6998476296
  - # 25
    frequency:   31.8928785395
  - # 26
    frequency:   65.0367035968
  - # 27
    frequency:   67.7944727653

- q-position: [    0.0252525,    0.0000000,    0.0000000 ]
  distance:    0.0085757
  band:
  - # 1
    frequency:   -0.3797637436
  - # 2
    frequency:   -0.3524241516
  - # 3
    frequency:    0.0506258562
  - # 4
    frequency:    0.5039936749
  - # 5
    frequency:    0.5660279106
  - # 6
    frequency:    1.8455115456
  - # 7
    frequency:    1.8661899945
  - # 8
    frequency:    3.6378372974
  - # 9
    frequency:    3.6538604098
  - # 10
    frequency:    4.8558083933
  - # 11
    frequency:    6.4515272277
  - # 12
    frequency:    6.4655856125
  - # 13
    frequency:    7.4662396269
  - # 14
    frequency:    7.4672126269
  - # 15
    frequency:    8.5856411138
  - # 16
    frequency:   10.2627545011
  - # 17
    frequency:   10.2726260089
  - # 18
    frequency:   10.4446057568
  - # 19
    frequency:   12.2078235975
  - # 20
    frequency:   12.2899714085
  - # 21
    frequency:   12.9856243254
  - # 22
    frequency:   13.8879095152
  - # 23
    frequency:   13.8951188231
  - # 24
    frequency:   20.6991966825
  - # 25
    frequency:   31.8884590881
  - # 26
    frequency:   65.0358792818
  - # 27
    frequency:   67.7923694259

- q-position: [    0.0303030,    0.0000000,    0.0000000 ]
  distance:    0.0102908
  band:
  - # 1
    frequency:   -0.4198753500
  - # 2
    frequency:   -0.3825609577
  - # 3
    frequency:    0.0731062183
  - # 4
    frequency:    0.5387575250
  - # 5
    frequency:    0.6213733910
  - # 6
    frequency:    1.8676155372
  - # 7
    frequency:    1.8965785132
  - # 8
    frequency:    3.6439409859
  - # 9
    frequency:    3.6668019649
  - # 10
    frequency:    4.8538313277
  - # 11
    frequency:    6.4461267423
  - # 12
    frequency:    6.4662890828
  - # 13
    frequency:    7.4657358935
  - # 14
    frequency:    7.4672573696
  - # 15
    frequency:    8.5823902417
  - # 16
    frequency:   10.2585516372
  - # 17
    frequency:   10.2731475025
  - # 18
    frequency:   10.4416426587
  - # 19
    frequency:   12.1752066468
  - # 20
    frequency:   12.2918928430
  - # 21
    frequency:   12.9864953588
  - # 22
    frequency:   13.8877788404
  - # 23
    frequency:   13.8980359586
  - # 24
    frequency:   20.6984020371
  - # 25
    frequency:   31.8830812535
  - # 26
    frequency:   65.0348742517
  - # 27
    frequency:   67.7898080336

- q-position: [    0.0353535,    0.0000000,    0.0000000 ]
  distance:    0.0120060
  band:
  - # 1
    frequency:   -0.4539737529
  - # 2
    frequency:   -0.4056999953
  - # 3
    frequency:    0.0998093953
  - # 4
    frequency:    0.5711437602
  - # 5
    frequency:    0.6766372766
  - # 6
    frequency:    1.8929171299
  - # 7
    frequency:    1.9311589473
  - # 8
    frequency:    3.6511381334
  - # 9
    frequency:    3.6819123050
  - # 10
    frequency:    4.8515322761
  - # 11
    frequency:    6.4397732326
  - # 12
    frequency:    6.4670949712
  - # 13
    frequency:    7.4650664119
  - # 14
    frequency:    7.4673239068
  - # 15
    frequency:    8.5786049169
  - # 16
    frequency:   10.2532619247
  - # 17
    frequency:   10.2737428391
  - # 18
    frequency:   10.4383229382
  - # 19
    frequency:   12.1377122641
  - # 20
    frequency:   12.2941206632
  - # 21
    frequency:   12.9868368895
  - # 22
    frequency:   13.8876306229
  - # 23
    frequency:   13.9013999519
  - # 24
    frequency:   20.6974642734
  - # 25
    frequency:   31.8767591325
  - # 26
    frequency:   65.0336899776
  - # 27
    frequency:   67.7867941528

- q-position: [    0.0404040,    0.0000000,    0.0000000 ]
  distance:    0.0137211
  band:
  - # 1
    frequency:   -0.4828174122
  - # 2
    frequency:   -0.4225145479
  - # 3
    frequency:    0.1307737143
  - # 4
    frequency:    0.6015236611
  - # 5
    frequency:    0.7319971201
  - # 6
    frequency:    1.9210849114
  - # 7
    frequency:    1.9694478308
  - # 8
    frequency:    3.6594196374
  - # 9
    frequency:    3.6990977533
  - # 10
    frequency:    4.8489295993
  - # 11
    frequency:    6.4324715567
  - # 12
    frequency:    6.4679911959
  - # 13
    frequency:    7.4642009207
  - # 14
    frequency:    7.4674187557
  - # 15
    frequency:    8.5743125527
  - # 16
    frequency:   10.2467259824
  - # 17
    frequency:   10.2744022067
  - # 18
    frequency:   10.4347310500
  - # 19
    frequency:   12.0957340325
  - # 20
    frequency:   12.2966331263
  - # 21
    frequency:   12.9864375400
  - # 22
    frequency:   13.8874679663
  - # 23
    frequency:   13.9051769023
  - # 24
    frequency:   20.6963840812
  - # 25
    frequency:   31.8695092641
  - # 26
    frequency:   65.0323281904
  - # 27
    frequency:   67.7833343147

- q-position: [    0.0454545,    0.0000000,    0.0000000 ]
  distance:    0.0154363
  band:
  - # 1
    frequency:   -0.5068938557
  - # 2
    frequency:   -0.4333650058
  - # 3
    frequency:    0.1660162867
  - # 4
    frequency:    0.6302405439
  - # 5
    frequency:    0.7875713382
  - # 6
    frequency:    1.9517835565
  - # 7
    frequency:    2.0109826273
  - # 8
    frequency:    3.6687743065
  - # 9
    frequency:    3.7182491503
  - # 10
    frequency:    4.8460442267
  - # 11
    frequency:    6.4242205549
  - # 12
    frequency:    6.4689643173
  - # 13
    frequency:    7.4631092890
  - # 14
    frequency:    7.4675491908
  - # 15
    frequency:    8.5695440521
  - # 16
    frequency:   10.2387648856
  - # 17
    frequency:   10.2751147764
  - # 18
    frequency:   10.4309558484
  - # 19
    frequency:   12.0496669702
  - # 20
    frequency:   12.2994049717
  - # 21
    frequency:   12.9851134235
  - # 22
    frequency:   13.8872944447
  - # 23
    frequency:   13.9093327058
  - # 24
    frequency:   20.6951622619
  - # 25
    frequency:   31.8613505704
  - # 26
    frequency:   65.0307908770
  - # 27
    frequency:   67.7794359962

- q-position: [    0.0505051,    0.0000000,    0.0000000 ]
  distance:    0.0171514
  band:
  - # 1
    frequency:   -0.5265249330
  - # 2
    frequency:   -0.4384024873
  - # 3
    frequency:    0.2055177801
  - # 4
    frequency:    0.6576000399
  - # 5
    frequency:    0.8434240791
  - # 6
    frequency:    1.9846837882
  - # 7
    frequency:    2.0553339884
  - # 8
    frequency:    3.6791886092
  - # 9
    frequency:    3.7392414891
  - # 10
    frequency:    4.8428995849
  - # 11
    frequency:    6.4150107038
  - # 12
    frequency:    6.4699997458
  - # 13
    frequency:    7.4617631553
  - # 14
    frequency:    7.4677231335
  - # 15
    frequency:    8.5643334596
  - # 16
    frequency:   10.2291848046
  - # 17
    frequency:   10.2758688892
  - # 18
    frequency:   10.4270843926
  - # 19
    frequency:   11.9999057044
  - # 20
    frequency:   12.3024073740
  - # 21
    frequency:   12.9827112834
  - # 22
    frequency:   13.8871140961
  - # 23
    frequency:   13.9138343346
  - # 24
    frequency:   20.6937997291
  - # 25
    frequency:   31.8523042883
  - # 26
    frequency:   65.0290802759
  - # 27
    frequency:   67.7751075941

- q-position: [    0.0555556,    0.0000000,    0.0000000 ]
  distance:    0.0188665
  band:
  - # 1
    frequency:   -0.5419241659
  - # 2
    frequency:   -0.4376016891
  - # 3
    frequency:    0.2492052798
  - # 4
    frequency:    0.6838698162
  - # 5
    frequency:    0.8995769717
  - # 6
    frequency:    2.0194699518
  - # 7
    frequency:    2.1021123889
  - # 8
    frequency:    3.6906464169
  - # 9
    frequency:    3.7619335258
  - # 10
    frequency:    4.8395215492
  - # 11
    frequency:    6.4048217764
  - # 12
    frequency:    6.4710819702
  - # 13
    frequency:    7.4601375572
  - # 14
    frequency:    7.4679490258
  - # 15
    frequency:    8.5587175444
  - # 16
    frequency:   10.2177825860
  - # 17
    frequency:   10.2766522514
  - # 18
    frequency:   10.4231946587
  - # 19
    frequency:   11.9468464221
  - # 20
    frequency:   12.3056079052
  - # 21
    frequency:   12.9791084235
  - # 22
    frequency:   13.8869314138
  - # 23
    frequency:   13.9186508791
  - # 24
    frequency:   20.6922975095
  - # 25
    frequency:   31.8423938936
  - # 26
    frequency:   65.0271988724
  - # 27
    frequency:   67.7703583977

- q-position: [    0.0606061,    0.0000000,    0.0000000 ]
  distance:    0.0205817
  band:
  - # 1
    frequency:   -0.5532288063
  - # 2
    frequency:   -0.4307392698
  - # 3
    frequency:    0.2969365200
  - # 4
    frequency:    0.7092821596
  - # 5
    frequency:    0.9560207404
  - # 6
    frequency:    2.0558453078
  - # 7
    frequency:    2.1509704386
  - # 8
    frequency:    3.7031287538
  - # 9
    frequency:    3.7861673434
  - # 10
    frequency:    4.8359384332
  - # 11
    frequency:    6.3936205988
  - # 12
    frequency:    6.4721948077
  - # 13
    frequency:    7.4582124926
  - # 14
    frequency:    7.4682356865
  - # 15
    frequency:    8.5527353102
  - # 16
    frequency:   10.2043513462
  - # 17
    frequency:   10.2774521351
  - # 18
    frequency:   10.4193481664
  - # 19
    frequency:   11.8908912130
  - # 20
    frequency:   12.3089705119
  - # 21
    frequency:   12.9742107910
  - # 22
    frequency:   13.8867513329
  - # 23
    frequency:   13.9237543098
  - # 24
    frequency:   20.6906567420
  - # 25
    frequency:   31.8316450171
  - # 26
    frequency:   65.0251493931
  - # 27
    frequency:   67.7651985581

- q-position: [    0.0656566,    0.0000000,    0.0000000 ]
  distance:    0.0222968
  band:
  - # 1
    frequency:   -0.5605175313
  - # 2
    frequency:   -0.4173157687
  - # 3
    frequency:    0.3484903518
  - # 4
    frequency:    0.7340374264
  - # 5
    frequency:    1.0127247851
  - # 6
    frequency:    2.0935353369
  - # 7
    frequency:    2.2016021485
  - # 8
    frequency:    3.7166135626
  - # 9
    frequency:    3.8117678308
  - # 10
    frequency:    4.8321810348
  - # 11
    frequency:    6.3813589982
  - # 12
    frequency:    6.4733216696
  - # 13
    frequency:    7.4559743549
  - # 14
    frequency:    7.4685921513
  - # 15
    frequency:    8.5464274265
  - # 16
    frequency:   10.1886849755
  - # 17
    frequency:   10.2782555791
  - # 18
    frequency:   10.4155837700
  - # 19
    frequency:   11.8324536799
  - # 20
    frequency:   12.3124555118
  - # 21
    frequency:   12.9679502222
  - # 22
    frequency:   13.8865792129
  - # 23
    frequency:   13.9291199434
  - # 24
    frequency:   20.6888786769
  - # 25
    frequency:   31.8200853524
  - # 26
    frequency:   65.0229347999
  - # 27
    frequency:   67.7596390540

- q-position: [    0.0707071,    0.0000000,    0.0000000 ]
  distance:    0.0240120
  band:
  - # 1
    frequency:   -0.5638192525
  - # 2
    frequency:   -0.3963977912
  - # 3
    frequency:    0.4035680956
  - # 4
    frequency:    0.7583076957
  - # 5
    frequency:    1.0696444774
  - # 6
    frequency:    2.1322894400
  - # 7
    frequency:    2.2537402250
  - # 8
    frequency:    3.7310755006
  - # 9
    frequency:    3.8385420239
  - # 10
    frequency:    4.8282827662
  - # 11
    frequency:    6.3679720468
  - # 12
    frequency:    6.4744458419
  - # 13
    frequency:    7.4534171812
  - # 14
    frequency:    7.4690274962
  - # 15
    frequency:    8.5398355772
  - # 16
    frequency:   10.1705807371
  - # 17
    frequency:   10.2790495854
  - # 18
    frequency:   10.4119136520
  - # 19
    frequency:   11.7719649405
  - # 20
    frequency:   12.3160196158
  - # 21
    frequency:   12.9602815084
  - # 22
    frequency:   13.8864208147
  - # 23
    frequency:   13.9347266275
  - # 24
    frequency:   20.6869646733
  - # 25
    frequency:   31.8077445582
  - # 26
    frequency:   65.0205582835
  - # 27
    frequency:   67.7536916565

- q-position: [    0.0757576,    0.0000000,    0.0000000 ]
  distance:    0.0257271
  band:
  - # 1
    frequency:   -0.5631157230
  - # 2
    frequency:   -0.3663046609
  - # 3
    frequency:    0.4618074373
  - # 4
    frequency:    0.7822403634
  - # 5
    frequency:    1.1267264530
  - # 6
    frequency:    2.1718814226
  - # 7
    frequency:    2.3071521925
  - # 8
    frequency:    3.7464857749
  - # 9
    frequency:    3.8662782325
  - # 10
    frequency:    4.8242798929
  - # 11
    frequency:    6.3533767224
  - # 12
    frequency:    6.4755507750
  - # 13
    frequency:    7.4505436504
  - # 14
    frequency:    7.4695506468
  - # 15
    frequency:    8.5330017237
  - # 16
    frequency:   10.1498398721
  - # 17
    frequency:   10.2798213073
  - # 18
    frequency:   10.4083219502
  - # 19
    frequency:   11.7098792952
  - # 20
    frequency:   12.3196159772
  - # 21
    frequency:   12.9511796494
  - # 22
    frequency:   13.8862822715
  - # 23
    frequency:   13.9405566763
  - # 24
    frequency:   20.6849161956
  - # 25
    frequency:   31.7946541520
  - # 26
    frequency:   65.0180232568
  - # 27
    frequency:   67.7473688900

- q-position: [    0.0808081,    0.0000000,    0.0000000 ]
  distance:    0.0274423
  band:
  - # 1
    frequency:   -0.5583389762
  - # 2
    frequency:   -0.3238842759
  - # 3
    frequency:    0.5228058249
  - # 4
    frequency:    0.8059615426
  - # 5
    frequency:    1.1839123140
  - # 6
    frequency:    2.2121091121
  - # 7
    frequency:    2.3616358872
  - # 8
    frequency:    3.7628120316
  - # 9
    frequency:    3.8947448620
  - # 10
    frequency:    4.8202119176
  - # 11
    frequency:    6.3374711238
  - # 12
    frequency:    6.4766203804
  - # 13
    frequency:    7.4473657624
  - # 14
    frequency:    7.4701701749
  - # 15
    frequency:    8.5259672793
  - # 16
    frequency:   10.1262669877
  - # 17
    frequency:   10.2805582259
  - # 18
    frequency:   10.4047657220
  - # 19
    frequency:   11.6466788801
  - # 20
    frequency:   12.3231942755
  - # 21
    frequency:   12.9406374655
  - # 22
    frequency:   13.8861700525
  - # 23
    frequency:   13.9465956028
  - # 24
    frequency:   20.6827348087
  - # 25
    frequency:   31.7808473988
  - # 26
    frequency:   65.0153333471
  - # 27
    frequency:   67.7406839919

- q-position: [    0.0858586,    0.0000000,    0.0000000 ]
  distance:    0.0291574
  band:
  - # 1
    frequency:   -0.5493633919
  - # 2
    frequency:   -0.2622971780
  - # 3
    frequency:    0.5861467193
  - # 4
    frequency:    0.8295791884
  - # 5
    frequency:    1.2411411337
  - # 6
    frequency:    2.2527933971
  - # 7
    frequency:    2.4170146516
  - # 8
    frequency:    3.7800183085
  - # 9
    frequency:    3.9236888177
  - # 10
    frequency:    4.8161221424
  - # 11
    frequency:    6.3201344115
  - # 12
    frequency:    6.4776393274
  - # 13
    frequency:    7.4439051247
  - # 14
    frequency:    7.4708940842
  - # 15
    frequency:    8.5187721954
  - # 16
    frequency:   10.0996696768
  - # 17
    frequency:   10.2812483103
  - # 18
    frequency:   10.4011774395
  - # 19
    frequency:   11.5828765789
  - # 20
    frequency:   12.3267008343
  - # 21
    frequency:   12.9286636088
  - # 22
    frequency:   13.8860909192
  - # 23
    frequency:   13.9528317034
  - # 24
    frequency:   20.6804221723
  - # 25
    frequency:   31.7663591935
  - # 26
    frequency:   65.0124923886
  - # 27
    frequency:   67.7336508700

- q-position: [    0.0909091,    0.0000000,    0.0000000 ]
  distance:    0.0308725
  band:
  - # 1
    frequency:   -0.5359908517
  - # 2
    frequency:   -0.1590399569
  - # 3
    frequency:    0.6514217893
  - # 4
    frequency:    0.8531858946
  - # 5
    frequency:    1.2983511001
  - # 6
    frequency:    2.2937769061
  - # 7
    frequency:    2.4731323940
  - # 8
    frequency:    3.7980650609
  - # 9
    frequency:    3.9528333683
  - # 10
    frequency:    4.8120584453
  - # 11
    frequency:    6.3012276766
  - # 12
    frequency:    6.4785933371
  - # 13
    frequency:    7.4401927719
  - # 14
    frequency:    7.4717295891
  - # 15
    frequency:    8.5114539568
  - # 16
    frequency:   10.0698600828
  - # 17
    frequency:   10.2818801608
  - # 18
    frequency:   10.3974680863
  - # 19
    frequency:   11.5190163863
  - # 20
    frequency:   12.3300787795
  - # 21
    frequency:   12.9152809452
  - # 22
    frequency:   13.8860518728
  - # 23
    frequency:   13.9592555496
  - # 24
    frequency:   20.6779800332
  - # 25
    frequency:   31.7512259380
  - # 26
    frequency:   65.0095044139
  - # 27
    frequency:   67.7262840574

- q-position: [    0.0959596,    0.0000000,    0.0000000 ]
  distance:    0.0325877
  band:
  - # 1
    frequency:   -0.5179254413
  - # 2
    frequency:    0.1620336472
  - # 3
    frequency:    0.7182448742
  - # 4
    frequency:    0.8768613362
  - # 5
    frequency:    1.3554805625
  - # 6
    frequency:    2.3349224860
  - # 7
    frequency:    2.5298485534
  - # 8
    frequency:    3.8169092691
  - # 9
    frequency:    3.9818753420
  - # 10
    frequency:    4.8080742935
  - # 11
    frequency:    6.2805959839
  - # 12
    frequency:    6.4794694657
  - # 13
    frequency:    7.4362684437
  - # 14
    frequency:    7.4726828900
  - # 15
    frequency:    8.5040464867
  - # 16
    frequency:   10.0366599898
  - # 17
    frequency:   10.2824431311
  - # 18
    frequency:   10.3935301474
  - # 19
    frequency:   11.4556703586
  - # 20
    frequency:   12.3332682366
  - # 21
    frequency:   12.9005252429
  - # 22
    frequency:   13.8860600929
  - # 23
    frequency:   13.9658594383
  - # 24
    frequency:   20.6754102174
  - # 25
    frequency:   31.7354854134
  - # 26
    frequency:   65.0063736456
  - # 27
    frequency:   67.7185986670

- q-position: [    0.1010101,    0.0000000,    0.0000000 ]
  distance:    0.0343028
  band:
  - # 1
    frequency:   -0.4947303847
  - # 2
    frequency:    0.2941199862
  - # 3
    frequency:    0.7862570562
  - # 4
    frequency:    0.9006743466
  - # 5
    frequency:    1.4124686870
  - # 6
    frequency:    2.3761115872
  - # 7
    frequency:    2.5870329165
  - # 8
    frequency:    3.8365046334
  - # 9
    frequency:    4.0104815443
  - # 10
    frequency:    4.8042299975
  - # 11
    frequency:    6.2580718852
  - # 12
    frequency:    6.4802563729
  - # 13
    frequency:    7.4321792618
  - # 14
    frequency:    7.4737589488
  - # 15
    frequency:    8.4965789621
  - # 16
    frequency:    9.9999105726
  - # 17
    frequency:   10.2829274299
  - # 18
    frequency:   10.3892401642
  - # 19
    frequency:   11.3934313476
  - # 20
    frequency:   12.3362065699
  - # 21
    frequency:   12.8844440936
  - # 22
    frequency:   13.8861228674
  - # 23
    frequency:   13.9726368451
  - # 24
    frequency:   20.6727146203
  - # 25
    frequency:   31.7191766483
  - # 26
    frequency:   65.0031044870
  - # 27
    frequency:   67.7106103431

- q-position: [    0.1060606,    0.0000000,    0.0000000 ]
  distance:    0.0360180
  band:
  - # 1
    frequency:   -0.4657516577
  - # 2
    frequency:    0.3951107619
  - # 3
    frequency:    0.8551245637
  - # 4
    frequency:    0.9246846356
  - # 5
    frequency:    1.4692558840
  - # 6
    frequency:    2.4172426254
  - # 7
    frequency:    2.6445601495
  - # 8
    frequency:    3.8568018583
  - # 9
    frequency:    4.0382843444
  - # 10
    frequency:    4.8005941557
  - # 11
    frequency:    6.2334807473
  - # 12
    frequency:    6.4809445688
  - # 13
    frequency:    7.4279777642
  - # 14
    frequency:    7.4749612695
  - # 15
    frequency:    8.4890745384
  - # 16
    frequency:    9.9594872567
  - # 17
    frequency:   10.2833241997
  - # 18
    frequency:   10.3844609183
  - # 19
    frequency:   11.3329009912
  - # 20
    frequency:   12.3388286628
  - # 21
    frequency:   12.8670959935
  - # 22
    frequency:   13.8862475131
  - # 23
    frequency:   13.9795819169
  - # 24
    frequency:   20.6698951968
  - # 25
    frequency:   31.7023397828
  - # 26
    frequency:   64.9997015133
  - # 27
    frequency:   67.7023352131

- q-position: [    0.1111111,    0.0000000,    0.0000000 ]
  distance:    0.0377331
  band:
  - # 1
    frequency:   -0.4299723441
  - # 2
    frequency:    0.4854743561
  - # 3
    frequency:    0.9245319715
  - # 4
    frequency:    0.9489441583
  - # 5
    frequency:    1.5257841380
  - # 6
    frequency:    2.4582293631
  - # 7
    frequency:    2.7023038276
  - # 8
    frequency:    3.8777490279
  - # 9
    frequency:    4.0648764962
  - # 10
    frequency:    4.7972451525
  - # 11
    frequency:    6.2066482975
  - # 12
    frequency:    6.4815266337
  - # 13
    frequency:    7.4237192952
  - # 14
    frequency:    7.4762916890
  - # 15
    frequency:    8.4815489888
  - # 16
    frequency:    9.9153192403
  - # 17
    frequency:   10.2836255722
  - # 18
    frequency:   10.3790436117
  - # 19
    frequency:   11.2746729887
  - # 20
    frequency:   12.3410672375
  - # 21
    frequency:   12.8485495229
  - # 22
    frequency:   13.8864412872
  - # 23
    frequency:   13.9866890268
  - # 24
    frequency:   20.6669539502
  - # 25
    frequency:   31.6850159301
  - # 26
    frequency:   64.9961694611
  - # 27
    frequency:   67.6937898370

- q-position: [    0.1161616,    0.0000000,    0.0000000 ]
  distance:    0.0394482
  band:
  - # 1
    frequency:   -0.3857031397
  - # 2
    frequency:    0.5707649941
  - # 3
    frequency:    0.9734981567
  - # 4
    frequency:    0.9941728052
  - # 5
    frequency:    1.5819973572
  - # 6
    frequency:    2.4989993312
  - # 7
    frequency:    2.7601296469
  - # 8
    frequency:    3.8992920666
  - # 9
    frequency:    4.0898054866
  - # 10
    frequency:    4.7942724200
  - # 11
    frequency:    6.1774108350
  - # 12
    frequency:    6.4819974046
  - # 13
    frequency:    7.4194587943
  - # 14
    frequency:    7.4777501822
  - # 15
    frequency:    8.4740092654
  - # 16
    frequency:    9.8674121670
  - # 17
    frequency:   10.2838247027
  - # 18
    frequency:   10.3728306129
  - # 19
    frequency:   11.2193124991
  - # 20
    frequency:   12.3428532144
  - # 21
    frequency:   12.8288825742
  - # 22
    frequency:   13.8867112915
  - # 23
    frequency:   13.9939524089
  - # 24
    frequency:   20.6638929208
  - # 25
    frequency:   31.6672470345
  - # 26
    frequency:   64.9925132195
  - # 27
    frequency:   67.6849911566

- q-position: [    0.1212121,    0.0000000,    0.0000000 ]
  distance:    0.0411634
  band:
  - # 1
    frequency:   -0.3298066507
  - # 2
    frequency:    0.6533239812
  - # 3
    frequency:    0.9983858933
  - # 4
    frequency:    1.0637389058
  - # 5
    frequency:    1.6378418576
  - # 6
    frequency:    2.5394923063
  - # 7
    frequency:    2.8178873667
  - # 8
    frequency:    3.9213752810
  - # 9
    frequency:    4.1125680967
  - # 10
    frequency:    4.7917769494