nqpoint: 300    
npath: 3      
segment_nqpoint:
- 100
- 100
- 100
labels:
- [ 'G', 'M' ]
- [ 'M', 'K' ]
- [ 'K', 'G' ]
reciprocal_lattice:
- [   0.30271389,   0.17477194,   0.00000000 ] # a*
- [   0.00000000,   0.34954389,   0.00000000 ] # b*
- [   0.00000000,   0.00000000,   0.03620810 ] # c*
natom: 7      
lattice:
- [     3.303449363702323,     0.000000000000000,     0.000000000000000 ] # a
- [    -1.651724681851161,     2.860871069067720,     0.000000000000000 ] # b
- [     0.000000000000000,     0.000000000000000,    27.618125974024455 ] # c
points:
- symbol: C # 1
  coordinates: [  0.000000000000000,  0.000000000000000,  0.500000030995160 ]
  mass: 12.010700
- symbol: O # 2
  coordinates: [  0.333332985432215,  0.666666983183674,  0.674127056684993 ]
  mass: 15.999400
- symbol: O # 3
  coordinates: [  0.666666984744047,  0.333332985985145,  0.325872943315007 ]
  mass: 15.999400
- symbol: P # 4
  coordinates: [  0.333332985432215,  0.666666983183674,  0.620106910549731 ]
  mass: 30.973762
- symbol: P # 5
  coordinates: [  0.666666984744047,  0.333332985985145,  0.379893089450269 ]
  mass: 30.973762
- symbol: Zr # 6
  coordinates: [  0.333332985432215,  0.666666983183674,  0.452697994509381 ]
  mass: 91.224000
- symbol: Zr # 7
  coordinates: [  0.666666984744047,  0.333332985985145,  0.547302005027995 ]
  mass: 91.224000

phonon:
- q-position: [    0.0000000,    0.0000000,    0.0000000 ]
  distance:    0.0000000
  band:
  - # 1
    frequency:   -4.3578920546
  - # 2
    frequency:   -4.3578920546
  - # 3
    frequency:   -2.4181171643
  - # 4
    frequency:   -2.4181171643
  - # 5
    frequency:   -0.0000221811
  - # 6
    frequency:    0.0000002002
  - # 7
    frequency:    0.0000160536
  - # 8
    frequency:    3.9339346323
  - # 9
    frequency:    3.9339346323
  - # 10
    frequency:    4.3382405298
  - # 11
    frequency:    4.3382405298
  - # 12
    frequency:    4.9275903208
  - # 13
    frequency:    5.0353007213
  - # 14
    frequency:    5.0353007213
  - # 15
    frequency:    7.7650992804
  - # 16
    frequency:    9.1748050884
  - # 17
    frequency:   15.4959450541
  - # 18
    frequency:   18.4485016731
  - # 19
    frequency:   18.4485016731
  - # 20
    frequency:   34.3053713230
  - # 21
    frequency:   34.3055524637

- q-position: [    0.0050505,    0.0000000,    0.0000000 ]
  distance:    0.0017654
  band:
  - # 1
    frequency:   -4.3581865731
  - # 2
    frequency:   -4.3573000623
  - # 3
    frequency:   -2.4167444334
  - # 4
    frequency:   -2.4153242646
  - # 5
    frequency:    0.0012936620
  - # 6
    frequency:    0.0294328852
  - # 7
    frequency:    0.0638212580
  - # 8
    frequency:    3.9338306524
  - # 9
    frequency:    3.9350167886
  - # 10
    frequency:    4.3368729976
  - # 11
    frequency:    4.3384811672
  - # 12
    frequency:    4.9294391222
  - # 13
    frequency:    5.0358855893
  - # 14
    frequency:    5.0360703062
  - # 15
    frequency:    7.7649691453
  - # 16
    frequency:    9.1742818822
  - # 17
    frequency:   15.4960538478
  - # 18
    frequency:   18.4483759838
  - # 19
    frequency:   18.4486400175
  - # 20
    frequency:   34.3051219385
  - # 21
    frequency:   34.3053010291

- q-position: [    0.0101010,    0.0000000,    0.0000000 ]
  distance:    0.0035307
  band:
  - # 1
    frequency:   -4.3590638275
  - # 2
    frequency:   -4.3555251414
  - # 3
    frequency:   -2.4126288078
  - # 4
    frequency:   -2.4069540431
  - # 5
    frequency:    0.0051714795
  - # 6
    frequency:    0.0590047660
  - # 7
    frequency:    0.1279910813
  - # 8
    frequency:    3.9335151915
  - # 9
    frequency:    3.9382390453
  - # 10
    frequency:    4.3328646762
  - # 11
    frequency:    4.3392100477
  - # 12
    frequency:    4.9348512918
  - # 13
    frequency:    5.0376351829
  - # 14
    frequency:    5.0384285052
  - # 15
    frequency:    7.7645781913
  - # 16
    frequency:    9.1727129901
  - # 17
    frequency:   15.4963794056
  - # 18
    frequency:   18.4480003843
  - # 19
    frequency:   18.4490541428
  - # 20
    frequency:   34.3043743121
  - # 21
    frequency:   34.3045472478

- q-position: [    0.0151515,    0.0000000,    0.0000000 ]
  distance:    0.0052961
  band:
  - # 1
    frequency:   -4.3605051450
  - # 2
    frequency:   -4.3525704767
  - # 3
    frequency:   -2.4057780726
  - # 4
    frequency:   -2.3930324938
  - # 5
    frequency:    0.0116313935
  - # 6
    frequency:    0.0888552521
  - # 7
    frequency:    0.1928598556
  - # 8
    frequency:    3.9329780076
  - # 9
    frequency:    3.9435274279
  - # 10
    frequency:    4.3264856327
  - # 11
    frequency:    4.3404475874
  - # 12
    frequency:    4.9434306977
  - # 13
    frequency:    5.0405346498
  - # 14
    frequency:    5.0425314546
  - # 15
    frequency:    7.7639247816
  - # 16
    frequency:    9.1701005894
  - # 17
    frequency:   15.4969192633
  - # 18
    frequency:   18.4473792688
  - # 19
    frequency:   18.4497413334
  - # 20
    frequency:   34.3031300185
  - # 21
    frequency:   34.3032926904

- q-position: [    0.0202020,    0.0000000,    0.0000000 ]
  distance:    0.0070615
  band:
  - # 1
    frequency:   -4.3624801588
  - # 2
    frequency:   -4.3484414317
  - # 3
    frequency:   -2.3962054862
  - # 4
    frequency:   -2.3736048625
  - # 5
    frequency:    0.0206683382
  - # 6
    frequency:    0.1191251464
  - # 7
    frequency:    0.2587815647
  - # 8
    frequency:    3.9322030796
  - # 9
    frequency:    3.9507539255
  - # 10
    frequency:    4.3181492517
  - # 11
    frequency:    4.3422262151
  - # 12
    frequency:    4.9545373925
  - # 13
    frequency:    5.0445598200
  - # 14
    frequency:    5.0486614713
  - # 15
    frequency:    7.7630062182
  - # 16
    frequency:    9.1664482977
  - # 17
    frequency:   15.4976693307
  - # 18
    frequency:   18.4465199231
  - # 19
    frequency:   18.4506970874
  - # 20
    frequency:   34.3013916549
  - # 21
    frequency:   34.3015399916

- q-position: [    0.0252525,    0.0000000,    0.0000000 ]
  distance:    0.0088269
  band:
  - # 1
    frequency:   -4.3649478817
  - # 2
    frequency:   -4.3431456300
  - # 3
    frequency:   -2.3839302156
  - # 4
    frequency:   -2.3487387054
  - # 5
    frequency:    0.0322744647
  - # 6
    frequency:    0.1499569870
  - # 7
    frequency:    0.3261153615
  - # 8
    frequency:    3.9311701071
  - # 9
    frequency:    3.9597284823
  - # 10
    frequency:    4.3083738875
  - # 11
    frequency:    4.3445881005
  - # 12
    frequency:    4.9673227063
  - # 13
    frequency:    5.0496780294
  - # 14
    frequency:    5.0572396538
  - # 15
    frequency:    7.7618187866
  - # 16
    frequency:    9.1617611581
  - # 17
    frequency:   15.4986239170
  - # 18
    frequency:   18.4454324683
  - # 19
    frequency:   18.4519151527
  - # 20
    frequency:   34.2991627812
  - # 21
    frequency:   34.2992928940

- q-position: [    0.0303030,    0.0000000,    0.0000000 ]
  distance:    0.0105922
  band:
  - # 1
    frequency:   -4.3678581046
  - # 2
    frequency:   -4.3366930661
  - # 3
    frequency:   -2.3689779704
  - # 4
    frequency:   -2.3185284890
  - # 5
    frequency:    0.0464384527
  - # 6
    frequency:    0.1814955134
  - # 7
    frequency:    0.3952267087
  - # 8
    frequency:    3.9298564598
  - # 9
    frequency:    3.9701859377
  - # 10
    frequency:    4.2977530638
  - # 11
    frequency:    4.3475822144
  - # 12
    frequency:    4.9808162393
  - # 13
    frequency:    5.0558491826
  - # 14
    frequency:    5.0687835517
  - # 15
    frequency:    7.7603578181
  - # 16
    frequency:    9.1560456172
  - # 17
    frequency:   15.4997757659
  - # 18
    frequency:   18.4441297831
  - # 19
    frequency:   18.4533875769
  - # 20
    frequency:   34.2964477670
  - # 21
    frequency:   34.2965563790

- q-position: [    0.0353535,    0.0000000,    0.0000000 ]
  distance:    0.0123576
  band:
  - # 1
    frequency:   -4.3711530292
  - # 2
    frequency:   -4.3290962429
  - # 3
    frequency:   -2.3513818552
  - # 4
    frequency:   -2.2831019754
  - # 5
    frequency:    0.0631447183
  - # 6
    frequency:    0.2138880354
  - # 7
    frequency:    0.4664876383
  - # 8
    frequency:    3.9282394283
  - # 9
    frequency:    3.9817663383
  - # 10
    frequency:    4.2869436178
  - # 11
    frequency:    4.3512609475
  - # 12
    frequency:    4.9941174024
  - # 13
    frequency:    5.0630269746
  - # 14
    frequency:    5.0837493732
  - # 15
    frequency:    7.7586177685
  - # 16
    frequency:    9.1493094989
  - # 17
    frequency:   15.5011161001
  - # 18
    frequency:   18.4426274044
  - # 19
    frequency:   18.4551047706
  - # 20
    frequency:   34.2932513334
  - # 21
    frequency:   34.2933370975

- q-position: [    0.0404040,    0.0000000,    0.0000000 ]
  distance:    0.0141230
  band:
  - # 1
    frequency:   -4.3747690420
  - # 2
    frequency:   -4.3203703311
  - # 3
    frequency:   -2.3311834714
  - # 4
    frequency:   -2.2426285691
  - # 5
    frequency:    0.0823725808
  - # 6
    frequency:    0.2472846731
  - # 7
    frequency:    0.5402754196
  - # 8
    frequency:    3.9262985909
  - # 9
    frequency:    3.9939879294
  - # 10
    frequency:    4.2766742514
  - # 11
    frequency:    4.3556765511
  - # 12
    frequency:    5.0066514208
  - # 13
    frequency:    5.0711601943
  - # 14
    frequency:    5.1022969706
  - # 15
    frequency:    7.7565923137
  - # 16
    frequency:    9.1415619727
  - # 17
    frequency:   15.5026346752
  - # 18
    frequency:   18.4409434081
  - # 19
    frequency:   18.4570555834
  - # 20
    frequency:   34.2895770880
  - # 21
    frequency:   34.2896448003

- q-position: [    0.0454545,    0.0000000,    0.0000000 ]
  distance:    0.0158884
  band:
  - # 1
    frequency:   -4.3786385384
  - # 2
    frequency:   -4.3105333464
  - # 3
    frequency:   -2.3084342990
  - # 4
    frequency:   -2.1973295898
  - # 5
    frequency:    0.1040954536
  - # 6
    frequency:    0.2818384312
  - # 7
    frequency:    0.6169685963
  - # 8
    frequency:    3.9240180915
  - # 9
    frequency:    4.0062165108
  - # 10
    frequency:    4.2677687091
  - # 11
    frequency:    4.3608776776
  - # 12
    frequency:    5.0182899685
  - # 13
    frequency:    5.0801940323
  - # 14
    frequency:    5.1241794515
  - # 15
    frequency:    7.7542744601
  - # 16
    frequency:    9.1328135184
  - # 17
    frequency:   15.5043198419
  - # 18
    frequency:   18.4390982718
  - # 19
    frequency:   18.4592273914
  - # 20
    frequency:   34.2854255157
  - # 21
    frequency:   34.2854943069

- q-position: [    0.0505051,    0.0000000,    0.0000000 ]
  distance:    0.0176537
  band:
  - # 1
    frequency:   -4.3826917168
  - # 2
    frequency:   -4.2996063397
  - # 3
    frequency:   -2.2831973944
  - # 4
    frequency:   -2.1474899917
  - # 5
    frequency:    0.1282801345
  - # 6
    frequency:    0.3177050567
  - # 7
    frequency:    0.6969390213
  - # 8
    frequency:    3.9213886272
  - # 9
    frequency:    4.0176472708
  - # 10
    frequency:    4.2611640485
  - # 11
    frequency:    4.3669062844
  - # 12
    frequency:    5.0292254460
  - # 13
    frequency:    5.0900713327
  - # 14
    frequency:    5.1488717417
  - # 15
    frequency:    7.7516566702
  - # 16
    frequency:    9.1230758879
  - # 17
    frequency:   15.5061586165
  - # 18
    frequency:   18.4371147185
  - # 19
    frequency:   18.4616061956
  - # 20
    frequency:   34.2808013629
  - # 21
    frequency:   34.2808980762

- q-position: [    0.0555556,    0.0000000,    0.0000000 ]
  distance:    0.0194191
  band:
  - # 1
    frequency:   -4.3868582815
  - # 2
    frequency:   -4.2876135930
  - # 3
    frequency:   -2.2555494350
  - # 4
    frequency:   -2.0934702936
  - # 5
    frequency:    0.1548862633
  - # 6
    frequency:    0.3550426106
  - # 7
    frequency:    0.7805383075
  - # 8
    frequency:    3.9184089728
  - # 9
    frequency:    4.0273387055
  - # 10
    frequency:    4.2578812301
  - # 11
    frequency:    4.3737951183
  - # 12
    frequency:    5.0397562343
  - # 13
    frequency:    5.1007337398
  - # 14
    frequency:    5.1757838527
  - # 15
    frequency:    7.7487310012
  - # 16
    frequency:    9.1123620642
  - # 17
    frequency:   15.5081367592
  - # 18
    frequency:   18.4350175455
  - # 19
    frequency:   18.4641767305
  - # 20
    frequency:   34.2757185627
  - # 21
    frequency:   34.2758612289

- q-position: [    0.0606061,    0.0000000,    0.0000000 ]
  distance:    0.0211845
  band:
  - # 1
    frequency:   -4.3910690039
  - # 2
    frequency:   -4.2745828168
  - # 3
    frequency:   -2.2255831341
  - # 4
    frequency:   -2.0357163827
  - # 5
    frequency:    0.1838660195
  - # 6
    frequency:    0.3940106605
  - # 7
    frequency:    0.8680772663
  - # 8
    frequency:    3.9150869222
  - # 9
    frequency:    4.0343555670
  - # 10
    frequency:    4.2588887691
  - # 11
    frequency:    4.3815659285
  - # 12
    frequency:    5.0501522960
  - # 13
    frequency:    5.1121227078
  - # 14
    frequency:    5.2043917233
  - # 15
    frequency:    7.7454892558
  - # 16
    frequency:    9.1006862192
  - # 17
    frequency:   15.5102388580
  - # 18
    frequency:   18.4328334385
  - # 19
    frequency:   18.4669225808
  - # 20
    frequency:   34.2701908325
  - # 21
    frequency:   34.2703908931

- q-position: [    0.0656566,    0.0000000,    0.0000000 ]
  distance:    0.0229499
  band:
  - # 1
    frequency:   -4.3952571149
  - # 2
    frequency:   -4.2605453407
  - # 3
    frequency:   -2.1934100233
  - # 4
    frequency:   -1.9747635432
  - # 5
    frequency:    0.2151641264
  - # 6
    frequency:    0.4347689662
  - # 7
    frequency:    0.9597977737
  - # 8
    frequency:    3.9114395998
  - # 9
    frequency:    4.0380287389
  - # 10
    frequency:    4.2648500837
  - # 11
    frequency:    4.3902284697
  - # 12
    frequency:    5.0606150601
  - # 13
    frequency:    5.1241803583
  - # 14
    frequency:    5.2342730987
  - # 15
    frequency:    7.7419231445
  - # 16
    frequency:    9.0880636716
  - # 17
    frequency:   15.5124484201
  - # 18
    frequency:   18.4305907730
  - # 19
    frequency:   18.4698263060
  - # 20
    frequency:   34.2642306070
  - # 21
    frequency:   34.2644972089

- q-position: [    0.0707071,    0.0000000,    0.0000000 ]
  distance:    0.0247152
  band:
  - # 1
    frequency:   -4.3993595098
  - # 2
    frequency:   -4.2455362916
  - # 3
    frequency:   -2.1591635664
  - # 4
    frequency:   -1.9112300091
  - # 5
    frequency:    0.2487182226
  - # 6
    frequency:    0.4774754944
  - # 7
    frequency:    1.0558384420
  - # 8
    frequency:    3.9074931634
  - # 9
    frequency:    4.0381955029
  - # 10
    frequency:    4.2758902539
  - # 11
    frequency:    4.3997802716
  - # 12
    frequency:    5.0712823523
  - # 13
    frequency:    5.1368501817
  - # 14
    frequency:    5.2650984486
  - # 15
    frequency:    7.7380244566
  - # 16
    frequency:    9.0745108452
  - # 17
    frequency:   15.5147479668
  - # 18
    frequency:   18.4283194060
  - # 19
    frequency:   18.4728695711
  - # 20
    frequency:   34.2578503652
  - # 21
    frequency:   34.2581919339

- q-position: [    0.0757576,    0.0000000,    0.0000000 ]
  distance:    0.0264806
  band:
  - # 1
    frequency:   -4.4033177609
  - # 2
    frequency:   -4.2295947519
  - # 3
    frequency:   -2.1230024987
  - # 4
    frequency:   -1.8457954343
  - # 5
    frequency:    0.2844596580
  - # 6
    frequency:    0.5222835656
  - # 7
    frequency:    1.1561985022
  - # 8
    frequency:    3.9032819834
  - # 9
    frequency:    4.0352180064
  - # 10
    frequency:    4.2915839804
  - # 11
    frequency:    4.4102070796
  - # 12
    frequency:    5.0822444815
  - # 13
    frequency:    5.1500775876
  - # 14
    frequency:    5.2966111692
  - # 15
    frequency:    7.7337852401
  - # 16
    frequency:    9.0600452287
  - # 17
    frequency:   15.5171191334
  - # 18
    frequency:   18.4260504587
  - # 19
    frequency:   18.4760332818
  - # 20
    frequency:   34.2510631164
  - # 21
    frequency:   34.2514878845

- q-position: [    0.0808081,    0.0000000,    0.0000000 ]
  distance:    0.0282460
  band:
  - # 1
    frequency:   -4.4070789419
  - # 2
    frequency:   -4.2127638912
  - # 3
    frequency:   -2.0851141970
  - # 4
    frequency:   -1.7791619392
  - # 5
    frequency:    0.3223147572
  - # 6
    frequency:    0.5693379100
  - # 7
    frequency:    1.2607076564
  - # 8
    frequency:    3.8988474259
  - # 9
    frequency:    4.0297689083
  - # 10
    frequency:    4.3111756091
  - # 11
    frequency:    4.4214838257
  - # 12
    frequency:    5.0935589914
  - # 13
    frequency:    5.1638103174
  - # 14
    frequency:    5.3286096778
  - # 15
    frequency:    7.7291979867
  - # 16
    frequency:    9.0446853389
  - # 17
    frequency:   15.5195427721
  - # 18
    frequency:   18.4238160931
  - # 19
    frequency:   18.4792977237
  - # 20
    frequency:   34.2438825322
  - # 21
    frequency:   34.2443987270

- q-position: [    0.0858586,    0.0000000,    0.0000000 ]
  distance:    0.0300113
  band:
  - # 1
    frequency:   -4.4105962708
  - # 2
    frequency:   -4.1950910647
  - # 3
    frequency:   -2.0457177552
  - # 4
    frequency:   -1.7120002599
  - # 5
    frequency:    0.3622065810
  - # 6
    frequency:    0.6187694204
  - # 7
    frequency:    1.3690115522
  - # 8
    frequency:    3.8942363790
  - # 9
    frequency:    4.0225764336
  - # 10
    frequency:    4.3338389694
  - # 11
    frequency:    4.4335759648
  - # 12
    frequency:    5.1052615372
  - # 13
    frequency:    5.1779987345
  - # 14
    frequency:    5.3609339340
  - # 15
    frequency:    7.7242558223
  - # 16
    frequency:    9.0284506870
  - # 17
    frequency:   15.5219990563
  - # 18
    frequency:   18.4216492855
  - # 19
    frequency:   18.4826427038
  - # 20
    frequency:   34.2363229684
  - # 21
    frequency:   34.2369388744

- q-position: [    0.0909091,    0.0000000,    0.0000000 ]
  distance:    0.0317767
  band:
  - # 1
    frequency:   -4.4138295843
  - # 2
    frequency:   -4.1766278725
  - # 3
    frequency:   -2.0050662833
  - # 4
    frequency:   -1.6448896989
  - # 5
    frequency:    0.4040571925
  - # 6
    frequency:    0.6706884510
  - # 7
    frequency:    1.4805808360
  - # 8
    frequency:    3.8894996607
  - # 9
    frequency:    4.0142731905
  - # 10
    frequency:    4.3588327187
  - # 11
    frequency:    4.4464410214
  - # 12
    frequency:    5.1173733577
  - # 13
    frequency:    5.1925960102
  - # 14
    frequency:    5.3934558538
  - # 15
    frequency:    7.7189526996
  - # 16
    frequency:    9.0113617500
  - # 17
    frequency:   15.5244675864
  - # 18
    frequency:   18.4195835976
  - # 19
    frequency:   18.4860476921
  - # 20
    frequency:   34.2283994484
  - # 21
    frequency:   34.2291234170

- q-position: [    0.0959596,    0.0000000,    0.0000000 ]
  distance:    0.0335421
  band:
  - # 1
    frequency:   -4.4167456558
  - # 2
    frequency:   -4.1574301733
  - # 3
    frequency:   -1.9634477881
  - # 4
    frequency:   -1.5782649923
  - # 5
    frequency:    0.4477904008
  - # 6
    frequency:    0.7251766643
  - # 7
    frequency:    1.5947457281
  - # 8
    frequency:    3.8846904222
  - # 9
    frequency:    4.0053519432
  - # 10
    frequency:    4.3855480710
  - # 11
    frequency:    4.4600302087
  - # 12
    frequency:    5.1299063097
  - # 13
    frequency:    5.2075582226
  - # 14
    frequency:    5.4260725669
  - # 15
    frequency:    7.7132835907
  - # 16
    frequency:    8.9934399475
  - # 17
    frequency:   15.5269274951
  - # 18
    frequency:   18.4176529487
  - # 19
    frequency:   18.4894919642
  - # 20
    frequency:   34.2201276312
  - # 21
    frequency:   34.2209680658

- q-position: [    0.1010101,    0.0000000,    0.0000000 ]
  distance:    0.0353075
  band:
  - # 1
    frequency:   -4.4193183720
  - # 2
    frequency:   -4.1375580470
  - # 3
    frequency:   -1.9211838620
  - # 4
    frequency:   -1.5123827126
  - # 5
    frequency:    0.4933349070
  - # 6
    frequency:    0.7822776868
  - # 7
    frequency:    1.7107498774
  - # 8
    frequency:    3.8798626334
  - # 9
    frequency:    3.9961766972
  - # 10
    frequency:    4.4135006390
  - # 11
    frequency:    4.4742900162
  - # 12
    frequency:    5.1428662619
  - # 13
    frequency:    5.2228443835
  - # 14
    frequency:    5.4587016319
  - # 15
    frequency:    7.7072446798
  - # 16
    frequency:    8.9747076238
  - # 17
    frequency:   15.5293575515
  - # 18
    frequency:   18.4158913916
  - # 19
    frequency:   18.4929547404
  - # 20
    frequency:   34.2115237714
  - # 21
    frequency:   34.2124890985

- q-position: [    0.1060606,    0.0000000,    0.0000000 ]
  distance:    0.0370728
  band:
  - # 1
    frequency:   -4.4215287803
  - # 2
    frequency:   -4.1170757035
  - # 3
    frequency:   -1.8786253964
  - # 4
    frequency:   -1.4473139403
  - # 5
    frequency:    0.5406277110
  - # 6
    frequency:    0.8419872146
  - # 7
    frequency:    1.8278111445
  - # 8
    frequency:    3.8750697059
  - # 9
    frequency:    3.9870100581
  - # 10
    frequency:    4.4423055089
  - # 11
    frequency:    4.4891636944
  - # 12
    frequency:    5.1562554019
  - # 13
    frequency:    5.2384164098
  - # 14
    frequency:    5.4912775794
  - # 15
    frequency:    7.7008335503
  - # 16
    frequency:    8.9551880385
  - # 17
    frequency:   15.5317362624
  - # 18
    frequency:   18.4143328931
  - # 19
    frequency:   18.4964153242
  - # 20
    frequency:   34.2026046748
  - # 21
    frequency:   34.2037033090

- q-position: [    0.1111111,    0.0000000,    0.0000000 ]
  distance:    0.0388382
  band:
  - # 1
    frequency:   -4.4233650219
  - # 2
    frequency:   -4.0960513324
  - # 3
    frequency:   -1.8361447127
  - # 4
    frequency:   -1.3829617005
  - # 5
    frequency:    0.5896175455
  - # 6
    frequency:    0.9042436547
  - # 7
    frequency:    1.9451761469
  - # 8
    frequency:    3.8703632820
  - # 9
    frequency:    3.9780397085
  - # 10
    frequency:    4.4716527850
  - # 11
    frequency:    4.5045925935
  - # 12
    frequency:    5.1700738111
  - # 13
    frequency:    5.2542390500
  - # 14
    frequency:    5.5237493541
  - # 15
    frequency:    7.6940493675
  - # 16
    frequency:    8.9349053619
  - # 17
    frequency:   15.5340419710
  - # 18
    frequency:   18.4130111219
  - # 19
    frequency:   18.4998532345
  - # 20
    frequency:   34.1933876511
  - # 21
    frequency:   34.1946279553

- q-position: [    0.1161616,    0.0000000,    0.0000000 ]
  distance:    0.0406036
  band:
  - # 1
    frequency:   -4.4248221634
  - # 2
    frequency:   -4.0745568925
  - # 3
    frequency:   -1.7941239594
  - # 4
    frequency:   -1.3190953560
  - # 5
    frequency:    0.6402679924
  - # 6
    frequency:    0.9689207910
  - # 7
    frequency:    2.0621596447
  - # 8
    frequency:    3.8657922011
  - # 9
    frequency:    3.9693992452
  - # 10
    frequency:    4.5012884368
  - # 11
    frequency:    4.5205173389
  - # 12
    frequency:    5.1843205344
  - # 13
    frequency:    5.2702797769
  - # 14
    frequency:    5.5560783700
  - # 15
    frequency:    7.6868930530
  - # 16
    frequency:    8.9138846799
  - # 17
    frequency:   15.5362529503
  - # 18
    frequency:   18.4119592469
  - # 19
    frequency:   18.5032483348
  - # 20
    frequency:   34.1838904637
  - # 21
    frequency:   34.1852807080

- q-position: [    0.1212121,    0.0000000,    0.0000000 ]
  distance:    0.0423690
  band:
  - # 1
    frequency:   -4.4259019385
  - # 2
    frequency:   -4.0526678404
  - # 3
    frequency:   -1.7529403399
  - # 4
    frequency:   -1.2553921028
  - # 5
    frequency:    0.6925597978
  - # 6
    frequency:    1.0358241511
  - # 7
    frequency:    2.1781660696
  - # 8
    frequency:    3.8614016359
  - # 9
    frequency:    3.9611833677
  - # 10
    frequency:    4.5310005272
  - # 11
    frequency:    4.5368788411
  - # 12
    frequency:    5.1989942833
  - # 13
    frequency:    5.2865086540
  - # 14
    frequency:    5.5882369869
  - # 15
    frequency:    7.6793674475
  - # 16
    frequency:    8.8921520047
  - # 17
    frequency:   15.5383474918
  - # 18
    frequency:   18.4112097456
  - # 19
    frequency:   18.5065809552
  - # 20
    frequency:   34.1741312790
  - # 21
    frequency:   34.1756795984

- q-position: [    0.1262626,    0.0000000,    0.0000000 ]
  distance:    0.0441343
  band:
  - # 1
    frequency:   -4.4266124158
  - # 2
    frequency:   -4.0304627981
  - # 3
    frequency:   -1.7129495894
  - # 4
    frequency:   -1.1914772963
  - # 5
    frequency:    0.7464917671
  - # 6
    frequency:    1.1046925263
  - # 7
    frequency:    2.2926955076
  - # 8
    frequency:    3.8572323892
  - # 9
    frequency:    3.9534586494
  - # 10
    frequency:    4.5536191485
  - # 11
    frequency:    4.5606096555
  - # 12
    frequency:    5.2140938618
  - # 13
    frequency:    5.3028981837
  - # 14
    frequency:    5.6202072744
  - # 15
    frequency:    7.6714774626
  - # 16
    frequency:    8.8697342935
  - # 17
    frequency:   15.5403039880
  - # 18
    frequency:   18.4107942257
  - # 19
    frequency:   18.5098320081
  - # 20
    frequency:   34.1641286134
  - # 21
    frequency:   34.1658429656

- q-position: [    0.1313131,    0.0000000,    0.0000000 ]
  distance:    0.0458997
  band:
  - # 1
    frequency:   -4.4269676021
  - # 2
    frequency:   -4.0080231636
  - # 3
    frequency:   -1.6744698475
  - # 4
    frequency:   -1.1269583569
  - # 5
    frequency:    0.8020795128
  - # 6
    frequency:    1.1752053920
  - # 7
    frequency:    2.4053388378
  - # 8
    frequency:    3.8533203344
  - # 9
    frequency:    3.9462711521
  - # 10
    frequency:    4.5706821591
  - # 11
    frequency:    4.5899624170
  - # 12
    frequency:    5.2296183727
  - # 13
    frequency:    5.3194231414
  - # 14
    frequency:    5.6519799701
  - # 15
    frequency:    7.6632302159
  - # 16
    frequency:    8.8466594735
  - # 17
    frequency:   15.5421010085
  - # 18
    frequency:   18.4107432611
  - # 19
    frequency:   18.5129830961
  - # 20
    frequency:   34.1539012796
  - # 21
    frequency:   34.1557894037

- q-position: [    0.1363636,    0.0000000,    0.0000000 ]
  distance:    0.0476651
  band:
  - # 1
    frequency:   -4.4269869984
  - # 2
    frequency:   -3.9854326664
  - # 3
    frequency:   -1.6377683611
  - # 4
    frequency:   -1.0614495487
  - # 5
    frequency:    0.8593513382
  - # 6
    frequency:    1.2469958797
  - # 7
    frequency:    2.5157668488
  - # 8
    frequency:    3.8496959861
  - # 9
    frequency:    3.9396518691
  - # 10
    frequency:    4.5880142071
  - # 11
    frequency:    4.6189269497
  - # 12
    frequency:    5.2455672423
  - # 13
    frequency:    5.3360603988
  - # 14
    frequency:    5.6835535652
  - # 15
    frequency:    7.6546351487
  - # 16
    frequency:    8.8229564735
  - # 17
    frequency:   15.5437173693
  - # 18
    frequency:   18.4110862422
  - # 19
    frequency:   18.5160166116
  - # 20
    frequency:   34.1434683323
  - # 21
    frequency:   34.1455377087

- q-position: [    0.1414141,    0.0000000,    0.0000000 ]
  distance:    0.0494304
  band:
  - # 1
    frequency:   -4.4266951189
  - # 2
    frequency:   -3.9627768758
  - # 3
    frequency:   -1.6030531016
  - # 4
    frequency:   -0.9945861253
  - # 5
    frequency:    0.9183407519
  - # 6
    frequency:    1.3196677936
  - # 7
    frequency:    2.6237170763
  - # 8
    frequency:    3.8463841861
  - # 9
    frequency:    3.9336207110
  - # 10
    frequency:    4.6055645412
  - # 11
    frequency:    4.6473899120
  - # 12
    frequency:    5.2619400955
  - # 13
    frequency:    5.3527887420
  - # 14
    frequency:    5.7149334654
  - # 15
    frequency:    7.6457041246
  - # 16
    frequency:    8.7986552608
  - # 17
    frequency:   15.5451321947
  - # 18
    frequency:   18.4118512431
  - # 19
    frequency:   18.5189158282
  - # 20
    frequency:   34.1328490130
  - # 21
    frequency:   34.1351068254

- q-position: [    0.1464646,    0.0000000,    0.0000000 ]
  distance:    0.0511958
  band:
  - # 1
    frequency:   -4.4261209900
  - # 2
    frequency:   -3.9401426686
  - # 3
    frequency:   -1.5704704414
  - # 4
    frequency:   -0.9260261902
  - # 5
    frequency:    0.9790756494
  - # 6
    frequency:    1.3928143425
  - # 7
    frequency:    2.7289807377
  - # 8
    frequency:    3.8434038962
  - # 9
    frequency:    3.9281895372
  - # 10
    frequency:    4.6232857095
  - # 11
    frequency:    4.6752544413
  - # 12
    frequency:    5.2787365100
  - # 13
    frequency:    5.3695886838
  - # 14
    frequency:    5.7461311879
  - # 15
    frequency:    7.6364515040
  - # 16
    frequency:    8.7737868819
  - # 17
    frequency:   15.5463249724
  - # 18
    frequency:   18.4130649034
  - # 19
    frequency:   18.5216649817
  - # 20
    frequency:   34.1220626954
  - # 21
    frequency:   34.1245157941

- q-position: [    0.1515152,    0.0000000,    0.0000000 ]
  distance:    0.0529612
  band:
  - # 1
    frequency:   -4.4252976400
  - # 2
    frequency:   -3.9176176643
  - # 3
    frequency:   -1.5401088154
  - # 4
    frequency:   -0.8554374224
  - # 5
    frequency:    1.0415650668
  - # 6
    frequency:    1.4660360619
  - # 7
    frequency:    2.8313909870
  - # 8
    frequency:    3.8407680891
  - # 9
    frequency:    3.9233646050
  - # 10
    frequency:    4.6411338644
  - # 11
    frequency:    4.7024387848
  - # 12
    frequency:    5.2959556786
  - # 13
    frequency:    5.3864422751
  - # 14
    frequency:    5.7771635628
  - # 15
    frequency:    7.6268941953
  - # 16
    frequency:    8.7483835071
  - # 17
    frequency:   15.5472756016
  - # 18
    frequency:   18.4147523276
  - # 19
    frequency:   18.5242493428
  - # 20
    frequency:   34.1111288292
  - # 21
    frequency:   34.1137836975