nqpoint: 300    
npath: 3      
segment_nqpoint:
- 100
- 100
- 100
labels:
- [ 'G', 'M' ]
- [ 'M', 'K' ]
- [ 'K', 'G' ]
reciprocal_lattice:
- [   0.30728977,   0.17741383,   0.00000000 ] # a*
- [   0.00000000,   0.35482766,   0.00000000 ] # b*
- [   0.00000000,   0.00000000,   0.03599999 ] # c*
natom: 8      
lattice:
- [     3.254257390782228,     0.000000000000000,     0.000000000000000 ] # a
- [    -1.627128695391114,     2.818269570852595,     0.000000000000000 ] # b
- [     0.000000000000000,     0.000000000000000,    27.777783336944903 ] # c
points:
- symbol: C # 1
  coordinates: [  0.333332985432215,  0.666666983183674,  0.632644742385647 ]
  mass: 12.010700
- symbol: Hf # 2
  coordinates: [  0.333332985432215,  0.666666983183674,  0.447202484955172 ]
  mass: 178.490000
- symbol: Hf # 3
  coordinates: [  0.666666984744047,  0.333332985985145,  0.535909763811885 ]
  mass: 178.490000
- symbol: N # 4
  coordinates: [  0.000000000000000,  0.000000000000000,  0.493742432923923 ]
  mass: 14.006700
- symbol: N # 5
  coordinates: [  0.333332985432215,  0.666666983183674,  0.587529507221616 ]
  mass: 14.006700
- symbol: O # 6
  coordinates: [  0.333332985432215,  0.666666983183674,  0.676000064842112 ]
  mass: 15.999400
- symbol: O # 7
  coordinates: [  0.666666984744047,  0.333332985985145,  0.323999935157888 ]
  mass: 15.999400
- symbol: P # 8
  coordinates: [  0.666666984744047,  0.333332985985145,  0.377808011883274 ]
  mass: 30.973762

phonon:
- q-position: [    0.0000000,    0.0000000,    0.0000000 ]
  distance:    0.0000000
  band:
  - # 1
    frequency:   -1.6383814971
  - # 2
    frequency:   -1.6383814970
  - # 3
    frequency:   -0.0000201651
  - # 4
    frequency:   -0.0000002896
  - # 5
    frequency:    0.0000161644
  - # 6
    frequency:    1.0886487575
  - # 7
    frequency:    1.0886487576
  - # 8
    frequency:    2.9731411458
  - # 9
    frequency:    2.9731411458
  - # 10
    frequency:    4.2291024590
  - # 11
    frequency:    4.4002715370
  - # 12
    frequency:    4.4002715370
  - # 13
    frequency:    6.4849142216
  - # 14
    frequency:    6.4849142217
  - # 15
    frequency:    7.9689988230
  - # 16
    frequency:    8.3035140923
  - # 17
    frequency:   12.5287332959
  - # 18
    frequency:   16.1678353220
  - # 19
    frequency:   16.1678353221
  - # 20
    frequency:   16.7081262408
  - # 21
    frequency:   16.7081262409
  - # 22
    frequency:   33.9690131846
  - # 23
    frequency:   37.2662633722
  - # 24
    frequency:   68.4362389886

- q-position: [    0.0050505,    0.0000000,    0.0000000 ]
  distance:    0.0017921
  band:
  - # 1
    frequency:   -1.6378181275
  - # 2
    frequency:   -1.6368972805
  - # 3
    frequency:   -0.0011020774
  - # 4
    frequency:    0.0344917466
  - # 5
    frequency:    0.0811730807
  - # 6
    frequency:    1.0867064020
  - # 7
    frequency:    1.0927697688
  - # 8
    frequency:    2.9735780718
  - # 9
    frequency:    2.9736497588
  - # 10
    frequency:    4.2267513500
  - # 11
    frequency:    4.4002021568
  - # 12
    frequency:    4.4030004056
  - # 13
    frequency:    6.4850261641
  - # 14
    frequency:    6.4857452598
  - # 15
    frequency:    7.9688073934
  - # 16
    frequency:    8.3030342408
  - # 17
    frequency:   12.5288628926
  - # 18
    frequency:   16.1678985704
  - # 19
    frequency:   16.1680573169
  - # 20
    frequency:   16.7081195815
  - # 21
    frequency:   16.7081361063
  - # 22
    frequency:   33.9688757122
  - # 23
    frequency:   37.2662871981
  - # 24
    frequency:   68.4351147533

- q-position: [    0.0101010,    0.0000000,    0.0000000 ]
  distance:    0.0035841
  band:
  - # 1
    frequency:   -1.6361280920
  - # 2
    frequency:   -1.6324400228
  - # 3
    frequency:    0.0018219108
  - # 4
    frequency:    0.0684612189
  - # 5
    frequency:    0.1623372867
  - # 6
    frequency:    1.0808980405
  - # 7
    frequency:    1.1050321292
  - # 8
    frequency:    2.9748861508
  - # 9
    frequency:    2.9751703782
  - # 10
    frequency:    4.2201187999
  - # 11
    frequency:    4.3999956741
  - # 12
    frequency:    4.4107710592
  - # 13
    frequency:    6.4853621935
  - # 14
    frequency:    6.4882350836
  - # 15
    frequency:    7.9682327496
  - # 16
    frequency:    8.3015960510
  - # 17
    frequency:   12.5292518633
  - # 18
    frequency:   16.1680884763
  - # 19
    frequency:   16.1687223219
  - # 20
    frequency:   16.7080988015
  - # 21
    frequency:   16.7081658199
  - # 22
    frequency:   33.9684634851
  - # 23
    frequency:   37.2663586903
  - # 24
    frequency:   68.4317443205

- q-position: [    0.0151515,    0.0000000,    0.0000000 ]
  distance:    0.0053762
  band:
  - # 1
    frequency:   -1.6333116289
  - # 2
    frequency:   -1.6249957569
  - # 3
    frequency:    0.0065656492
  - # 4
    frequency:    0.1013260729
  - # 5
    frequency:    0.2434814664
  - # 6
    frequency:    1.0712852518
  - # 7
    frequency:    1.1251425404
  - # 8
    frequency:    2.9770573340
  - # 9
    frequency:    2.9776875958
  - # 10
    frequency:    4.2101912890
  - # 11
    frequency:    4.3996570332
  - # 12
    frequency:    4.4226114233
  - # 13
    frequency:    6.4859229123
  - # 14
    frequency:    6.4923738423
  - # 15
    frequency:    7.9672738353
  - # 16
    frequency:    8.2992036188
  - # 17
    frequency:   12.5299007485
  - # 18
    frequency:   16.1684055219
  - # 19
    frequency:   16.1698273965
  - # 20
    frequency:   16.7080615054
  - # 21
    frequency:   16.7082157329
  - # 22
    frequency:   33.9677770729
  - # 23
    frequency:   37.2664778927
  - # 24
    frequency:   68.4261345040

- q-position: [    0.0202020,    0.0000000,    0.0000000 ]
  distance:    0.0071682
  band:
  - # 1
    frequency:   -1.6293692002
  - # 2
    frequency:   -1.6145407252
  - # 3
    frequency:    0.0134998974
  - # 4
    frequency:    0.1323704676
  - # 5
    frequency:    0.3245891759
  - # 6
    frequency:    1.0579902006
  - # 7
    frequency:    1.1526399226
  - # 8
    frequency:    2.9800783654
  - # 9
    frequency:    2.9811765550
  - # 10
    frequency:    4.1980328370
  - # 11
    frequency:    4.3991943774
  - # 12
    frequency:    4.4374812585
  - # 13
    frequency:    6.4867093135
  - # 14
    frequency:    6.4981451915
  - # 15
    frequency:    7.9659289225
  - # 16
    frequency:    8.2958637741
  - # 17
    frequency:   12.5308104450
  - # 18
    frequency:   16.1688505059
  - # 19
    frequency:   16.1713676353
  - # 20
    frequency:   16.7080037338
  - # 21
    frequency:   16.7082864284
  - # 22
    frequency:   33.9668174239
  - # 23
    frequency:   37.2666448776
  - # 24
    frequency:   68.4182966389

- q-position: [    0.0252525,    0.0000000,    0.0000000 ]
  distance:    0.0089603
  band:
  - # 1
    frequency:   -1.6243015943
  - # 2
    frequency:   -1.6010406440
  - # 3
    frequency:    0.0231295982
  - # 4
    frequency:    0.1606402426
  - # 5
    frequency:    0.4056371097
  - # 6
    frequency:    1.0412297443
  - # 7
    frequency:    1.1869324949
  - # 8
    frequency:    2.9839310105
  - # 9
    frequency:    2.9856041464
  - # 10
    frequency:    4.1845119985
  - # 11
    frequency:    4.3986189058
  - # 12
    frequency:    4.4545448291
  - # 13
    frequency:    6.4877227645
  - # 14
    frequency:    6.5055264008
  - # 15
    frequency:    7.9641956587
  - # 16
    frequency:    8.2915860870
  - # 17
    frequency:   12.5319822001
  - # 18
    frequency:   16.1694245365
  - # 19
    frequency:   16.1733361606
  - # 20
    frequency:   16.7079200124
  - # 21
    frequency:   16.7083787179
  - # 22
    frequency:   33.9655858629
  - # 23
    frequency:   37.2668597447
  - # 24
    frequency:   68.4082465501

- q-position: [    0.0303030,    0.0000000,    0.0000000 ]
  distance:    0.0107524
  band:
  - # 1
    frequency:   -1.6181100781
  - # 2
    frequency:   -1.5844496384
  - # 3
    frequency:    0.0357484718
  - # 4
    frequency:    0.1847764736
  - # 5
    frequency:    0.4865939001
  - # 6
    frequency:    1.0213731921
  - # 7
    frequency:    1.2273412146
  - # 8
    frequency:    2.9885923638
  - # 9
    frequency:    2.9909306035
  - # 10
    frequency:    4.1702611350
  - # 11
    frequency:    4.3979446763
  - # 12
    frequency:    4.4732111712
  - # 13
    frequency:    6.4889649840
  - # 14
    frequency:    6.5144885024
  - # 15
    frequency:    7.9620711334
  - # 16
    frequency:    8.2863828751
  - # 17
    frequency:   12.5334176034
  - # 18
    frequency:   16.1701290213
  - # 19
    frequency:   16.1757241113
  - # 20
    frequency:   16.7078034222
  - # 21
    frequency:   16.7084936368
  - # 22
    frequency:   33.9640840887
  - # 23
    frequency:   37.2671226203
  - # 24
    frequency:   68.3960045081

- q-position: [    0.0353535,    0.0000000,    0.0000000 ]
  distance:    0.0125444
  band:
  - # 1
    frequency:   -1.6107966122
  - # 2
    frequency:   -1.5647088062
  - # 3
    frequency:    0.0515354983
  - # 4
    frequency:    0.2027286229
  - # 5
    frequency:    0.5674196021
  - # 6
    frequency:    0.9990332101
  - # 7
    frequency:    1.2731430197
  - # 8
    frequency:    2.9940352177
  - # 9
    frequency:    2.9971114319
  - # 10
    frequency:    4.1557273195
  - # 11
    frequency:    4.3971883606
  - # 12
    frequency:    4.4930826177
  - # 13
    frequency:    6.4904380131
  - # 14
    frequency:    6.5249964772
  - # 15
    frequency:    7.9595519618
  - # 16
    frequency:    8.2802692134
  - # 17
    frequency:   12.5351185768
  - # 18
    frequency:   16.1709656546
  - # 19
    frequency:   16.1785206285
  - # 20
    frequency:   16.7076456883
  - # 21
    frequency:   16.7086324385
  - # 22
    frequency:   33.9623141706
  - # 23
    frequency:   37.2674336553
  - # 24
    frequency:   68.3815951728

- q-position: [    0.0404040,    0.0000000,    0.0000000 ]
  distance:    0.0143365
  band:
  - # 1
    frequency:   -1.6023641478
  - # 2
    frequency:   -1.5417443494
  - # 3
    frequency:    0.0705725458
  - # 4
    frequency:    0.2112111232
  - # 5
    frequency:    0.6480657627
  - # 6
    frequency:    0.9751957259
  - # 7
    frequency:    1.3236083492
  - # 8
    frequency:    3.0002284819
  - # 9
    frequency:    3.0040995918
  - # 10
    frequency:    4.1412317553
  - # 11
    frequency:    4.3963689551
  - # 12
    frequency:    4.5138947141
  - # 13
    frequency:    6.4921441812
  - # 14
    frequency:    6.5370094744
  - # 15
    frequency:    7.9566343863
  - # 16
    frequency:    8.2732629445
  - # 17
    frequency:   12.5370873624
  - # 18
    frequency:   16.1719364012
  - # 19
    frequency:   16.1817128356
  - # 20
    frequency:   16.7074372908
  - # 21
    frequency:   16.7087965881
  - # 22
    frequency:   33.9602785443
  - # 23
    frequency:   37.2677930229
  - # 24
    frequency:   68.3650475246

- q-position: [    0.0454545,    0.0000000,    0.0000000 ]
  distance:    0.0161285
  band:
  - # 1
    frequency:   -1.5928170361
  - # 2
    frequency:   -1.5154651816
  - # 3
    frequency:    0.0928656951
  - # 4
    frequency:    0.2044831633
  - # 5
    frequency:    0.7284759323
  - # 6
    frequency:    0.9513713102
  - # 7
    frequency:    1.3780296542
  - # 8
    frequency:    3.0071376353
  - # 9
    frequency:    3.0118478559
  - # 10
    frequency:    4.1270144444
  - # 11
    frequency:    4.3955074550
  - # 12
    frequency:    4.5354708029
  - # 13
    frequency:    6.4940860652
  - # 14
    frequency:    6.5504810589
  - # 15
    frequency:    7.9533143950
  - # 16
    frequency:    8.2653846906
  - # 17
    frequency:   12.5393265093
  - # 18
    frequency:   16.1730434776
  - # 19
    frequency:   16.1852858133
  - # 20
    frequency:   16.7071675953
  - # 21
    frequency:   16.7089877544
  - # 22
    frequency:   33.9579800070
  - # 23
    frequency:   37.2682009170
  - # 24
    frequency:   68.3463947834

- q-position: [    0.0505051,    0.0000000,    0.0000000 ]
  distance:    0.0179206
  band:
  - # 1
    frequency:   -1.5821615990
  - # 2
    frequency:   -1.4857598809
  - # 3
    frequency:    0.1183677881
  - # 4
    frequency:    0.1703628338
  - # 5
    frequency:    0.8085864565
  - # 6
    frequency:    0.9296846031
  - # 7
    frequency:    1.4357400677
  - # 8
    frequency:    3.0147251967
  - # 9
    frequency:    3.0203112634
  - # 10
    frequency:    4.1132637110
  - # 11
    frequency:    4.3946264981
  - # 12
    frequency:    4.5576916940
  - # 13
    frequency:    6.4962664449
  - # 14
    frequency:    6.5653594821
  - # 15
    frequency:    7.9495878580
  - # 16
    frequency:    8.2566578641
  - # 17
    frequency:   12.5418388582
  - # 18
    frequency:   16.1742893296
  - # 19
    frequency:   16.1892225676
  - # 20
    frequency:   16.7068250055
  - # 21
    frequency:   16.7092078029
  - # 22
    frequency:   33.9554217119
  - # 23
    frequency:   37.2686575488
  - # 24
    frequency:   68.3256743166

- q-position: [    0.0555556,    0.0000000,    0.0000000 ]
  distance:    0.0197126
  band:
  - # 1
    frequency:   -1.5704069441
  - # 2
    frequency:   -1.4524927979
  - # 3
    frequency:    0.0459340404
  - # 4
    frequency:    0.1469985882
  - # 5
    frequency:    0.8883274078
  - # 6
    frequency:    0.9127174908
  - # 7
    frequency:    1.4961232477
  - # 8
    frequency:    3.0229512007
  - # 9
    frequency:    3.0294495966
  - # 10
    frequency:    4.1001349031
  - # 11
    frequency:    4.3937499860
  - # 12
    frequency:    4.5804761125
  - # 13
    frequency:    6.4986882534
  - # 14
    frequency:    6.5815879676
  - # 15
    frequency:    7.9454506810
  - # 16
    frequency:    8.2471086776
  - # 17
    frequency:   12.5446275260
  - # 18
    frequency:   16.1756766076
  - # 19
    frequency:   16.1935039903
  - # 20
    frequency:   16.7063971376
  - # 21
    frequency:   16.7094587868
  - # 22
    frequency:   33.9526071616
  - # 23
    frequency:   37.2691631443
  - # 24
    frequency:   68.3029275341

- q-position: [    0.0606061,    0.0000000,    0.0000000 ]
  distance:    0.0215047
  band:
  - # 1
    frequency:   -1.5575661564
  - # 2
    frequency:   -1.4154990428
  - # 3
    frequency:   -0.2062706823
  - # 4
    frequency:    0.1786611973
  - # 5
    frequency:    0.9029325668
  - # 6
    frequency:    0.9676235416
  - # 7
    frequency:    1.5586163525
  - # 8
    frequency:    3.0317736684
  - # 9
    frequency:    3.0392298171
  - # 10
    frequency:    4.0877621294
  - # 11
    frequency:    4.3929026907
  - # 12
    frequency:    4.6037680874
  - # 13
    frequency:    6.5013545235
  - # 14
    frequency:    6.5991050032
  - # 15
    frequency:    7.9408989802
  - # 16
    frequency:    8.2367661497
  - # 17
    frequency:   12.5476958881
  - # 18
    frequency:   16.1772081376
  - # 19
    frequency:   16.1981088087
  - # 20
    frequency:   16.7058710178
  - # 21
    frequency:   16.7097429395
  - # 22
    frequency:   33.9495402012
  - # 23
    frequency:   37.2697179409
  - # 24
    frequency:   68.2781997735

- q-position: [    0.0656566,    0.0000000,    0.0000000 ]
  distance:    0.0232968
  band:
  - # 1
    frequency:   -1.5436581032
  - # 2
    frequency:   -1.3745779443
  - # 3
    frequency:   -0.3269431377
  - # 4
    frequency:    0.2132548913
  - # 5
    frequency:    0.9018574166
  - # 6
    frequency:    1.0463952036
  - # 7
    frequency:    1.6227082818
  - # 8
    frequency:    3.0411490624
  - # 9
    frequency:    3.0496284035
  - # 10
    frequency:    4.0762656509
  - # 11
    frequency:    4.3921098558
  - # 12
    frequency:    4.6275286788
  - # 13
    frequency:    6.5042683310
  - # 14
    frequency:    6.6178446319
  - # 15
    frequency:    7.9359292796
  - # 16
    frequency:    8.2256621048
  - # 17
    frequency:   12.5510475611
  - # 18
    frequency:   16.1788868897
  - # 19
    frequency:   16.2030135250
  - # 20
    frequency:   16.7052333039
  - # 21
    frequency:   16.7100626661
  - # 22
    frequency:   33.9462250110
  - # 23
    frequency:   37.2703221840
  - # 24
    frequency:   68.2515401732

- q-position: [    0.0707071,    0.0000000,    0.0000000 ]
  distance:    0.0250888
  band:
  - # 1
    frequency:   -1.5287102630
  - # 2
    frequency:   -1.3294843673
  - # 3
    frequency:   -0.4366805104
  - # 4
    frequency:    0.2506852166
  - # 5
    frequency:    0.9096396751
  - # 6
    frequency:    1.1245591453
  - # 7
    frequency:    1.6879350520
  - # 8
    frequency:    3.0510327211
  - # 9
    frequency:    3.0606335408
  - # 10
    frequency:    4.0657565594
  - # 11
    frequency:    4.3913967986
  - # 12
    frequency:    4.6517304230
  - # 13
    frequency:    6.5074327349
  - # 14
    frequency:    6.6377367294
  - # 15
    frequency:    7.9305387371
  - # 16
    frequency:    8.2138311638
  - # 17
    frequency:   12.5546863836
  - # 18
    frequency:   16.1807159431
  - # 19
    frequency:   16.2081923414
  - # 20
    frequency:   16.7044705319
  - # 21
    frequency:   16.7104205367
  - # 22
    frequency:   33.9426660976
  - # 23
    frequency:   37.2709761232
  - # 24
    frequency:   68.2230015355

- q-position: [    0.0757576,    0.0000000,    0.0000000 ]
  distance:    0.0268809
  band:
  - # 1
    frequency:   -1.5127633453
  - # 2
    frequency:   -1.2799169338
  - # 3
    frequency:   -0.5404288068
  - # 4
    frequency:    0.2908723780
  - # 5
    frequency:    0.9253194921
  - # 6
    frequency:    1.2020292354
  - # 7
    frequency:    1.7538737312
  - # 8
    frequency:    3.0613792672
  - # 9
    frequency:    3.0722471109
  - # 10
    frequency:    4.0563397424
  - # 11
    frequency:    4.3907885233
  - # 12
    frequency:    4.6763535087
  - # 13
    frequency:    6.5108507163
  - # 14
    frequency:    6.6587072591
  - # 15
    frequency:    7.9247254054
  - # 16
    frequency:    8.2013107206
  - # 17
    frequency:   12.5586163971
  - # 18
    frequency:   16.1826984479
  - # 19
    frequency:   16.2136170689
  - # 20
    frequency:   16.7035693902
  - # 21
    frequency:   16.7108192792
  - # 22
    frequency:   33.9388682851
  - # 23
    frequency:   37.2716800084
  - # 24
    frequency:   68.1926401789

- q-position: [    0.0808081,    0.0000000,    0.0000000 ]
  distance:    0.0286729
  band:
  - # 1
    frequency:   -1.4958791823
  - # 2
    frequency:   -1.2255016055
  - # 3
    frequency:   -0.6390815865
  - # 4
    frequency:    0.3337589014
  - # 5
    frequency:    0.9474603666
  - # 6
    frequency:    1.2787170703
  - # 7
    frequency:    1.8201359333
  - # 8
    frequency:    3.0721429875
  - # 9
    frequency:    3.0844864294
  - # 10
    frequency:    4.0481157320
  - # 11
    frequency:    4.3903093514
  - # 12
    frequency:    4.7013830884
  - # 13
    frequency:    6.5145251151
  - # 14
    frequency:    6.6806784908
  - # 15
    frequency:    7.9184885384
  - # 16
    frequency:    8.1881408986
  - # 17
    frequency:   12.5628418259
  - # 18
    frequency:   16.1848375835
  - # 19
    frequency:   16.2192570185
  - # 20
    frequency:   16.7025170219
  - # 21
    frequency:   16.7112617740
  - # 22
    frequency:   33.9348367057
  - # 23
    frequency:   37.2724340858
  - # 24
    frequency:   68.1605157815

- q-position: [    0.0858586,    0.0000000,    0.0000000 ]
  distance:    0.0304650
  band:
  - # 1
    frequency:   -1.4781549180
  - # 2
    frequency:   -1.1657679911
  - # 3
    frequency:   -0.7328931667
  - # 4
    frequency:    0.3793174204
  - # 5
    frequency:    0.9746436400
  - # 6
    frequency:    1.3545325031
  - # 7
    frequency:    1.8863615311
  - # 8
    frequency:    3.0832781841
  - # 9
    frequency:    3.0973856597
  - # 10
    frequency:    4.0411818055
  - # 11
    frequency:    4.3899825757
  - # 12
    frequency:    4.7268073582
  - # 13
    frequency:    6.5184585665
  - # 14
    frequency:    6.7035691718
  - # 15
    frequency:    7.9118289541
  - # 16
    frequency:    8.1743644805
  - # 17
    frequency:   12.5673670559
  - # 18
    frequency:   16.1871365141
  - # 19
    frequency:   16.2250788689
  - # 20
    frequency:   16.7013013583
  - # 21
    frequency:   16.7117510497
  - # 22
    frequency:   33.9305767892
  - # 23
    frequency:   37.2732385933
  - # 24
    frequency:   68.1266912141

- q-position: [    0.0909091,    0.0000000,    0.0000000 ]
  distance:    0.0322571
  band:
  - # 1
    frequency:   -1.4597500785
  - # 2
    frequency:   -1.1001136010
  - # 3
    frequency:   -0.8220049338
  - # 4
    frequency:    0.4275592202
  - # 5
    frequency:    1.0056864823
  - # 6
    frequency:    1.4293841155
  - # 7
    frequency:    1.9522130216
  - # 8
    frequency:    3.0947394959
  - # 9
    frequency:    3.1109968068
  - # 10
    frequency:    4.0356325562
  - # 11
    frequency:    4.3898301455
  - # 12
    frequency:    4.7526161768
  - # 13
    frequency:    6.5226534382
  - # 14
    frequency:    6.7272946355
  - # 15
    frequency:    7.9047494734
  - # 16
    frequency:    8.1600268023
  - # 17
    frequency:   12.5721966125
  - # 18
    frequency:   16.1895983403
  - # 19
    frequency:   16.2310465113
  - # 20
    frequency:   16.6999114845
  - # 21
    frequency:   16.7122902804
  - # 22
    frequency:   33.9260942526
  - # 23
    frequency:   37.2740937566
  - # 24
    frequency:   68.0912323646

- q-position: [    0.0959596,    0.0000000,    0.0000000 ]
  distance:    0.0340491
  band:
  - # 1
    frequency:   -1.4409419145
  - # 2
    frequency:   -1.0277466845
  - # 3
    frequency:   -0.9064469380
  - # 4
    frequency:    0.4785437615
  - # 5
    frequency:    1.0396770647
  - # 6
    frequency:    1.5031796619
  - # 7
    frequency:    2.0173708487
  - # 8
    frequency:    3.1064821924
  - # 9
    frequency:    3.1253901580
  - # 10
    frequency:    4.0315600648
  - # 11
    frequency:    4.3898723858
  - # 12
    frequency:    4.7788000782
  - # 13
    frequency:    6.5271117677
  - # 14
    frequency:    6.7517668316
  - # 15
    frequency:    7.8972554507
  - # 16
    frequency:    8.1451756004
  - # 17
    frequency:   12.5773351373
  - # 18
    frequency:   16.1922260488
  - # 19
    frequency:   16.2371208658
  - # 20
    frequency:   16.6983380407
  - # 21
    frequency:   16.7128827845
  - # 22
    frequency:   33.9213950884
  - # 23
    frequency:   37.2749997844
  - # 24
    frequency:   68.0542079549

- q-position: [    0.1010101,    0.0000000,    0.0000000 ]
  distance:    0.0358412
  band:
  - # 1
    frequency:   -1.4222479382
  - # 2
    frequency:   -0.9859932360
  - # 3
    frequency:   -0.9475876420
  - # 4
    frequency:    0.5323885001
  - # 5
    frequency:    1.0759358299
  - # 6
    frequency:    1.5758265161
  - # 7
    frequency:    2.0815299383
  - # 8
    frequency:    3.1184624397
  - # 9
    frequency:    3.1406539840
  - # 10
    frequency:    4.0290537449
  - # 11
    frequency:    4.3901277559
  - # 12
    frequency:    4.8053495789
  - # 13
    frequency:    6.5318352017
  - # 14
    frequency:    6.7768942627
  - # 15
    frequency:    7.8893554251
  - # 16
    frequency:    8.1298608015
  - # 17
    frequency:   12.5827873630
  - # 18
    frequency:   16.1950224585
  - # 19
    frequency:   16.2432596676
  - # 20
    frequency:   16.6965736585
  - # 21
    frequency:   16.7135320253
  - # 22
    frequency:   33.9164855533
  - # 23
    frequency:   37.2759568638
  - # 24
    frequency:   68.0156893483

- q-position: [    0.1060606,    0.0000000,    0.0000000 ]
  distance:    0.0376332
  band:
  - # 1
    frequency:   -1.4047213628
  - # 2
    frequency:   -1.0598468975
  - # 3
    frequency:   -0.8580816691
  - # 4
    frequency:    0.5892763003
  - # 5
    frequency:    1.1139615475
  - # 6
    frequency:    1.6472321514
  - # 7
    frequency:    2.1443977053
  - # 8
    frequency:    3.1306375417
  - # 9
    frequency:    3.1568932570
  - # 10
    frequency:    4.0281999011
  - # 11
    frequency:    4.3906126481
  - # 12
    frequency:    4.8322547131
  - # 13
    frequency:    6.5368249381
  - # 14
    frequency:    6.8025818071
  - # 15
    frequency:    7.8810619163
  - # 16
    frequency:    8.1141342415
  - # 17
    frequency:   12.5885580864
  - # 18
    frequency:   16.1979901640
  - # 19
    frequency:   16.2494172224
  - # 20
    frequency:   16.6946134352
  - # 21
    frequency:   16.7142416142
  - # 22
    frequency:   33.9113721555
  - # 23
    frequency:   37.2769651558
  - # 24
    frequency:   67.9757503515

- q-position: [    0.1111111,    0.0000000,    0.0000000 ]
  distance:    0.0394253
  band:
  - # 1
    frequency:   -1.3907073591
  - # 2
    frequency:   -1.1258757582
  - # 3
    frequency:   -0.7567959810
  - # 4
    frequency:    0.6494537234
  - # 5
    frequency:    1.1533837205
  - # 6
    frequency:    1.7173046845
  - # 7
    frequency:    2.2056938123
  - # 8
    frequency:    3.1429661569
  - # 9
    frequency:    3.1742270910
  - # 10
    frequency:    4.0290810103
  - # 11
    frequency:    4.3913412301
  - # 12
    frequency:    4.8595047438
  - # 13
    frequency:    6.5420816703
  - # 14
    frequency:    6.8287304060
  - # 15
    frequency:    7.8723923996
  - # 16
    frequency:    8.0980493014
  - # 17
    frequency:   12.5946521396
  - # 18
    frequency:   16.2011314770
  - # 19
    frequency:   16.2555441295
  - # 20
    frequency:   16.6924554426
  - # 21
    frequency:   16.7150153152
  - # 22
    frequency:   33.9060616422
  - # 23
    frequency:   37.2780247905
  - # 24
    frequency:   67.9344670086

- q-position: [    0.1161616,    0.0000000,    0.0000000 ]
  distance:    0.0412174
  band:
  - # 1
    frequency:   -1.3855718826
  - # 2
    frequency:   -1.1788832268
  - # 3
    frequency:   -0.6394018579
  - # 4
    frequency:    0.7132069135
  - # 5
    frequency:    1.1939260272
  - # 6
    frequency:    1.7859535118
  - # 7
    frequency:    2.2651519747
  - # 8
    frequency:    3.1554084919
  - # 9
    frequency:    3.1927845855
  - # 10
    frequency:    4.0317747271
  - # 11
    frequency:    4.3923253294
  - # 12
    frequency:    4.8870880132
  - # 13
    frequency:    6.5476055366
  - # 14
    frequency:    6.8552365925
  - # 15
    frequency:    7.8633704895
  - # 16
    frequency:    8.0816604519
  - # 17
    frequency:   12.6010743574
  - # 18
    frequency:   16.2044483654
  - # 19
    frequency:   16.2615869770
  - # 20
    frequency:   16.6901012690
  - # 21
    frequency:   16.7158570518
  - # 22
    frequency:   33.9005609866
  - # 23
    frequency:   37.2791358626
  - # 24
    frequency:   67.8919173899

- q-position: [    0.1212121,    0.0000000,    0.0000000 ]
  distance:    0.0430094
  band:
  - # 1
    frequency:   -1.3985949854
  - # 2
    frequency:   -1.2097181694
  - # 3
    frequency:   -0.4963928871
  - # 4
    frequency:    0.7807954136
  - # 5
    frequency:    1.2353797271
  - # 6
    frequency:    1.8530900664
  - # 7
    frequency:    2.3225240552
  - # 8
    frequency:    3.1679264740
  - # 9
    frequency:    3.2126988029
  - # 10
    frequency:    4.0363526039
  - # 11
    frequency:    4.3935743598
  - # 12
    frequency:    4.9149918985
  - # 13
    frequency:    6.5533960726
  - # 14
    frequency:    6.8819918349
  - # 15
    frequency:    7.8540273659
  - # 16
    frequency:    8.0650227000
  - # 17
    frequency:   12.6078295429
  - # 18
    frequency:   16.2079423905
  - # 19
    frequency:   16.2674880148
  - # 20
    frequency:   16.6875565843
  - # 21
    frequency:   16.7167709161
  - # 22
    frequency:   33.8948773740
  - # 23
    frequency:   37.2802984266
  - # 24
    frequency:   67.8481813747

- q-position: [    0.1262626,    0.0000000,    0.0000000 ]
  distance:    0.0448015
  band:
  - # 1
    frequency:   -1.4338013789
  - # 2
    frequency:   -1.2144486441
  - # 3
    frequency:   -0.2954297054
  - # 4
    frequency:    0.8523295062
  - # 5
    frequency:    1.2775847019
  - # 6
    frequency:    1.9186287181
  - # 7
    frequency:    2.3775865271
  - # 8
    frequency:    3.1804839024
  - # 9
    frequency:    3.2340987644
  - # 10
    frequency:    4.0428785191
  - # 11
    frequency:    4.3950952885
  - # 12
    frequency:    4.9432028474
  - # 13
    frequency:    6.5594521695
  - # 14
    frequency:    6.9088816661
  - # 15
    frequency:    7.8444034662
  - # 16
    frequency:    8.0481909411
  - # 17
    frequency:   12.6149224285
  - # 18
    frequency:   16.2116146432
  - # 19
    frequency:   16.2731848199
  - # 20
    frequency:   16.6848317146
  - # 21
    frequency:   16.7177611798
  - # 22
    frequency:   33.8890181887
  - # 23
    frequency:   37.2815124924
  - # 24
    frequency:   67.8033404301

- q-position: [    0.1313131,    0.0000000,    0.0000000 ]
  distance:    0.0465935
  band:
  - # 1
    frequency:   -1.4829339421
  - # 2
    frequency:   -1.2013925491
  - # 3
    frequency:    0.2590328390
  - # 4
    frequency:    0.9276133546
  - # 5
    frequency:    1.3204159903
  - # 6
    frequency:    1.9824878405
  - # 7
    frequency:    2.4301490678
  - # 8
    frequency:    3.1930465795
  - # 9
    frequency:    3.2570996674
  - # 10
    frequency:    4.0514068167
  - # 11
    frequency:    4.3968926405
  - # 12
    frequency:    4.9717064683
  - # 13
    frequency:    6.5657720374
  - # 14
    frequency:    6.9357845708
  - # 15
    frequency:    7.8345504588
  - # 16
    frequency:    8.0312192327
  - # 17
    frequency:   12.6223576344
  - # 18
    frequency:   16.2154656790
  - # 19
    frequency:   16.2786099755
  - # 20
    frequency:   16.6819422045
  - # 21
    frequency:   16.7188323068
  - # 22
    frequency:   33.8829909991
  - # 23
    frequency:   37.2827780205
  - # 24
    frequency:   67.7574773852

- q-position: [    0.1363636,    0.0000000,    0.0000000 ]
  distance:    0.0483856
  band:
  - # 1
    frequency:   -1.5374729034
  - # 2
    frequency:   -1.1791018929
  - # 3
    frequency:    0.4648608476
  - # 4
    frequency:    1.0060403579
  - # 5
    frequency:    1.3637741831
  - # 6
    frequency:    2.0445910571
  - # 7