nqpoint: 300    
npath: 3      
segment_nqpoint:
- 100
- 100
- 100
labels:
- [ 'G', 'M' ]
- [ 'M', 'K' ]
- [ 'K', 'G' ]
reciprocal_lattice:
- [   0.28827655,   0.16643654,   0.00000000 ] # a*
- [   0.00000000,   0.33287308,   0.00000000 ] # b*
- [   0.00000000,   0.00000000,   0.03977756 ] # c*
natom: 6      
lattice:
- [     3.468891273533192,     0.000000000000000,     0.000000000000000 ] # a
- [    -1.734445636766596,     3.004147965830463,     0.000000000000000 ] # b
- [     0.000000000000000,     0.000000000000000,    25.139801214419791 ] # c
points:
- symbol: Br # 1
  coordinates: [  0.666666984744047,  0.333332985985145,  0.357998057472218 ]
  mass: 79.904000
- symbol: C # 2
  coordinates: [  0.000000000000000,  0.000000000000000,  0.479682599501425 ]
  mass: 12.010700
- symbol: Cl # 3
  coordinates: [  0.333332985432215,  0.666666983183674,  0.642001942527782 ]
  mass: 35.453000
- symbol: O # 4
  coordinates: [  0.333332985432215,  0.666666983183674,  0.572018924404306 ]
  mass: 15.999400
- symbol: Sc # 5
  coordinates: [  0.333332985432215,  0.666666983183674,  0.432108546361560 ]
  mass: 44.955912
- symbol: Sc # 6
  coordinates: [  0.666666984744047,  0.333332985985145,  0.530401880515556 ]
  mass: 44.955912

phonon:
- q-position: [    0.0000000,    0.0000000,    0.0000000 ]
  distance:    0.0000000
  band:
  - # 1
    frequency:   -1.3458355452
  - # 2
    frequency:   -1.3458355450
  - # 3
    frequency:   -0.0000227896
  - # 4
    frequency:   -0.0000002648
  - # 5
    frequency:    0.0000175313
  - # 6
    frequency:    2.9057325970
  - # 7
    frequency:    2.9057325971
  - # 8
    frequency:    4.2223147133
  - # 9
    frequency:    5.3626473682
  - # 10
    frequency:    5.3626473683
  - # 11
    frequency:    7.2591663730
  - # 12
    frequency:    8.2509281179
  - # 13
    frequency:    8.2509281179
  - # 14
    frequency:   10.9031445665
  - # 15
    frequency:   10.9984774923
  - # 16
    frequency:   10.9984774925
  - # 17
    frequency:   14.9606871082
  - # 18
    frequency:   18.3615269466

- q-position: [    0.0050505,    0.0000000,    0.0000000 ]
  distance:    0.0016812
  band:
  - # 1
    frequency:   -1.3449700224
  - # 2
    frequency:   -1.3421766889
  - # 3
    frequency:    0.0022691969
  - # 4
    frequency:    0.0589980097
  - # 5
    frequency:    0.1123101756
  - # 6
    frequency:    2.9060067120
  - # 7
    frequency:    2.9078221326
  - # 8
    frequency:    4.2221377405
  - # 9
    frequency:    5.3626820782
  - # 10
    frequency:    5.3628054852
  - # 11
    frequency:    7.2592798466
  - # 12
    frequency:    8.2509055728
  - # 13
    frequency:    8.2528616051
  - # 14
    frequency:   10.8980024161
  - # 15
    frequency:   10.9981900910
  - # 16
    frequency:   11.0079139716
  - # 17
    frequency:   14.9604188200
  - # 18
    frequency:   18.3602464042

- q-position: [    0.0101010,    0.0000000,    0.0000000 ]
  distance:    0.0033624
  band:
  - # 1
    frequency:   -1.3423728279
  - # 2
    frequency:   -1.3311827064
  - # 3
    frequency:    0.0090748998
  - # 4
    frequency:    0.1179846958
  - # 5
    frequency:    0.2246764932
  - # 6
    frequency:    2.9068287866
  - # 7
    frequency:    2.9140686428
  - # 8
    frequency:    4.2216107258
  - # 9
    frequency:    5.3627864142
  - # 10
    frequency:    5.3632813487
  - # 11
    frequency:    7.2596218756
  - # 12
    frequency:    8.2508370963
  - # 13
    frequency:    8.2586077081
  - # 14
    frequency:   10.8861343053
  - # 15
    frequency:   10.9973289702
  - # 16
    frequency:   11.0326682555
  - # 17
    frequency:   14.9596149159
  - # 18
    frequency:   18.3564070683

- q-position: [    0.0151515,    0.0000000,    0.0000000 ]
  distance:    0.0050435
  band:
  - # 1
    frequency:   -1.3380420149
  - # 2
    frequency:   -1.3127984385
  - # 3
    frequency:    0.0204125920
  - # 4
    frequency:    0.1769484613
  - # 5
    frequency:    0.3371467567
  - # 6
    frequency:    2.9081980140
  - # 7
    frequency:    2.9244066061
  - # 8
    frequency:    4.2207454370
  - # 9
    frequency:    5.3629609905
  - # 10
    frequency:    5.3640796121
  - # 11
    frequency:    7.2601971338
  - # 12
    frequency:    8.2507201645
  - # 13
    frequency:    8.2680065615
  - # 14
    frequency:   10.8720267410
  - # 15
    frequency:   10.9958973792
  - # 16
    frequency:   11.0682613750
  - # 17
    frequency:   14.9582782712
  - # 18
    frequency:   18.3500158098

- q-position: [    0.0202020,    0.0000000,    0.0000000 ]
  distance:    0.0067247
  band:
  - # 1
    frequency:   -1.3319741173
  - # 2
    frequency:   -1.2869219980
  - # 3
    frequency:    0.0362836037
  - # 4
    frequency:    0.2358771661
  - # 5
    frequency:    0.4497523644
  - # 6
    frequency:    2.9101130623
  - # 7
    frequency:    2.9387292883
  - # 8
    frequency:    4.2195616785
  - # 9
    frequency:    5.3632068196
  - # 10
    frequency:    5.3652084042
  - # 11
    frequency:    7.2610129404
  - # 12
    frequency:    8.2505505669
  - # 13
    frequency:    8.2808021536
  - # 14
    frequency:   10.8574598822
  - # 15
    frequency:   10.9939007319
  - # 16
    frequency:   11.1129191770
  - # 17
    frequency:   14.9564136566
  - # 18
    frequency:   18.3410840720

- q-position: [    0.0252525,    0.0000000,    0.0000000 ]
  distance:    0.0084059
  band:
  - # 1
    frequency:   -1.3241638148
  - # 2
    frequency:   -1.2533890657
  - # 3
    frequency:    0.0567091697
  - # 4
    frequency:    0.2947578846
  - # 5
    frequency:    0.5625008540
  - # 6
    frequency:    2.9125720926
  - # 7
    frequency:    2.9568921314
  - # 8
    frequency:    4.2180875909
  - # 9
    frequency:    5.3635252948
  - # 10
    frequency:    5.3666798515
  - # 11
    frequency:    7.2620786618
  - # 12
    frequency:    8.2503224031
  - # 13
    frequency:    8.2966570497
  - # 14
    frequency:   10.8428135008
  - # 15
    frequency:   10.9913466028
  - # 16
    frequency:   11.1662571878
  - # 17
    frequency:   14.9540277080
  - # 18
    frequency:   18.3296278565

- q-position: [    0.0303030,    0.0000000,    0.0000000 ]
  distance:    0.0100871
  band:
  - # 1
    frequency:   -1.3146034629
  - # 2
    frequency:   -1.2119495306
  - # 3
    frequency:    0.0817533563
  - # 4
    frequency:    0.3535766936
  - # 5
    frequency:    0.6753695981
  - # 6
    frequency:    2.9155727851
  - # 7
    frequency:    2.9787169218
  - # 8
    frequency:    4.2163600946
  - # 9
    frequency:    5.3639181667
  - # 10
    frequency:    5.3685107421
  - # 11
    frequency:    7.2634050494
  - # 12
    frequency:    8.2500280771
  - # 13
    frequency:    8.3151712445
  - # 14
    frequency:   10.8280025392
  - # 15
    frequency:   10.9882447216
  - # 16
    frequency:   11.2283334816
  - # 17
    frequency:   14.9511288839
  - # 18
    frequency:   18.3156677067

- q-position: [    0.0353535,    0.0000000,    0.0000000 ]
  distance:    0.0117682
  band:
  - # 1
    frequency:   -1.3032824838
  - # 2
    frequency:   -1.1622356024
  - # 3
    frequency:    0.1115593657
  - # 4
    frequency:    0.4123184981
  - # 5
    frequency:    0.7883012943
  - # 6
    frequency:    2.9191123714
  - # 7
    frequency:    3.0039962672
  - # 8
    frequency:    4.2144255031
  - # 9
    frequency:    5.3643875136
  - # 10
    frequency:    5.3707232782
  - # 11
    frequency:    7.2650036314
  - # 12
    frequency:    8.2496582933
  - # 13
    frequency:    8.3359035713
  - # 14
    frequency:   10.8128197842
  - # 15
    frequency:   10.9846069645
  - # 16
    frequency:   11.2992932103
  - # 17
    frequency:   14.9477274144
  - # 18
    frequency:   18.2992286852

- q-position: [    0.0404040,    0.0000000,    0.0000000 ]
  distance:    0.0134494
  band:
  - # 1
    frequency:   -1.2901866112
  - # 2
    frequency:   -1.1037215339
  - # 3
    frequency:    0.1464081572
  - # 4
    frequency:    0.4709669051
  - # 5
    frequency:    0.9012018809
  - # 6
    frequency:    2.9231876727
  - # 7
    frequency:    3.0324978980
  - # 8
    frequency:    4.2123403377
  - # 9
    frequency:    5.3649357070
  - # 10
    frequency:    5.3733458684
  - # 11
    frequency:    7.2668862421
  - # 12
    frequency:    8.2492020539
  - # 13
    frequency:    8.3583939203
  - # 14
    frequency:   10.7970514781
  - # 15
    frequency:   10.9804473409
  - # 16
    frequency:   11.3792403072
  - # 17
    frequency:   14.9438352425
  - # 18
    frequency:   18.2803403486

- q-position: [    0.0454545,    0.0000000,    0.0000000 ]
  distance:    0.0151306
  band:
  - # 1
    frequency:   -1.2752969801
  - # 2
    frequency:   -1.0356790715
  - # 3
    frequency:    0.1868163426
  - # 4
    frequency:    0.5295041469
  - # 5
    frequency:    1.0139412954
  - # 6
    frequency:    2.9277951440
  - # 7
    frequency:    3.0639683474
  - # 8
    frequency:    4.2101723871
  - # 9
    frequency:    5.3655653719
  - # 10
    frequency:    5.3764139179
  - # 11
    frequency:    7.2690647347
  - # 12
    frequency:    8.2486466602
  - # 13
    frequency:    8.3821845187
  - # 14
    frequency:   10.7805133027
  - # 15
    frequency:   10.9757819752
  - # 16
    frequency:   11.4681902716
  - # 17
    frequency:   14.9394659613
  - # 18
    frequency:   18.2590367202

- q-position: [    0.0505051,    0.0000000,    0.0000000 ]
  distance:    0.0168118
  band:
  - # 1
    frequency:   -1.2585890429
  - # 2
    frequency:   -0.9571462863
  - # 3
    frequency:    0.2337042069
  - # 4
    frequency:    0.5879110587
  - # 5
    frequency:    1.1263570928
  - # 6
    frequency:    2.9329309231
  - # 7
    frequency:    3.0981356393
  - # 8
    frequency:    4.2080020591
  - # 9
    frequency:    5.3662793435
  - # 10
    frequency:    5.3799705888
  - # 11
    frequency:    7.2715508826
  - # 12
    frequency:    8.2479777189
  - # 13
    frequency:    8.4068387299
  - # 14
    frequency:   10.7630578502
  - # 15
    frequency:   10.9706290803
  - # 16
    frequency:   11.5660541048
  - # 17
    frequency:   14.9346347503
  - # 18
    frequency:   18.2353562600

- q-position: [    0.0555556,    0.0000000,    0.0000000 ]
  distance:    0.0184929
  band:
  - # 1
    frequency:   -1.2400312864
  - # 2
    frequency:   -0.8669706864
  - # 3
    frequency:    0.2886815280
  - # 4
    frequency:    0.6461671087
  - # 5
    frequency:    1.2382604703
  - # 6
    frequency:    2.9385908836
  - # 7
    frequency:    3.1347107092
  - # 8
    frequency:    4.2059240785
  - # 9
    frequency:    5.3670806210
  - # 10
    frequency:    5.3840675169
  - # 11
    frequency:    7.2743564482
  - # 12
    frequency:    8.2471791568
  - # 13
    frequency:    8.4319561977
  - # 14
    frequency:   10.7445721888
  - # 15
    frequency:   10.9650089240
  - # 16
    frequency:   11.6726356418
  - # 17
    frequency:   14.9293583175
  - # 18
    frequency:   18.2093418364

- q-position: [    0.0606061,    0.0000000,    0.0000000 ]
  distance:    0.0201741
  band:
  - # 1
    frequency:   -1.2195837080
  - # 2
    frequency:   -0.7641105407
  - # 3
    frequency:    0.3544742568
  - # 4
    frequency:    0.7042504792
  - # 5
    frequency:    1.3494438682
  - # 6
    frequency:    2.9447706915
  - # 7
    frequency:    3.1733873808
  - # 8
    frequency:    4.2040495834
  - # 9
    frequency:    5.3679723195
  - # 10
    frequency:    5.3887654793
  - # 11
    frequency:    7.2774933778
  - # 12
    frequency:    8.2462332451
  - # 13
    frequency:    8.4571836575
  - # 14
    frequency:   10.7249726000
  - # 15
    frequency:   10.9589437834
  - # 16
    frequency:   11.7876356192
  - # 17
    frequency:   14.9236548529
  - # 18
    frequency:   18.1810406984

- q-position: [    0.0656566,    0.0000000,    0.0000000 ]
  distance:    0.0218553
  band:
  - # 1
    frequency:   -1.1971959906
  - # 2
    frequency:   -0.6486042676
  - # 3
    frequency:    0.4352049372
  - # 4
    frequency:    0.7621381924
  - # 5
    frequency:    1.4596891476
  - # 6
    frequency:    2.9514658643
  - # 7
    frequency:    3.2138408352
  - # 8
    frequency:    4.2025086554
  - # 9
    frequency:    5.3689576204
  - # 10
    frequency:    5.3941350159
  - # 11
    frequency:    7.2809740811
  - # 12
    frequency:    8.2451206357
  - # 13
    frequency:    8.4822212531
  - # 14
    frequency:   10.7041991509
  - # 15
    frequency:   10.9524578877
  - # 16
    frequency:   11.9106597608
  - # 17
    frequency:   14.9175440057
  - # 18
    frequency:   18.1505044528

- q-position: [    0.0707071,    0.0000000,    0.0000000 ]
  distance:    0.0235365
  band:
  - # 1
    frequency:   -1.1728052840
  - # 2
    frequency:   -0.5232140014
  - # 3
    frequency:    0.5350355298
  - # 4
    frequency:    0.8198062747
  - # 5
    frequency:    1.5687754356
  - # 6
    frequency:    2.9586718322
  - # 7
    frequency:    3.2557246256
  - # 8
    frequency:    4.2014532777
  - # 9
    frequency:    5.3700397222
  - # 10
    frequency:    5.4002570079
  - # 11
    frequency:    7.2848117540
  - # 12
    frequency:    8.2438204127
  - # 13
    frequency:    8.5068246785
  - # 14
    frequency:   10.6822109985
  - # 15
    frequency:   10.9455773461
  - # 16
    frequency:   12.0412294998
  - # 17
    frequency:   14.9110468988
  - # 18
    frequency:   18.1177890479

- q-position: [    0.0757576,    0.0000000,    0.0000000 ]
  distance:    0.0252177
  band:
  - # 1
    frequency:   -1.1463334621
  - # 2
    frequency:   -0.3917394277
  - # 3
    frequency:    0.6532228203
  - # 4
    frequency:    0.8772299502
  - # 5
    frequency:    1.6764859887
  - # 6
    frequency:    2.9663839999
  - # 7
    frequency:    3.2986664480
  - # 8
    frequency:    4.2010606203
  - # 9
    frequency:    5.3712217924
  - # 10
    frequency:    5.4072232068
  - # 11
    frequency:    7.2890207140
  - # 12
    frequency:    8.2423101610
  - # 13
    frequency:    8.5308038087
  - # 14
    frequency:   10.6589826196
  - # 15
    frequency:   10.9383300593
  - # 16
    frequency:   12.1787943568
  - # 17
    frequency:   14.9041862034
  - # 18
    frequency:   18.0829547677

- q-position: [    0.0808081,    0.0000000,    0.0000000 ]
  distance:    0.0268988
  band:
  - # 1
    frequency:   -1.1176836559
  - # 2
    frequency:   -0.2440104899
  - # 3
    frequency:    0.7813734867
  - # 4
    frequency:    0.9343838537
  - # 5
    frequency:    1.7826137561
  - # 6
    frequency:    2.9745978094
  - # 7
    frequency:    3.3422631095
  - # 8
    frequency:    4.2015363796
  - # 9
    frequency:    5.3725069210
  - # 10
    frequency:    5.4151366974
  - # 11
    frequency:    7.2936167229
  - # 12
    frequency:    8.2405660542
  - # 13
    frequency:    8.5540186872
  - # 14
    frequency:   10.6345009007
  - # 15
    frequency:   10.9307456137
  - # 16
    frequency:   12.3227450856
  - # 17
    frequency:   14.8969863061
  - # 18
    frequency:   18.0460662414

- q-position: [    0.0858586,    0.0000000,    0.0000000 ]
  distance:    0.0285800
  band:
  - # 1
    frequency:   -1.0867357725
  - # 2
    frequency:    0.1320164201
  - # 3
    frequency:    0.9102073334
  - # 4
    frequency:    0.9912422525
  - # 5
    frequency:    1.8869656042
  - # 6
    frequency:    2.9833088012
  - # 7
    frequency:    3.3860754861
  - # 8
    frequency:    4.2031175896
  - # 9
    frequency:    5.3738980780
  - # 10
    frequency:    5.4241122552
  - # 11
    frequency:    7.2986172819
  - # 12
    frequency:    8.2385629645
  - # 13
    frequency:    8.5763737748
  - # 14
    frequency:   10.6087629418
  - # 15
    frequency:   10.9228551542
  - # 16
    frequency:   12.4724267566
  - # 17
    frequency:   14.8894736225
  - # 18
    frequency:   18.0071924726

- q-position: [    0.0909091,    0.0000000,    0.0000000 ]
  distance:    0.0302612
  band:
  - # 1
    frequency:   -1.0533405574
  - # 2
    frequency:    0.2947361028
  - # 3
    frequency:    1.0349771607
  - # 4
    frequency:    1.0477792678
  - # 5
    frequency:    1.9893653407
  - # 6
    frequency:    2.9925126754
  - # 7
    frequency:    3.4296247956
  - # 8
    frequency:    4.2060738387
  - # 9
    frequency:    5.3753980736
  - # 10
    frequency:    5.4342765317
  - # 11
    frequency:    7.3040418896
  - # 12
    frequency:    8.2362745962
  - # 13
    frequency:    8.5978112957
  - # 14
    frequency:   10.5817744263
  - # 15
    frequency:   10.9146912367
  - # 16
    frequency:   12.6271510271
  - # 17
    frequency:   14.8816771375
  - # 18
    frequency:   17.9664068969

- q-position: [    0.0959596,    0.0000000,    0.0000000 ]
  distance:    0.0319424
  band:
  - # 1
    frequency:   -1.0173115171
  - # 2
    frequency:    0.3935279220
  - # 3
    frequency:    1.1039690856
  - # 4
    frequency:    1.1544021718
  - # 5
    frequency:    2.0896557483
  - # 6
    frequency:    3.0022053501
  - # 7
    frequency:    3.4723922377
  - # 8
    frequency:    4.2107051399
  - # 9
    frequency:    5.3770095245
  - # 10
    frequency:    5.4457679660
  - # 11
    frequency:    7.3099122585
  - # 12
    frequency:    8.2336736442
  - # 13
    frequency:    8.6183043583
  - # 14
    frequency:   10.5535484266
  - # 15
    frequency:   10.9062876571
  - # 16
    frequency:   12.7862069489
  - # 17
    frequency:   14.8736293141
  - # 18
    frequency:   17.9237874760

- q-position: [    0.1010101,    0.0000000,    0.0000000 ]
  distance:    0.0336235
  band:
  - # 1
    frequency:   -0.9784136190
  - # 2
    frequency:    0.4742807969
  - # 3
    frequency:    1.1597861494
  - # 4
    frequency:    1.2686216492
  - # 5
    frequency:    2.1876998231
  - # 6
    frequency:    3.0123830185
  - # 7
    frequency:    3.5138248837
  - # 8
    frequency:    4.2173339166
  - # 9
    frequency:    5.3787348252
  - # 10
    frequency:    5.4587362837
  - # 11
    frequency:    7.3162524881
  - # 12
    frequency:    8.2307319790
  - # 13
    frequency:    8.6378503500
  - # 14
    frequency:   10.5241045442
  - # 15
    frequency:   10.8976792577
  - # 16
    frequency:   12.9488697344
  - # 17
    frequency:   14.8653676077
  - # 18
    frequency:   17.8794168414

- q-position: [    0.1060606,    0.0000000,    0.0000000 ]
  distance:    0.0353047
  band:
  - # 1
    frequency:   -0.9363469858
  - # 2
    frequency:    0.5469821293
  - # 3
    frequency:    1.2152053289
  - # 4
    frequency:    1.3781797626
  - # 5
    frequency:    2.2833813618
  - # 6
    frequency:    3.0230422016
  - # 7
    frequency:    3.5533512628
  - # 8
    frequency:    4.2262880364
  - # 9
    frequency:    5.3805761256
  - # 10
    frequency:    5.4733414019
  - # 11
    frequency:    7.3230891944
  - # 12
    frequency:    8.2274208587
  - # 13
    frequency:    8.6564649238
  - # 14
    frequency:   10.4934683045
  - # 15
    frequency:   10.8889017088
  - # 16
    frequency:   13.1144068709
  - # 17
    frequency:   14.8569370193
  - # 18
    frequency:   17.8333825028

- q-position: [    0.1111111,    0.0000000,    0.0000000 ]
  distance:    0.0369859
  band:
  - # 1
    frequency:   -0.8907225223
  - # 2
    frequency:    0.6155583514
  - # 3
    frequency:    1.2702020587
  - # 4
    frequency:    1.4836619393
  - # 5
    frequency:    2.3766049710
  - # 6
    frequency:    3.0341797990
  - # 7
    frequency:    3.5904096463
  - # 8
    frequency:    4.2378723000
  - # 9
    frequency:    5.3825353160
  - # 10
    frequency:    5.4897515246
  - # 11
    frequency:    7.3304515975
  - # 12
    frequency:    8.2237111675
  - # 13
    frequency:    8.6741767464
  - # 14
    frequency:   10.4616707494
  - # 15
    frequency:   10.8799912672
  - # 16
    frequency:   13.2820807228
  - # 17
    frequency:   14.8483944993
  - # 18
    frequency:   17.7857771446

- q-position: [    0.1161616,    0.0000000,    0.0000000 ]
  distance:    0.0386671
  band:
  - # 1
    frequency:   -0.8410239468
  - # 2
    frequency:    0.6818957256
  - # 3
    frequency:    1.3247524450
  - # 4
    frequency:    1.5855871153
  - # 5
    frequency:    2.4672955225
  - # 6
    frequency:    3.0457931352
  - # 7
    frequency:    3.6244895387
  - # 8
    frequency:    4.2523282777
  - # 9
    frequency:    5.3846140185
  - # 10
    frequency:    5.5081401909
  - # 11
    frequency:    7.3383715690
  - # 12
    frequency:    8.2195736806
  - # 13
    frequency:    8.6910230557
  - # 14
    frequency:   10.4287481863
  - # 15
    frequency:   10.8709845121
  - # 16
    frequency:   13.4511460400
  - # 17
    frequency:   14.8398168310
  - # 18
    frequency:   17.7366990378

- q-position: [    0.1212121,    0.0000000,    0.0000000 ]
  distance:    0.0403483
  band:
  - # 1
    frequency:   -0.7865455926
  - # 2
    frequency:    0.7470029749
  - # 3
    frequency:    1.3788333393
  - # 4
    frequency:    1.6843872071
  - # 5
    frequency:    2.5553970396
  - # 6
    frequency:    3.0578800019
  - # 7
    frequency:    3.6551818312
  - # 8
    frequency:    4.2697874065
  - # 9
    frequency:    5.3868135866
  - # 10
    frequency:    5.5286820517
  - # 11
    frequency:    7.3468836380
  - # 12
    frequency:    8.2149793536
  - # 13
    frequency:    8.7070460014
  - # 14
    frequency:   10.3947420634
  - # 15
    frequency:   10.8619180592
  - # 16
    frequency:   13.6208389989
  - # 17
    frequency:   14.8313154663
  - # 18
    frequency:   17.6862526101

- q-position: [    0.1262626,    0.0000000,    0.0000000 ]
  distance:    0.0420294
  band:
  - # 1
    frequency:   -0.7262838739
  - # 2
    frequency:    0.8114556215
  - # 3
    frequency:    1.4324223773
  - # 4
    frequency:    1.7804134811
  - # 5
    frequency:    2.6408709892
  - # 6
    frequency:    3.0704386962
  - # 7
    frequency:    3.6822268060
  - # 8
    frequency:    4.2902284298
  - # 9
    frequency:    5.3891351118
  - # 10
    frequency:    5.5515472060
  - # 11
    frequency:    7.3560249575
  - # 12
    frequency:    8.2098996334
  - # 13
    frequency:    8.7222896874
  - # 14
    frequency:   10.3596989546
  - # 15
    frequency:   10.8528282564
  - # 16
    frequency:   13.7903498677
  - # 17
    frequency:   14.8230663371
  - # 18
    frequency:   17.6345492291

- q-position: [    0.1313131,    0.0000000,    0.0000000 ]
  distance:    0.0437106
  band:
  - # 1
    frequency:   -0.6587316099
  - # 2
    frequency:    0.8755948575
  - # 3
    frequency:    1.4854979873
  - # 4
    frequency:    1.8739493953
  - # 5
    frequency:    2.7236939550
  - # 6
    frequency:    3.0834680538
  - # 7
    frequency:    3.7055455873
  - # 8
    frequency:    4.3134536973
  - # 9
    frequency:    5.3915794384
  - # 10
    frequency:    5.5768940572
  - # 11
    frequency:    7.3658352282
  - # 12
    frequency:    8.2043067878
  - # 13
    frequency:    8.7367978113
  - # 14
    frequency:   10.3236706436
  - # 15
    frequency:   10.8437508643
  - # 16
    frequency:   13.9587589628
  - # 17
    frequency:   14.8153750810
  - # 18
    frequency:   17.5817082807

- q-position: [    0.1363636,    0.0000000,    0.0000000 ]
  distance:    0.0453918
  band:
  - # 1
    frequency:   -0.5814414918
  - # 2
    frequency:    0.9396264301
  - # 3
    frequency:    1.5380393680
  - # 4
    frequency:    1.9652233582
  - # 5
    frequency:    2.8038546683
  - # 6
    frequency:    3.0969674779
  - # 7
    frequency:    3.7252438664
  - # 8
    frequency:    4.3390953800
  - # 9
    frequency:    5.3941471847
  - # 10
    frequency:    5.6048608493
  - # 11
    frequency:    7.3763565778
  - # 12
    frequency:    8.1981742502
  - # 13
    frequency:    8.7506117858
  - # 14
    frequency:   10.2867143041
  - # 15
    frequency:   10.8347207241
  - # 16
    frequency:   14.1248772702
  - # 17
    frequency:   14.8088363693
  - # 18
    frequency:   17.5278586591

- q-position: [    0.1414141,    0.0000000,    0.0000000 ]
  distance:    0.0470730
  band:
  - # 1
    frequency:   -0.4899306721
  - # 2
    frequency:    1.0036737230
  - # 3
    frequency:    1.5900264403
  - # 4
    frequency:    2.0544196022
  - # 5
    frequency:    2.8813503737
  - # 6
    frequency:    3.1109369620
  - # 7
    frequency:    3.7415867238
  - # 8
    frequency:    4.3666523906
  - # 9
    frequency:    5.3968387713
  - # 10
    frequency:    5.6355563097
  - # 11
    frequency:    7.3876333890
  - # 12
    frequency:    8.1914769722
  - # 13
    frequency:    8.7637692277
  - # 14
    frequency:   10.2488927816
  - # 15
    frequency:   10.8257714196
  - # 16
    frequency:   14.2867963808
  - # 17
    frequency:   14.8047826791
  - # 18
    frequency:   17.4731408378

- q-position: [    0.1464646,    0.0000000,    0.0000000 ]
  distance:    0.0487541
  band:
  - # 1
    frequency:   -0.3740380494
  - # 2
    frequency:    1.0678079723
  - # 3
    frequency:    1.6414397768
  - # 4
    frequency:    2.1416869455
  - # 5
    frequency:    2.9561824770
  - # 6
    frequency:    3.1253771074
  - # 7
    frequency:    3.7549543097
  - # 8
    frequency:    4.3955475846
  - # 9
    frequency:    5.3996544565
  - # 10
    frequency:    5.6690501177
  - # 11
    frequency:    7.3997120694
  - # 12
    frequency:    8.1841917801
  - # 13
    frequency:    8.7763027050
  - # 14
    frequency:   10.2102749868
  - # 15
    frequency:   10.8169349374
  - # 16
    frequency:   14.4403839160
  - # 17
    frequency:   14.8067862245
  - # 18
    frequency:   17.4177097784

- q-position: [    0.1515152,    0.0000000,    0.0000000 ]
  distance:    0.0504353
  band:
  - # 1
    frequency:   -0.1944108415
  - # 2
    frequency:    1.1320662857
  - # 3
    frequency:    1.6922605127
  - # 4
    frequency:    2.2271456909
  - # 5
    frequency:    3.0283513621
  - # 6
    frequency:    3.1402891345
  - # 7
    frequency:    3.7657932854
  - # 8
    frequency:    4.4251894976
  - # 9
    frequency:    5.4025943759
  - # 10
    frequency:    5.7053641619
  - # 11
    frequency:    7.4126407516
  - # 12
    frequency:    8.1762977283
  - # 13
    frequency:    8.7882386405
  - # 14
    frequency:   10.1709364178
  - # 15
    frequency:   10.8082413319
  - # 16
    frequency:   14.5737171937
  - # 17
    frequency:   14.8262210290
  - # 18
    frequency:   17.3617390645

- q-position: [    0.1565657,    0.0000000,    0.0000000 ]
  distance:    0.0521165
  band:
  - # 1
    frequency:    0.2572734681
  - # 2
    frequency:    1.1964627987
  - # 3
    frequency:    1.7424702434
  - # 4
    frequency:    2.3108929983
  - # 5
    frequency:    3.0978501528
  - # 6
    frequency:    3.1556748867
  - # 7
    frequency:    3.7745765964
  - # 8
    frequency:    4.4550252040
  - # 9
    frequency:    5.4056585881
  - # 10
    frequency:    5.7444656648
  - # 11
    frequency:    7.4264689102
  - # 12
    frequency:    8.1677764413
  - # 13
    frequency:    8.7995962784
  - # 14
    frequency:   10.1309598359
  - # 15
    frequency:   10.7997184016
  - # 16
    frequency:   14.6582382828
  - # 17
    frequency:   14.8911014914
  - # 18
    frequency:   17.3054268610

- q-position: [    0.1616162,    0.0000000,    0.0000000 ]
  distance:    0.0537977
  band:
  - # 1
    frequency:    0.4146628488
  - # 2
    frequency:    1.2609957980
  - # 3
    frequency:    1.7920509129
  - # 4
    frequency:    2.3930070395
  - # 5
    frequency:    3.1646570144
  - # 6
    frequency:    3.1715368268
  - # 7
    frequency:    3.7817779865
  - # 8
    frequency:    4.4845773174
  - # 9
    frequency:    5.4088471238
  - # 10
    frequency:    5.7862631639
  - # 11
    frequency:    7.4412468773
  - # 12
    frequency:    8.1586124388
  - # 13
    frequency:    8.8103866234
  - # 14
    frequency:   10.0904361277
  - # 15
    frequency:   10.7913913838
  - # 16
    frequency:   14.6874564140
  - # 17
    frequency:   15.0073706117
  - # 18
    frequency:   17.2490046492

- q-position: [    0.1666667,    0.0000000,    0.0000000 ]
  distance:    0.0554788
  band:
  - # 1
    frequency:    0.5285493388
  - # 2
    frequency:    1.3256523867
  - # 3
    frequency:    1.8409846982
  - # 4
    frequency:    2.4735501810
  - # 5
    frequency:    3.1878780241
  - # 6
    frequency:    3.2287253344
  - # 7
    frequency:    3.7878621705
  - # 8
    frequency:    4.5134642260
  - # 9
    frequency:    5.4121600373
  - # 10
    frequency:    5.8306060258
  - # 11
    frequency:    7.4570252357
  - # 12
    frequency:    8.1487934343
  - # 13
    frequency:    8.8206112676
  - # 14
    frequency:   10.0494653933
  - # 15
    frequency:   10.7832826740
  - # 16
    frequency:   14.6920090815
  - # 17
    frequency:   15.1438250794
  - # 18
    frequency:   17.1927502626

- q-position: [    0.1717172,    0.0000000,    0.0000000 ]
  distance:    0.0571600
  band:
  - # 1
    frequency:    0.6231684782
  - # 2
    frequency:    1.3904116039
  - # 3
    frequency:    1.8892538941
  - # 4
    frequency:    2.5525713775
  - # 5
    frequency:    3.2047021314
  - # 6
    frequency:    3.2899707821
  - # 7
    frequency:    3.7932888225
  - # 8
    frequency:    4.5414062403
  - # 9
    frequency:    5.4155974608
  - # 10
    frequency:    5.8772876935
  - # 11
    frequency:    7.4738540674
  - # 12
    frequency:    8.1383106023
  - # 13
    frequency:    8.8302610193
  - # 14
    frequency:   10.0081583118
  - # 15
    frequency:   10.7754115770
  - # 16
    frequency:   14.6879904743
  - # 17
    frequency:   15.2837661418
  - # 18
    frequency:   17.1370077217

- q-position: [    0.1767677,    0.0000000,    0.0000000 ]
  distance:    0.0588412
  band:
  - # 1
    frequency:    0.7062292182
  - # 2
    frequency:    1.4552465460
  - # 3
    frequency:    1.9368408042
  - # 4
    frequency:    2.6301079000
  - # 5
    frequency:    3.2220133499
  - # 6
    frequency:    3.3482539254
  - # 7
    frequency:    3.7985281634
  - # 8
    frequency:    4.5682215707
  - # 9
    frequency:    5.4191596586
  - # 10
    frequency:    5.9260523377
  - # 11
    frequency:    7.4917820309
  - # 12
    frequency:    8.1271588046
  - # 13
    frequency:    8.8393142484
  - # 14