nqpoint: 300    
npath: 3      
segment_nqpoint:
- 100
- 100
- 100
labels:
- [ 'G', 'M' ]
- [ 'M', 'K' ]
- [ 'K', 'G' ]
reciprocal_lattice:
- [   0.28827655,   0.16643654,   0.00000000 ] # a*
- [   0.00000000,   0.33287308,   0.00000000 ] # b*
- [   0.00000000,   0.00000000,   0.03977756 ] # c*
natom: 6      
lattice:
- [     3.468891273533192,     0.000000000000000,     0.000000000000000 ] # a
- [    -1.734445636766596,     3.004147965830463,     0.000000000000000 ] # b
- [     0.000000000000000,     0.000000000000000,    25.139801214419791 ] # c
points:
- symbol: Br # 1
  coordinates: [  0.666666984744047,  0.333332985985145,  0.357998057472218 ]
  mass: 79.904000
- symbol: C # 2
  coordinates: [  0.000000000000000,  0.000000000000000,  0.479682599501425 ]
  mass: 12.010700
- symbol: Cl # 3
  coordinates: [  0.333332985432215,  0.666666983183674,  0.642001942527782 ]
  mass: 35.453000
- symbol: O # 4
  coordinates: [  0.333332985432215,  0.666666983183674,  0.572018924404306 ]
  mass: 15.999400
- symbol: Sc # 5
  coordinates: [  0.333332985432215,  0.666666983183674,  0.432108546361560 ]
  mass: 44.955912
- symbol: Sc # 6
  coordinates: [  0.666666984744047,  0.333332985985145,  0.530401880515556 ]
  mass: 44.955912

phonon:
- q-position: [    0.0000000,    0.0000000,    0.0000000 ]
  distance:    0.0000000
  band:
  - # 1
    frequency:   -1.3649709112
  - # 2
    frequency:   -1.3649709112
  - # 3
    frequency:   -0.0000023033
  - # 4
    frequency:   -0.0000013368
  - # 5
    frequency:    0.0000026348
  - # 6
    frequency:    2.7222976980
  - # 7
    frequency:    2.7222976980
  - # 8
    frequency:    4.2340191777
  - # 9
    frequency:    5.2809032088
  - # 10
    frequency:    5.2809032088
  - # 11
    frequency:    7.3046278557
  - # 12
    frequency:    8.0690602633
  - # 13
    frequency:    8.0690602633
  - # 14
    frequency:   10.5090925286
  - # 15
    frequency:   10.5090925287
  - # 16
    frequency:   10.9368182587
  - # 17
    frequency:   14.9653599753
  - # 18
    frequency:   18.4484430835

- q-position: [    0.0050505,    0.0000000,    0.0000000 ]
  distance:    0.0016812
  band:
  - # 1
    frequency:   -1.3641102204
  - # 2
    frequency:   -1.3614090735
  - # 3
    frequency:   -0.0593177093
  - # 4
    frequency:    0.0635471680
  - # 5
    frequency:    0.1155825306
  - # 6
    frequency:    2.7228048989
  - # 7
    frequency:    2.7250601405
  - # 8
    frequency:    4.2338593069
  - # 9
    frequency:    5.2811489417
  - # 10
    frequency:    5.2813013564
  - # 11
    frequency:    7.3045980063
  - # 12
    frequency:    8.0693114666
  - # 13
    frequency:    8.0725696338
  - # 14
    frequency:   10.5095872917
  - # 15
    frequency:   10.5142913204
  - # 16
    frequency:   10.9369824363
  - # 17
    frequency:   14.9650557992
  - # 18
    frequency:   18.4469648947

- q-position: [    0.0101010,    0.0000000,    0.0000000 ]
  distance:    0.0033624
  band:
  - # 1
    frequency:   -1.3615273907
  - # 2
    frequency:   -1.3507014057
  - # 3
    frequency:   -0.0725501505
  - # 4
    frequency:    0.1270813620
  - # 5
    frequency:    0.2114843737
  - # 6
    frequency:    2.7243250019
  - # 7
    frequency:    2.7332921261
  - # 8
    frequency:    4.2333835600
  - # 9
    frequency:    5.2818850614
  - # 10
    frequency:    5.2824915985
  - # 11
    frequency:    7.3045133384
  - # 12
    frequency:    8.0700608970
  - # 13
    frequency:    8.0829663880
  - # 14
    frequency:   10.5110684372
  - # 15
    frequency:   10.5297374894
  - # 16
    frequency:   10.9376640905
  - # 17
    frequency:   14.9641446214
  - # 18
    frequency:   18.4425339542

- q-position: [    0.0151515,    0.0000000,    0.0000000 ]
  distance:    0.0050435
  band:
  - # 1
    frequency:   -1.3572200887
  - # 2
    frequency:   -1.3327791698
  - # 3
    frequency:   -0.0842489770
  - # 4
    frequency:    0.1905892663
  - # 5
    frequency:    0.3102510724
  - # 6
    frequency:    2.7268535248
  - # 7
    frequency:    2.7468315824
  - # 8
    frequency:    4.2326035403
  - # 9
    frequency:    5.2831083373
  - # 10
    frequency:    5.2844617018
  - # 11
    frequency:    7.3043878679
  - # 12
    frequency:    8.0712960819
  - # 13
    frequency:    8.0998655255
  - # 14
    frequency:   10.5135265457
  - # 15
    frequency:   10.5549004863
  - # 16
    frequency:   10.9395042003
  - # 17
    frequency:   14.9626304822
  - # 18
    frequency:   18.4351611290

- q-position: [    0.0202020,    0.0000000,    0.0000000 ]
  distance:    0.0067247
  band:
  - # 1
    frequency:   -1.3511842184
  - # 2
    frequency:   -1.3075201265
  - # 3
    frequency:   -0.0946187052
  - # 4
    frequency:    0.2540568939
  - # 5
    frequency:    0.4103148265
  - # 6
    frequency:    2.7303830531
  - # 7
    frequency:    2.7654209491
  - # 8
    frequency:    4.2315386157
  - # 9
    frequency:    5.2848134073
  - # 10
    frequency:    5.2871924552
  - # 11
    frequency:    7.3042430913
  - # 12
    frequency:    8.0729964495
  - # 13
    frequency:    8.1226549372
  - # 14
    frequency:   10.5169459579
  - # 15
    frequency:   10.5885929075
  - # 16
    frequency:   10.9438535480
  - # 17
    frequency:   14.9605200780
  - # 18
    frequency:   18.4248644925

- q-position: [    0.0252525,    0.0000000,    0.0000000 ]
  distance:    0.0084059
  band:
  - # 1
    frequency:   -1.3434136104
  - # 2
    frequency:   -1.2747367199
  - # 3
    frequency:   -0.1017713120
  - # 4
    frequency:    0.3174692829
  - # 5
    frequency:    0.5110878226
  - # 6
    frequency:    2.7349033228
  - # 7
    frequency:    2.7887240094
  - # 8
    frequency:    4.2302159756
  - # 9
    frequency:    5.2869928111
  - # 10
    frequency:    5.2906592762
  - # 11
    frequency:    7.3041058494
  - # 12
    frequency:    8.0751336476
  - # 13
    frequency:    8.1505373611
  - # 14
    frequency:   10.5213048357
  - # 15
    frequency:   10.6283973569
  - # 16
    frequency:   10.9533162995
  - # 17
    frequency:   14.9578227069
  - # 18
    frequency:   18.4116692683

- q-position: [    0.0303030,    0.0000000,    0.0000000 ]
  distance:    0.0100871
  band:
  - # 1
    frequency:   -1.3338995867
  - # 2
    frequency:   -1.2341590801
  - # 3
    frequency:   -0.1031770390
  - # 4
    frequency:    0.3808102272
  - # 5
    frequency:    0.6123356232
  - # 6
    frequency:    2.7404013342
  - # 7
    frequency:    2.8163459400
  - # 8
    frequency:    4.2286707394
  - # 9
    frequency:    5.2896370362
  - # 10
    frequency:    5.2948341752
  - # 11
    frequency:    7.3040062999
  - # 12
    frequency:    8.0776719756
  - # 13
    frequency:    8.1825843720
  - # 14
    frequency:   10.5265752522
  - # 15
    frequency:   10.6698013881
  - # 16
    frequency:   10.9725769041
  - # 17
    frequency:   14.9545501940
  - # 18
    frequency:   18.3956077520

- q-position: [    0.0353535,    0.0000000,    0.0000000 ]
  distance:    0.0117682
  band:
  - # 1
    frequency:   -1.3226303964
  - # 2
    frequency:   -1.1854130188
  - # 3
    frequency:   -0.0947139906
  - # 4
    frequency:    0.4440620540
  - # 5
    frequency:    0.7139437241
  - # 6
    frequency:    2.7468614949
  - # 7
    frequency:    2.8478540492
  - # 8
    frequency:    4.2269461391
  - # 9
    frequency:    5.2927345765
  - # 10
    frequency:    5.2996878768
  - # 11
    frequency:    7.3039763979
  - # 12
    frequency:    8.0805689214
  - # 13
    frequency:    8.2177976978
  - # 14
    frequency:   10.5327233130
  - # 15
    frequency:   10.7059678970
  - # 16
    frequency:   11.0085866707
  - # 17
    frequency:   14.9507168004
  - # 18
    frequency:   18.3767192131

- q-position: [    0.0404040,    0.0000000,    0.0000000 ]
  distance:    0.0134494
  band:
  - # 1
    frequency:   -1.3095905201
  - # 2
    frequency:   -1.1279951953
  - # 3
    frequency:   -0.0652900764
  - # 4
    frequency:    0.5072054511
  - # 5
    frequency:    0.8158372535
  - # 6
    frequency:    2.7542657894
  - # 7
    frequency:    2.8827969810
  - # 8
    frequency:    4.2250938084
  - # 9
    frequency:    5.2962720038
  - # 10
    frequency:    5.3051919201
  - # 11
    frequency:    7.3040490081
  - # 12
    frequency:    8.0837757860
  - # 13
    frequency:    8.2551720563
  - # 14
    frequency:   10.5397093142
  - # 15
    frequency:   10.7305161509
  - # 16
    frequency:   11.0677397769
  - # 17
    frequency:   14.9463391182
  - # 18
    frequency:   18.3550497768

- q-position: [    0.0454545,    0.0000000,    0.0000000 ]
  distance:    0.0151306
  band:
  - # 1
    frequency:   -1.2947598309
  - # 2
    frequency:   -1.0612543402
  - # 3
    frequency:    0.0699176806
  - # 4
    frequency:    0.5702193513
  - # 5
    frequency:    0.9179490463
  - # 6
    frequency:    2.7625939726
  - # 7
    frequency:    2.9207207725
  - # 8
    frequency:    4.2231742078
  - # 9
    frequency:    5.3002340501
  - # 10
    frequency:    5.3113206122
  - # 11
    frequency:    7.3042575587
  - # 12
    frequency:    8.0872383817
  - # 13
    frequency:    8.2937532031
  - # 14
    frequency:   10.5474879399
  - # 15
    frequency:   10.7418774405
  - # 16
    frequency:   11.1514802752
  - # 17
    frequency:   14.9414359564
  - # 18
    frequency:   18.3306522904

- q-position: [    0.0505051,    0.0000000,    0.0000000 ]
  distance:    0.0168118
  band:
  - # 1
    frequency:   -1.2781125985
  - # 2
    frequency:   -0.9844081676
  - # 3
    frequency:    0.1431117076
  - # 4
    frequency:    0.6330808741
  - # 5
    frequency:    1.0202053284
  - # 6
    frequency:    2.7718237849
  - # 7
    frequency:    2.9611808596
  - # 8
    frequency:    4.2212572227
  - # 9
    frequency:    5.3046037014
  - # 10
    frequency:    5.3180527709
  - # 11
    frequency:    7.3046360529
  - # 12
    frequency:    8.0908977847
  - # 13
    frequency:    8.3326853844
  - # 14
    frequency:   10.5560085051
  - # 15
    frequency:   10.7426660541
  - # 16
    frequency:   11.2569044857
  - # 17
    frequency:   14.9360282244
  - # 18
    frequency:   18.3035861728

- q-position: [    0.0555556,    0.0000000,    0.0000000 ]
  distance:    0.0184929
  band:
  - # 1
    frequency:   -1.2596163096
  - # 2
    frequency:   -0.8966866721
  - # 3
    frequency:    0.2135666208
  - # 4
    frequency:    0.6957653224
  - # 5
    frequency:    1.1225190823
  - # 6
    frequency:    2.7819311841
  - # 7
    frequency:    3.0037497832
  - # 8
    frequency:    4.2194229642
  - # 9
    frequency:    5.3093623028
  - # 10
    frequency:    5.3253732413
  - # 11
    frequency:    7.3052192521
  - # 12
    frequency:    8.0946911268
  - # 13
    frequency:    8.3712440576
  - # 14
    frequency:   10.5652152467
  - # 15
    frequency:   10.7360632048
  - # 16
    frequency:   11.3803646075
  - # 17
    frequency:   14.9301388220
  - # 18
    frequency:   18.2739172541

- q-position: [    0.0606061,    0.0000000,    0.0000000 ]
  distance:    0.0201741
  band:
  - # 1
    frequency:   -1.2392302646
  - # 2
    frequency:   -0.7978515851
  - # 3
    frequency:    0.2923437128
  - # 4
    frequency:    0.7582462320
  - # 5
    frequency:    1.2247874815
  - # 6
    frequency:    2.7928905933
  - # 7
    frequency:    3.0480208374
  - # 8
    frequency:    4.2177628036
  - # 9
    frequency:    5.3144896722
  - # 10
    frequency:    5.3332742157
  - # 11
    frequency:    7.3060428891
  - # 12
    frequency:    8.0985524049
  - # 13
    frequency:    8.4088522603
  - # 14
    frequency:   10.5750476663
  - # 15
    frequency:   10.7242954115
  - # 16
    frequency:   11.5189930440
  - # 17
    frequency:   14.9237925470
  - # 18
    frequency:   18.2417176052

- q-position: [    0.0656566,    0.0000000,    0.0000000 ]
  distance:    0.0218553
  band:
  - # 1
    frequency:   -1.2169038944
  - # 2
    frequency:   -0.6895798323
  - # 3
    frequency:    0.3857743416
  - # 4
    frequency:    0.8204954659
  - # 5
    frequency:    1.3268918555
  - # 6
    frequency:    2.8046751586
  - # 7
    frequency:    3.0936082208
  - # 8
    frequency:    4.2163806559
  - # 9
    frequency:    5.3199642237
  - # 10
    frequency:    5.3417564035
  - # 11
    frequency:    7.3071438327
  - # 12
    frequency:    8.1024132941
  - # 13
    frequency:    8.4450816863
  - # 14
    frequency:   10.5854409276
  - # 15
    frequency:   10.7087115835
  - # 16
    frequency:   11.6706416032
  - # 17
    frequency:   14.9170160389
  - # 18
    frequency:   18.2070653639

- q-position: [    0.0707071,    0.0000000,    0.0000000 ]
  distance:    0.0235365
  band:
  - # 1
    frequency:   -1.1925747083
  - # 2
    frequency:   -0.5774927682
  - # 3
    frequency:    0.4981876313
  - # 4
    frequency:    0.8824833463
  - # 5
    frequency:    1.4286993384
  - # 6
    frequency:    2.8172570164
  - # 7
    frequency:    3.1401443978
  - # 8
    frequency:    4.2153945090
  - # 9
    frequency:    5.3257630995
  - # 10
    frequency:    5.3508301054
  - # 11
    frequency:    7.3085601648
  - # 12
    frequency:    8.1062039473
  - # 13
    frequency:    8.4796416321
  - # 14
    frequency:   10.5963263077
  - # 15
    frequency:   10.6901185955
  - # 16
    frequency:   11.8335722364
  - # 17
    frequency:   14.9098377832
  - # 18
    frequency:   18.1700445627

- q-position: [    0.0757576,    0.0000000,    0.0000000 ]
  distance:    0.0252177
  band:
  - # 1
    frequency:   -1.1661657496
  - # 2
    frequency:   -0.4694174254
  - # 3
    frequency:    0.6272026413
  - # 4
    frequency:    0.9441788151
  - # 5
    frequency:    1.5300655780
  - # 6
    frequency:    2.8306075651
  - # 7
    frequency:    3.1872754239
  - # 8
    frequency:    4.2149381522
  - # 9
    frequency:    5.3318623086
  - # 10
    frequency:    5.3605162380
  - # 11
    frequency:    7.3103311643
  - # 12
    frequency:    8.1098537672
  - # 13
    frequency:    8.5123600236
  - # 14
    frequency:   10.6076317029
  - # 15
    frequency:   10.6690161808
  - # 16
    frequency:   12.0062540176
  - # 17
    frequency:   14.9022882154
  - # 18
    frequency:   18.1307449642

- q-position: [    0.0808081,    0.0000000,    0.0000000 ]
  distance:    0.0268988
  band:
  - # 1
    frequency:   -1.1375823734
  - # 2
    frequency:   -0.3660519568
  - # 3
    frequency:    0.7630871940
  - # 4
    frequency:    1.0055496124
  - # 5
    frequency:    1.6308379738
  - # 6
    frequency:    2.8446977388
  - # 7
    frequency:    3.2346549843
  - # 8
    frequency:    4.2151629861
  - # 9
    frequency:    5.3382368722
  - # 10
    frequency:    5.3708473429
  - # 11
    frequency:    7.3124972088
  - # 12
    frequency:    8.1132921395
  - # 13
    frequency:    8.5431607269
  - # 14
    frequency:   10.6192821862
  - # 15
    frequency:   10.6457304262
  - # 16
    frequency:   12.1872627608
  - # 17
    frequency:   14.8943999849
  - # 18
    frequency:   18.0892619123

- q-position: [    0.0858586,    0.0000000,    0.0000000 ]
  distance:    0.0285800
  band:
  - # 1
    frequency:   -1.1067080779
  - # 2
    frequency:   -0.2531566586
  - # 3
    frequency:    0.8970154187
  - # 4
    frequency:    1.0665624649
  - # 5
    frequency:    1.7308589974
  - # 6
    frequency:    2.8594982804
  - # 7
    frequency:    3.2819378971
  - # 8
    frequency:    4.2162396833
  - # 9
    frequency:    5.3448609755
  - # 10
    frequency:    5.3818685920
  - # 11
    frequency:    7.3150996099
  - # 12
    frequency:    8.1164491179
  - # 13
    frequency:    8.5720405600
  - # 14
    frequency:   10.6204870400
  - # 15
    frequency:   10.6312006128
  - # 16
    frequency:   12.3752386413
  - # 17
    frequency:   14.8862084789
  - # 18
    frequency:   18.0456962109

- q-position: [    0.0909091,    0.0000000,    0.0000000 ]
  distance:    0.0302612
  band:
  - # 1
    frequency:   -1.0733989830
  - # 2
    frequency:   -0.0356219235
  - # 3
    frequency:    1.0252126504
  - # 4
    frequency:    1.1271832756
  - # 5
    frequency:    1.8299692628
  - # 6
    frequency:    2.8749800113
  - # 7
    frequency:    3.3287739035
  - # 8
    frequency:    4.2183592846
  - # 9
    frequency:    5.3517081227
  - # 10
    frequency:    5.3936387779
  - # 11
    frequency:    7.3181804012
  - # 12
    frequency:    8.1192560540
  - # 13
    frequency:    8.5990483221
  - # 14
    frequency:   10.5934521850
  - # 15
    frequency:   10.6433082670
  - # 16
    frequency:   12.5688717039
  - # 17
    frequency:   14.8777527753
  - # 18
    frequency:   18.0001540431

- q-position: [    0.0959596,    0.0000000,    0.0000000 ]
  distance:    0.0319424
  band:
  - # 1
    frequency:   -1.0374763376
  - # 2
    frequency:    0.2456476407
  - # 3
    frequency:    1.1470587439
  - # 4
    frequency:    1.1873773052
  - # 5
    frequency:    1.9280101432
  - # 6
    frequency:    2.8911140949
  - # 7
    frequency:    3.3748027179
  - # 8
    frequency:    4.2217330661
  - # 9
    frequency:    5.3587512976
  - # 10
    frequency:    5.4062312561
  - # 11
    frequency:    7.3217820961
  - # 12
    frequency:    8.1216461682
  - # 13
    frequency:    8.6242670672
  - # 14
    frequency:   10.5647559582
  - # 15
    frequency:   10.6555255440
  - # 16
    frequency:   12.7668988552
  - # 17
    frequency:   14.8690773242
  - # 18
    frequency:   17.9527469483

- q-position: [    0.1010101,    0.0000000,    0.0000000 ]
  distance:    0.0336235
  band:
  - # 1
    frequency:   -0.9987160801
  - # 2
    frequency:    0.3523550530
  - # 3
    frequency:    1.2471093433
  - # 4
    frequency:    1.2630601090
  - # 5
    frequency:    2.0248258536
  - # 6
    frequency:    2.9078722912
  - # 7
    frequency:    3.4196515697
  - # 8
    frequency:    4.2265901876
  - # 9
    frequency:    5.3659631259
  - # 10
    frequency:    5.4197347728
  - # 11
    frequency:    7.3259474310
  - # 12
    frequency:    8.1235550599
  - # 13
    frequency:    8.6478000062
  - # 14
    frequency:   10.5345063776
  - # 15
    frequency:   10.6677726576
  - # 16
    frequency:   12.9681037687
  - # 17
    frequency:   14.8602349226
  - # 18
    frequency:   17.9035918807

- q-position: [    0.1060606,    0.0000000,    0.0000000 ]
  distance:    0.0353047
  band:
  - # 1
    frequency:   -0.9568338636
  - # 2
    frequency:    0.4384035884
  - # 3
    frequency:    1.3063438618
  - # 4
    frequency:    1.3739680945
  - # 5
    frequency:    2.1202650098
  - # 6
    frequency:    2.9252272007
  - # 7
    frequency:    3.4629367500
  - # 8
    frequency:    4.2331718099
  - # 9
    frequency:    5.3733160407
  - # 10
    frequency:    5.4342540821
  - # 11
    frequency:    7.3307191080
  - # 12
    frequency:    8.1249211579
  - # 13
    frequency:    8.6697598625
  - # 14
    frequency:   10.5027980189
  - # 15
    frequency:   10.6799703642
  - # 16
    frequency:   13.1713148579
  - # 17
    frequency:   14.8512920913
  - # 18
    frequency:   17.8528113815

- q-position: [    0.1111111,    0.0000000,    0.0000000 ]
  distance:    0.0369859
  band:
  - # 1
    frequency:   -0.9114628477
  - # 2
    frequency:    0.5155225660
  - # 3
    frequency:    1.3650451495
  - # 4
    frequency:    1.4804938870
  - # 5
    frequency:    2.2141817223
  - # 6
    frequency:    2.9431524944
  - # 7
    frequency:    3.5042708412
  - # 8
    frequency:    4.2417201961
  - # 9
    frequency:    5.3807824480
  - # 10
    frequency:    5.4499102216
  - # 11
    frequency:    7.3361395466
  - # 12
    frequency:    8.1256861127
  - # 13
    frequency:    8.6902612126
  - # 14
    frequency:   10.4697175338
  - # 15
    frequency:   10.6920406912
  - # 16
    frequency:   13.3753974112
  - # 17
    frequency:   14.8423392021
  - # 18
    frequency:   17.8005339076

- q-position: [    0.1161616,    0.0000000,    0.0000000 ]
  distance:    0.0386671
  band:
  - # 1
    frequency:   -0.8621194482
  - # 2
    frequency:    0.5879836347
  - # 3
    frequency:    1.4231774276
  - # 4
    frequency:    1.5832387652
  - # 5
    frequency:    2.3064363020
  - # 6
    frequency:    2.9616231280
  - # 7
    frequency:    3.5432770551
  - # 8
    frequency:    4.2524615806
  - # 9
    frequency:    5.3883348945
  - # 10
    frequency:    5.4668402765
  - # 11
    frequency:    7.3422506556
  - # 12
    frequency:    8.1257951362
  - # 13
    frequency:    8.7094152353
  - # 14
    frequency:   10.4353473032
  - # 15
    frequency:   10.7039076609
  - # 16
    frequency:   13.5792340243
  - # 17
    frequency:   14.8335107185
  - # 18
    frequency:   17.7468943773

- q-position: [    0.1212121,    0.0000000,    0.0000000 ]
  distance:    0.0403483
  band:
  - # 1
    frequency:   -0.8081479428
  - # 2
    frequency:    0.6578044353
  - # 3
    frequency:    1.4807049465
  - # 4
    frequency:    1.6826919818
  - # 5
    frequency:    2.3968956352
  - # 6
    frequency:    2.9806155373
  - # 7
    frequency:    3.5796110618
  - # 8
    frequency:    4.2655826595
  - # 9
    frequency:    5.3959462339
  - # 10
    frequency:    5.4851964242
  - # 11
    frequency:    7.3490936312
  - # 12
    frequency:    8.1251972929
  - # 13
    frequency:    8.7273262997
  - # 14
    frequency:   10.3997679411
  - # 15
    frequency:   10.7154979958
  - # 16
    frequency:   13.7816797692
  - # 17
    frequency:   14.8250290694
  - # 18
    frequency:   17.6920350186

- q-position: [    0.1262626,    0.0000000,    0.0000000 ]
  distance:    0.0420294
  band:
  - # 1
    frequency:   -0.7486253880
  - # 2
    frequency:    0.7260694054
  - # 3
    frequency:    1.5375920652
  - # 4
    frequency:    1.7792465456
  - # 5
    frequency:    2.4854332550
  - # 6
    frequency:    3.0001078127
  - # 7
    frequency:    3.6129886569
  - # 8
    frequency:    4.2812026309
  - # 9
    frequency:    5.4035897930
  - # 10
    frequency:    5.5051440270
  - # 11
    frequency:    7.3567087876
  - # 12
    frequency:    8.1238457493
  - # 13
    frequency:    8.7440898960
  - # 14
    frequency:   10.3630600826
  - # 15
    frequency:   10.7267417965
  - # 16
    frequency:   13.9814536606
  - # 17
    frequency:   14.8173107129
  - # 18
    frequency:   17.6361066461

- q-position: [    0.1313131,    0.0000000,    0.0000000 ]
  distance:    0.0437106
  band:
  - # 1
    frequency:   -0.6821853376
  - # 2
    frequency:    0.7934073230
  - # 3
    frequency:    1.5938033176
  - # 4
    frequency:    1.8732172156
  - # 5
    frequency:    2.5719290960
  - # 6
    frequency:    3.0200798499
  - # 7
    frequency:    3.6432149007
  - # 8
    frequency:    4.2993454457
  - # 9
    frequency:    5.4112395361
  - # 10
    frequency:    5.5268585267
  - # 11
    frequency:    7.3651354247
  - # 12
    frequency:    8.1216979879
  - # 13
    frequency:    8.7597914935
  - # 14
    frequency:   10.3253057221
  - # 15
    frequency:   10.7375731796
  - # 16
    frequency:   14.1768375063
  - # 17
    frequency:   14.8112633999
  - # 18
    frequency:   17.5792705489

- q-position: [    0.1363636,    0.0000000,    0.0000000 ]
  distance:    0.0453918
  band:
  - # 1
    frequency:   -0.6066550311
  - # 2
    frequency:    0.8601998925
  - # 3
    frequency:    1.6493034694
  - # 4
    frequency:    1.9648562878
  - # 5
    frequency:    2.6562688782
  - # 6
    frequency:    3.0405134739
  - # 7
    frequency:    3.6702081729
  - # 8
    frequency:    4.3199191191
  - # 9
    frequency:    5.4188702272
  - # 10
    frequency:    5.5505209252
  - # 11
    frequency:    7.3744117325
  - # 12
    frequency:    8.1187159914
  - # 13
    frequency:    8.7745060066
  - # 14
    frequency:   10.2865892764
  - # 15
    frequency:   10.7479308667
  - # 16
    frequency:   14.3646512223
  - # 17
    frequency:   14.8093055437
  - # 18
    frequency:   17.5217012681

- q-position: [    0.1414141,    0.0000000,    0.0000000 ]
  distance:    0.0470730
  band:
  - # 1
    frequency:   -0.5181867701
  - # 2
    frequency:    0.9266845965
  - # 3
    frequency:    1.7040575702
  - # 4
    frequency:    2.0543663704
  - # 5
    frequency:    2.7383430269
  - # 6
    frequency:    3.0613925336
  - # 7
    frequency:    3.6940125259
  - # 8
    frequency:    4.3427089527
  - # 9
    frequency:    5.4264575895
  - # 10
    frequency:    5.5763117113
  - # 11
    frequency:    7.3845747339
  - # 12
    frequency:    8.1148664047
  - # 13
    frequency:    8.7882976179
  - # 14
    frequency:   10.2469984905
  - # 15
    frequency:   10.7577587150
  - # 16
    frequency:   14.5357894399
  - # 17
    frequency:   14.8198226566
  - # 18
    frequency:   17.4635906924

- q-position: [    0.1464646,    0.0000000,    0.0000000 ]
  distance:    0.0487541
  band:
  - # 1
    frequency:   -0.4086025155
  - # 2
    frequency:    0.9930099453
  - # 3
    frequency:    1.7580310059
  - # 4
    frequency:    2.1419104134
  - # 5
    frequency:    2.8180450042
  - # 6
    frequency:    3.0827029636
  - # 7
    frequency:    3.7147946812
  - # 8
    frequency:    4.3673884413
  - # 9
    frequency:    5.4339784619
  - # 10
    frequency:    5.6044032390
  - # 11
    frequency:    7.3956602611
  - # 12
    frequency:    8.1101206787
  - # 13
    frequency:    8.8012197744
  - # 14
    frequency:   10.2066252744
  - # 15
    frequency:   10.7670061820
  - # 16
    frequency:   14.6582506504
  - # 17
    frequency:   14.8741291007
  - # 18
    frequency:   17.4051541453

- q-position: [    0.1515152,    0.0000000,    0.0000000 ]
  distance:    0.0504353
  band:
  - # 1
    frequency:   -0.2519203974
  - # 2
    frequency:    1.0592671266
  - # 3
    frequency:    1.8111895570
  - # 4
    frequency:    2.2276194893
  - # 5
    frequency:    2.8952688911
  - # 6
    frequency:    3.1044328115
  - # 7
    frequency:    3.7328269405
  - # 8
    frequency:    4.3935465273
  - # 9
    frequency:    5.4414109518
  - # 10
    frequency:    5.6349507768
  - # 11
    frequency:    7.4077029594
  - # 12
    frequency:    8.1044552001
  - # 13
    frequency:    8.8133152140
  - # 14
    frequency:   10.1655665402
  - # 15
    frequency:   10.7756287176
  - # 16
    frequency:   14.7020038524
  - # 17
    frequency:   15.0015892263
  - # 18
    frequency:   17.3466395486

- q-position: [    0.1565657,    0.0000000,    0.0000000 ]
  distance:    0.0521165
  band:
  - # 1
    frequency:    0.2045488417
  - # 2
    frequency:    1.1255090689
  - # 3
    frequency:    1.8634994685
  - # 4
    frequency:    2.3115988032
  - # 5
    frequency:    2.9699060332
  - # 6
    frequency:    3.1265722258
  - # 7
    frequency:    3.7484616671
  - # 8
    frequency:    4.4207252471
  - # 9
    frequency:    5.4487345826
  - # 10
    frequency:    5.6680827140
  - # 11
    frequency:    7.4207363092
  - # 12
    frequency:    8.0978514125
  - # 13
    frequency:    8.8246159137
  - # 14
    frequency:   10.1239251017
  - # 15
    frequency:   10.7835880787
  - # 16
    frequency:   14.7087480791
  - # 17
    frequency:   15.1598408180
  - # 18
    frequency:   17.2883414508

- q-position: [    0.1616162,    0.0000000,    0.0000000 ]
  distance:    0.0537977
  band:
  - # 1
    frequency:    0.3857942287
  - # 2
    frequency:    1.1917623971
  - # 3
    frequency:    1.9149275364
  - # 4
    frequency:    2.3939323134
  - # 5
    frequency:    3.0418405365
  - # 6
    frequency:    3.1491134031
  - # 7
    frequency:    3.7621046867
  - # 8
    frequency:    4.4484598857
  - # 9
    frequency:    5.4559304383
  - # 10
    frequency:    5.7038906741
  - # 11
    frequency:    7.4347926526
  - # 12
    frequency:    8.0902959281
  - # 13
    frequency:    8.8351428720
  - # 14
    frequency:   10.0818106925
  - # 15
    frequency:   10.7908525628
  - # 16
    frequency:   14.7049781058
  - # 17
    frequency:   15.3217045999
  - # 18
    frequency:   17.2306229249

- q-position: [    0.1666667,    0.0000000,    0.0000000 ]
  distance:    0.0554788
  band:
  - # 1
    frequency:    0.5073533002
  - # 2
    frequency:    1.2580351821
  - # 3
    frequency:    1.9654412154
  - # 4
    frequency:    2.4746862570
  - # 5
    frequency:    3.1109433944
  - # 6
    frequency:    3.1720504921
  - # 7
    frequency:    3.7741937304
  - # 8
    frequency:    4.4763147952
  - # 9
    frequency:    5.4629813016
  - # 10
    frequency:    5.7424204956
  - # 11
    frequency:    7.4499032071
  - # 12
    frequency:    8.0817806335
  - # 13
    frequency:    8.8449056481
  - # 14
    frequency:   10.0393411639
  - # 15
    frequency:   10.7973971594
  - # 16
    frequency:   14.6973869905
  - # 17
    frequency:   15.4797440375
  - # 18
    frequency:   17.1739504786

- q-position: [    0.1717172,    0.0000000,    0.0000000 ]
  distance:    0.0571600
  band:
  - # 1
    frequency:    0.6061606654
  - # 2
    frequency:    1.3243221020
  - # 3
    frequency:    2.0150087530
  - # 4
    frequency:    2.5539117848
  - # 5
    frequency:    3.1770650877
  - # 6
    frequency:    3.1953794521
  - # 7
    frequency:    3.7851852524
  - # 8
    frequency:    4.5039107173
  - # 9
    frequency:    5.4698717868
  - # 10
    frequency:    5.7836650956
  - # 11
    frequency:    7.4660980434
  - # 12
    frequency:    8.0723027868
  - # 13
    frequency:    8.8539015914
  - # 14
    frequency:    9.9966439219
  - # 15
    frequency:   10.8032036175
  - # 16
    frequency:   14.6879728231
  - # 17
    frequency:   15.6310992101
  - # 18
    frequency:   17.1189508483

- q-position: [    0.1767677,    0.0000000,    0.0000000 ]
  distance:    0.0588412
  band:
  - # 1
    frequency:    0.6919443399
  - # 2
    frequency:    1.3906079588
  - # 3
    frequency:    2.0635993523
  - # 4
    frequency:    2.6316468428
  - # 5
    frequency:    3.2190978652
  - # 6
    frequency:    3.2400267198
  - # 7
    frequency:    3.7955501332
  - # 8
    frequency:    4.5309422048
  - # 9
    frequency:    5.4765884672
  - # 10
    frequency:    5.8275601037
  - # 11
    frequency:    7.4834060031
  - # 12
    frequency:    8.0618651056
  - # 13
    frequency:    8.8621146936
  - # 14