nqpoint: 300    
npath: 3      
segment_nqpoint:
- 100
- 100
- 100
labels:
- [ 'G', 'M' ]
- [ 'M', 'K' ]
- [ 'K', 'G' ]
reciprocal_lattice:
- [   0.29332626,   0.16935200,   0.00000000 ] # a*
- [   0.00000000,   0.33870399,   0.00000000 ] # b*
- [   0.00000000,   0.00000000,   0.03673793 ] # c*
natom: 8      
lattice:
- [     3.409173093467134,     0.000000000000000,     0.000000000000000 ] # a
- [    -1.704586546733567,     2.952430504840803,     0.000000000000000 ] # b
- [     0.000000000000000,     0.000000000000000,    27.219825291405208 ] # c
points:
- symbol: C # 1
  coordinates: [  0.333332985432215,  0.666666983183674,  0.625111624275007 ]
  mass: 12.010700
- symbol: C # 2
  coordinates: [  0.666666984744048,  0.333332985985145,  0.387693882269270 ]
  mass: 12.010700
- symbol: N # 3
  coordinates: [  0.000000000000000,  0.000000000000000,  0.527391567675463 ]
  mass: 14.006700
- symbol: N # 4
  coordinates: [  0.333332985432215,  0.666666983183674,  0.669358641958595 ]
  mass: 14.006700
- symbol: N # 5
  coordinates: [  0.666666984744048,  0.333332985985145,  0.433757705604447 ]
  mass: 14.006700
- symbol: S # 6
  coordinates: [  0.666666984744048,  0.333332985985145,  0.330641358041405 ]
  mass: 32.065000
- symbol: Zr # 7
  coordinates: [  0.333332985432215,  0.666666983183674,  0.484798999459690 ]
  mass: 91.224000
- symbol: Zr # 8
  coordinates: [  0.666666984744048,  0.333332985985145,  0.570286744808428 ]
  mass: 91.224000

phonon:
- q-position: [    0.0000000,    0.0000000,    0.0000000 ]
  distance:    0.0000000
  band:
  - # 1
    frequency:   -3.6126481022
  - # 2
    frequency:   -3.6126481022
  - # 3
    frequency:   -0.0000020066
  - # 4
    frequency:    0.0000001011
  - # 5
    frequency:    0.0000012292
  - # 6
    frequency:    0.9899870222
  - # 7
    frequency:    0.9899870222
  - # 8
    frequency:    3.0719255552
  - # 9
    frequency:    3.0719255553
  - # 10
    frequency:    5.2974922698
  - # 11
    frequency:    5.8069355156
  - # 12
    frequency:    5.8069355156
  - # 13
    frequency:    6.4803183374
  - # 14
    frequency:    6.4803183374
  - # 15
    frequency:    7.4495891297
  - # 16
    frequency:    8.5129765425
  - # 17
    frequency:   13.8796798356
  - # 18
    frequency:   13.8796798356
  - # 19
    frequency:   13.8919351469
  - # 20
    frequency:   15.3683846711
  - # 21
    frequency:   15.3683846711
  - # 22
    frequency:   26.9358379320
  - # 23
    frequency:   56.5170292389
  - # 24
    frequency:   60.3131943506

- q-position: [    0.0050505,    0.0000000,    0.0000000 ]
  distance:    0.0017106
  band:
  - # 1
    frequency:   -3.6123868949
  - # 2
    frequency:   -3.6122292720
  - # 3
    frequency:    0.0012656261
  - # 4
    frequency:    0.0474500089
  - # 5
    frequency:    0.1028426987
  - # 6
    frequency:    0.9910116715
  - # 7
    frequency:    0.9940978226
  - # 8
    frequency:    3.0713264130
  - # 9
    frequency:    3.0714695918
  - # 10
    frequency:    5.2964632607
  - # 11
    frequency:    5.8076437020
  - # 12
    frequency:    5.8085287245
  - # 13
    frequency:    6.4804035348
  - # 14
    frequency:    6.4812565476
  - # 15
    frequency:    7.4493379543
  - # 16
    frequency:    8.5126924322
  - # 17
    frequency:   13.8793782764
  - # 18
    frequency:   13.8797154128
  - # 19
    frequency:   13.8919032273
  - # 20
    frequency:   15.3679527153
  - # 21
    frequency:   15.3684504692
  - # 22
    frequency:   26.9357704246
  - # 23
    frequency:   56.5166459572
  - # 24
    frequency:   60.3132314401

- q-position: [    0.0101010,    0.0000000,    0.0000000 ]
  distance:    0.0034213
  band:
  - # 1
    frequency:   -3.6116062170
  - # 2
    frequency:   -3.6109764672
  - # 3
    frequency:    0.0050267826
  - # 4
    frequency:    0.0947727150
  - # 5
    frequency:    0.2053984178
  - # 6
    frequency:    0.9940811621
  - # 7
    frequency:    1.0063535675
  - # 8
    frequency:    3.0695415692
  - # 9
    frequency:    3.0701057666
  - # 10
    frequency:    5.2934138546
  - # 11
    frequency:    5.8097642571
  - # 12
    frequency:    5.8132758825
  - # 13
    frequency:    6.4806592657
  - # 14
    frequency:    6.4840562400
  - # 15
    frequency:    7.4485863110
  - # 16
    frequency:    8.5118409232
  - # 17
    frequency:   13.8783389600
  - # 18
    frequency:   13.8798221470
  - # 19
    frequency:   13.8919428900
  - # 20
    frequency:   15.3666572470
  - # 21
    frequency:   15.3686469918
  - # 22
    frequency:   26.9355680005
  - # 23
    frequency:   56.5154963604
  - # 24
    frequency:   60.3133424770

- q-position: [    0.0151515,    0.0000000,    0.0000000 ]
  distance:    0.0051319
  band:
  - # 1
    frequency:   -3.6103149099
  - # 2
    frequency:   -3.6089006925
  - # 3
    frequency:    0.0111813455
  - # 4
    frequency:    0.1418418827
  - # 5
    frequency:    0.3073748636
  - # 6
    frequency:    0.9991820195
  - # 7
    frequency:    1.0265357993
  - # 8
    frequency:    3.0666087866
  - # 9
    frequency:    3.0678463097
  - # 10
    frequency:    5.2884522977
  - # 11
    frequency:    5.8132852025
  - # 12
    frequency:    5.8210836513
  - # 13
    frequency:    6.4810859464
  - # 14
    frequency:    6.4886732469
  - # 15
    frequency:    7.4473398557
  - # 16
    frequency:    8.5104244715
  - # 17
    frequency:   13.8762602472
  - # 18
    frequency:   13.8800000438
  - # 19
    frequency:   13.8923581365
  - # 20
    frequency:   15.3644994620
  - # 21
    frequency:   15.3689716024
  - # 22
    frequency:   26.9352309540
  - # 23
    frequency:   56.5135811940
  - # 24
    frequency:   60.3135267666

- q-position: [    0.0202020,    0.0000000,    0.0000000 ]
  distance:    0.0068425
  band:
  - # 1
    frequency:   -3.6085277402
  - # 2
    frequency:   -3.6060201173
  - # 3
    frequency:    0.0195798186
  - # 4
    frequency:    0.1885334751
  - # 5
    frequency:    0.4084699225
  - # 6
    frequency:    1.0062914363
  - # 7
    frequency:    1.0543151539
  - # 8
    frequency:    3.0625910353
  - # 9
    frequency:    3.0647117183
  - # 10
    frequency:    5.2817450091
  - # 11
    frequency:    5.8181866908
  - # 12
    frequency:    5.8318086924
  - # 13
    frequency:    6.4816842734
  - # 14
    frequency:    6.4950360521
  - # 15
    frequency:    7.4456080350
  - # 16
    frequency:    8.5084471373
  - # 17
    frequency:   13.8729068748
  - # 18
    frequency:   13.8802491032
  - # 19
    frequency:   13.8933882147
  - # 20
    frequency:   15.3614813505
  - # 21
    frequency:   15.3694198355
  - # 22
    frequency:   26.9347597751
  - # 23
    frequency:   56.5109017011
  - # 24
    frequency:   60.3137831539

- q-position: [    0.0252525,    0.0000000,    0.0000000 ]
  distance:    0.0085531
  band:
  - # 1
    frequency:   -3.6062654428
  - # 2
    frequency:   -3.6023598223
  - # 3
    frequency:    0.0300487095
  - # 4
    frequency:    0.2347269042
  - # 5
    frequency:    0.5083691281
  - # 6
    frequency:    1.0153767334
  - # 7
    frequency:    1.0892923195
  - # 8
    frequency:    3.0575765037
  - # 9
    frequency:    3.0607309272
  - # 10
    frequency:    5.2734997704
  - # 11
    frequency:    5.8244411779
  - # 12
    frequency:    5.8452720363
  - # 13
    frequency:    6.4824552270
  - # 14
    frequency:    6.5030487389
  - # 15
    frequency:    7.4434041120
  - # 16
    frequency:    8.5059145373
  - # 17
    frequency:   13.8682224729
  - # 18
    frequency:   13.8805693061
  - # 19
    frequency:   13.8950951701
  - # 20
    frequency:   15.3576056917
  - # 21
    frequency:   15.3699852933
  - # 22
    frequency:   26.9341551490
  - # 23
    frequency:   56.5074596241
  - # 24
    frequency:   60.3141100268

- q-position: [    0.0303030,    0.0000000,    0.0000000 ]
  distance:    0.0102638
  band:
  - # 1
    frequency:   -3.6035547729
  - # 2
    frequency:   -3.5979514546
  - # 3
    frequency:    0.0424131949
  - # 4
    frequency:    0.2803064401
  - # 5
    frequency:    0.6067469559
  - # 6
    frequency:    1.0263945840
  - # 7
    frequency:    1.1310376495
  - # 8
    frequency:    3.0516785386
  - # 9
    frequency:    3.0559415455
  - # 10
    frequency:    5.2639484831
  - # 11
    frequency:    5.8320136600
  - # 12
    frequency:    5.8612732838
  - # 13
    frequency:    6.4834000760
  - # 14
    frequency:    6.5125947595
  - # 15
    frequency:    7.4407451937
  - # 16
    frequency:    8.5028337789
  - # 17
    frequency:   13.8622518908
  - # 18
    frequency:   13.8809605958
  - # 19
    frequency:   13.8974416113
  - # 20
    frequency:   15.3528760464
  - # 21
    frequency:   15.3706595063
  - # 22
    frequency:   26.9334179549
  - # 23
    frequency:   56.5032572057
  - # 24
    frequency:   60.3145053215

- q-position: [    0.0353535,    0.0000000,    0.0000000 ]
  distance:    0.0119744
  band:
  - # 1
    frequency:   -3.6004285616
  - # 2
    frequency:   -3.5928327980
  - # 3
    frequency:    0.0565146244
  - # 4
    frequency:    0.3251627907
  - # 5
    frequency:    0.7032746305
  - # 6
    frequency:    1.0392900034
  - # 7
    frequency:    1.1791192705
  - # 8
    frequency:    3.0450354453
  - # 9
    frequency:    3.0503901560
  - # 10
    frequency:    5.2533324343
  - # 11
    frequency:    5.8408619734
  - # 12
    frequency:    5.8796019925
  - # 13
    frequency:    6.4845203815
  - # 14
    frequency:    6.5235412470
  - # 15
    frequency:    7.4376522500
  - # 16
    frequency:    8.4992133797
  - # 17
    frequency:   13.8550569995
  - # 18
    frequency:   13.8814228539
  - # 19
    frequency:   13.9003750164
  - # 20
    frequency:   15.3472967464
  - # 21
    frequency:   15.3714317643
  - # 22
    frequency:   26.9325492652
  - # 23
    frequency:   56.4982971916
  - # 24
    frequency:   60.3149665291

- q-position: [    0.0404040,    0.0000000,    0.0000000 ]
  distance:    0.0136850
  band:
  - # 1
    frequency:   -3.5969257647
  - # 2
    frequency:   -3.5870472690
  - # 3
    frequency:    0.0722214330
  - # 4
    frequency:    0.3691948291
  - # 5
    frequency:    0.7976375280
  - # 6
    frequency:    1.0539951340
  - # 7
    frequency:    1.2331127066
  - # 8
    frequency:    3.0378100676
  - # 9
    frequency:    3.0441326741
  - # 10
    frequency:    5.2418914552
  - # 11
    frequency:    5.8509371499
  - # 12
    frequency:    5.9000451493
  - # 13
    frequency:    6.4858180016
  - # 14
    frequency:    6.5357436002
  - # 15
    frequency:    7.4341501133
  - # 16
    frequency:    8.4950631748
  - # 17
    frequency:   13.8466900286
  - # 18
    frequency:   13.8819558719
  - # 19
    frequency:   13.9038545167
  - # 20
    frequency:   15.3408728804
  - # 21
    frequency:   15.3722889240
  - # 22
    frequency:   26.9315503439
  - # 23
    frequency:   56.4925828328
  - # 24
    frequency:   60.3154907038

- q-position: [    0.0454545,    0.0000000,    0.0000000 ]
  distance:    0.0153956
  band:
  - # 1
    frequency:   -3.5930914953
  - # 2
    frequency:   -3.5806433457
  - # 3
    frequency:    0.0894341943
  - # 4
    frequency:    0.4123113962
  - # 5
    frequency:    0.8895640145
  - # 6
    frequency:    1.0704278994
  - # 7
    frequency:    1.2925894901
  - # 8
    frequency:    3.0301890583
  - # 9
    frequency:    3.0372347544
  - # 10
    frequency:    5.2298570330
  - # 11
    frequency:    5.8621838247
  - # 12
    frequency:    5.9223909055
  - # 13
    frequency:    6.4872950935
  - # 14
    frequency:    6.5490501149
  - # 15
    frequency:    7.4302674421
  - # 16
    frequency:    8.4903942131
  - # 17
    frequency:   13.8371929665
  - # 18
    frequency:   13.8825593187
  - # 19
    frequency:   13.9078516231
  - # 20
    frequency:   15.3336102751
  - # 21
    frequency:   15.3732152018
  - # 22
    frequency:   26.9304226452
  - # 23
    frequency:   56.4861178885
  - # 24
    frequency:   60.3160744726

- q-position: [    0.0505051,    0.0000000,    0.0000000 ]
  distance:    0.0171063
  band:
  - # 1
    frequency:   -3.5889770281
  - # 2
    frequency:   -3.5736739382
  - # 3
    frequency:    0.1080865282
  - # 4
    frequency:    0.4544330582
  - # 5
    frequency:    0.9788632932
  - # 6
    frequency:    1.0884906548
  - # 7
    frequency:    1.3570884727
  - # 8
    frequency:    3.0223817502
  - # 9
    frequency:    3.0297722342
  - # 10
    frequency:    5.2174486850
  - # 11
    frequency:    5.8745406903
  - # 12
    frequency:    5.9464294323
  - # 13
    frequency:    6.4889541130
  - # 14
    frequency:    6.5633065015
  - # 15
    frequency:    7.4260366318
  - # 16
    frequency:    8.4852186481
  - # 17
    frequency:   13.8266017373
  - # 18
    frequency:   13.8832327030
  - # 19
    frequency:   13.9123461748
  - # 20
    frequency:   15.3255154718
  - # 21
    frequency:   15.3741919595
  - # 22
    frequency:   26.9291678115
  - # 23
    frequency:   56.4789066298
  - # 24
    frequency:   60.3167140470

- q-position: [    0.0555556,    0.0000000,    0.0000000 ]
  distance:    0.0188169
  band:
  - # 1
    frequency:   -3.5846397628
  - # 2
    frequency:   -3.5661957070
  - # 3
    frequency:    0.1281436036
  - # 4
    frequency:    0.4954936516
  - # 5
    frequency:    1.0654627424
  - # 6
    frequency:    1.1080690131
  - # 7
    frequency:    1.4260814190
  - # 8
    frequency:    3.0146185430
  - # 9
    frequency:    3.0218315906
  - # 10
    frequency:    5.2048726686
  - # 11
    frequency:    5.8879409900
  - # 12
    frequency:    5.9719519090
  - # 13
    frequency:    6.4907978097
  - # 14
    frequency:    6.5783602039
  - # 15
    frequency:    7.4214936493
  - # 16
    frequency:    8.4795496239
  - # 17
    frequency:   13.8149496637
  - # 18
    frequency:   13.8839753335
  - # 19
    frequency:   13.9173229928
  - # 20
    frequency:   15.3165956970
  - # 21
    frequency:   15.3751974920
  - # 22
    frequency:   26.9277876720
  - # 23
    frequency:   56.4709538431
  - # 24
    frequency:   60.3174052357

- q-position: [    0.0606061,    0.0000000,    0.0000000 ]
  distance:    0.0205275
  band:
  - # 1
    frequency:   -3.5801431343
  - # 2
    frequency:   -3.5582683328
  - # 3
    frequency:    0.1495995231
  - # 4
    frequency:    0.5354414222
  - # 5
    frequency:    1.1290310670
  - # 6
    frequency:    1.1494294762
  - # 7
    frequency:    1.4989502152
  - # 8
    frequency:    3.0071487300
  - # 9
    frequency:    3.0135103830
  - # 10
    frequency:    5.1923221746
  - # 11
    frequency:    5.9023130448
  - # 12
    frequency:    5.9987485057
  - # 13
    frequency:    6.4928292175
  - # 14
    frequency:    6.5940644973
  - # 15
    frequency:    7.4166777709
  - # 16
    frequency:    8.4734011620
  - # 17
    frequency:   13.8022696953
  - # 18
    frequency:   13.8847862744
  - # 19
    frequency:   13.9227697541
  - # 20
    frequency:   15.3068588264
  - # 21
    frequency:   15.3762068273
  - # 22
    frequency:   26.9262842401
  - # 23
    frequency:   56.4622648341
  - # 24
    frequency:   60.3181434596

- q-position: [    0.0656566,    0.0000000,    0.0000000 ]
  distance:    0.0222381
  band:
  - # 1
    frequency:   -3.5755564540
  - # 2
    frequency:   -3.5499537400
  - # 3
    frequency:    0.1724743237
  - # 4
    frequency:    0.5742395630
  - # 5
    frequency:    1.1512272415
  - # 6
    frequency:    1.2309632331
  - # 7
    frequency:    1.5749902809
  - # 8
    frequency:    3.0002377099
  - # 9
    frequency:    3.0049176388
  - # 10
    frequency:    5.1799783512
  - # 11
    frequency:    5.9175808086
  - # 12
    frequency:    6.0266059672
  - # 13
    frequency:    6.4950516367
  - # 14
    frequency:    6.6102823969
  - # 15
    frequency:    7.4116311948
  - # 16
    frequency:    8.4667880502
  - # 17
    frequency:   13.7885957575
  - # 18
    frequency:   13.8856642994
  - # 19
    frequency:   13.9286757222
  - # 20
    frequency:   15.2963133424
  - # 21
    frequency:   15.3771915454
  - # 22
    frequency:   26.9246597116
  - # 23
    frequency:   56.4528454324
  - # 24
    frequency:   60.3189237680

- q-position: [    0.0707071,    0.0000000,    0.0000000 ]
  distance:    0.0239488
  band:
  - # 1
    frequency:   -3.5709546719
  - # 2
    frequency:   -3.5413152747
  - # 3
    frequency:    0.1968108688
  - # 4
    frequency:    0.6118660027
  - # 5
    frequency:    1.1744909860
  - # 6
    frequency:    1.3103601375
  - # 7
    frequency:    1.6534418965
  - # 8
    frequency:    2.9941635453
  - # 9
    frequency:    2.9961741290
  - # 10
    frequency:    5.1680117008
  - # 11
    frequency:    5.9336644437
  - # 12
    frequency:    6.0553051619
  - # 13
    frequency:    6.4974686076
  - # 14
    frequency:    6.6268904353
  - # 15
    frequency:    7.4063985066
  - # 16
    frequency:    8.4597257378
  - # 17
    frequency:   13.7739635547
  - # 18
    frequency:   13.8866078425
  - # 19
    frequency:   13.9350309977
  - # 20
    frequency:   15.2849682837
  - # 21
    frequency:   15.3781196270
  - # 22
    frequency:   26.9229164621
  - # 23
    frequency:   56.4427019961
  - # 24
    frequency:   60.3197408569

- q-position: [    0.0757576,    0.0000000,    0.0000000 ]
  distance:    0.0256594
  band:
  - # 1
    frequency:   -3.5664180430
  - # 2
    frequency:   -3.5324168352
  - # 3
    frequency:    0.2226716112
  - # 4
    frequency:    0.6483123701
  - # 5
    frequency:    1.1986404569
  - # 6
    frequency:    1.3879610224
  - # 7
    frequency:    1.7335366160
  - # 8
    frequency:    2.9874124623
  - # 9
    frequency:    2.9892128619
  - # 10
    frequency:    5.1565835566
  - # 11
    frequency:    5.9504809127
  - # 12
    frequency:    6.0846187951
  - # 13
    frequency:    6.5000838725
  - # 14
    frequency:    6.6437823658
  - # 15
    frequency:    7.4010259749
  - # 16
    frequency:    8.4522302401
  - # 17
    frequency:   13.7584110376
  - # 18
    frequency:   13.8876149471
  - # 19
    frequency:   13.9418260690
  - # 20
    frequency:   15.2728331884
  - # 21
    frequency:   15.3789553389
  - # 22
    frequency:   26.9210570450
  - # 23
    frequency:   56.4318414162
  - # 24
    frequency:   60.3205890891

- q-position: [    0.0808081,    0.0000000,    0.0000000 ]
  distance:    0.0273700
  band:
  - # 1
    frequency:   -3.5620316878
  - # 2
    frequency:   -3.5233219543
  - # 3
    frequency:    0.2501350652
  - # 4
    frequency:    0.6835821700
  - # 5
    frequency:    1.2234812520
  - # 6
    frequency:    1.4641027748
  - # 7
    frequency:    1.8145408814
  - # 8
    frequency:    2.9787769132
  - # 9
    frequency:    2.9856761036
  - # 10
    frequency:    5.1458474487
  - # 11
    frequency:    5.9679445807
  - # 12
    frequency:    6.1143093897
  - # 13
    frequency:    6.5029013234
  - # 14
    frequency:    6.6608728153
  - # 15
    frequency:    7.3955606635
  - # 16
    frequency:    8.4443180537
  - # 17
    frequency:   13.7419786597
  - # 18
    frequency:   13.8886832140
  - # 19
    frequency:   13.9490515400
  - # 20
    frequency:   15.2599180281
  - # 21
    frequency:   15.3796591626
  - # 22
    frequency:   26.9190841882
  - # 23
    frequency:   56.4202711217
  - # 24
    frequency:   60.3214625157

- q-position: [    0.0858586,    0.0000000,    0.0000000 ]
  distance:    0.0290806
  band:
  - # 1
    frequency:   -3.5578850362
  - # 2
    frequency:   -3.5140928323
  - # 3
    frequency:    0.2792918082
  - # 4
    frequency:    0.7176883111
  - # 5
    frequency:    1.2488101686
  - # 6
    frequency:    1.5390848765
  - # 7
    frequency:    1.8957850526
  - # 8
    frequency:    2.9704228828
  - # 9
    frequency:    2.9838421813
  - # 10
    frequency:    5.1359502414
  - # 11
    frequency:    5.9859678257
  - # 12
    frequency:    6.1441276316
  - # 13
    frequency:    6.5059249338
  - # 14
    frequency:    6.6781008386
  - # 15
    frequency:    7.3900493568
  - # 16
    frequency:    8.4360060870
  - # 17
    frequency:   13.7247094884
  - # 18
    frequency:   13.8898097476
  - # 19
    frequency:   13.9566979596
  - # 20
    frequency:   15.2462331363
  - # 21
    frequency:   15.3801877741
  - # 22
    frequency:   26.9170007917
  - # 23
    frequency:   56.4079990851
  - # 24
    frequency:   60.3223548993

- q-position: [    0.0909091,    0.0000000,    0.0000000 ]
  distance:    0.0307913
  band:
  - # 1
    frequency:   -3.5540711429
  - # 2
    frequency:   -3.5047893247
  - # 3
    frequency:    0.3102398939
  - # 4
    frequency:    0.7506502190
  - # 5
    frequency:    1.2744198734
  - # 6
    frequency:    1.6131534732
  - # 7
    frequency:    1.9766758143
  - # 8
    frequency:    2.9625158786
  - # 9
    frequency:    2.9839925609
  - # 10
    frequency:    5.1270329560
  - # 11
    frequency:    6.0044616508
  - # 12
    frequency:    6.1738112293
  - # 13
    frequency:    6.5091586697
  - # 14
    frequency:    6.6954332084
  - # 15
    frequency:    7.3845373162
  - # 16
    frequency:    8.4273116062
  - # 17
    frequency:   13.7066492137
  - # 18
    frequency:   13.8909911020
  - # 19
    frequency:   13.9647557123
  - # 20
    frequency:   15.2317891301
  - # 21
    frequency:   15.3804940796
  - # 22
    frequency:   26.9148099249
  - # 23
    frequency:   56.3950338268
  - # 24
    frequency:   60.3232597396

- q-position: [    0.0959596,    0.0000000,    0.0000000 ]
  distance:    0.0325019
  band:
  - # 1
    frequency:   -3.5506858705
  - # 2
    frequency:   -3.4954678902
  - # 3
    frequency:    0.3430796822
  - # 4
    frequency:    0.7824908167
  - # 5
    frequency:    1.3001043231
  - # 6
    frequency:    1.6864988885
  - # 7
    frequency:    2.0566963044
  - # 8
    frequency:    2.9552298996
  - # 9
    frequency:    2.9863948231
  - # 10
    frequency:    5.1192312174
  - # 11
    frequency:    6.0233362992
  - # 12
    frequency:    6.2030845599
  - # 13
    frequency:    6.5126063782
  - # 14
    frequency:    6.7128671139
  - # 15
    frequency:    7.3790669061
  - # 16
    frequency:    8.4182522005
  - # 17
    frequency:   13.6878460745
  - # 18
    frequency:   13.8922232255
  - # 19
    frequency:   13.9732149450
  - # 20
    frequency:   15.2165968255
  - # 21
    frequency:   15.3805273106
  - # 22
    frequency:   26.9125148228
  - # 23
    frequency:   56.3813844210
  - # 24
    frequency:   60.3241703000

- q-position: [    0.1010101,    0.0000000,    0.0000000 ]
  distance:    0.0342125
  band:
  - # 1
    frequency:   -3.5478269342
  - # 2
    frequency:   -3.4861805130
  - # 3
    frequency:    0.3779082199
  - # 4
    frequency:    0.8132336662
  - # 5
    frequency:    1.3256647483
  - # 6
    frequency:    1.7592608656
  - # 7
    frequency:    2.1353999632
  - # 8
    frequency:    2.9487451170
  - # 9
    frequency:    2.9912956935
  - # 10
    frequency:    5.1126752695
  - # 11
    frequency:    6.0425018697
  - # 12
    frequency:    6.2316595325
  - # 13
    frequency:    6.5162716480
  - # 14
    frequency:    6.7304317405
  - # 15
    frequency:    7.3736761588
  - # 16
    frequency:    8.4088457673
  - # 17
    frequency:   13.6683507196
  - # 18
    frequency:   13.8935014052
  - # 19
    frequency:   13.9820655142
  - # 20
    frequency:   15.2006671507
  - # 21
    frequency:   15.3802331835
  - # 22
    frequency:   26.9101188831
  - # 23
    frequency:   56.3670605004
  - # 24
    frequency:   60.3250796363

- q-position: [    0.1060606,    0.0000000,    0.0000000 ]
  distance:    0.0359232
  band:
  - # 1
    frequency:   -3.5455928067
  - # 2
    frequency:   -3.4769736203
  - # 3
    frequency:    0.4148134411
  - # 4
    frequency:    0.8429005365
  - # 5
    frequency:    1.3509160067
  - # 6
    frequency:    1.8315369567
  - # 7
    frequency:    2.2124029993
  - # 8
    frequency:    2.9432447737
  - # 9
    frequency:    2.9989134845
  - # 10
    frequency:    5.1074895137
  - # 11
    frequency:    6.0618689320
  - # 12
    frequency:    6.2592382775
  - # 13
    frequency:    6.5201576392
  - # 14
    frequency:    6.7481879952
  - # 15
    frequency:    7.3683973798
  - # 16
    frequency:    8.3991105203
  - # 17
    frequency:   13.6482160103
  - # 18
    frequency:   13.8948202111
  - # 19
    frequency:   13.9912969448
  - # 20
    frequency:   15.1840110555
  - # 21
    frequency:   15.3795541254
  - # 22
    frequency:   26.9076256620
  - # 23
    frequency:   56.3520722612
  - # 24
    frequency:   60.3259806262

- q-position: [    0.1111111,    0.0000000,    0.0000000 ]
  distance:    0.0376338
  band:
  - # 1
    frequency:   -3.5440814892
  - # 2
    frequency:   -3.4678870221
  - # 3
    frequency:    0.4538685426
  - # 4
    frequency:    0.8715096181
  - # 5
    frequency:    1.3756930938
  - # 6
    frequency:    1.9033912870
  - # 7
    frequency:    2.2873785839
  - # 8
    frequency:    2.9389112706
  - # 9
    frequency:    3.0094298478
  - # 10
    frequency:    5.1037915295
  - # 11
    frequency:    6.0813491440
  - # 12
    frequency:    6.2855183798
  - # 13
    frequency:    6.5242668780
  - # 14
    frequency:    6.7662255045
  - # 15
    frequency:    7.3632559242
  - # 16
    frequency:    8.3890650210
  - # 17
    frequency:   13.6274967718
  - # 18
    frequency:   13.8961734386
  - # 19
    frequency:   14.0008983945
  - # 20
    frequency:   15.1666394227
  - # 21
    frequency:   15.3784295674
  - # 22
    frequency:   26.9050388708
  - # 23
    frequency:   56.3364304686
  - # 24
    frequency:   60.3268660016

- q-position: [    0.1161616,    0.0000000,    0.0000000 ]
  distance:    0.0393444
  band:
  - # 1
    frequency:   -3.5433891534
  - # 2
    frequency:   -3.4589529129
  - # 3
    frequency:    0.4951269313
  - # 4
    frequency:    0.8990745511
  - # 5
    frequency:    1.3998575659
  - # 6
    frequency:    1.9748623594
  - # 7
    frequency:    2.3600543770
  - # 8
    frequency:    2.9359214912
  - # 9
    frequency:    3.0229807475
  - # 10
    frequency:    5.1016905493
  - # 11
    frequency:    6.1008558715
  - # 12
    frequency:    6.3102013158
  - # 13
    frequency:    6.5286010125
  - # 14
    frequency:    6.7846560495
  - # 15
    frequency:    7.3582693005
  - # 16
    frequency:    8.3787282367
  - # 17
    frequency:   13.6062494990
  - # 18
    frequency:   13.8975540501
  - # 19
    frequency:   14.0108586187
  - # 20
    frequency:   15.1485629821
  - # 21
    frequency:   15.3767963071
  - # 22
    frequency:   26.9023623708
  - # 23
    frequency:   56.3201464612
  - # 24
    frequency:   60.3277283809

- q-position: [    0.1212121,    0.0000000,    0.0000000 ]
  distance:    0.0410550
  band:
  - # 1
    frequency:   -3.5436086708
  - # 2
    frequency:   -3.4501949755
  - # 3
    frequency:    0.5386181204
  - # 4
    frequency:    0.9256043960
  - # 5
    frequency:    1.4233035566
  - # 6
    frequency:    2.0459694534
  - # 7
    frequency:    2.4302138577
  - # 8
    frequency:    2.9344415064
  - # 9
    frequency:    3.0396467423
  - # 10
    frequency:    5.1012853770
  - # 11
    frequency:    6.1203048114
  - # 12
    frequency:    6.3330043836
  - # 13
    frequency:    6.5331605274
  - # 14
    frequency:    6.8036029667
  - # 15
    frequency:    7.3534467686
  - # 16
    frequency:    8.3681196258
  - # 17
    frequency:   13.5845320190
  - # 18
    frequency:   13.8989541142
  - # 19
    frequency:   14.0211659346
  - # 20
    frequency:   15.1297922309
  - # 21
    frequency:   15.3745889394
  - # 22
    frequency:   26.8996001690
  - # 23
    frequency:   56.3032321554
  - # 24
    frequency:   60.3285603034

- q-position: [    0.1262626,    0.0000000,    0.0000000 ]
  distance:    0.0427657
  band:
  - # 1
    frequency:   -3.5448280473
  - # 2
    frequency:   -3.4416276379
  - # 3
    frequency:    0.5843448734
  - # 4
    frequency:    0.9511046429
  - # 5
    frequency:    1.4459629759
  - # 6
    frequency:    2.1167176139
  - # 7
    frequency:    2.4977009625
  - # 8
    frequency:    2.9346209223
  - # 9
    frequency:    3.0594430918
  - # 10
    frequency:    5.1026617633
  - # 11
    frequency:    6.1396146190
  - # 12
    frequency:    6.3536756505
  - # 13
    frequency:    6.5379444161
  - # 14
    frequency:    6.8231868145
  - # 15
    frequency:    7.3487895989
  - # 16
    frequency:    8.3572592534
  - # 17
    frequency:   13.5624031141
  - # 18
    frequency:   13.9003647419
  - # 19
    frequency:   14.0318081811
  - # 20
    frequency:   15.1103373656
  - # 21
    frequency:   15.3717403567
  - # 22
    frequency:   26.8967564124
  - # 23
    frequency:   56.2857000502
  - # 24
    frequency:   60.3293542643

- q-position: [    0.1313131,    0.0000000,    0.0000000 ]
  distance:    0.0444763
  band:
  - # 1
    frequency:   -3.5471287906
  - # 2
    frequency:   -3.4332555297
  - # 3
    frequency:    0.6322817772
  - # 4
    frequency:    0.9755793296
  - # 5
    frequency:    1.4678093839
  - # 6
    frequency:    2.1871014050
  - # 7
    frequency:    2.5624265027
  - # 8
    frequency:    2.9365872340
  - # 9
    frequency:    3.0823109541
  - # 10
    frequency:    5.1058892874
  - # 11
    frequency:    6.1587075379
  - # 12
    frequency:    6.3720103722
  - # 13
    frequency:    6.5429498126
  - # 14
    frequency:    6.8435086950
  - # 15
    frequency:    7.3442921410
  - # 16
    frequency:    8.3461679374
  - # 17
    frequency:   13.5399221080
  - # 18
    frequency:   13.9017760175
  - # 19
    frequency:   14.0427726736
  - # 20
    frequency:   15.0902082278
  - # 21
    frequency:   15.3681823148
  - # 22
    frequency:   26.8938353829
  - # 23
    frequency:   56.2675632309
  - # 24
    frequency:   60.3301027510

- q-position: [    0.1363636,    0.0000000,    0.0000000 ]
  distance:    0.0461869
  band:
  - # 1
    frequency:   -3.5505842439
  - # 2
    frequency:   -3.4250731856
  - # 3
    frequency:    0.6823752910
  - # 4
    frequency:    0.9990343067
  - # 5
    frequency:    1.4888599774
  - # 6
    frequency:    2.2571076443
  - # 7