nqpoint: 300    
npath: 3      
segment_nqpoint:
- 100
- 100
- 100
labels:
- [ 'G', 'M' ]
- [ 'M', 'K' ]
- [ 'K', 'G' ]
reciprocal_lattice:
- [   0.30103593,   0.17380317,   0.00000000 ] # a*
- [   0.00000000,   0.34760635,   0.00000000 ] # b*
- [   0.00000000,   0.00000000,   0.03998087 ] # c*
natom: 6      
lattice:
- [     3.321862648063587,     0.000000000000000,     0.000000000000000 ] # a
- [    -1.660931324031793,     2.876817441101046,     0.000000000000000 ] # b
- [     0.000000000000000,     0.000000000000000,    25.011963096499930 ] # c
points:
- symbol: C # 1
  coordinates: [  0.000000000000000,  0.000000000000000,  0.450291662488474 ]
  mass: 12.010700
- symbol: H # 2
  coordinates: [  0.666666984744047,  0.333332985985144,  0.359827813805604 ]
  mass: 1.007940
- symbol: O # 3
  coordinates: [  0.333332985432215,  0.666666983183674,  0.640172186194397 ]
  mass: 15.999400
- symbol: P # 4
  coordinates: [  0.333332985432215,  0.666666983183674,  0.580420996608725 ]
  mass: 30.973762
- symbol: Sc # 5
  coordinates: [  0.333332985432215,  0.666666983183674,  0.399606482514306 ]
  mass: 44.955912
- symbol: Sc # 6
  coordinates: [  0.666666984744047,  0.333332985985144,  0.498661757949059 ]
  mass: 44.955912

phonon:
- q-position: [    0.0000000,    0.0000000,    0.0000000 ]
  distance:    0.0000000
  band:
  - # 1
    frequency:   -0.0000146192
  - # 2
    frequency:   -0.0000004330
  - # 3
    frequency:    0.0000124551
  - # 4
    frequency:    2.2657962744
  - # 5
    frequency:    2.2657962744
  - # 6
    frequency:    4.8427770304
  - # 7
    frequency:    4.8427770304
  - # 8
    frequency:    5.8556405719
  - # 9
    frequency:    6.1198055216
  - # 10
    frequency:    6.1198055216
  - # 11
    frequency:   10.3255692702
  - # 12
    frequency:   12.5018043217
  - # 13
    frequency:   12.5018043217
  - # 14
    frequency:   17.9714537664
  - # 15
    frequency:   25.8390758601
  - # 16
    frequency:   25.8390758602
  - # 17
    frequency:   27.1996127096
  - # 18
    frequency:   34.1842193591

- q-position: [    0.0050505,    0.0000000,    0.0000000 ]
  distance:    0.0017556
  band:
  - # 1
    frequency:    0.0023323684
  - # 2
    frequency:    0.0872011566
  - # 3
    frequency:    0.1313055220
  - # 4
    frequency:    2.2662836414
  - # 5
    frequency:    2.2688535695
  - # 6
    frequency:    4.8429070849
  - # 7
    frequency:    4.8430312326
  - # 8
    frequency:    5.8520110400
  - # 9
    frequency:    6.1201215484
  - # 10
    frequency:    6.1244015152
  - # 11
    frequency:   10.3250146362
  - # 12
    frequency:   12.5020876573
  - # 13
    frequency:   12.5044487446
  - # 14
    frequency:   17.9693570188
  - # 15
    frequency:   25.8385485491
  - # 16
    frequency:   25.8392282686
  - # 17
    frequency:   27.2000161553
  - # 18
    frequency:   34.1839838104

- q-position: [    0.0101010,    0.0000000,    0.0000000 ]
  distance:    0.0035112
  band:
  - # 1
    frequency:    0.0092987864
  - # 2
    frequency:    0.1742523316
  - # 3
    frequency:    0.2623851468
  - # 4
    frequency:    2.2677500543
  - # 5
    frequency:    2.2779947003
  - # 6
    frequency:    4.8432966577
  - # 7
    frequency:    4.8437886814
  - # 8
    frequency:    5.8418241609
  - # 9
    frequency:    6.1210695757
  - # 10
    frequency:    6.1374877835
  - # 11
    frequency:   10.3233529050
  - # 12
    frequency:   12.5029366283
  - # 13
    frequency:   12.5123704075
  - # 14
    frequency:   17.9630727502
  - # 15
    frequency:   25.8369696112
  - # 16
    frequency:   25.8396850262
  - # 17
    frequency:   27.2012229882
  - # 18
    frequency:   34.1832774966

- q-position: [    0.0151515,    0.0000000,    0.0000000 ]
  distance:    0.0052668
  band:
  - # 1
    frequency:    0.0208085699
  - # 2
    frequency:    0.2610009120
  - # 3
    frequency:    0.3930093112
  - # 4
    frequency:    2.2702087108
  - # 5
    frequency:    2.2931301064
  - # 6
    frequency:    4.8439439747
  - # 7
    frequency:    4.8450339402
  - # 8
    frequency:    5.8267055745
  - # 9
    frequency:    6.1226494318
  - # 10
    frequency:    6.1574387319
  - # 11
    frequency:   10.3205905137
  - # 12
    frequency:   12.5043481371
  - # 13
    frequency:   12.5255346299
  - # 14
    frequency:   17.9526188587
  - # 15
    frequency:   25.8343479342
  - # 16
    frequency:   25.8404447313
  - # 17
    frequency:   27.2032228087
  - # 18
    frequency:   34.1821014132

- q-position: [    0.0202020,    0.0000000,    0.0000000 ]
  distance:    0.0070224
  band:
  - # 1
    frequency:    0.0367175839
  - # 2
    frequency:    0.3472889509
  - # 3
    frequency:    0.5229410910
  - # 4
    frequency:    2.2736824821
  - # 5
    frequency:    2.3141191606
  - # 6
    frequency:    4.8448460746
  - # 7
    frequency:    4.8467414038
  - # 8
    frequency:    5.8083728791
  - # 9
    frequency:    6.1248607915
  - # 10
    frequency:    6.1825369509
  - # 11
    frequency:   10.3167379479
  - # 12
    frequency:   12.5063170536
  - # 13
    frequency:   12.5438840599
  - # 14
    frequency:   17.9380250963
  - # 15
    frequency:   25.8306980115
  - # 16
    frequency:   25.8415050521
  - # 17
    frequency:   27.2059986577
  - # 18
    frequency:   34.1804572170

- q-position: [    0.0252525,    0.0000000,    0.0000000 ]
  distance:    0.0087779
  band:
  - # 1
    frequency:    0.0568373729
  - # 2
    frequency:    0.4329503339
  - # 3
    frequency:    0.6519324581
  - # 4
    frequency:    2.2782052294
  - # 5
    frequency:    2.3407819206
  - # 6
    frequency:    4.8459988028
  - # 7
    frequency:    4.8488754829
  - # 8
    frequency:    5.7881921288
  - # 9
    frequency:    6.1277031184
  - # 10
    frequency:    6.2114168789
  - # 11
    frequency:   10.3118094007
  - # 12
    frequency:   12.5088362637
  - # 13
    frequency:   12.5673393200
  - # 14
    frequency:   17.9193329531
  - # 15
    frequency:   25.8260394822
  - # 16
    frequency:   25.8428627341
  - # 17
    frequency:   27.2095275556
  - # 18
    frequency:   34.1783472232

- q-position: [    0.0303030,    0.0000000,    0.0000000 ]
  distance:    0.0105335
  band:
  - # 1
    frequency:    0.0809461404
  - # 2
    frequency:    0.5178077571
  - # 3
    frequency:    0.7797205338
  - # 4
    frequency:    2.2838236459
  - # 5
    frequency:    2.3729134475
  - # 6
    frequency:    4.8473968026
  - # 7
    frequency:    4.8513908623
  - # 8
    frequency:    5.7671278348
  - # 9
    frequency:    6.1311755867
  - # 10
    frequency:    6.2431150123
  - # 11
    frequency:   10.3058223409
  - # 12
    frequency:   12.5118967351
  - # 13
    frequency:   12.5957998595
  - # 14
    frequency:   17.8965955004
  - # 15
    frequency:   25.8203965226
  - # 16
    frequency:   25.8445136099
  - # 17
    frequency:   27.2137812185
  - # 18
    frequency:   34.1757743997

- q-position: [    0.0353535,    0.0000000,    0.0000000 ]
  distance:    0.0122891
  band:
  - # 1
    frequency:    0.1088001592
  - # 2
    frequency:    0.6016694779
  - # 3
    frequency:    0.9060239561
  - # 4
    frequency:    2.2905996125
  - # 5
    frequency:    2.4102990838
  - # 6
    frequency:    4.8490335064
  - # 7
    frequency:    4.8542328377
  - # 8
    frequency:    5.7458369434
  - # 9
    frequency:    6.1352769855
  - # 10
    frequency:    6.2769761730
  - # 11
    frequency:   10.2987970250
  - # 12
    frequency:   12.5154876013
  - # 13
    frequency:   12.6291449711
  - # 14
    frequency:   17.8698771962
  - # 15
    frequency:   25.8137971214
  - # 16
    frequency:   25.8464526117
  - # 17
    frequency:   27.2187269168
  - # 18
    frequency:   34.1727423621

- q-position: [    0.0404040,    0.0000000,    0.0000000 ]
  distance:    0.0140447
  band:
  - # 1
    frequency:    0.1401444623
  - # 2
    frequency:    0.6843258353
  - # 3
    frequency:    1.0305396071
  - # 4
    frequency:    2.2986130253
  - # 5
    frequency:    2.4527291557
  - # 6
    frequency:    4.8509011262
  - # 7
    frequency:    4.8573377356
  - # 8
    frequency:    5.7247699835
  - # 9
    frequency:    6.1400056081
  - # 10
    frequency:    6.3125526203
  - # 11
    frequency:   10.2907559916
  - # 12
    frequency:   12.5195962585
  - # 13
    frequency:   12.6672349239
  - # 14
    frequency:   17.8392536595
  - # 15
    frequency:   25.8062722749
  - # 16
    frequency:   25.8486737867
  - # 17
    frequency:   27.2243284352
  - # 18
    frequency:   34.1692553652

- q-position: [    0.0454545,    0.0000000,    0.0000000 ]
  distance:    0.0158003
  band:
  - # 1
    frequency:    0.1747220180
  - # 2
    frequency:    0.7655455883
  - # 3
    frequency:    1.1529401181
  - # 4
    frequency:    2.3079650032
  - # 5
    frequency:    2.5000117366
  - # 6
    frequency:    4.8529906448
  - # 7
    frequency:    4.8606334288
  - # 8
    frequency:    5.7042448630
  - # 9
    frequency:    6.1453591307
  - # 10
    frequency:    6.3495305027
  - # 11
    frequency:   10.2817235732
  - # 12
    frequency:   12.5242084782
  - # 13
    frequency:   12.7099121682
  - # 14
    frequency:   17.8048114200
  - # 15
    frequency:   25.7978551367
  - # 16
    frequency:   25.8511703158
  - # 17
    frequency:   27.2305470966
  - # 18
    frequency:   34.1653182949

- q-position: [    0.0505051,    0.0000000,    0.0000000 ]
  distance:    0.0175559
  band:
  - # 1
    frequency:    0.2122809719
  - # 2
    frequency:    0.8450722154
  - # 3
    frequency:    1.2728727879
  - # 4
    frequency:    2.3187812955
  - # 5
    frequency:    2.5519822851
  - # 6
    frequency:    4.8552918097
  - # 7
    frequency:    4.8640399638
  - # 8
    frequency:    5.6844948686
  - # 9
    frequency:    6.1513344836
  - # 10
    frequency:    6.3876820617
  - # 11
    frequency:   10.2717254512
  - # 12
    frequency:   12.5293085291
  - # 13
    frequency:   12.7570025722
  - # 14
    frequency:   17.7666476516
  - # 15
    frequency:   25.7885801600
  - # 16
    frequency:   25.8539345348
  - # 17
    frequency:   27.2373428068
  - # 18
    frequency:   34.1609366583

- q-position: [    0.0555556,    0.0000000,    0.0000000 ]
  distance:    0.0193115
  band:
  - # 1
    frequency:    0.2525798748
  - # 2
    frequency:    0.9226204531
  - # 3
    frequency:    1.3899607833
  - # 4
    frequency:    2.3312155781
  - # 5
    frequency:    2.6085090840
  - # 6
    frequency:    4.8577931300
  - # 7
    frequency:    4.8674703254
  - # 8
    frequency:    5.6656987967
  - # 9
    frequency:    6.1579277194
  - # 10
    frequency:    6.4268356267
  - # 11
    frequency:   10.2607882755
  - # 12
    frequency:   12.5348793093
  - # 13
    frequency:   12.8083166534
  - # 14
    frequency:   17.7248698993
  - # 15
    frequency:   25.7784822603
  - # 16
    frequency:   25.8569579585
  - # 17
    frequency:   27.2446750866
  - # 18
    frequency:   34.1561165716

- q-position: [    0.0606061,    0.0000000,    0.0000000 ]
  distance:    0.0210671
  band:
  - # 1
    frequency:    0.2953910520
  - # 2
    frequency:    0.9978735531
  - # 3
    frequency:    1.5038076640
  - # 4
    frequency:    2.3454521261
  - # 5
    frequency:    2.6694934862
  - # 6
    frequency:    4.8604818782
  - # 7
    frequency:    4.8708313674
  - # 8
    frequency:    5.6479997418
  - # 9
    frequency:    6.1651338829
  - # 10
    frequency:    6.4668568332
  - # 11
    frequency:   10.2489393591
  - # 12
    frequency:   12.5409024843
  - # 13
    frequency:   12.8636507801
  - # 14
    frequency:   17.6795958110
  - # 15
    frequency:   25.7675960287
  - # 16
    frequency:   25.8602313078
  - # 17
    frequency:   27.2525040581
  - # 18
    frequency:   34.1508647486

- q-position: [    0.0656566,    0.0000000,    0.0000000 ]
  distance:    0.0228226
  band:
  - # 1
    frequency:    0.3405024071
  - # 2
    frequency:    1.0704819967
  - # 3
    frequency:    1.6140062549
  - # 4
    frequency:    2.3617070981
  - # 5
    frequency:    2.7348641439
  - # 6
    frequency:    4.8633440991
  - # 7
    frequency:    4.8740249446
  - # 8
    frequency:    5.6315168257
  - # 9
    frequency:    6.1729468867
  - # 10
    frequency:    6.5076367450
  - # 11
    frequency:   10.2362064510
  - # 12
    frequency:   12.5473586301
  - # 13
    frequency:   12.9227883167
  - # 14
    frequency:   17.6309528861
  - # 15
    frequency:   25.7559550121
  - # 16
    frequency:   25.8637445397
  - # 17
    frequency:   27.2607913602
  - # 18
    frequency:   34.1451884861

- q-position: [    0.0707071,    0.0000000,    0.0000000 ]
  distance:    0.0245782
  band:
  - # 1
    frequency:    0.3877180027
  - # 2
    frequency:    1.1400646984
  - # 3
    frequency:    1.7201525012
  - # 4
    frequency:    2.3802273738
  - # 5
    frequency:    2.8045648555
  - # 6
    frequency:    4.8663646255
  - # 7
    frequency:    4.8769492811
  - # 8
    frequency:    5.6163524886
  - # 9
    frequency:    6.1813593967
  - # 10
    frequency:    6.5490842252
  - # 11
    frequency:   10.2226175839
  - # 12
    frequency:   12.5542273779
  - # 13
    frequency:   12.9855006962
  - # 14
    frequency:   17.5790782573
  - # 15
    frequency:   25.7435910794
  - # 16
    frequency:   25.8674868802
  - # 17
    frequency:   27.2695009744
  - # 18
    frequency:   34.1390956497

- q-position: [    0.0757576,    0.0000000,    0.0000000 ]
  distance:    0.0263338
  band:
  - # 1
    frequency:    0.4368577510
  - # 2
    frequency:    1.2062139771
  - # 3
    frequency:    1.8218640187
  - # 4
    frequency:    2.4012856431
  - # 5
    frequency:    2.8785365850
  - # 6
    frequency:    4.8695271044
  - # 7
    frequency:    4.8795006001
  - # 8
    frequency:    5.6025969291
  - # 9
    frequency:    6.1903627301
  - # 10
    frequency:    6.5911209559
  - # 11
    frequency:   10.2082009907
  - # 12
    frequency:   12.5614875587
  - # 13
    frequency:   13.0515484006
  - # 14
    frequency:   17.5241185210
  - # 15
    frequency:   25.7305338800
  - # 16
    frequency:   25.8714468601
  - # 17
    frequency:   27.2785999446
  - # 18
    frequency:   34.1325946574

- q-position: [    0.0808081,    0.0000000,    0.0000000 ]
  distance:    0.0280894
  band:
  - # 1
    frequency:    0.4877565053
  - # 2
    frequency:    1.2685056174
  - # 3
    frequency:    1.9188016326
  - # 4
    frequency:    2.4251704045
  - # 5
    frequency:    2.9566956023
  - # 6
    frequency:    4.8728140344
  - # 7
    frequency:    4.8815750263
  - # 8
    frequency:    5.5903306730
  - # 9
    frequency:    6.1999467714
  - # 10
    frequency:    6.6336781328
  - # 11
    frequency:   10.1929850773
  - # 12
    frequency:   12.5691173452
  - # 13
    frequency:   13.1206818324
  - # 14
    frequency:   17.4662296400
  - # 15
    frequency:   25.7168104014
  - # 16
    frequency:   25.8756123536
  - # 17
    frequency:   27.2880589840
  - # 18
    frequency:   34.1256944624

- q-position: [    0.0858586,    0.0000000,    0.0000000 ]
  distance:    0.0298450
  band:
  - # 1
    frequency:    0.5402627863
  - # 2
    frequency:    1.3265149521
  - # 3
    frequency:    2.0106906230
  - # 4
    frequency:    2.4521699224
  - # 5
    frequency:    3.0389112106
  - # 6
    frequency:    4.8762068150
  - # 7
    frequency:    4.8830707447
  - # 8
    frequency:    5.5796259154
  - # 9
    frequency:    6.2100999072
  - # 10
    frequency:    6.6766942388
  - # 11
    frequency:   10.1769984429
  - # 12
    frequency:   12.5770943896
  - # 13
    frequency:   13.1926420540
  - # 14
    frequency:   17.4055769409
  - # 15
    frequency:   25.7024446250
  - # 16
    frequency:   25.8799706195
  - # 17
    frequency:   27.2978529633
  - # 18
    frequency:   34.1184045354

- q-position: [    0.0909091,    0.0000000,    0.0000000 ]
  distance:    0.0316006
  band:
  - # 1
    frequency:    0.5942373154
  - # 2
    frequency:    1.3798388506
  - # 3
    frequency:    2.0973373947
  - # 4
    frequency:    2.4825502406
  - # 5
    frequency:    3.1249874747
  - # 6
    frequency:    4.8796858115
  - # 7
    frequency:    4.8838903636
  - # 8
    frequency:    5.5705471036
  - # 9
    frequency:    6.2208089823
  - # 10
    frequency:    6.7201135244
  - # 11
    frequency:   10.1602699347
  - # 12
    frequency:   12.5853959554
  - # 13
    frequency:   13.2671613672
  - # 14
    frequency:   17.3423352384
  - # 15
    frequency:   25.6874572810
  - # 16
    frequency:   25.8845083452
  - # 17
    frequency:   27.3079612787
  - # 18
    frequency:   34.1107348453

- q-position: [    0.0959596,    0.0000000,    0.0000000 ]
  distance:    0.0333562
  band:
  - # 1
    frequency:    0.6495514790
  - # 2
    frequency:    1.4281217656
  - # 3
    frequency:    2.1786376002
  - # 4
    frequency:    2.5165290839
  - # 5
    frequency:    3.2146529912
  - # 6
    frequency:    4.8832304346
  - # 7
    frequency:    4.8839433937
  - # 8
    frequency:    5.5631511481
  - # 9
    frequency:    6.2320592793
  - # 10
    frequency:    6.7638849543
  - # 11
    frequency:   10.1428287281
  - # 12
    frequency:   12.5939990408
  - # 13
    frequency:   13.3439636972
  - # 14
    frequency:   17.2766891265
  - # 15
    frequency:   25.6718656951
  - # 16
    frequency:   25.8892116934
  - # 17
    frequency:   27.3183681015
  - # 18
    frequency:   34.1026958389

- q-position: [    0.1010101,    0.0000000,    0.0000000 ]
  distance:    0.0351118
  band:
  - # 1
    frequency:    0.7060857994
  - # 2
    frequency:    1.4710819711
  - # 3
    frequency:    2.2545736060
  - # 4
    frequency:    2.5542495007
  - # 5
    frequency:    3.3075608320
  - # 6
    frequency:    4.8831487222
  - # 7
    frequency:    4.8868192382
  - # 8
    frequency:    5.5574876131
  - # 9
    frequency:    6.2438345210
  - # 10
    frequency:    6.8079614685
  - # 11
    frequency:   10.1247044233
  - # 12
    frequency:   12.6028804940
  - # 13
    frequency:   13.4227647327
  - # 14
    frequency:   17.2088334836
  - # 15
    frequency:   25.6556837246
  - # 16
    frequency:   25.8940663513
  - # 17
    frequency:   27.3290625114
  - # 18
    frequency:   34.0942984200

- q-position: [    0.1060606,    0.0000000,    0.0000000 ]
  distance:    0.0368673
  band:
  - # 1
    frequency:    0.7637284579
  - # 2
    frequency:    1.5085326945
  - # 3
    frequency:    2.3252019594
  - # 4
    frequency:    2.5957585266
  - # 5
    frequency:    3.4032979675
  - # 6
    frequency:    4.8814369533
  - # 7
    frequency:    4.8904300355
  - # 8
    frequency:    5.5535992244
  - # 9
    frequency:    6.2561168967
  - # 10
    frequency:    6.8522994534
  - # 11
    frequency:   10.1059271502
  - # 12
    frequency:   12.6120171177
  - # 13
    frequency:   13.5032717572
  - # 14
    frequency:   17.1389742580
  - # 15
    frequency:   25.6389217763
  - # 16
    frequency:   25.8990575815
  - # 17
    frequency:   27.3400385203
  - # 18
    frequency:   34.0855539281

- q-position: [    0.1111111,    0.0000000,    0.0000000 ]
  distance:    0.0386229
  band:
  - # 1
    frequency:    0.8223738855
  - # 2
    frequency:    1.5403930226
  - # 3
    frequency:    2.3906339673
  - # 4
    frequency:    2.6409959769
  - # 5
    frequency:    3.5014009699
  - # 6
    frequency:    4.8787525095
  - # 7
    frequency:    4.8940400353
  - # 8
    frequency:    5.5515230057
  - # 9
    frequency:    6.2688871107
  - # 10
    frequency:    6.8968583550
  - # 11
    frequency:   10.0865276776
  - # 12
    frequency:   12.6213857634
  - # 13
    frequency:   13.5851830885
  - # 14
    frequency:   17.0673296151
  - # 15
    frequency:   25.6215869004
  - # 16
    frequency:   25.9041702760
  - # 17
    frequency:   27.3512949895
  - # 18
    frequency:   34.0764741151

- q-position: [    0.1161616,    0.0000000,    0.0000000 ]
  distance:    0.0403785
  band:
  - # 1
    frequency:    0.8819214206
  - # 2
    frequency:    1.5666856504
  - # 3
    frequency:    2.4510136260
  - # 4
    frequency:    2.6897962804
  - # 5
    frequency:    3.6013736064
  - # 6
    frequency:    4.8750554599
  - # 7
    frequency:    4.8976259992
  - # 8
    frequency:    5.5512923122
  - # 9
    frequency:    6.2821244519
  - # 10
    frequency:    6.9416003866
  - # 11
    frequency:   10.0665375220
  - # 12
    frequency:   12.6309634145
  - # 13
    frequency:   13.6681870123
  - # 14
    frequency:   16.9941315594
  - # 15
    frequency:   25.6036829540
  - # 16
    frequency:   25.9093890113
  - # 17
    frequency:   27.3628354489
  - # 18
    frequency:   34.0670711226

- q-position: [    0.1212121,    0.0000000,    0.0000000 ]
  distance:    0.0421341
  band:
  - # 1
    frequency:    0.9422740168
  - # 2
    frequency:    1.5875220132
  - # 3
    frequency:    2.5064967381
  - # 4
    frequency:    2.7419027968
  - # 5
    frequency:    3.7027022479
  - # 6
    frequency:    4.8703231716
  - # 7
    frequency:    4.9011644211
  - # 8
    frequency:    5.5529399620
  - # 9
    frequency:    6.2958068826
  - # 10
    frequency:    6.9864902995
  - # 11
    frequency:   10.0459890526
  - # 12
    frequency:   12.6407272583
  - # 13
    frequency:   13.7519600611
  - # 14
    frequency:   16.9196281752
  - # 15
    frequency:   25.5852108273
  - # 16
    frequency:   25.9146981057
  - # 17
    frequency:   27.3746678249
  - # 18
    frequency:   34.0573574577

- q-position: [    0.1262626,    0.0000000,    0.0000000 ]
  distance:    0.0438897
  band:
  - # 1
    frequency:    1.0033369704
  - # 2
    frequency:    1.6030785380
  - # 3
    frequency:    2.5572336796
  - # 4
    frequency:    2.7969908610
  - # 5
    frequency:    3.8048662597
  - # 6
    frequency:    4.8645520798
  - # 7
    frequency:    4.9046317303
  - # 8
    frequency:    5.5565025842
  - # 9
    frequency:    6.3099111430
  - # 10
    frequency:    7.0314951924
  - # 11
    frequency:   10.0249155927
  - # 12
    frequency:   12.6506547466
  - # 13
    frequency:   13.8361644381
  - # 14
    frequency:   16.8440866869
  - # 15
    frequency:   25.5661687268
  - # 16
    frequency:   25.9200816783
  - # 17
    frequency:   27.3868040839
  - # 18
    frequency:   34.0473459686

- q-position: [    0.1313131,    0.0000000,    0.0000000 ]
  distance:    0.0456453
  band:
  - # 1
    frequency:    1.0650166298
  - # 2
    frequency:    1.6135692975
  - # 3
    frequency:    2.6033567320
  - # 4
    frequency:    2.8546942434
  - # 5
    frequency:    3.9073418553
  - # 6
    frequency:    4.8577601865
  - # 7
    frequency:    4.9080045181
  - # 8
    frequency:    5.5620262171
  - # 9
    frequency:    6.3244128691
  - # 10
    frequency:    7.0765843452
  - # 11
    frequency:   10.0033515143
  - # 12
    frequency:   12.6607236464
  - # 13
    frequency:   13.9204443183
  - # 14
    frequency:   16.7677975985
  - # 15
    frequency:   25.5465525077
  - # 16
    frequency:   25.9255237082
  - # 17
    frequency:   27.3992598003
  - # 18
    frequency:   34.0370498193

- q-position: [    0.1363636,    0.0000000,    0.0000000 ]
  distance:    0.0474009
  band:
  - # 1
    frequency:    1.1272190300
  - # 2
    frequency:    1.6192199269
  - # 3
    frequency:    2.6449717206
  - # 4
    frequency:    2.9146301331
  - # 5
    frequency:    4.0095985983
  - # 6
    frequency:    4.8499914421
  - # 7
    frequency:    4.9112597894
  - # 8
    frequency:    5.5695731111
  - # 9
    frequency:    6.3392867213
  - # 10
    frequency:    7.1217290657
  - # 11
    frequency:    9.9813323286
  - # 12
    frequency:   12.6709120798
  - # 13
    frequency:   14.0044206719
  - # 14
    frequency:   16.6910802694
  - # 15
    frequency:   25.5263560513
  - # 16
    frequency:   25.9310080963
  - # 17
    frequency:   27.4120536583
  - # 18
    frequency:   34.0264824647

- q-position: [    0.1414141,    0.0000000,    0.0000000 ]
  distance:    0.0491565
  band:
  - # 1
    frequency:    1.1898483844
  - # 2
    frequency:    1.6202459585
  - # 3
    frequency:    2.6821530915
  - # 4
    frequency:    2.9764194463
  - # 5
    frequency:    4.1110873171
  - # 6
    frequency:    4.8413242796
  - # 7
    frequency:    4.9143752402
  - # 8
    frequency:    5.5792296124
  - # 9
    frequency:    6.3545065189
  - # 10
    frequency:    7.1669025400
  - # 11
    frequency:    9.9588947707
  - # 12
    frequency:   12.6811985553
  - # 13
    frequency:   14.0876841387
  - # 14
    frequency:   16.6142903896
  - # 15
    frequency:   25.5055716773
  - # 16
    frequency:   25.9365187262
  - # 17
    frequency:   27.4252068966
  - # 18
    frequency:   34.0156576243

- q-position: [    0.1464646,    0.0000000,    0.0000000 ]
  distance:    0.0509120
  band:
  - # 1
    frequency:    1.2528053361
  - # 2
    frequency:    1.6168367566
  - # 3
    frequency:    2.7149414086
  - # 4
    frequency:    3.0397012207
  - # 5
    frequency:    4.2112158041
  - # 6
    frequency:    4.8318892288
  - # 7
    frequency:    4.9173295614
  - # 8
    frequency:    5.5911149066
  - # 9
    frequency:    6.3700453774
  - # 10
    frequency:    7.2120796833
  - # 11
    frequency:    9.9360768814
  - # 12
    frequency:   12.6915619912
  - # 13
    frequency:   14.1697853489
  - # 14
    frequency:   16.5378299595
  - # 15
    frequency:   25.4841905870
  - # 16
    frequency:   25.9420395264
  - # 17
    frequency:   27.4387427066
  - # 18
    frequency:   34.0045892561

- q-position: [    0.1515152,    0.0000000,    0.0000000 ]
  distance:    0.0526676
  band:
  - # 1
    frequency:    1.3159848351
  - # 2
    frequency:    1.6091447215
  - # 3
    frequency:    2.7433424068
  - # 4
    frequency:    3.1041413488
  - # 5
    frequency:    4.3093015571
  - # 6
    frequency:    4.8219077104
  - # 7
    frequency:    4.9201027706
  - # 8
    frequency:    5.6053902121
  - # 9
    frequency:    6.3858758468
  - # 10
    frequency:    7.2572369852
  - # 11
    frequency:    9.9129180856
  - # 12
    frequency:   12.7019817317
  - # 13
    frequency:   14.2502219402
  - # 14
    frequency:   16.4621605205
  - # 15
    frequency:   25.4622033273
  - # 16
    frequency:   25.9475545325
  - # 17
    frequency:   27.4526855951
  - # 18
    frequency:   33.9932915304

- q-position: [    0.1565657,    0.0000000,    0.0000000 ]
  distance:    0.0544232
  band:
  - # 1
    frequency:    1.3792734486
  - # 2
    frequency:    1.5972785996
  - # 3
    frequency:    2.7673270194
  - # 4
    frequency:    3.1694367120
  - # 5
    frequency:    4.4044689694
  - # 6
    frequency:    4.8117860817
  - # 7
    frequency:    4.9226765731
  - # 8
    frequency:    5.6222676608
  - # 9
    frequency:    6.4019700452
  - # 10
    frequency:    7.3023523468
  - # 11
    frequency:    9.8894592714
  - # 12
    frequency:   12.7124375576
  - # 13
    frequency:   14.3284214254
  - # 14
    frequency:   16.3878204805
  - # 15
    frequency:   25.4396002698
  - # 16
    frequency:   25.9530479488
  - # 17
    frequency:   27.4670607237
  - # 18
    frequency:   33.9817788033

- q-position: [    0.1616162,    0.0000000,    0.0000000 ]
  distance:    0.0561788
  band:
  - # 1
    frequency:    1.4425458138
  - # 2
    frequency:    1.5812994691
  - # 3
    frequency:    2.7868321394
  - # 4
    frequency:    3.2353160007
  - # 5
    frequency:    4.4953813238
  - # 6
    frequency:    4.8023764390
  - # 7
    frequency:    4.9250347549
  - # 8
    frequency:    5.6420174587
  - # 9
    frequency:    6.4182997871
  - # 10
    frequency:    7.3474049074
  - # 11
    frequency:    9.8657428700
  - # 12
    frequency:   12.7229096929
  - # 13
    frequency:   14.4037191464
  - # 14
    frequency:   16.3154472964
  - # 15
    frequency:   25.4163720944
  - # 16
    frequency:   25.9585042097
  - # 17
    frequency:   27.4818932359
  - # 18
    frequency:   33.9700655900

- q-position: [    0.1666667,    0.0000000,    0.0000000 ]
  distance:    0.0579344
  band:
  - # 1
    frequency:    1.5056597895
  - # 2
    frequency:    1.5612180297
  - # 3
    frequency:    2.8017622396
  - # 4
    frequency:    3.3015383916
  - # 5
    frequency:    4.5793857540
  - # 6
    frequency:    4.7958286606
  - # 7
    frequency:    4.9271636104
  - # 8
    frequency:    5.6649709019
  - # 9
    frequency:    6.4348367025
  - # 10
    frequency:    7.3923748588
  - # 11
    frequency:    9.8418129397
  - # 12
    frequency:   12.7333788083
  - # 13
    frequency:   14.4753311076
  - # 14
    frequency:   16.2458047199
  - # 15
    frequency:   25.3925102711
  - # 16
    frequency:   25.9639080398
  - # 17
    frequency:   27.4972075861
  - # 18
    frequency:   33.9581665383

- q-position: [    0.1717172,    0.0000000,    0.0000000 ]
  distance:    0.0596900
  band:
  - # 1
    frequency:    1.5369920006
  - # 2
    frequency:    1.5684496027
  - # 3
    frequency:    2.8119923944
  - # 4
    frequency:    3.3678909926
  - # 5
    frequency:    4.6495006765
  - # 6
    frequency:    4.7986079917
  - # 7
    frequency:    4.9290524101
  - # 8
    frequency:    5.6915154763
  - # 9
    frequency:    6.4515523447
  - # 10
    frequency:    7.4372432431
  - # 11
    frequency:    9.8177152577
  - # 12
    frequency:   12.7438260229
  - # 13
    frequency:   14.5423231084
  - # 14
    frequency:   16.1798136867
  - # 15
    frequency:   25.3680075293
  - # 16
    frequency:   25.9692445132
  - # 17
    frequency:   27.5130268817
  - # 18
    frequency:   33.9460964024

- q-position: [    0.1767677,    0.0000000,    0.0000000 ]
  distance:    0.0614456
  band:
  - # 1
    frequency:    1.5085225768
  - # 2
    frequency:    1.6307158475
  - # 3
    frequency:    2.8173737962
  - # 4
    frequency:    3.4341856889
  - # 5
    frequency:    4.6902007325
  - # 6
    frequency:    4.8257280095
  - # 7
    frequency:    4.9306939159
  - # 8
    frequency:    5.7220770490
  - # 9
    frequency:    6.4684182871
  - # 10
    frequency:    7.4819917334
  - # 11
    frequency:    9.7934974214
  - # 12
    frequency:   12.7542329065
  - # 13
    frequency:   14.6035813188
  - # 14