nqpoint: 300    
npath: 3      
segment_nqpoint:
- 100
- 100
- 100
labels:
- [ 'G', 'M' ]
- [ 'M', 'K' ]
- [ 'K', 'G' ]
reciprocal_lattice:
- [   0.30299933,   0.17493675,   0.00000000 ] # a*
- [   0.00000000,   0.34987349,   0.00000000 ] # b*
- [   0.00000000,   0.00000000,   0.03830814 ] # c*
natom: 7      
lattice:
- [     3.300337316716183,     0.000000000000000,     0.000000000000000 ] # a
- [    -1.650168658358092,     2.858175957325805,     0.000000000000000 ] # b
- [     0.000000000000000,     0.000000000000000,    26.104114039120667 ] # c
points:
- symbol: C # 1
  coordinates: [  0.333332985432215,  0.666666983183674,  0.609636491971688 ]
  mass: 12.010700
- symbol: Hf # 2
  coordinates: [  0.333332985432215,  0.666666983183674,  0.380612772443953 ]
  mass: 178.490000
- symbol: Hf # 3
  coordinates: [  0.666666984744047,  0.333332985985145,  0.480950288609742 ]
  mass: 178.490000
- symbol: N # 4
  coordinates: [  0.000000000000000,  0.000000000000000,  0.427297408241861 ]
  mass: 14.006700
- symbol: N # 5
  coordinates: [  0.333332985432215,  0.666666983183674,  0.655226759026863 ]
  mass: 14.006700
- symbol: O # 6
  coordinates: [  0.666666984744047,  0.333332985985145,  0.344773240973137 ]
  mass: 15.999400
- symbol: S # 7
  coordinates: [  0.333332985432215,  0.666666983183674,  0.544034735055694 ]
  mass: 32.065000

phonon:
- q-position: [    0.0000000,    0.0000000,    0.0000000 ]
  distance:    0.0000000
  band:
  - # 1
    frequency:   -1.2540320067
  - # 2
    frequency:   -1.2540320067
  - # 3
    frequency:   -0.0000143647
  - # 4
    frequency:   -0.0000002467
  - # 5
    frequency:    0.0000129699
  - # 6
    frequency:    2.4120423990
  - # 7
    frequency:    2.4120423991
  - # 8
    frequency:    3.9725260262
  - # 9
    frequency:    6.3302266498
  - # 10
    frequency:    6.3302266499
  - # 11
    frequency:    7.7153533757
  - # 12
    frequency:   10.3370122758
  - # 13
    frequency:   10.3370122759
  - # 14
    frequency:   11.1843650641
  - # 15
    frequency:   11.1843650641
  - # 16
    frequency:   14.4514938443
  - # 17
    frequency:   14.4514938444
  - # 18
    frequency:   14.9882078714
  - # 19
    frequency:   15.2740988774
  - # 20
    frequency:   17.4406850406
  - # 21
    frequency:   64.5625603942

- q-position: [    0.0050505,    0.0000000,    0.0000000 ]
  distance:    0.0017670
  band:
  - # 1
    frequency:   -1.2528939649
  - # 2
    frequency:   -1.2512256023
  - # 3
    frequency:    0.0022099484
  - # 4
    frequency:    0.0721394882
  - # 5
    frequency:    0.0951684303
  - # 6
    frequency:    2.4124428760
  - # 7
    frequency:    2.4136189723
  - # 8
    frequency:    3.9727059705
  - # 9
    frequency:    6.3303544991
  - # 10
    frequency:    6.3308469094
  - # 11
    frequency:    7.7150124741
  - # 12
    frequency:   10.3371107529
  - # 13
    frequency:   10.3372775089
  - # 14
    frequency:   11.1845116417
  - # 15
    frequency:   11.1847149287
  - # 16
    frequency:   14.4508222602
  - # 17
    frequency:   14.4516729832
  - # 18
    frequency:   14.9883834551
  - # 19
    frequency:   15.2747049194
  - # 20
    frequency:   17.4405579639
  - # 21
    frequency:   64.5624836746

- q-position: [    0.0101010,    0.0000000,    0.0000000 ]
  distance:    0.0035341
  band:
  - # 1
    frequency:   -1.2494774322
  - # 2
    frequency:   -1.2427777969
  - # 3
    frequency:    0.0088309041
  - # 4
    frequency:    0.1442148073
  - # 5
    frequency:    0.1902651257
  - # 6
    frequency:    2.4136426902
  - # 7
    frequency:    2.4183300237
  - # 8
    frequency:    3.9732480781
  - # 9
    frequency:    6.3307379573
  - # 10
    frequency:    6.3327058529
  - # 11
    frequency:    7.7139902539
  - # 12
    frequency:   10.3374076314
  - # 13
    frequency:   10.3380676353
  - # 14
    frequency:   11.1849507195
  - # 15
    frequency:   11.1857623909
  - # 16
    frequency:   14.4488302249
  - # 17
    frequency:   14.4522097201
  - # 18
    frequency:   14.9888811678
  - # 19
    frequency:   15.2765320041
  - # 20
    frequency:   17.4401768474
  - # 21
    frequency:   64.5622536730

- q-position: [    0.0151515,    0.0000000,    0.0000000 ]
  distance:    0.0053011
  band:
  - # 1
    frequency:   -1.2437750437
  - # 2
    frequency:   -1.2286012644
  - # 3
    frequency:    0.0198345498
  - # 4
    frequency:    0.2161617095
  - # 5
    frequency:    0.2852184066
  - # 6
    frequency:    2.4156370074
  - # 7
    frequency:    2.4261204110
  - # 8
    frequency:    3.9741591209
  - # 9
    frequency:    6.3313767560
  - # 10
    frequency:    6.3357979929
  - # 11
    frequency:    7.7122881712
  - # 12
    frequency:   10.3379072361
  - # 13
    frequency:   10.3393660161
  - # 14
    frequency:   11.1856803363
  - # 15
    frequency:   11.1875011513
  - # 16
    frequency:   14.4455838372
  - # 17
    frequency:   14.4531020208
  - # 18
    frequency:   14.9896173933
  - # 19
    frequency:   15.2796054363
  - # 20
    frequency:   17.4395420335
  - # 21
    frequency:   64.5618708594

- q-position: [    0.0202020,    0.0000000,    0.0000000 ]
  distance:    0.0070682
  band:
  - # 1
    frequency:   -1.2357740493
  - # 2
    frequency:   -1.2085451233
  - # 3
    frequency:    0.0351795787
  - # 4
    frequency:    0.2879158096
  - # 5
    frequency:    0.3799566853
  - # 6
    frequency:    2.4184178215
  - # 7
    frequency:    2.4369010258
  - # 8
    frequency:    3.9754502147
  - # 9
    frequency:    6.3322704490
  - # 10
    frequency:    6.3401142423
  - # 11
    frequency:    7.7099086635
  - # 12
    frequency:   10.3386167201
  - # 13
    frequency:   10.3411451849
  - # 14
    frequency:   11.1866972343
  - # 15
    frequency:   11.1899210247
  - # 16
    frequency:   14.4411867957
  - # 17
    frequency:   14.4543465112
  - # 18
    frequency:   14.9904638656
  - # 19
    frequency:   15.2839623515
  - # 20
    frequency:   17.4386540974
  - # 21
    frequency:   64.5613360161

- q-position: [    0.0252525,    0.0000000,    0.0000000 ]
  distance:    0.0088352
  band:
  - # 1
    frequency:   -1.2254555960
  - # 2
    frequency:   -1.1823862885
  - # 3
    frequency:    0.0548197478
  - # 4
    frequency:    0.3594125773
  - # 5
    frequency:    0.4744084513
  - # 6
    frequency:    2.4219740315
  - # 7
    frequency:    2.4505527204
  - # 8
    frequency:    3.9771365628
  - # 9
    frequency:    6.3334184142
  - # 10
    frequency:    6.3456420010
  - # 11
    frequency:    7.7068551648
  - # 12
    frequency:   10.3395459819
  - # 13
    frequency:   10.3433672428
  - # 14
    frequency:   11.1879968765
  - # 15
    frequency:   11.1930084003
  - # 16
    frequency:   14.4357718916
  - # 17
    frequency:   14.4559385013
  - # 18
    frequency:   14.9912624249
  - # 19
    frequency:   15.2896448609
  - # 20
    frequency:   17.4375138537
  - # 21
    frequency:   64.5606502346

- q-position: [    0.0303030,    0.0000000,    0.0000000 ]
  distance:    0.0106022
  band:
  - # 1
    frequency:   -1.2127937121
  - # 2
    frequency:   -1.1498159856
  - # 3
    frequency:    0.0787165524
  - # 4
    frequency:    0.4305873888
  - # 5
    frequency:    0.5685021925
  - # 6
    frequency:    2.4262915481
  - # 7
    frequency:    2.4669313179
  - # 8
    frequency:    3.9792370974
  - # 9
    frequency:    6.3348198563
  - # 10
    frequency:    6.3523652732
  - # 11
    frequency:    7.7031321255
  - # 12
    frequency:   10.3407075520
  - # 13
    frequency:   10.3459844070
  - # 14
    frequency:   11.1895734698
  - # 15
    frequency:   11.1967468649
  - # 16
    frequency:   14.4294910884
  - # 17
    frequency:   14.4578720184
  - # 18
    frequency:   14.9918422640
  - # 19
    frequency:   15.2966918962
  - # 20
    frequency:   17.4361223662
  - # 21
    frequency:   64.5598149129

- q-position: [    0.0353535,    0.0000000,    0.0000000 ]
  distance:    0.0123693
  band:
  - # 1
    frequency:   -1.1977539685
  - # 2
    frequency:   -1.1104198192
  - # 3
    frequency:    0.1068577918
  - # 4
    frequency:    0.5013756480
  - # 5
    frequency:    0.6621662371
  - # 6
    frequency:    2.4313534295
  - # 7
    frequency:    2.4858733230
  - # 8
    frequency:    3.9817740194
  - # 9
    frequency:    6.3364738095
  - # 10
    frequency:    6.3602648103
  - # 11
    frequency:    7.6987450371
  - # 12
    frequency:   10.3421164483
  - # 13
    frequency:   10.3489397081
  - # 14
    frequency:   11.1914199948
  - # 15
    frequency:   11.2011179665
  - # 16
    frequency:   14.4225054668
  - # 17
    frequency:   14.4601398486
  - # 18
    frequency:   14.9920370221
  - # 19
    frequency:   15.3051311402
  - # 20
    frequency:   17.4344809605
  - # 21
    frequency:   64.5588317507

- q-position: [    0.0404040,    0.0000000,    0.0000000 ]
  distance:    0.0141363
  band:
  - # 1
    frequency:   -1.1802917749
  - # 2
    frequency:   -1.0636490135
  - # 3
    frequency:    0.1392852256
  - # 4
    frequency:    0.5717129737
  - # 5
    frequency:    0.7553285057
  - # 6
    frequency:    2.4371400458
  - # 7
    frequency:    2.5072019500
  - # 8
    frequency:    3.9847722381
  - # 9
    frequency:    6.3383791422
  - # 10
    frequency:    6.3693182783
  - # 11
    frequency:    7.6937004600
  - # 12
    frequency:   10.3437900028
  - # 13
    frequency:   10.3521678336
  - # 14
    frequency:   11.1935282429
  - # 15
    frequency:   11.2061020894
  - # 16
    frequency:   14.4149760130
  - # 17
    frequency:   14.4627335869
  - # 18
    frequency:   14.9916992933
  - # 19
    frequency:   15.3149725265
  - # 20
    frequency:   17.4325912398
  - # 21
    frequency:   64.5577027449

- q-position: [    0.0454545,    0.0000000,    0.0000000 ]
  distance:    0.0159033
  band:
  - # 1
    frequency:   -1.1603502330
  - # 2
    frequency:   -1.0087795981
  - # 3
    frequency:    0.1761375343
  - # 4
    frequency:    0.6415354464
  - # 5
    frequency:    0.8479161714
  - # 6
    frequency:    2.4436292711
  - # 7
    frequency:    2.5307331371
  - # 8
    frequency:    3.9882587141
  - # 9
    frequency:    6.3405345606
  - # 10
    frequency:    6.3795004403
  - # 11
    frequency:    7.6880060526
  - # 12
    frequency:   10.3457476610
  - # 13
    frequency:   10.3555961135
  - # 14
    frequency:   11.1958888586
  - # 15
    frequency:   11.2116794013
  - # 16
    frequency:   14.4070558325
  - # 17
    frequency:   14.4656436944
  - # 18
    frequency:   14.9907108080
  - # 19
    frequency:   15.3262044961
  - # 20
    frequency:   17.4304551037
  - # 21
    frequency:   64.5564301828

- q-position: [    0.0505051,    0.0000000,    0.0000000 ]
  distance:    0.0176704
  band:
  - # 1
    frequency:   -1.1378574220
  - # 2
    frequency:   -0.9448559816
  - # 3
    frequency:    0.2177203722
  - # 4
    frequency:    0.7107798975
  - # 5
    frequency:    0.9398552288
  - # 6
    frequency:    2.4507967017
  - # 7
    frequency:    2.5562812877
  - # 8
    frequency:    3.9922617096
  - # 9
    frequency:    6.3429386142
  - # 10
    frequency:    6.3907833524
  - # 11
    frequency:    7.6816706029
  - # 12
    frequency:   10.3480107572
  - # 13
    frequency:   10.3591456448
  - # 14
    frequency:   11.1984913885
  - # 15
    frequency:   11.2178308301
  - # 16
    frequency:   14.3988840150
  - # 17
    frequency:   14.4688595622
  - # 18
    frequency:   14.9889875743
  - # 19
    frequency:   15.3387935428
  - # 20
    frequency:   17.4280747701
  - # 21
    frequency:   64.5550166359

- q-position: [    0.0555556,    0.0000000,    0.0000000 ]
  distance:    0.0194374
  band:
  - # 1
    frequency:   -1.1127229230
  - # 2
    frequency:   -0.8706178382
  - # 3
    frequency:    0.2646250184
  - # 4
    frequency:    0.7793842256
  - # 5
    frequency:    1.0310699810
  - # 6
    frequency:    2.4586158999
  - # 7
    frequency:    2.5836645670
  - # 8
    frequency:    3.9968099556
  - # 9
    frequency:    6.3455897009
  - # 10
    frequency:    6.4031365654
  - # 11
    frequency:    7.6747040592
  - # 12
    frequency:   10.3506022656
  - # 13
    frequency:   10.3627325541
  - # 14
    frequency:   11.2013243367
  - # 15
    frequency:   11.2245390167
  - # 16
    frequency:   14.3905811141
  - # 17
    frequency:   14.4723695807
  - # 18
    frequency:   14.9864803141
  - # 19
    frequency:   15.3526867890
  - # 20
    frequency:   17.4254528010
  - # 21
    frequency:   64.5534649519

- q-position: [    0.0606061,    0.0000000,    0.0000000 ]
  distance:    0.0212045
  band:
  - # 1
    frequency:   -1.0848332812
  - # 2
    frequency:   -0.7844215368
  - # 3
    frequency:    0.3179298688
  - # 4
    frequency:    0.8472877179
  - # 5
    frequency:    1.1214824575
  - # 6
    frequency:    2.4670586620
  - # 7
    frequency:    2.6127096560
  - # 8
    frequency:    4.0019317448
  - # 9
    frequency:    6.3484860731
  - # 10
    frequency:    6.4165273269
  - # 11
    frequency:    7.6671175608
  - # 12
    frequency:   10.3535465333
  - # 13
    frequency:   10.3662693937
  - # 14
    frequency:   11.2043752256
  - # 15
    frequency:   11.2317891895
  - # 16
    frequency:   14.3822460725
  - # 17
    frequency:   14.4761612142
  - # 18
    frequency:   14.9831713106
  - # 19
    frequency:   15.3678166954
  - # 20
    frequency:   17.4225921305
  - # 21
    frequency:   64.5517782458

- q-position: [    0.0656566,    0.0000000,    0.0000000 ]
  distance:    0.0229715
  band:
  - # 1
    frequency:   -1.0540459492
  - # 2
    frequency:   -0.6842023685
  - # 3
    frequency:    0.3795104835
  - # 4
    frequency:    0.9144313615
  - # 5
    frequency:    1.2110117855
  - # 6
    frequency:    2.4760953091
  - # 7
    frequency:    2.6432559239
  - # 8
    frequency:    4.0076539688
  - # 9
    frequency:    6.3516258432
  - # 10
    frequency:    6.4309207793
  - # 11
    frequency:    7.6589234675
  - # 12
    frequency:   10.3568689948
  - # 13
    frequency:   10.3696666694
  - # 14
    frequency:   11.2076306623
  - # 15
    frequency:   11.2395699024
  - # 16
    frequency:   14.3739543761
  - # 17
    frequency:   14.4802210799
  - # 18
    frequency:   14.9790691039
  - # 19
    frequency:   15.3841067342
  - # 20
    frequency:   17.4194960961
  - # 21
    frequency:   64.5499598912

- q-position: [    0.0707071,    0.0000000,    0.0000000 ]
  distance:    0.0247385
  band:
  - # 1
    frequency:   -1.0201809972
  - # 2
    frequency:   -0.5675312487
  - # 3
    frequency:    0.4523148776
  - # 4
    frequency:    0.9807581265
  - # 5
    frequency:    1.2995735451
  - # 6
    frequency:    2.4856949995
  - # 7
    frequency:    2.6751590193
  - # 8
    frequency:    4.0140011184
  - # 9
    frequency:    6.3550069898
  - # 10
    frequency:    6.4462801484
  - # 11
    frequency:    7.6501353887
  - # 12
    frequency:   10.3605958726
  - # 13
    frequency:   10.3728344901
  - # 14
    frequency:   11.2110764112
  - # 15
    frequency:   11.2478735836
  - # 16
    frequency:   14.3657572348
  - # 17
    frequency:   14.4845350287
  - # 18
    frequency:   14.9742023686
  - # 19
    frequency:   15.4014769468
  - # 20
    frequency:   17.4161684723
  - # 21
    frequency:   64.5480135096

- q-position: [    0.0757576,    0.0000000,    0.0000000 ]
  distance:    0.0265056
  band:
  - # 1
    frequency:   -0.9830094542
  - # 2
    frequency:   -0.4310032284
  - # 3
    frequency:    0.5397273777
  - # 4
    frequency:    1.0462132106
  - # 5
    frequency:    1.3870791508
  - # 6
    frequency:    2.4958260610
  - # 7
    frequency:    2.7082938904
  - # 8
    frequency:    4.0209942748
  - # 9
    frequency:    6.3586273637
  - # 10
    frequency:    6.4625669167
  - # 11
    frequency:    7.6407682105
  - # 12
    frequency:   10.3647538672
  - # 13
    frequency:   10.3756843270
  - # 14
    frequency:   11.2146974712
  - # 15
    frequency:   11.2566968469
  - # 16
    frequency:   14.3576816255
  - # 17
    frequency:   14.4890882296
  - # 18
    frequency:   14.9686139460
  - # 19
    frequency:   15.4198486278
  - # 20
    frequency:   17.4126135062
  - # 21
    frequency:   64.5459429600

- q-position: [    0.0808081,    0.0000000,    0.0000000 ]
  distance:    0.0282726
  band:
  - # 1
    frequency:   -0.9422364052
  - # 2
    frequency:   -0.2602845317
  - # 3
    frequency:    0.6423971455
  - # 4
    frequency:    1.1107442334
  - # 5
    frequency:    1.4734353172
  - # 6
    frequency:    2.5064563423
  - # 7
    frequency:    2.7425572426
  - # 8
    frequency:    4.0286501229
  - # 9
    frequency:    6.3624846931
  - # 10
    frequency:    6.4797409796
  - # 11
    frequency:    7.6308381244
  - # 12
    frequency:   10.3693698379
  - # 13
    frequency:   10.3781308594
  - # 14
    frequency:   11.2184781590
  - # 15
    frequency:   11.2660405336
  - # 16
    frequency:   14.3497310780
  - # 17
    frequency:   14.4938652549
  - # 18
    frequency:   14.9623555768
  - # 19
    frequency:   15.4391477544
  - # 20
    frequency:   17.4088359540
  - # 21
    frequency:   64.5437523273

- q-position: [    0.0858586,    0.0000000,    0.0000000 ]
  distance:    0.0300396
  band:
  - # 1
    frequency:   -0.8974756196
  - # 2
    frequency:    0.1741212955
  - # 3
    frequency:    0.7550790159
  - # 4
    frequency:    1.1743013780
  - # 5
    frequency:    1.5585436893
  - # 6
    frequency:    2.5175535806
  - # 7
    frequency:    2.7778694156
  - # 8
    frequency:    4.0369800233
  - # 9
    frequency:    6.3665765891
  - # 10
    frequency:    6.4977607781
  - # 11
    frequency:    7.6203626559
  - # 12
    frequency:   10.3744704803
  - # 13
    frequency:   10.3800938752
  - # 14
    frequency:   11.2224021960
  - # 15
    frequency:   11.2759094678
  - # 16
    frequency:   14.3418871190
  - # 17
    frequency:   14.4988501654
  - # 18
    frequency:   14.9554835328
  - # 19
    frequency:   15.4593070896
  - # 20
    frequency:   17.4048411189
  - # 21
    frequency:   64.5414459099

- q-position: [    0.0909091,    0.0000000,    0.0000000 ]
  distance:    0.0318067
  band:
  - # 1
    frequency:   -0.8482098592
  - # 2
    frequency:    0.3387427937
  - # 3
    frequency:    0.8701320642
  - # 4
    frequency:    1.2368374742
  - # 5
    frequency:    1.6423007396
  - # 6
    frequency:    2.5290857855
  - # 7
    frequency:    2.8141756293
  - # 8
    frequency:    4.0459891851
  - # 9
    frequency:    6.3709005495
  - # 10
    frequency:    6.5165834061
  - # 11
    frequency:    7.6093606967
  - # 12
    frequency:   10.3800820009
  - # 13
    frequency:   10.3815001808
  - # 14
    frequency:   11.2264528019
  - # 15
    frequency:   11.2863119306
  - # 16
    frequency:   14.3341113066
  - # 17
    frequency:   14.5040265964
  - # 18
    frequency:   14.9480551153
  - # 19
    frequency:   15.4802670855
  - # 20
    frequency:   17.4006348873
  - # 21
    frequency:   64.5390282076

- q-position: [    0.0959596,    0.0000000,    0.0000000 ]
  distance:    0.0335737
  band:
  - # 1
    frequency:   -0.7937255708
  - # 2
    frequency:    0.4395595201
  - # 3
    frequency:    0.9826436979
  - # 4
    frequency:    1.2983080254
  - # 5
    frequency:    1.7245980654
  - # 6
    frequency:    2.5410216351
  - # 7
    frequency:    2.8514465063
  - # 8
    frequency:    4.0556759811
  - # 9
    frequency:    6.3754539627
  - # 10
    frequency:    6.5361646887
  - # 11
    frequency:    7.5978525431
  - # 12
    frequency:   10.3822854663
  - # 13
    frequency:   10.3862297938
  - # 14
    frequency:   11.2306127914
  - # 15
    frequency:   11.2972588797
  - # 16
    frequency:   14.3263477979
  - # 17
    frequency:   14.5093778418
  - # 18
    frequency:   14.9401258846
  - # 19
    frequency:   15.5019758064
  - # 20
    frequency:   17.3962237645
  - # 21
    frequency:   64.5365039077

- q-position: [    0.1010101,    0.0000000,    0.0000000 ]
  distance:    0.0353408
  band:
  - # 1
    frequency:   -0.7329983344
  - # 2
    frequency:    0.5206393678
  - # 3
    frequency:    1.0907378184
  - # 4
    frequency:    1.3586711783
  - # 5
    frequency:    1.8053232506
  - # 6
    frequency:    2.5533308831
  - # 7
    frequency:    2.8896777309
  - # 8
    frequency:    4.0660314488
  - # 9
    frequency:    6.3802341094
  - # 10
    frequency:    6.5564592265
  - # 11
    frequency:    7.5858599434
  - # 12
    frequency:   10.3823960589
  - # 13
    frequency:   10.3929381219
  - # 14
    frequency:   11.2348646767
  - # 15
    frequency:   11.3087629657
  - # 16
    frequency:   14.3185263765
  - # 17
    frequency:   14.5148869372
  - # 18
    frequency:   14.9317474542
  - # 19
    frequency:   15.5243881130
  - # 20
    frequency:   17.3916149075
  - # 21
    frequency:   64.5338778716

- q-position: [    0.1060606,    0.0000000,    0.0000000 ]
  distance:    0.0371078
  band:
  - # 1
    frequency:   -0.6644743491
  - # 2
    frequency:    0.5928397206
  - # 3
    frequency:    1.1940582613
  - # 4
    frequency:    1.4178876406
  - # 5
    frequency:    1.8843614801
  - # 6
    frequency:    2.5659847741
  - # 7
    frequency:    2.9288886731
  - # 8
    frequency:    4.0770390160
  - # 9
    frequency:    6.3852381634
  - # 10
    frequency:    6.5774204039
  - # 11
    frequency:    7.5734061597
  - # 12
    frequency:   10.3817904956
  - # 13
    frequency:   10.4002298054
  - # 14
    frequency:   11.2391907741
  - # 15
    frequency:   11.3208374098
  - # 16
    frequency:   14.3105658545
  - # 17
    frequency:   14.5205367404
  - # 18
    frequency:   14.9229657124
  - # 19
    frequency:   15.5474643342
  - # 20
    frequency:   17.3868161538
  - # 21
    frequency:   64.5311551207

- q-position: [    0.1111111,    0.0000000,    0.0000000 ]
  distance:    0.0388748
  band:
  - # 1
    frequency:   -0.5856024216
  - # 2
    frequency:    0.6604598120
  - # 3
    frequency:    1.2927908566
  - # 4
    frequency:    1.4759205499
  - # 5
    frequency:    1.9615981046
  - # 6
    frequency:    2.5789564624
  - # 7
    frequency:    2.9691197788
  - # 8
    frequency:    4.0886744865
  - # 9
    frequency:    6.3904631906
  - # 10
    frequency:    6.5990003544
  - # 11
    frequency:    7.5605160500
  - # 12
    frequency:   10.3804408451
  - # 13
    frequency:   10.4081259203
  - # 14
    frequency:   11.2435733148
  - # 15
    frequency:   11.3334948232
  - # 16
    frequency:   14.3023777320
  - # 17
    frequency:   14.5263100096
  - # 18
    frequency:   14.9138193764
  - # 19
    frequency:   15.5711686191
  - # 20
    frequency:   17.3818360459
  - # 21
    frequency:   64.5283408215

- q-position: [    0.1161616,    0.0000000,    0.0000000 ]
  distance:    0.0406419
  band:
  - # 1
    frequency:   -0.4916431382
  - # 2
    frequency:    0.7255132453
  - # 3
    frequency:    1.3872551271
  - # 4
    frequency:    1.5327352990
  - # 5
    frequency:    2.0369223318
  - # 6
    frequency:    2.5922214322
  - # 7
    frequency:    3.0104285428
  - # 8
    frequency:    4.1009063096
  - # 9
    frequency:    6.3959061465
  - # 10
    frequency:    6.6211498771
  - # 11
    frequency:    7.5472161804
  - # 12
    frequency:   10.3783337152
  - # 13
    frequency:   10.4166455099
  - # 14
    frequency:   11.2479945613
  - # 15
    frequency:   11.3467460501
  - # 16
    frequency:   14.2938699776
  - # 17
    frequency:   14.5321894778
  - # 18
    frequency:   14.9043388317
  - # 19
    frequency:   15.5954671303
  - # 20
    frequency:   17.3766838493
  - # 21
    frequency:   64.5254402709

- q-position: [    0.1212121,    0.0000000,    0.0000000 ]
  distance:    0.0424089
  band:
  - # 1
    frequency:   -0.3716065587
  - # 2
    frequency:    0.7890306619
  - # 3
    frequency:    1.4777600691
  - # 4
    frequency:    1.5882993240
  - # 5
    frequency:    2.1102321471
  - # 6
    frequency:    2.6057579119
  - # 7
    frequency:    3.0528839408
  - # 8
    frequency:    4.1136961507
  - # 9
    frequency:    6.4015638708
  - # 10
    frequency:    6.6438182946
  - # 11
    frequency:    7.5335349769
  - # 12
    frequency:   10.3754708967
  - # 13
    frequency:   10.4258053099
  - # 14
    frequency:   11.2524369276
  - # 15
    frequency:   11.3605991128
  - # 16
    frequency:   14.2849507684
  - # 17
    frequency:   14.5381579248
  - # 18
    frequency:   14.8945452530
  - # 19
    frequency:   15.6203262110
  - # 20
    frequency:   17.3713695633
  - # 21
    frequency:   64.5224588809

- q-position: [    0.1262626,    0.0000000,    0.0000000 ]
  distance:    0.0441759
  band:
  - # 1
    frequency:   -0.1796789502
  - # 2
    frequency:    0.8515643686
  - # 3
    frequency:    1.5645609485
  - # 4
    frequency:    1.6425818640
  - # 5
    frequency:    2.1814404213
  - # 6
    frequency:    2.6195472772
  - # 7
    frequency:    3.0965593210
  - # 8
    frequency:    4.1269997690
  - # 9
    frequency:    6.4074330807
  - # 10
    frequency:    6.6669532390
  - # 11
    frequency:    7.5195029356
  - # 12
    frequency:   10.3718696131
  - # 13
    frequency:   10.4356194911
  - # 14
    frequency:   11.2568831047
  - # 15
    frequency:   11.3750583224
  - # 16
    frequency:   14.2755320220
  - # 17
    frequency:   14.5441982447
  - # 18
    frequency:   14.8844500280
  - # 19
    frequency:   15.6457106331
  - # 20
    frequency:   17.3659039234
  - # 21
    frequency:   64.5194021630

- q-position: [    0.1313131,    0.0000000,    0.0000000 ]
  distance:    0.0459430
  band:
  - # 1
    frequency:    0.2747497590
  - # 2
    frequency:    0.9134129474
  - # 3
    frequency:    1.6478520040
  - # 4
    frequency:    1.6955536997
  - # 5
    frequency:    2.2504819422
  - # 6
    frequency:    2.6335744353
  - # 7
    frequency:    3.1415239584
  - # 8
    frequency:    4.1407681988
  - # 9
    frequency:    6.4135103615
  - # 10
    frequency:    6.6905003461
  - # 11
    frequency:    7.5051529095
  - # 12
    frequency:   10.3675623684
  - # 13
    frequency:   10.4460994190
  - # 14
    frequency:   11.2613161913
  - # 15
    frequency:   11.3901236037
  - # 16
    frequency:   14.2655325558
  - # 17
    frequency:   14.5502935091
  - # 18
    frequency:   14.8740545203
  - # 19
    frequency:   15.6715820140
  - # 20
    frequency:   17.3602983953
  - # 21
    frequency:   64.5162757131

- q-position: [    0.1363636,    0.0000000,    0.0000000 ]
  distance:    0.0477100
  band:
  - # 1
    frequency:    0.4301202268
  - # 2
    frequency:    0.9747314204
  - # 3
    frequency:    1.7277709914
  - # 4
    frequency:    1.7471868829
  - # 5
    frequency:    2.3173208183
  - # 6
    frequency:    2.6478281789
  - # 7
    frequency:    3.1878337222
  - # 8
    frequency:    4.1549492268
  - # 9
    frequency:    6.4197921556
  - # 10
    frequency:    6.7144028309
  - # 11
    frequency:    7.4905205060
  - # 12
    frequency:   10.3625964071
  - # 13
    frequency:   10.4572534322
  - # 14
    frequency:   11.2657198299
  - # 15
    frequency:   11.4057900582
  - # 16
    frequency:   14.2548807287
  - # 17
    frequency:   14.5564270272
  - # 18
    frequency:   14.8633502028
  - # 19
    frequency:   15.6978974710
  - # 20
    frequency:   17.3545651574
  - # 21
    frequency:   64.5130851951

- q-position: [    0.1414141,    0.0000000,    0.0000000 ]
  distance:    0.0494771
  band:
  - # 1
    frequency:    0.5440977734
  - # 2
    frequency:    1.0355894405
  - # 3
    frequency:    1.7974544709
  - # 4
    frequency:    1.8044070260
  - # 5
    frequency:    2.3819574006
  - # 6
    frequency:    2.6623014989
  - # 7
    frequency:    3.2355215739
  - # 8
    frequency:    4.1694891556
  - # 9
    frequency:    6.4262747482
  - # 10
    frequency:    6.7386009023
  - # 11
    frequency:    7.4756446354
  - # 12
    frequency:   10.3570328211
  - # 13
    frequency:   10.4690866401
  - # 14
    frequency:   11.2700783493
  - # 15
    frequency:   11.4220477686
  - # 16
    frequency:   14.2435164580
  - # 17
    frequency:   14.5625824009
  - # 18
    frequency:   14.8523191767
  - # 19
    frequency:   15.7246085655
  - # 20
    frequency:   17.3487170737
  - # 21
    frequency:   64.5098363253

- q-position: [    0.1464646,    0.0000000,    0.0000000 ]
  distance:    0.0512441
  band:
  - # 1
    frequency:    0.6390493288
  - # 2
    frequency:    1.0960039147
  - # 3
    frequency:    1.8463302810
  - # 4
    frequency:    1.8778089387
  - # 5
    frequency:    2.4444336305
  - # 6
    frequency:    2.6769918396
  - # 7
    frequency:    3.2845887976
  - # 8
    frequency:    4.1843348470
  - # 9
    frequency:    6.4329542522
  - # 10
    frequency:    6.7630309590
  - # 11
    frequency:    7.4605682737
  - # 12
    frequency:   10.3509453565
  - # 13
    frequency:   10.4816007395
  - # 14
    frequency:   11.2743769137
  - # 15
    frequency:   11.4388818307
  - # 16
    frequency:   14.2313925505
  - # 17
    frequency:   14.5687435755
  - # 18
    frequency:   14.8409350672
  - # 19
    frequency:   15.7516605695
  - # 20
    frequency:   17.3427676547
  - # 21
    frequency:   64.5065348569

- q-position: [    0.1515152,    0.0000000,    0.0000000 ]
  distance:    0.0530111
  band:
  - # 1
    frequency:    0.7223638267
  - # 2
    frequency:    1.1559582095
  - # 3
    frequency:    1.8937886855
  - # 4
    frequency:    1.9479934935
  - # 5
    frequency:    2.5048356600
  - # 6
    frequency:    2.6919012781
  - # 7
    frequency:    3.3349978902
  - # 8
    frequency:    4.1994360557
  - # 9
    frequency:    6.4398265904
  - # 10
    frequency:    6.7876244796
  - # 11
    frequency:    7.4453395271
  - # 12
    frequency:   10.3444189806
  - # 13
    frequency:   10.4947938489
  - # 14
    frequency:   11.2786016802
  - # 15
    frequency:   11.4562725806
  - # 16
    frequency:   14.2184753396
  - # 17
    frequency:   14.5748948869
  - # 18
    frequency:   14.8291642543
  - # 19
    frequency:   15.7789920685
  - # 20
    frequency:   17.3367310063
  - # 21