nqpoint: 300    
npath: 3      
segment_nqpoint:
- 100
- 100
- 100
labels:
- [ 'G', 'M' ]
- [ 'M', 'K' ]
- [ 'K', 'G' ]
reciprocal_lattice:
- [   0.30394086,   0.17548034,   0.00000000 ] # a*
- [   0.00000000,   0.35096068,   0.00000000 ] # b*
- [   0.00000000,   0.00000000,   0.03979783 ] # c*
natom: 7      
lattice:
- [     3.290113709092951,     0.000000000000000,     0.000000000000000 ] # a
- [    -1.645056854546475,     2.849322053424253,     0.000000000000000 ] # b
- [     0.000000000000000,     0.000000000000000,    25.126997550275743 ] # c
points:
- symbol: C # 1
  coordinates: [  0.666666984744047,  0.333332985985145,  0.405439748087314 ]
  mass: 12.010700
- symbol: N # 2
  coordinates: [  0.000000000000000,  0.000000000000000,  0.550284843339970 ]
  mass: 14.006700
- symbol: N # 3
  coordinates: [  0.666666984744047,  0.333332985985145,  0.358180478268134 ]
  mass: 14.006700
- symbol: O # 4
  coordinates: [  0.333332985432215,  0.666666983183674,  0.641819521731866 ]
  mass: 15.999400
- symbol: O # 5
  coordinates: [  0.666666984744047,  0.333332985985145,  0.458625695460303 ]
  mass: 15.999400
- symbol: Sc # 6
  coordinates: [  0.333332985432215,  0.666666983183674,  0.509702930724083 ]
  mass: 44.955912
- symbol: Sc # 7
  coordinates: [  0.666666984744047,  0.333332985985145,  0.614184664203517 ]
  mass: 44.955912

phonon:
- q-position: [    0.0000000,    0.0000000,    0.0000000 ]
  distance:    0.0000000
  band:
  - # 1
    frequency:   -1.1961370954
  - # 2
    frequency:   -1.1961370954
  - # 3
    frequency:   -0.0000027766
  - # 4
    frequency:   -0.0000009689
  - # 5
    frequency:    0.0000036161
  - # 6
    frequency:    3.4076520028
  - # 7
    frequency:    3.4076520028
  - # 8
    frequency:    5.9152716389
  - # 9
    frequency:    6.3485630728
  - # 10
    frequency:    6.3485630728
  - # 11
    frequency:   10.3755226072
  - # 12
    frequency:   11.8798087057
  - # 13
    frequency:   11.8798087057
  - # 14
    frequency:   13.6973609844
  - # 15
    frequency:   13.6973609844
  - # 16
    frequency:   14.3547004244
  - # 17
    frequency:   14.3547004244
  - # 18
    frequency:   15.0339708653
  - # 19
    frequency:   18.1472045477
  - # 20
    frequency:   32.3802872229
  - # 21
    frequency:   68.1995415303

- q-position: [    0.0050505,    0.0000000,    0.0000000 ]
  distance:    0.0017725
  band:
  - # 1
    frequency:   -1.1951643672
  - # 2
    frequency:   -1.1923075685
  - # 3
    frequency:   -0.0208966607
  - # 4
    frequency:    0.0694206918
  - # 5
    frequency:    0.1316214665
  - # 6
    frequency:    3.4088466241
  - # 7
    frequency:    3.4113010518
  - # 8
    frequency:    5.9136300202
  - # 9
    frequency:    6.3487199597
  - # 10
    frequency:    6.3526514125
  - # 11
    frequency:   10.3747597042
  - # 12
    frequency:   11.8802509381
  - # 13
    frequency:   11.8881584870
  - # 14
    frequency:   13.6974217453
  - # 15
    frequency:   13.6976919846
  - # 16
    frequency:   14.3528207700
  - # 17
    frequency:   14.3546533612
  - # 18
    frequency:   15.0349385501
  - # 19
    frequency:   18.1468139901
  - # 20
    frequency:   32.3796526164
  - # 21
    frequency:   68.1992343523

- q-position: [    0.0101010,    0.0000000,    0.0000000 ]
  distance:    0.0035451
  band:
  - # 1
    frequency:   -1.1922489472
  - # 2
    frequency:   -1.1808315891
  - # 3
    frequency:   -0.0404693574
  - # 4
    frequency:    0.1389546201
  - # 5
    frequency:    0.2635672319
  - # 6
    frequency:    3.4124233020
  - # 7
    frequency:    3.4221989511
  - # 8
    frequency:    5.9088945756
  - # 9
    frequency:    6.3491895196
  - # 10
    frequency:    6.3646740699
  - # 11
    frequency:   10.3724739532
  - # 12
    frequency:   11.8815724472
  - # 13
    frequency:   11.9130914765
  - # 14
    frequency:   13.6976039540
  - # 15
    frequency:   13.6986846000
  - # 16
    frequency:   14.3472709209
  - # 17
    frequency:   14.3545111513
  - # 18
    frequency:   15.0377932524
  - # 19
    frequency:   18.1456542766
  - # 20
    frequency:   32.3777511337
  - # 21
    frequency:   68.1983136629

- q-position: [    0.0151515,    0.0000000,    0.0000000 ]
  distance:    0.0053176
  band:
  - # 1
    frequency:   -1.1873989627
  - # 2
    frequency:   -1.1617364687
  - # 3
    frequency:   -0.0580158579
  - # 4
    frequency:    0.2087118015
  - # 5
    frequency:    0.3962293032
  - # 6
    frequency:    3.4183606324
  - # 7
    frequency:    3.4402009210
  - # 8
    frequency:    5.9015631694
  - # 9
    frequency:    6.3499684611
  - # 10
    frequency:    6.3839781180
  - # 11
    frequency:   10.3686738892
  - # 12
    frequency:   11.8837577389
  - # 13
    frequency:   11.9542548878
  - # 14
    frequency:   13.6979073884
  - # 15
    frequency:   13.7003371970
  - # 16
    frequency:   14.3383165463
  - # 17
    frequency:   14.3542707402
  - # 18
    frequency:   15.0423961969
  - # 19
    frequency:   18.1437613330
  - # 20
    frequency:   32.3745897700
  - # 21
    frequency:   68.1967819916

- q-position: [    0.0202020,    0.0000000,    0.0000000 ]
  distance:    0.0070901
  band:
  - # 1
    frequency:   -1.1806273909
  - # 2
    frequency:   -1.1350333737
  - # 3
    frequency:   -0.0722073390
  - # 4
    frequency:    0.2787958812
  - # 5
    frequency:    0.5298488511
  - # 6
    frequency:    3.4266234473
  - # 7
    frequency:    3.4650751415
  - # 8
    frequency:    5.8922815805
  - # 9
    frequency:    6.3510513362
  - # 10
    frequency:    6.4096715100
  - # 11
    frequency:   10.3633727252
  - # 12
    frequency:   11.8867812222
  - # 13
    frequency:   12.0110477740
  - # 14
    frequency:   13.6983316788
  - # 15
    frequency:   13.7026452891
  - # 16
    frequency:   14.3263975161
  - # 17
    frequency:   14.3539270589
  - # 18
    frequency:   15.0485351389
  - # 19
    frequency:   18.1411952015
  - # 20
    frequency:   32.3701801324
  - # 21
    frequency:   68.1946435393

- q-position: [    0.0252525,    0.0000000,    0.0000000 ]
  distance:    0.0088626
  band:
  - # 1
    frequency:   -1.1719511661
  - # 2
    frequency:   -1.1006683119
  - # 3
    frequency:   -0.0813419870
  - # 4
    frequency:    0.3493011316
  - # 5
    frequency:    0.6645678118
  - # 6
    frequency:    3.4371635492
  - # 7
    frequency:    3.4965156632
  - # 8
    frequency:    5.8816889008
  - # 9
    frequency:    6.3524305962
  - # 10
    frequency:    6.4407944128
  - # 11
    frequency:   10.3565871805
  - # 12
    frequency:   11.8906075535
  - # 13
    frequency:   12.0825995480
  - # 14
    frequency:   13.6988763087
  - # 15
    frequency:   13.7055982428
  - # 16
    frequency:   14.3121320396
  - # 17
    frequency:   14.3534730563
  - # 18
    frequency:   15.0559472789
  - # 19
    frequency:   18.1380403030
  - # 20
    frequency:   32.3645383639
  - # 21
    frequency:   68.1919041565

- q-position: [    0.0303030,    0.0000000,    0.0000000 ]
  distance:    0.0106352
  band:
  - # 1
    frequency:   -1.1613898674
  - # 2
    frequency:   -1.0584590556
  - # 3
    frequency:   -0.0827432283
  - # 4
    frequency:    0.4203097016
  - # 5
    frequency:    0.8004153592
  - # 6
    frequency:    3.4499206936
  - # 7
    frequency:    3.5341581592
  - # 8
    frequency:    5.8703254390
  - # 9
    frequency:    6.3540966682
  - # 10
    frequency:    6.4764319581
  - # 11
    frequency:   10.3483363589
  - # 12
    frequency:   11.8951921093
  - # 13
    frequency:   12.1677355884
  - # 14
    frequency:   13.6995406157
  - # 15
    frequency:   13.7091731980
  - # 16
    frequency:   14.2963372087
  - # 17
    frequency:   14.3528997457
  - # 18
    frequency:   15.0643427689
  - # 19
    frequency:   18.1344058334
  - # 20
    frequency:   32.3576850370
  - # 21
    frequency:   68.1885713130

- q-position: [    0.0353535,    0.0000000,    0.0000000 ]
  distance:    0.0124077
  band:
  - # 1
    frequency:   -1.1489639542
  - # 2
    frequency:   -1.0080229891
  - # 3
    frequency:   -0.0706840294
  - # 4
    frequency:    0.4918892397
  - # 5
    frequency:    0.9373163880
  - # 6
    frequency:    3.4648237797
  - # 7
    frequency:    3.5775967849
  - # 8
    frequency:    5.8586033077
  - # 9
    frequency:    6.3560380509
  - # 10
    frequency:    6.5157660378
  - # 11
    frequency:   10.3386409015
  - # 12
    frequency:   11.9004815796
  - # 13
    frequency:   12.2649249970
  - # 14
    frequency:   13.7003237924
  - # 15
    frequency:   13.7133243888
  - # 16
    frequency:   14.2800771447
  - # 17
    frequency:   14.3521962647
  - # 18
    frequency:   15.0734247390
  - # 19
    frequency:   18.1304263240
  - # 20
    frequency:   32.3496450194
  - # 21
    frequency:   68.1846540587

- q-position: [    0.0404040,    0.0000000,    0.0000000 ]
  distance:    0.0141802
  band:
  - # 1
    frequency:   -1.1346925478
  - # 2
    frequency:   -0.9486999318
  - # 3
    frequency:    0.0085764443
  - # 4
    frequency:    0.5640910201
  - # 5
    frequency:    1.0751136283
  - # 6
    frequency:    3.4817921995
  - # 7
    frequency:    3.6264005584
  - # 8
    frequency:    5.8468150582
  - # 9
    frequency:    6.3582414279
  - # 10
    frequency:    6.5580886381
  - # 11
    frequency:   10.3275224996
  - # 12
    frequency:   11.9064146695
  - # 13
    frequency:   12.3722036817
  - # 14
    frequency:   13.7012248872
  - # 15
    frequency:   13.7179653410
  - # 16
    frequency:   14.2647504212
  - # 17
    frequency:   14.3513499496
  - # 18
    frequency:   15.0829038862
  - # 19
    frequency:   18.1262624073
  - # 20
    frequency:   32.3404473121
  - # 21
    frequency:   68.1801629771

- q-position: [    0.0454545,    0.0000000,    0.0000000 ]
  distance:    0.0159528
  band:
  - # 1
    frequency:   -1.1185907940
  - # 2
    frequency:   -0.8794748984
  - # 3
    frequency:    0.0992946813
  - # 4
    frequency:    0.6369486961
  - # 5
    frequency:    1.2135956788
  - # 6
    frequency:    3.5007372981
  - # 7
    frequency:    3.6801280267
  - # 8
    frequency:    5.8351575437
  - # 9
    frequency:    6.3606917971
  - # 10
    frequency:    6.6027977267
  - # 11
    frequency:   10.3150037322
  - # 12
    frequency:   11.9129228990
  - # 13
    frequency:   12.4870653323
  - # 14
    frequency:   13.7022428049
  - # 15
    frequency:   13.7229417250
  - # 16
    frequency:   14.2522267077
  - # 17
    frequency:   14.3503464249
  - # 18
    frequency:   15.0925075205
  - # 19
    frequency:   18.1221018400
  - # 20
    frequency:   32.3301248616
  - # 21
    frequency:   68.1751101309

- q-position: [    0.0505051,    0.0000000,    0.0000000 ]
  distance:    0.0177253
  band:
  - # 1
    frequency:   -1.1006668799
  - # 2
    frequency:   -0.7989250326
  - # 3
    frequency:    0.1628020971
  - # 4
    frequency:    0.7104777658
  - # 5
    frequency:    1.3525236799
  - # 6
    frequency:    3.5215638936
  - # 7
    frequency:    3.7383394433
  - # 8
    frequency:    5.8237577519
  - # 9
    frequency:    6.3633726133
  - # 10
    frequency:    6.6493876867
  - # 11
    frequency:   10.3011081347
  - # 12
    frequency:   11.9199314854
  - # 13
    frequency:   12.6063181083
  - # 14
    frequency:   13.7033763072
  - # 15
    frequency:   13.7279970947
  - # 16
    frequency:   14.2450315054
  - # 17
    frequency:   14.3491697074
  - # 18
    frequency:   15.1019840559
  - # 19
    frequency:   18.1181608508
  - # 20
    frequency:   32.3187143488
  - # 21
    frequency:   68.1695090006

- q-position: [    0.0555556,    0.0000000,    0.0000000 ]
  distance:    0.0194978
  band:
  - # 1
    frequency:   -1.0809187953
  - # 2
    frequency:   -0.7053076653
  - # 3
    frequency:    0.2312186588
  - # 4
    frequency:    0.7846757829
  - # 5
    frequency:    1.4916519963
  - # 6
    frequency:    3.5441718106
  - # 7
    frequency:    3.8006061244
  - # 8
    frequency:    5.8126950049
  - # 9
    frequency:    6.3662659421
  - # 10
    frequency:    6.6974392418
  - # 11
    frequency:   10.2858603966
  - # 12
    frequency:   11.9273602946
  - # 13
    frequency:   12.7259271305
  - # 14
    frequency:   13.7046240121
  - # 15
    frequency:   13.7327487416
  - # 16
    frequency:   14.2465398703
  - # 17
    frequency:   14.3478023269
  - # 18
    frequency:   15.1111043079
  - # 19
    frequency:   18.1146858888
  - # 20
    frequency:   32.3062559550
  - # 21
    frequency:   68.1633744162

- q-position: [    0.0606061,    0.0000000,    0.0000000 ]
  distance:    0.0212703
  band:
  - # 1
    frequency:   -1.0593309221
  - # 2
    frequency:   -0.5972128500
  - # 3
    frequency:    0.3112990311
  - # 4
    frequency:    0.8595232734
  - # 5
    frequency:    1.6307415046
  - # 6
    frequency:    3.5684573853
  - # 7
    frequency:    3.8665170142
  - # 8
    frequency:    5.8020181056
  - # 9
    frequency:    6.3693526237
  - # 10
    frequency:    6.7466102032
  - # 11
    frequency:   10.2692866066
  - # 12
    frequency:   11.9351248466
  - # 13
    frequency:   12.8409218386
  - # 14
    frequency:   13.7059843932
  - # 15
    frequency:   13.7367206777
  - # 16
    frequency:   14.2610510770
  - # 17
    frequency:   14.3462254620
  - # 18
    frequency:   15.1196608720
  - # 19
    frequency:   18.1119558645
  - # 20
    frequency:   32.2927931086
  - # 21
    frequency:   68.1567224826

- q-position: [    0.0656566,    0.0000000,    0.0000000 ]
  distance:    0.0230429
  band:
  - # 1
    frequency:   -1.0358704824
  - # 2
    frequency:   -0.4755101957
  - # 3
    frequency:    0.4093977480
  - # 4
    frequency:    0.9349852503
  - # 5
    frequency:    1.7695663835
  - # 6
    frequency:    3.5943149074
  - # 7
    frequency:    3.9356827398
  - # 8
    frequency:    5.7917578075
  - # 9
    frequency:    6.3726124433
  - # 10
    frequency:    6.7966270281
  - # 11
    frequency:   10.2514144961
  - # 12
    frequency:   11.9431373582
  - # 13
    frequency:   12.9455527008
  - # 14
    frequency:   13.7074557779
  - # 15
    frequency:   13.7395011598
  - # 16
    frequency:   14.2934904495
  - # 17
    frequency:   14.3444190923
  - # 18
    frequency:   15.1274665925
  - # 19
    frequency:   18.1102849756
  - # 20
    frequency:   32.2783722142
  - # 21
    frequency:   68.1495705002

- q-position: [    0.0707071,    0.0000000,    0.0000000 ]
  distance:    0.0248154
  band:
  - # 1
    frequency:   -1.0104837852
  - # 2
    frequency:   -0.3433194802
  - # 3
    frequency:    0.5274196735
  - # 4
    frequency:    1.0110131688
  - # 5
    frequency:    1.9079162716
  - # 6
    frequency:    3.6216379709
  - # 7
    frequency:    4.0077375656
  - # 8
    frequency:    5.7819355411
  - # 9
    frequency:    6.3760243075
  - # 10
    frequency:    6.8472769111
  - # 11
    frequency:   10.2322736546
  - # 12
    frequency:   11.9513078106
  - # 13
    frequency:   13.0339573173
  - # 14
    frequency:   13.7090363448
  - # 15
    frequency:   13.7410239932
  - # 16
    frequency:   14.3423621670
  - # 17
    frequency:   14.3484774673
  - # 18
    frequency:   15.1343528463
  - # 19
    frequency:   18.1100262037
  - # 20
    frequency:   32.2630423662
  - # 21
    frequency:   68.1419368797

- q-position: [    0.0757576,    0.0000000,    0.0000000 ]
  distance:    0.0265879
  band:
  - # 1
    frequency:   -0.9830920803
  - # 2
    frequency:   -0.1834233192
  - # 3
    frequency:    0.6563638009
  - # 4
    frequency:    1.0875471364
  - # 5
    frequency:    2.0455956399
  - # 6
    frequency:    3.6503207126
  - # 7
    frequency:    4.0823396988
  - # 8
    frequency:    5.7725693711
  - # 9
    frequency:    6.3795664246
  - # 10
    frequency:    6.8984002300
  - # 11
    frequency:   10.2118957124
  - # 12
    frequency:   11.9595450241
  - # 13
    frequency:   13.1014001584
  - # 14
    frequency:   13.7107241199
  - # 15
    frequency:   13.7417849889
  - # 16
    frequency:   14.3400327888
  - # 17
    frequency:   14.4288831916
  - # 18
    frequency:   15.1401681892
  - # 19
    frequency:   18.1115755327
  - # 20
    frequency:   32.2468550508
  - # 21
    frequency:   68.1338410527

- q-position: [    0.0808081,    0.0000000,    0.0000000 ]
  distance:    0.0283605
  band:
  - # 1
    frequency:   -0.9535866555
  - # 2
    frequency:    0.1919038579
  - # 3
    frequency:    0.7846773675
  - # 4
    frequency:    1.1645181976
  - # 5
    frequency:    2.1824217765
  - # 6
    frequency:    3.6802589250
  - # 7
    frequency:    4.1591703699
  - # 8
    frequency:    5.7636780116
  - # 9
    frequency:    6.3832164868
  - # 10
    frequency:    6.9498833261
  - # 11
    frequency:   10.1903144910
  - # 12
    frequency:   11.9677577292
  - # 13
    frequency:   13.1455586824
  - # 14
    frequency:   13.7125169730
  - # 15
    frequency:   13.7427259537
  - # 16
    frequency:   14.3374084128
  - # 17
    frequency:   14.5346707056
  - # 18
    frequency:   15.1447779920
  - # 19
    frequency:   18.1153768558
  - # 20
    frequency:   32.2298638371
  - # 21
    frequency:   68.1253033792

- q-position: [    0.0858586,    0.0000000,    0.0000000 ]
  distance:    0.0301330
  band:
  - # 1
    frequency:   -0.9218225783
  - # 2
    frequency:    0.3220660372
  - # 3
    frequency:    0.9072440271
  - # 4
    frequency:    1.2418505402
  - # 5
    frequency:    2.3182222659
  - # 6
    frequency:    3.7113510359
  - # 7
    frequency:    4.2379320476
  - # 8
    frequency:    5.7552835452
  - # 9
    frequency:    6.3869518539
  - # 10
    frequency:    7.0016516932
  - # 11
    frequency:   10.1675661340
  - # 12
    frequency:   11.9758556190
  - # 13
    frequency:   13.1669614436
  - # 14
    frequency:   13.7144126119
  - # 15
    frequency:   13.7447978919
  - # 16
    frequency:   14.3344660595
  - # 17
    frequency:   14.6628995171
  - # 18
    frequency:   15.1480666161
  - # 19
    frequency:   18.1219273765
  - # 20
    frequency:   32.2121240615
  - # 21
    frequency:   68.1163450515

- q-position: [    0.0909091,    0.0000000,    0.0000000 ]
  distance:    0.0319055
  band:
  - # 1
    frequency:   -0.8876101535
  - # 2
    frequency:    0.4159861666
  - # 3
    frequency:    1.0233566468
  - # 4
    frequency:    1.3194635127
  - # 5
    frequency:    2.4528324491
  - # 6
    frequency:    3.7434989509
  - # 7
    frequency:    4.3183460677
  - # 8
    frequency:    5.7474133390
  - # 9
    frequency:    6.3907497375
  - # 10
    frequency:    7.0536636839
  - # 11
    frequency:   10.1436892243
  - # 12
    frequency:   11.9837503726
  - # 13
    frequency:   13.1682911785
  - # 14
    frequency:   13.7164085770
  - # 15
    frequency:   13.7485576331
  - # 16
    frequency:   14.3311825410
  - # 17
    frequency:   14.8088199215
  - # 18
    frequency:   15.1499491905
  - # 19
    frequency:   18.1317830141
  - # 20
    frequency:   32.1936925085
  - # 21
    frequency:   68.1069879957

- q-position: [    0.0959596,    0.0000000,    0.0000000 ]
  distance:    0.0336780
  band:
  - # 1
    frequency:   -0.8507026302
  - # 2
    frequency:    0.4980176734
  - # 3
    frequency:    1.1336773409
  - # 4
    frequency:    1.3972733893
  - # 5
    frequency:    2.5860930812
  - # 6
    frequency:    3.7766087610
  - # 7
    frequency:    4.4001498703
  - # 8
    frequency:    5.7401015268
  - # 9
    frequency:    6.3945873840
  - # 10
    frequency:    7.1059048229
  - # 11
    frequency:   10.1187249014
  - # 12
    frequency:   11.9913566393
  - # 13
    frequency:   13.1531739314
  - # 14
    frequency:   13.7185022349
  - # 15
    frequency:   13.7540830345
  - # 16
    frequency:   14.3275346973
  - # 17
    frequency:   14.9670934590
  - # 18
    frequency:   15.1504515654
  - # 19
    frequency:   18.1455628396
  - # 20
    frequency:   32.1746270881
  - # 21
    frequency:   68.0972547722

- q-position: [    0.1010101,    0.0000000,    0.0000000 ]
  distance:    0.0354506
  band:
  - # 1
    frequency:   -0.8107777580
  - # 2
    frequency:    0.5749149416
  - # 3
    frequency:    1.2390697104
  - # 4
    frequency:    1.4751948563
  - # 5
    frequency:    2.7178482581
  - # 6
    frequency:    3.8105913191
  - # 7
    frequency:    4.4830939564
  - # 8
    frequency:    5.7333903523
  - # 9
    frequency:    6.3984422570
  - # 10
    frequency:    7.1583827718
  - # 11
    frequency:   10.0927169857
  - # 12
    frequency:   11.9985929741
  - # 13
    frequency:   13.1251929896
  - # 14
    frequency:   13.7206907720
  - # 15
    frequency:   13.7611461949
  - # 16
    frequency:   14.3234996422
  - # 17
    frequency:   15.1286651539
  - # 18
    frequency:   15.1536563299
  - # 19
    frequency:   18.1639508213
  - # 20
    frequency:   32.1549865159
  - # 21
    frequency:   68.0871684747

- q-position: [    0.1060606,    0.0000000,    0.0000000 ]
  distance:    0.0372231
  band:
  - # 1
    frequency:   -0.7674090118
  - # 2
    frequency:    0.6494207455
  - # 3
    frequency:    1.3402940200
  - # 4
    frequency:    1.5531422316
  - # 5
    frequency:    2.8479436031
  - # 6
    frequency:    3.8453626908
  - # 7
    frequency:    4.5669385963
  - # 8
    frequency:    5.7273316250
  - # 9
    frequency:    6.4022922177
  - # 10
    frequency:    7.2111229437
  - # 11
    frequency:   10.0657121210
  - # 12
    frequency:   12.0053827169
  - # 13
    frequency:   13.0873958554
  - # 14
    frequency:   13.7229711886
  - # 15
    frequency:   13.7694236254
  - # 16
    frequency:   14.3190550156
  - # 17
    frequency:   15.1447537570
  - # 18
    frequency:   15.3040044184
  - # 19
    frequency:   18.1876921202
  - # 20
    frequency:   32.1348299957
  - # 21
    frequency:   68.0767526290

- q-position: [    0.1111111,    0.0000000,    0.0000000 ]
  distance:    0.0389956
  band:
  - # 1
    frequency:   -0.7200187085
  - # 2
    frequency:    0.7228427348
  - # 3
    frequency:    1.4379602512
  - # 4
    frequency:    1.6310304408
  - # 5
    frequency:    2.9762246730
  - # 6
    frequency:    3.8808444865
  - # 7
    frequency:    4.6514502297
  - # 8
    frequency:    5.7219885461
  - # 9
    frequency:    6.4061157036
  - # 10
    frequency:    7.2641647169
  - # 11
    frequency:   10.0377599429
  - # 12
    frequency:   12.0116548098
  - # 13
    frequency:   13.0421859776
  - # 14
    frequency:   13.7253402923
  - # 15
    frequency:   13.7786204194
  - # 16
    frequency:   14.3141792397
  - # 17
    frequency:   15.1402247961
  - # 18
    frequency:   15.4729229398
  - # 19
    frequency:   18.2175799375
  - # 20
    frequency:   32.1142169089
  - # 21
    frequency:   68.0660310919

- q-position: [    0.1161616,    0.0000000,    0.0000000 ]
  distance:    0.0407682
  band:
  - # 1
    frequency:   -0.6677973352
  - # 2
    frequency:    0.7958606969
  - # 3
    frequency:    1.5325452912
  - # 4
    frequency:    1.7087757909
  - # 5
    frequency:    3.1025355285
  - # 6
    frequency:    3.9169640837
  - # 7
    frequency:    4.7363973880
  - # 8
    frequency:    5.7174382104
  - # 9
    frequency:    6.4098919048
  - # 10
    frequency:    7.3175581666
  - # 11
    frequency:   10.0089132832
  - # 12
    frequency:   12.0173445473
  - # 13
    frequency:   12.9914019553
  - # 14
    frequency:   13.7277946934
  - # 15
    frequency:   13.7885104029
  - # 16
    frequency:   14.3088517754
  - # 17
    frequency:   15.1336544286
  - # 18
    frequency:   15.6386718560
  - # 19
    frequency:   18.2544278316
  - # 20
    frequency:   32.0932065122
  - # 21
    frequency:   68.0550279518

- q-position: [    0.1212121,    0.0000000,    0.0000000 ]
  distance:    0.0425407
  band:
  - # 1
    frequency:   -0.6095543252
  - # 2
    frequency:    0.8688440321
  - # 3
    frequency:    1.6244204793
  - # 4
    frequency:    1.7862965787
  - # 5
    frequency:    3.2267174148
  - # 6
    frequency:    3.9536547453
  - # 7
    frequency:    4.8215458001
  - # 8
    frequency:    5.7137752240
  - # 9
    frequency:    6.4136009374
  - # 10
    frequency:    7.3713612084
  - # 11
    frequency:    9.9792284221
  - # 12
    frequency:   12.0223942548
  - # 13
    frequency:   12.9364479240
  - # 14
    frequency:   13.7303308004
  - # 15
    frequency:   13.7989332920
  - # 16
    frequency:   14.3030533779
  - # 17
    frequency:   15.1251913364
  - # 18
    frequency:   15.7984029586
  - # 19
    frequency:   18.2990223088
  - # 20
    frequency:   32.0718576460
  - # 21
    frequency:   68.0437674301

- q-position: [    0.1262626,    0.0000000,    0.0000000 ]
  distance:    0.0443132
  band:
  - # 1
    frequency:   -0.5434130269
  - # 2
    frequency:    0.9419953009
  - # 3
    frequency:    1.7138761256
  - # 4
    frequency:    1.8635135735
  - # 5
    frequency:    3.3486075018
  - # 6
    frequency:    3.9908556419
  - # 7
    frequency:    4.9066520626
  - # 8
    frequency:    5.7111171297
  - # 9
    frequency:    6.4172240143
  - # 10
    frequency:    7.4256370305
  - # 11
    frequency:    9.9487653998
  - # 12
    frequency:   12.0267538935
  - # 13
    frequency:   12.8784138849
  - # 14
    frequency:   13.7329448167
  - # 15
    frequency:   13.8097787915
  - # 16
    frequency:   14.2967663459
  - # 17
    frequency:   15.1148548625
  - # 18
    frequency:   15.9498275347
  - # 19
    frequency:   18.3520526235
  - # 20
    frequency:   32.0502284563
  - # 21
    frequency:   68.0322737850

- q-position: [    0.1313131,    0.0000000,    0.0000000 ]
  distance:    0.0460857
  band:
  - # 1
    frequency:   -0.4660894308
  - # 2
    frequency:    1.0154217637
  - # 3
    frequency:    1.8011407481
  - # 4
    frequency:    1.9403504039
  - # 5
    frequency:    3.4680376378
  - # 6
    frequency:    4.0285117858
  - # 7
    frequency:    4.9914547400
  - # 8
    frequency:    5.7096128299
  - # 9
    frequency:    6.4207436126
  - # 10
    frequency:    7.4804516902
  - # 11
    frequency:    9.9175884070
  - # 12
    frequency:   12.0303815881
  - # 13
    frequency:   12.8181688937
  - # 14
    frequency:   13.7356327389
  - # 15
    frequency:   13.8209707788
  - # 16
    frequency:   14.2899747632
  - # 17
    frequency:   15.1026569588
  - # 18
    frequency:   16.0911066854
  - # 19
    frequency:   18.4140203876
  - # 20
    frequency:   32.0283761304
  - # 21
    frequency:   68.0205712184

- q-position: [    0.1363636,    0.0000000,    0.0000000 ]
  distance:    0.0478583
  band:
  - # 1
    frequency:   -0.3707363791
  - # 2
    frequency:    1.0891737207
  - # 3
    frequency:    1.8863955849
  - # 4
    frequency:    2.0167338771
  - # 5
    frequency:    3.5848330846
  - # 6
    frequency:    4.0665738813
  - # 7
    frequency:    5.0756607893
  - # 8
    frequency:    5.7094561564
  - # 9
    frequency:    6.4241436368
  - # 10
    frequency:    7.5358717428
  - # 11
    frequency:    9.8857662748
  - # 12
    frequency:   12.0332440776
  - # 13
    frequency:   12.7564280336
  - # 14
    frequency:   13.7383903558
  - # 15
    frequency:   13.8324552362
  - # 16
    frequency:   14.2826647287
  - # 17
    frequency:   15.0886182938
  - # 18
    frequency:   16.2208777646
  - # 19
    frequency:   18.4851407539
  - # 20
    frequency:   32.0063566502
  - # 21
    frequency:   68.0086837847

- q-position: [    0.1414141,    0.0000000,    0.0000000 ]
  distance:    0.0496308
  band:
  - # 1
    frequency:   -0.2366055147
  - # 2
    frequency:    1.1632662504
  - # 3
    frequency:    1.9697854352
  - # 4
    frequency:    2.0925942494
  - # 5
    frequency:    3.6988112145
  - # 6
    frequency:    4.1049980995
  - # 7
    frequency:    5.1589232756
  - # 8
    frequency:    5.7109086408
  - # 9
    frequency:    6.4274095769
  - # 10
    frequency:    7.5919617749
  - # 11
    frequency:    9.8533730961
  - # 12
    frequency:   12.0353170864
  - # 13
    frequency:   12.6937989714
  - # 14
    frequency:   13.7412132487
  - # 15
    frequency:   13.8441919452
  - # 16
    frequency:   14.2748245734
  - # 17
    frequency:   15.0727718012
  - # 18
    frequency:   16.3382965395
  - # 19
    frequency:   18.5652566250
  - # 20
    frequency:   31.9842245628
  - # 21
    frequency:   67.9966353053

- q-position: [    0.1464646,    0.0000000,    0.0000000 ]
  distance:    0.0514033
  band:
  - # 1
    frequency:    0.1645665280
  - # 2
    frequency:    1.2376920996
  - # 3
    frequency:    2.0514267712
  - # 4
    frequency:    2.1678654635
  - # 5
    frequency:    3.8097801817
  - # 6
    frequency:    4.1437457813
  - # 7
    frequency:    5.2408024883
  - # 8
    frequency:    5.7143393691
  - # 9
    frequency:    6.4305286618
  - # 10
    frequency:    7.6487817144
  - # 11
    frequency:    9.8204890189
  - # 12
    frequency:   12.0365856161
  - # 13
    frequency:   12.6308138760
  - # 14
    frequency:   13.7440967918
  - # 15
    frequency:   13.8561490140
  - # 16
    frequency:   14.2664450614
  - # 17
    frequency:   15.0551633425
  - # 18
    frequency:   16.4430550328
  - # 19
    frequency:   18.6537915126
  - # 20
    frequency:   31.9620327702
  - # 21
    frequency:   67.9844492850

- q-position: [    0.1515152,    0.0000000,    0.0000000 ]
  distance:    0.0531759
  band:
  - # 1
    frequency:    0.3341807927
  - # 2
    frequency:    1.3124296100
  - # 3
    frequency:    2.1314138514
  - # 4
    frequency:    2.2424853640
  - # 5
    frequency:    3.9175376193
  - # 6
    frequency:    4.1827830758
  - # 7
    frequency:    5.3206949869
  - # 8
    frequency:    5.7202973349
  - # 9
    frequency:    6.4334900047
  - # 10
    frequency:    7.7063837910
  - # 11
    frequency:    9.7872012701
  - # 12
    frequency:   12.0370441570
  - # 13
    frequency:   12.5679511955
  - # 14
    frequency:   13.7470361523
  - # 15
    frequency:   13.8682993235
  - # 16
    frequency:   14.2575195727
  - # 17
    frequency:   15.0358513778
  - # 18
    frequency:   16.5353508923
  - # 19
    frequency:   18.7497598290
  - # 20
    frequency:   31.9398323391
  - # 21
    frequency:   67.9721488345