nqpoint: 300    
npath: 3      
segment_nqpoint:
- 100
- 100
- 100
labels:
- [ 'G', 'M' ]
- [ 'M', 'K' ]
- [ 'K', 'G' ]
reciprocal_lattice:
- [   0.28576761,   0.16498801,   0.00000000 ] # a*
- [   0.00000000,   0.32997602,   0.00000000 ] # b*
- [   0.00000000,   0.00000000,   0.03759767 ] # c*
natom: 7      
lattice:
- [     3.499346864286649,     0.000000000000000,     0.000000000000000 ] # a
- [    -1.749673432143325,     3.030523281124295,     0.000000000000000 ] # b
- [     0.000000000000000,     0.000000000000000,    26.597390870483970 ] # c
points:
- symbol: Br # 1
  coordinates: [  0.666666984744047,  0.333332985985144,  0.338379055442901 ]
  mass: 79.904000
- symbol: C # 2
  coordinates: [  0.333332985432215,  0.666666983183674,  0.616870581163257 ]
  mass: 12.010700
- symbol: Hf # 3
  coordinates: [  0.333332985432215,  0.666666983183674,  0.410749403165091 ]
  mass: 178.490000
- symbol: Hf # 4
  coordinates: [  0.666666984744047,  0.333332985985144,  0.493326170718806 ]
  mass: 178.490000
- symbol: N # 5
  coordinates: [  0.000000000000000,  0.000000000000000,  0.448747522655483 ]
  mass: 14.006700
- symbol: N # 6
  coordinates: [  0.333332985432215,  0.666666983183674,  0.661620944557099 ]
  mass: 14.006700
- symbol: S # 7
  coordinates: [  0.333332985432215,  0.666666983183674,  0.553198445088612 ]
  mass: 32.065000

phonon:
- q-position: [    0.0000000,    0.0000000,    0.0000000 ]
  distance:    0.0000000
  band:
  - # 1
    frequency:   -0.0000045876
  - # 2
    frequency:    0.0000001902
  - # 3
    frequency:    0.0000044195
  - # 4
    frequency:    1.3512797191
  - # 5
    frequency:    1.3512797191
  - # 6
    frequency:    2.6612690777
  - # 7
    frequency:    2.6612690777
  - # 8
    frequency:    3.8915158525
  - # 9
    frequency:    3.8915158525
  - # 10
    frequency:    3.9482480877
  - # 11
    frequency:    6.0114857441
  - # 12
    frequency:    6.8587054637
  - # 13
    frequency:    7.0493872669
  - # 14
    frequency:    7.0493872669
  - # 15
    frequency:   10.7385815721
  - # 16
    frequency:   10.7385815721
  - # 17
    frequency:   11.6496996491
  - # 18
    frequency:   14.3542644798
  - # 19
    frequency:   14.3542644798
  - # 20
    frequency:   19.2410543557
  - # 21
    frequency:   64.7921863646

- q-position: [    0.0050505,    0.0000000,    0.0000000 ]
  distance:    0.0016665
  band:
  - # 1
    frequency:    0.0009771583
  - # 2
    frequency:    0.0161092538
  - # 3
    frequency:    0.0486920900
  - # 4
    frequency:    1.3515539351
  - # 5
    frequency:    1.3523262593
  - # 6
    frequency:    2.6616508405
  - # 7
    frequency:    2.6617132083
  - # 8
    frequency:    3.8888479916
  - # 9
    frequency:    3.8914270694
  - # 10
    frequency:    3.9511916472
  - # 11
    frequency:    6.0112176318
  - # 12
    frequency:    6.8581970000
  - # 13
    frequency:    7.0493093798
  - # 14
    frequency:    7.0495262485
  - # 15
    frequency:   10.7385355279
  - # 16
    frequency:   10.7385584528
  - # 17
    frequency:   11.6498725218
  - # 18
    frequency:   14.3540965549
  - # 19
    frequency:   14.3544255142
  - # 20
    frequency:   19.2409602143
  - # 21
    frequency:   64.7921081693

- q-position: [    0.0101010,    0.0000000,    0.0000000 ]
  distance:    0.0033331
  band:
  - # 1
    frequency:    0.0038809246
  - # 2
    frequency:    0.0325310384
  - # 3
    frequency:    0.0973068301
  - # 4
    frequency:    1.3523758819
  - # 5
    frequency:    1.3554604021
  - # 6
    frequency:    2.6627939213
  - # 7
    frequency:    2.6630458907
  - # 8
    frequency:    3.8820703619
  - # 9
    frequency:    3.8911604917
  - # 10
    frequency:    3.9587962953
  - # 11
    frequency:    6.0104131361
  - # 12
    frequency:    6.8566751273
  - # 13
    frequency:    7.0490763047
  - # 14
    frequency:    7.0499413777
  - # 15
    frequency:   10.7383970436
  - # 16
    frequency:   10.7384894852
  - # 17
    frequency:   11.6503893520
  - # 18
    frequency:   14.3535931241
  - # 19
    frequency:   14.3549072503
  - # 20
    frequency:   19.2406779364
  - # 21
    frequency:   64.7918737452

- q-position: [    0.0151515,    0.0000000,    0.0000000 ]
  distance:    0.0049996
  band:
  - # 1
    frequency:    0.0086278825
  - # 2
    frequency:    0.0495804474
  - # 3
    frequency:    0.1457671470
  - # 4
    frequency:    1.3537434591
  - # 5
    frequency:    1.3606659228
  - # 6
    frequency:    2.6646917123
  - # 7
    frequency:    2.6652678726
  - # 8
    frequency:    3.8731495802
  - # 9
    frequency:    3.8907154420
  - # 10
    frequency:    3.9690952235
  - # 11
    frequency:    6.0090717796
  - # 12
    frequency:    6.8541502441
  - # 13
    frequency:    7.0486897976
  - # 14
    frequency:    7.0506273651
  - # 15
    frequency:   10.7381650785
  - # 16
    frequency:   10.7383758333
  - # 17
    frequency:   11.6512447897
  - # 18
    frequency:   14.3527552156
  - # 19
    frequency:   14.3557055946
  - # 20
    frequency:   19.2402079628
  - # 21
    frequency:   64.7914835770

- q-position: [    0.0202020,    0.0000000,    0.0000000 ]
  distance:    0.0066662
  band:
  - # 1
    frequency:    0.0150961812
  - # 2
    frequency:    0.0675730397
  - # 3
    frequency:    0.1939965214
  - # 4
    frequency:    1.3556531766
  - # 5
    frequency:    1.3679164422
  - # 6
    frequency:    2.6673332511
  - # 7
    frequency:    2.6683799950
  - # 8
    frequency:    3.8633075821
  - # 9
    frequency:    3.8900908155
  - # 10
    frequency:    3.9808663024
  - # 11
    frequency:    6.0071927660
  - # 12
    frequency:    6.8506391898
  - # 13
    frequency:    7.0481527764
  - # 14
    frequency:    7.0515758898
  - # 15
    frequency:   10.7378379425
  - # 16
    frequency:   10.7382194136
  - # 17
    frequency:   11.6524299631
  - # 18
    frequency:   14.3515845332
  - # 19
    frequency:   14.3568137474
  - # 20
    frequency:   19.2395510302
  - # 21
    frequency:   64.7909384709

- q-position: [    0.0252525,    0.0000000,    0.0000000 ]
  distance:    0.0083327
  band:
  - # 1
    frequency:    0.0231477375
  - # 2
    frequency:    0.0868154151
  - # 3
    frequency:    0.2419192693
  - # 4
    frequency:    1.3581001692
  - # 5
    frequency:    1.3771763091
  - # 6
    frequency:    2.6707032957
  - # 7
    frequency:    2.6723826270
  - # 8
    frequency:    3.8531529358
  - # 9
    frequency:    3.8892851161
  - # 10
    frequency:    3.9935009420
  - # 11
    frequency:    6.0047749803
  - # 12
    frequency:    6.8461645990
  - # 13
    frequency:    7.0474693067
  - # 14
    frequency:    7.0527762495
  - # 15
    frequency:   10.7374133618
  - # 16
    frequency:   10.7380228608
  - # 17
    frequency:   11.6539325472
  - # 18
    frequency:   14.3500834402
  - # 19
    frequency:   14.3582222377
  - # 20
    frequency:   19.2387081749
  - # 21
    frequency:   64.7902395522

- q-position: [    0.0303030,    0.0000000,    0.0000000 ]
  distance:    0.0099993
  band:
  - # 1
    frequency:    0.0326551557
  - # 2
    frequency:    0.1075893463
  - # 3
    frequency:    0.2894608271
  - # 4
    frequency:    1.3610782145
  - # 5
    frequency:    1.3884016472
  - # 6
    frequency:    2.6747824285
  - # 7
    frequency:    2.6772749533
  - # 8
    frequency:    3.8429972980
  - # 9
    frequency:    3.8882965070
  - # 10
    frequency:    4.0066878506
  - # 11
    frequency:    6.0018169897
  - # 12
    frequency:    6.8407541509
  - # 13
    frequency:    7.0466445829
  - # 14
    frequency:    7.0542161118
  - # 15
    frequency:   10.7368885656
  - # 16
    frequency:   10.7377894802
  - # 17
    frequency:   11.6557368625
  - # 18
    frequency:   14.3482549372
  - # 19
    frequency:   14.3599189710
  - # 20
    frequency:   19.2376807379
  - # 21
    frequency:   64.7893882617

- q-position: [    0.0353535,    0.0000000,    0.0000000 ]
  distance:    0.0116658
  band:
  - # 1
    frequency:    0.0435265299
  - # 2
    frequency:    0.1301339486
  - # 3
    frequency:    0.3365480432
  - # 4
    frequency:    1.3645797524
  - # 5
    frequency:    1.4015414340
  - # 6
    frequency:    2.6795471879
  - # 7
    frequency:    2.6830541826
  - # 8
    frequency:    3.8330178950
  - # 9
    frequency:    3.8871228747
  - # 10
    frequency:    4.0202507829
  - # 11
    frequency:    5.9983170503
  - # 12
    frequency:    6.8344398135
  - # 13
    frequency:    7.0456849030
  - # 14
    frequency:    7.0558822683
  - # 15
    frequency:   10.7362603893
  - # 16
    frequency:   10.7375231880
  - # 17
    frequency:   11.6578240056
  - # 18
    frequency:   14.3461026325
  - # 19
    frequency:   14.3618892896
  - # 20
    frequency:   19.2364703706
  - # 21
    frequency:   64.7883863514

- q-position: [    0.0404040,    0.0000000,    0.0000000 ]
  distance:    0.0133324
  band:
  - # 1
    frequency:    0.0557214884
  - # 2
    frequency:    0.1546318408
  - # 3
    frequency:    0.3831094765
  - # 4
    frequency:    1.3685959031
  - # 5
    frequency:    1.4165385037
  - # 6
    frequency:    2.6849702266
  - # 7
    frequency:    2.6897147506
  - # 8
    frequency:    3.8233287384
  - # 9
    frequency:    3.8857619071
  - # 10
    frequency:    4.0340775416
  - # 11
    frequency:    5.9942731178
  - # 12
    frequency:    6.8272571551
  - # 13
    frequency:    7.0445976368
  - # 14
    frequency:    7.0577613107
  - # 15
    frequency:   10.7355253922
  - # 16
    frequency:   10.7372284399
  - # 17
    frequency:   11.6601720144
  - # 18
    frequency:   14.3436307048
  - # 19
    frequency:   14.3641160458
  - # 20
    frequency:   19.2350790419
  - # 21
    frequency:   64.7872358793

- q-position: [    0.0454545,    0.0000000,    0.0000000 ]
  distance:    0.0149989
  band:
  - # 1
    frequency:    0.0692546604
  - # 2
    frequency:    0.1812034784
  - # 3
    frequency:    0.4290757030
  - # 4
    frequency:    1.3731164810
  - # 5
    frequency:    1.4333304099
  - # 6
    frequency:    2.6910204942
  - # 7
    frequency:    2.6972475897
  - # 8
    frequency:    3.8140124815
  - # 9
    frequency:    3.8842111841
  - # 10
    frequency:    4.0480882963
  - # 11
    frequency:    5.9896828669
  - # 12
    frequency:    6.8192447665
  - # 13
    frequency:    7.0433911884
  - # 14
    frequency:    7.0598401860
  - # 15
    frequency:   10.7346799811
  - # 16
    frequency:   10.7369101510
  - # 17
    frequency:   11.6627560694
  - # 18
    frequency:   14.3408438578
  - # 19
    frequency:   14.3665796861
  - # 20
    frequency:   19.2335090458
  - # 21
    frequency:   64.7859392029

- q-position: [    0.0505051,    0.0000000,    0.0000000 ]
  distance:    0.0166655
  band:
  - # 1
    frequency:    0.0841873123
  - # 2
    frequency:    0.2099101260
  - # 3
    frequency:    0.4743796306
  - # 4
    frequency:    1.3781300013
  - # 5
    frequency:    1.4518501260
  - # 6
    frequency:    2.6976634428
  - # 7
    frequency:    2.7056395291
  - # 8
    frequency:    3.8051354384
  - # 9
    frequency:    3.8824682814
  - # 10
    frequency:    4.0622206745
  - # 11
    frequency:    5.9845437206
  - # 12
    frequency:    6.8104438023
  - # 13
    frequency:    7.0420749513
  - # 14
    frequency:    7.0621066174
  - # 15
    frequency:   10.7337205375
  - # 16
    frequency:   10.7365736048
  - # 17
    frequency:   11.6655487325
  - # 18
    frequency:   14.3377472663
  - # 19
    frequency:   14.3692583460
  - # 20
    frequency:   19.2317630094
  - # 21
    frequency:   64.7844989720

- q-position: [    0.0555556,    0.0000000,    0.0000000 ]
  distance:    0.0183320
  band:
  - # 1
    frequency:    0.1006114586
  - # 2
    frequency:    0.2407628575
  - # 3
    frequency:    0.5189568244
  - # 4
    frequency:    1.3836236760
  - # 5
    frequency:    1.4720266058
  - # 6
    frequency:    2.7048612539
  - # 7
    frequency:    2.7148728736
  - # 8
    frequency:    3.7967549702
  - # 9
    frequency:    3.8805308851
  - # 10
    frequency:    4.0764223972
  - # 11
    frequency:    5.9788528917
  - # 12
    frequency:    6.8008976294
  - # 13
    frequency:    7.0406592566
  - # 14
    frequency:    7.0645493995
  - # 15
    frequency:   10.7326435419
  - # 16
    frequency:   10.7362243572
  - # 17
    frequency:   11.6685202247
  - # 18
    frequency:   14.3343465135
  - # 19
    frequency:   14.3721279553
  - # 20
    frequency:   19.2298439016
  - # 21
    frequency:   64.7829181212

- q-position: [    0.0606061,    0.0000000,    0.0000000 ]
  distance:    0.0199985
  band:
  - # 1
    frequency:    0.1186317460
  - # 2
    frequency:    0.2737339925
  - # 3
    frequency:    0.5627458394
  - # 4
    frequency:    1.3895833972
  - # 5
    frequency:    1.4937852468
  - # 6
    frequency:    2.7125730835
  - # 7
    frequency:    2.7249251925
  - # 8
    frequency:    3.7889231569
  - # 9
    frequency:    3.8783969188
  - # 10
    frequency:    4.0906475270
  - # 11
    frequency:    5.9726074363
  - # 12
    frequency:    6.7906515582
  - # 13
    frequency:    7.0391553144
  - # 14
    frequency:    7.0671585901
  - # 15
    frequency:   10.7314456934
  - # 16
    frequency:   10.7358681331
  - # 17
    frequency:   11.6716387411
  - # 18
    frequency:   14.3306475191
  - # 19
    frequency:   14.3751623517
  - # 20
    frequency:   19.2277550417
  - # 21
    frequency:   64.7811998600

- q-position: [    0.0656566,    0.0000000,    0.0000000 ]
  distance:    0.0216651
  band:
  - # 1
    frequency:    0.1383492479
  - # 2
    frequency:    0.3087681344
  - # 3
    frequency:    0.6056885627
  - # 4
    frequency:    1.3959937052
  - # 5
    frequency:    1.5170483083
  - # 6
    frequency:    2.7207553246
  - # 7
    frequency:    2.7357693315
  - # 8
    frequency:    3.7816885285
  - # 9
    frequency:    3.8760646795
  - # 10
    frequency:    4.1048545461
  - # 11
    frequency:    5.9658043231
  - # 12
    frequency:    6.7797526282
  - # 13
    frequency:    7.0375751467
  - # 14
    frequency:    7.0699256262
  - # 15
    frequency:   10.7301240179
  - # 16
    frequency:   10.7355107193
  - # 17
    frequency:   11.6748708032
  - # 18
    frequency:   14.3266564589
  - # 19
    frequency:   14.3783334026
  - # 20
    frequency:   19.2255001069
  - # 21
    frequency:   64.7793476643

- q-position: [    0.0707071,    0.0000000,    0.0000000 ]
  distance:    0.0233316
  band:
  - # 1
    frequency:    0.1598493536
  - # 2
    frequency:    0.3457913098
  - # 3
    frequency:    0.6477305613
  - # 4
    frequency:    1.4028377397
  - # 5
    frequency:    1.5417353305
  - # 6
    frequency:    2.7293618843
  - # 7
    frequency:    2.7473736416
  - # 8
    frequency:    3.7750967204
  - # 9
    frequency:    3.8735329834
  - # 10
    frequency:    4.1190053996
  - # 11
    frequency:    5.9584405164
  - # 12
    frequency:    6.7682494237
  - # 13
    frequency:    7.0359315137
  - # 14
    frequency:    7.0728433860
  - # 15
    frequency:   10.7286759671
  - # 16
    frequency:   10.7351578554
  - # 17
    frequency:   11.6781816430
  - # 18
    frequency:   14.3223796757
  - # 19
    frequency:   14.3816111344
  - # 20
    frequency:   19.2230831403
  - # 21
    frequency:   64.7773652650

- q-position: [    0.0757576,    0.0000000,    0.0000000 ]
  distance:    0.0249982
  band:
  - # 1
    frequency:    0.1831942458
  - # 2
    frequency:    0.3847177983
  - # 3
    frequency:    0.6888214340
  - # 4
    frequency:    1.4100971747
  - # 5
    frequency:    1.5677635849
  - # 6
    frequency:    2.7383444729
  - # 7
    frequency:    2.7597024035
  - # 8
    frequency:    3.7691905033
  - # 9
    frequency:    3.8708013198
  - # 10
    frequency:    4.1330650573
  - # 11
    frequency:    5.9505130734
  - # 12
    frequency:    6.7561919000
  - # 13
    frequency:    7.0342378314
  - # 14
    frequency:    7.0759062183
  - # 15
    frequency:   10.7270995023
  - # 16
    frequency:   10.7348151232
  - # 17
    frequency:   11.6815356172
  - # 18
    frequency:   14.3178235829
  - # 19
    frequency:   14.3849638676
  - # 20
    frequency:   19.2205085576
  - # 21
    frequency:   64.7752566372

- q-position: [    0.0808081,    0.0000000,    0.0000000 ]
  distance:    0.0266647
  band:
  - # 1
    frequency:    0.2084194252
  - # 2
    frequency:    0.4254548534
  - # 3
    frequency:    0.7289151628
  - # 4
    frequency:    1.4177521392
  - # 5
    frequency:    1.5950485694
  - # 6
    frequency:    2.7476529039
  - # 7
    frequency:    2.7727164142
  - # 8
    frequency:    3.7640094449
  - # 9
    frequency:    3.8678700108
  - # 10
    frequency:    4.1470013532
  - # 11
    frequency:    5.9420192562
  - # 12
    frequency:    6.7436312065
  - # 13
    frequency:    7.0325080822
  - # 14
    frequency:    7.0791099515
  - # 15
    frequency:   10.7253931675
  - # 16
    frequency:   10.7344878367
  - # 17
    frequency:   11.6848966440
  - # 18
    frequency:   14.3129945616
  - # 19
    frequency:   14.3883583577
  - # 20
    frequency:   19.2177811519
  - # 21
    frequency:   64.7730259882

- q-position: [    0.0858586,    0.0000000,    0.0000000 ]
  distance:    0.0283313
  band:
  - # 1
    frequency:    0.2355333141
  - # 2
    frequency:    0.4679057425
  - # 3
    frequency:    0.7679704577
  - # 4
    frequency:    1.4257811259
  - # 5
    frequency:    1.6235045432
  - # 6
    frequency:    2.7572354019
  - # 7
    frequency:    2.7863736949
  - # 8
    frequency:    3.7595893569
  - # 9
    frequency:    3.8647403771
  - # 10
    frequency:    4.1607849633
  - # 11
    frequency:    5.9329566548
  - # 12
    frequency:    6.7306194996
  - # 13
    frequency:    7.0307567181
  - # 14
    frequency:    7.0824518934
  - # 15
    frequency:   10.7235561474
  - # 16
    frequency:   10.7341809357
  - # 17
    frequency:   11.6882286562
  - # 18
    frequency:   14.3078988523
  - # 19
    frequency:   14.3917599399
  - # 20
    frequency:   19.2149060985
  - # 21
    frequency:   64.7706777449

- q-position: [    0.0909091,    0.0000000,    0.0000000 ]
  distance:    0.0299978
  band:
  - # 1
    frequency:    0.2645189344
  - # 2
    frequency:    0.5119715526
  - # 3
    frequency:    0.8059510877
  - # 4
    frequency:    1.4341608951
  - # 5
    frequency:    1.6530450868
  - # 6
    frequency:    2.7670389170
  - # 7
    frequency:    2.8006302729
  - # 8
    frequency:    3.7559616306
  - # 9
    frequency:    3.8614149059
  - # 10
    frequency:    4.1743894424
  - # 11
    frequency:    5.9233233217
  - # 12
    frequency:    6.7172097407
  - # 13
    frequency:    7.0289985561
  - # 14
    frequency:    7.0859308247
  - # 15
    frequency:   10.7215883169
  - # 16
    frequency:   10.7338988813
  - # 17
    frequency:   11.6914960635
  - # 18
    frequency:   14.3025424445
  - # 19
    frequency:   14.3951326788
  - # 20
    frequency:   19.2118889563
  - # 21
    frequency:   64.7682165409

- q-position: [    0.0959596,    0.0000000,    0.0000000 ]
  distance:    0.0316644
  band:
  - # 1
    frequency:    0.2953368116
  - # 2
    frequency:    0.5575521375
  - # 3
    frequency:    0.8428261868
  - # 4
    frequency:    1.4428663822
  - # 5
    frequency:    1.6835836655
  - # 6
    frequency:    2.7770094431
  - # 7
    frequency:    2.8154409932
  - # 8
    frequency:    3.7531525326
  - # 9
    frequency:    3.8578974208
  - # 10
    frequency:    4.1877912739
  - # 11
    frequency:    5.9131179140
  - # 12
    frequency:    6.7034554799
  - # 13
    frequency:    7.0272486679
  - # 14
    frequency:    7.0895469916
  - # 15
    frequency:   10.7194902784
  - # 16
    frequency:   10.7336455587
  - # 17
    frequency:   11.6946642146
  - # 18
    frequency:   14.2969309642
  - # 19
    frequency:   14.3984395202
  - # 20
    frequency:   19.2087356689
  - # 21
    frequency:   64.7656472023

- q-position: [    0.1010101,    0.0000000,    0.0000000 ]
  distance:    0.0333309
  band:
  - # 1
    frequency:    0.3279284702
  - # 2
    frequency:    0.6045464995
  - # 3
    frequency:    0.8785705239
  - # 4
    frequency:    1.4518706204
  - # 5
    frequency:    1.7150341722
  - # 6
    frequency:    2.7870923388
  - # 7
    frequency:    2.8307603138
  - # 8
    frequency:    3.7511825114
  - # 9
    frequency:    3.8541932498
  - # 10
    frequency:    4.2009699088
  - # 11
    frequency:    5.9023398400
  - # 12
    frequency:    6.6894106260
  - # 13
    frequency:    7.0255222633
  - # 14
    frequency:    7.0933020955
  - # 15
    frequency:   10.7172633941
  - # 16
    frequency:   10.7334241848
  - # 17
    frequency:   11.6976998510
  - # 18
    frequency:   14.2910695645
  - # 19
    frequency:   14.4016424459
  - # 20
    frequency:   19.2054525621
  - # 21
    frequency:   64.7629747339

- q-position: [    0.1060606,    0.0000000,    0.0000000 ]
  distance:    0.0349975
  band:
  - # 1
    frequency:    0.3622200855
  - # 2
    frequency:    0.6528528197
  - # 3
    frequency:    0.9131647217
  - # 4
    frequency:    1.4611446929
  - # 5
    frequency:    1.7473114307
  - # 6
    frequency:    2.7972326492
  - # 7
    frequency:    2.8465430467
  - # 8
    frequency:    3.7500655553
  - # 9
    frequency:    3.8503093893
  - # 10
    frequency:    4.2139077811
  - # 11
    frequency:    5.8909894093
  - # 12
    frequency:    6.6751292043
  - # 13
    frequency:    7.0238345687
  - # 14
    frequency:    7.0971992822
  - # 15
    frequency:   10.7149098116
  - # 16
    frequency:   10.7332372252
  - # 17
    frequency:   11.7005715435
  - # 18
    frequency:   14.2849628198
  - # 19
    frequency:   14.4047026305
  - # 20
    frequency:   19.2020463396
  - # 21
    frequency:   64.7602043041

- q-position: [    0.1111111,    0.0000000,    0.0000000 ]
  distance:    0.0366640
  band:
  - # 1
    frequency:    0.3981260142
  - # 2
    frequency:    0.7023682899
  - # 3
    frequency:    0.9465954076
  - # 4
    frequency:    1.4706577307
  - # 5
    frequency:    1.7803316425
  - # 6
    frequency:    2.8073754260
  - # 7
    frequency:    2.8627450098
  - # 8
    frequency:    3.7498086281
  - # 9
    frequency:    3.8462546612
  - # 10
    frequency:    4.2265903011
  - # 11
    frequency:    5.8790679802
  - # 12
    frequency:    6.6606651045
  - # 13
    frequency:    7.0222007014
  - # 14
    frequency:    7.1012431299
  - # 15
    frequency:   10.7124324879
  - # 16
    frequency:   10.7330863182
  - # 17
    frequency:   11.7032501024
  - # 18
    frequency:   14.2786146280
  - # 19
    frequency:   14.4075805996
  - # 20
    frequency:   19.1985240768
  - # 21
    frequency:   64.7573412302

- q-position: [    0.1161616,    0.0000000,    0.0000000 ]
  distance:    0.0383305
  band:
  - # 1
    frequency:    0.4355520443
  - # 2
    frequency:    0.7529888583
  - # 3
    frequency:    0.9788552814
  - # 4
    frequency:    1.4803769738
  - # 5
    frequency:    1.8140127705
  - # 6
    frequency:    2.8174660465
  - # 7
    frequency:    2.8793235627
  - # 8
    frequency:    3.7504112061
  - # 9
    frequency:    3.8420398587
  - # 10
    frequency:    4.2390058316
  - # 11
    frequency:    5.8665781031
  - # 12
    frequency:    6.6460718198
  - # 13
    frequency:    7.0206355413
  - # 14
    frequency:    7.1054396327
  - # 15
    frequency:   10.7098352114
  - # 16
    frequency:   10.7329722103
  - # 17
    frequency:   11.7057089535
  - # 18
    frequency:   14.2720281228
  - # 19
    frequency:   14.4102363899
  - # 20
    frequency:   19.1948932106
  - # 21
    frequency:   64.7543909627

- q-position: [    0.1212121,    0.0000000,    0.0000000 ]
  distance:    0.0399971
  band:
  - # 1
    frequency:    0.4743982802
  - # 2
    frequency:    0.8046089642
  - # 3
    frequency:    1.0099430817
  - # 4
    frequency:    1.4902679142
  - # 5
    frequency:    1.8482748527
  - # 6
    frequency:    2.8274505281
  - # 7
    frequency:    2.8962380066
  - # 8
    frequency:    3.7518649278
  - # 9
    frequency:    3.8376778773
  - # 10
    frequency:    4.2511456559
  - # 11
    frequency:    5.8535236552
  - # 12
    frequency:    6.6314021790
  - # 13
    frequency:    7.0191536013
  - # 14
    frequency:    7.1097961829
  - # 15
    frequency:   10.7071226254
  - # 16
    frequency:   10.7328947005
  - # 17
    frequency:   11.7079244718
  - # 18
    frequency:   14.2652056001
  - # 19
    frequency:   14.4126297087
  - # 20
    frequency:   19.1911615276
  - # 21
    frequency:   64.7513590696

- q-position: [    0.1262626,    0.0000000,    0.0000000 ]
  distance:    0.0416636
  band:
  - # 1
    frequency:    0.5145616290
  - # 2
    frequency:    0.8571213154
  - # 3
    frequency:    1.0398634376
  - # 4
    frequency:    1.5002945363
  - # 5
    frequency:    1.8830402515
  - # 6
    frequency:    2.8372758395
  - # 7
    frequency:    2.9134498329
  - # 8
    frequency:    3.7541533655
  - # 9
    frequency:    3.8331838268
  - # 10
    frequency:    4.2630039543
  - # 11
    frequency:    5.8399099636
  - # 12
    frequency:    6.6167080708
  - # 13
    frequency:    7.0177688978
  - # 14
    frequency:    7.1143215476
  - # 15
    frequency:   10.7043002531
  - # 16
    frequency:   10.7328525966
  - # 17
    frequency:   11.7098762665
  - # 18
    frequency:   14.2581484602
  - # 19
    frequency:   14.4147200961
  - # 20
    frequency:   19.1873371489
  - # 21
    frequency:   64.7482512204

- q-position: [    0.1313131,    0.0000000,    0.0000000 ]
  distance:    0.0433302
  band:
  - # 1
    frequency:    0.5559378903
  - # 2
    frequency:    0.9104167450
  - # 3
    frequency:    1.0686265953
  - # 4
    frequency:    1.5104196680
  - # 5
    frequency:    1.9182338406
  - # 6
    frequency:    2.8468902077
  - # 7
    frequency:    2.9309228150
  - # 8
    frequency:    3.7572519218
  - # 9
    frequency:    3.8285751184
  - # 10
    frequency:    4.2745778016
  - # 11
    frequency:    5.8257439135
  - # 12
    frequency:    6.6020401602
  - # 13
    frequency:    7.0164948223
  - # 14
    frequency:    7.1190258403
  - # 15
    frequency:   10.7013745251
  - # 16
    frequency:   10.7328436821
  - # 17
    frequency:   11.7115474125
  - # 18
    frequency:   14.2508571695
  - # 19
    frequency:   14.4164670862
  - # 20
    frequency:   19.1834285123
  - # 21
    frequency:   64.7450731700

- q-position: [    0.1363636,    0.0000000,    0.0000000 ]
  distance:    0.0449967
  band:
  - # 1
    frequency:    0.5984234645
  - # 2
    frequency:    0.9643841658
  - # 3
    frequency:    1.0962480134
  - # 4
    frequency:    1.5206054490
  - # 5
    frequency:    1.9537831402
  - # 6
    frequency:    2.8562434195
  - # 7
    frequency:    2.9486229403
  - # 8
    frequency:    3.7611278496
  - # 9
    frequency:    3.8238715223
  - # 10
    frequency:    4.2858672020
  - # 11
    frequency:    5.8110340390
  - # 12
    frequency:    6.5874475963
  - # 13
    frequency:    7.0153440168
  - # 14
    frequency:    7.1239204857
  - # 15
    frequency:   10.6983528094
  - # 16
    frequency:   10.7328646955
  - # 17
    frequency:   11.7129246220
  - # 18
    frequency:   14.2433312429
  - # 19
    frequency:   14.4178303693
  - # 20
    frequency:   19.1794443517
  - # 21
    frequency:   64.7418307423

- q-position: [    0.1414141,    0.0000000,    0.0000000 ]
  distance:    0.0466633
  band:
  - # 1
    frequency:    0.6419167098
  - # 2
    frequency:    1.0189106351
  - # 3
    frequency:    1.1227478325
  - # 4
    frequency:    1.5308139164
  - # 5
    frequency:    1.9896184096
  - # 6
    frequency:    2.8652871208
  - # 7
    frequency:    2.9665181869
  - # 8
    frequency:    3.7657403928
  - # 9
    frequency:    3.8190951900
  - # 10
    frequency:    4.2968751753
  - # 11
    frequency:    5.7957905940
  - # 12
    frequency:    6.5729777097
  - # 13
    frequency:    7.0143282545
  - # 14
    frequency:    7.1290181772
  - # 15
    frequency:   10.6952434433
  - # 16
    frequency:   10.7329113201
  - # 17
    frequency:   11.7139983554
  - # 18
    frequency:   14.2355692490
  - # 19
    frequency:   14.4187699546
  - # 20
    frequency:   19.1753936737
  - # 21
    frequency:   64.7385298140

- q-position: [    0.1464646,    0.0000000,    0.0000000 ]
  distance:    0.0483298
  band:
  - # 1
    frequency:    0.6863189833
  - # 2
    frequency:    1.0738815283
  - # 3
    frequency:    1.1481502278
  - # 4
    frequency:    1.5410076992
  - # 5
    frequency:    2.0256727069
  - # 6
    frequency:    2.8739751116
  - # 7
    frequency:    2.9845781509
  - # 8
    frequency:    3.7710410433
  - # 9
    frequency:    3.8142706352
  - # 10
    frequency:    4.3076079046
  - # 11
    frequency:    5.7800256013
  - # 12
    frequency:    6.5586756976
  - # 13
    frequency:    7.0134583261
  - # 14
    frequency:    7.1343328235
  - # 15
    frequency:   10.6920557662
  - # 16
    frequency:   10.7329781863
  - # 17
    frequency:   11.7147628688
  - # 18
    frequency:   14.2275688401
  - # 19
    frequency:   14.4192463327
  - # 20
    frequency:   19.1712857314
  - # 21
    frequency:   64.7351762980

- q-position: [    0.1515152,    0.0000000,    0.0000000 ]
  distance:    0.0499964
  band:
  - # 1
    frequency:    0.7315354006
  - # 2
    frequency:    1.1291808160
  - # 3
    frequency:    1.1724826657
  - # 4
    frequency:    1.5511508042
  - # 5
    frequency:    2.0618819275
  - # 6
    frequency:    2.8822636398
  - # 7
    frequency:    3.0027735375
  - # 8
    frequency:    3.7769739113
  - # 9
    frequency:    3.8094246678
  - # 10
    frequency:    4.3180749519
  - # 11
    frequency:    5.7637528799
  - # 12
    frequency:    6.5445842956
  - # 13
    frequency:    7.0127439360
  - # 14
    frequency:    7.1398794845
  - # 15
    frequency:   10.6888001522
  - # 16
    frequency:   10.7330588848
  - # 17
    frequency:   11.7152161974
  - # 18
    frequency:   14.2193268062
  - # 19
    frequency:   14.4192206389
  - # 20
    frequency:   19.1671299958
  - # 21