nqpoint: 300    
npath: 3      
segment_nqpoint:
- 100
- 100
- 100
labels:
- [ 'G', 'M' ]
- [ 'M', 'K' ]
- [ 'K', 'G' ]
reciprocal_lattice:
- [   0.29406906,   0.16978085,   0.00000000 ] # a*
- [   0.00000000,   0.33956170,   0.00000000 ] # b*
- [   0.00000000,   0.00000000,   0.03844993 ] # c*
natom: 7      
lattice:
- [     3.400561765869419,     0.000000000000000,     0.000000000000000 ] # a
- [    -1.700280882934710,     2.944972876383418,     0.000000000000000 ] # b
- [     0.000000000000000,     0.000000000000000,    26.007848753552459 ] # c
points:
- symbol: C # 1
  coordinates: [  0.000000000000000,  0.000000000000000,  0.435964425293954 ]
  mass: 12.010700
- symbol: C # 2
  coordinates: [  0.333332985432215,  0.666666983183674,  0.608091911798494 ]
  mass: 12.010700
- symbol: N # 3
  coordinates: [  0.333332985432215,  0.666666983183674,  0.653950617550762 ]
  mass: 14.006700
- symbol: O # 4
  coordinates: [  0.666666984744047,  0.333332985985145,  0.346049382449238 ]
  mass: 15.999400
- symbol: S # 5
  coordinates: [  0.333332985432215,  0.666666983183674,  0.543986505960458 ]
  mass: 32.065000
- symbol: Sc # 6
  coordinates: [  0.333332985432215,  0.666666983183674,  0.370736883689992 ]
  mass: 44.955912
- symbol: Sc # 7
  coordinates: [  0.666666984744047,  0.333332985985145,  0.478123485694719 ]
  mass: 44.955912

phonon:
- q-position: [    0.0000000,    0.0000000,    0.0000000 ]
  distance:    0.0000000
  band:
  - # 1
    frequency:   -0.0000105691
  - # 2
    frequency:    0.0000000777
  - # 3
    frequency:    0.0000098851
  - # 4
    frequency:    1.3286360249
  - # 5
    frequency:    1.3286360249
  - # 6
    frequency:    2.6187905980
  - # 7
    frequency:    2.6187905981
  - # 8
    frequency:    4.1793374289
  - # 9
    frequency:    6.4389808858
  - # 10
    frequency:    6.4389808859
  - # 11
    frequency:    7.9671105833
  - # 12
    frequency:   10.4327564539
  - # 13
    frequency:   10.4327564539
  - # 14
    frequency:   11.0124905268
  - # 15
    frequency:   11.0124905268
  - # 16
    frequency:   12.7581831017
  - # 17
    frequency:   12.7581831017
  - # 18
    frequency:   13.5831346309
  - # 19
    frequency:   15.0741896837
  - # 20
    frequency:   20.9949610882
  - # 21
    frequency:   64.1501599591

- q-position: [    0.0050505,    0.0000000,    0.0000000 ]
  distance:    0.0017150
  band:
  - # 1
    frequency:   -0.0436610648
  - # 2
    frequency:    0.0022538355
  - # 3
    frequency:    0.0779772205
  - # 4
    frequency:    1.3286853369
  - # 5
    frequency:    1.3299977715
  - # 6
    frequency:    2.6196498292
  - # 7
    frequency:    2.6216294002
  - # 8
    frequency:    4.1788329306
  - # 9
    frequency:    6.4386534998
  - # 10
    frequency:    6.4392469550
  - # 11
    frequency:    7.9665024727
  - # 12
    frequency:   10.4327083634
  - # 13
    frequency:   10.4339407698
  - # 14
    frequency:   11.0125244487
  - # 15
    frequency:   11.0135885925
  - # 16
    frequency:   12.7554894744
  - # 17
    frequency:   12.7580847514
  - # 18
    frequency:   13.5842990660
  - # 19
    frequency:   15.0747407024
  - # 20
    frequency:   20.9949089553
  - # 21
    frequency:   64.1501336799

- q-position: [    0.0101010,    0.0000000,    0.0000000 ]
  distance:    0.0034299
  band:
  - # 1
    frequency:   -0.0872461766
  - # 2
    frequency:    0.0089778485
  - # 3
    frequency:    0.1558661519
  - # 4
    frequency:    1.3288353133
  - # 5
    frequency:    1.3340753087
  - # 6
    frequency:    2.6222233985
  - # 7
    frequency:    2.6301121240
  - # 8
    frequency:    4.1773292474
  - # 9
    frequency:    6.4376730955
  - # 10
    frequency:    6.4400453625
  - # 11
    frequency:    7.9646834550
  - # 12
    frequency:   10.4325647890
  - # 13
    frequency:   10.4374621679
  - # 14
    frequency:   11.0126272339
  - # 15
    frequency:   11.0168998798
  - # 16
    frequency:   12.7474731164
  - # 17
    frequency:   12.7577893893
  - # 18
    frequency:   13.5877326868
  - # 19
    frequency:   15.0763930106
  - # 20
    frequency:   20.9947526639
  - # 21
    frequency:   64.1500549047

- q-position: [    0.0151515,    0.0000000,    0.0000000 ]
  distance:    0.0051449
  band:
  - # 1
    frequency:   -0.1306793390
  - # 2
    frequency:    0.0200608685
  - # 3
    frequency:    0.2335754562
  - # 4
    frequency:    1.3290919835
  - # 5
    frequency:    1.3408464682
  - # 6
    frequency:    2.6264990407
  - # 7
    frequency:    2.6441394633
  - # 8
    frequency:    4.1748558470
  - # 9
    frequency:    6.4360449446
  - # 10
    frequency:    6.4413767034
  - # 11
    frequency:    7.9616693031
  - # 12
    frequency:   10.4323278251
  - # 13
    frequency:   10.4432268435
  - # 14
    frequency:   11.0128019121
  - # 15
    frequency:   11.0224750568
  - # 16
    frequency:   12.7343193234
  - # 17
    frequency:   12.7572960868
  - # 18
    frequency:   13.5932647978
  - # 19
    frequency:   15.0791443125
  - # 20
    frequency:   20.9944925365
  - # 21
    frequency:   64.1499238198

- q-position: [    0.0202020,    0.0000000,    0.0000000 ]
  distance:    0.0068598
  band:
  - # 1
    frequency:   -0.1738844648
  - # 2
    frequency:    0.0353254971
  - # 3
    frequency:    0.3110077234
  - # 4
    frequency:    1.3294650999
  - # 5
    frequency:    1.3502772661
  - # 6
    frequency:    2.6324566629
  - # 7
    frequency:    2.6635514870
  - # 8
    frequency:    4.1714619523
  - # 9
    frequency:    6.4337778645
  - # 10
    frequency:    6.4432419561
  - # 11
    frequency:    7.9574857567
  - # 12
    frequency:   10.4320009715
  - # 13
    frequency:   10.4510813656
  - # 14
    frequency:   11.0130534388
  - # 15
    frequency:   11.0303964494
  - # 16
    frequency:   12.7163118582
  - # 17
    frequency:   12.7566033132
  - # 18
    frequency:   13.6006362425
  - # 19
    frequency:   15.0829906116
  - # 20
    frequency:   20.9941291084
  - # 21
    frequency:   64.1497407352

- q-position: [    0.0252525,    0.0000000,    0.0000000 ]
  distance:    0.0085748
  band:
  - # 1
    frequency:   -0.2167853364
  - # 2
    frequency:    0.0545383230
  - # 3
    frequency:    0.3880565191
  - # 4
    frequency:    1.3299677223
  - # 5
    frequency:    1.3623257977
  - # 6
    frequency:    2.6400688450
  - # 7
    frequency:    2.6881352738
  - # 8
    frequency:    4.1672167155
  - # 9
    frequency:    6.4308842642
  - # 10
    frequency:    6.4456424611
  - # 11
    frequency:    7.9521677454
  - # 12
    frequency:   10.4315891463
  - # 13
    frequency:   10.4608173481
  - # 14
    frequency:   11.0133885579
  - # 15
    frequency:   11.0407744842
  - # 16
    frequency:   12.6938028987
  - # 17
    frequency:   12.7557089597
  - # 18
    frequency:   13.6095298613
  - # 19
    frequency:   15.0879259697
  - # 20
    frequency:   20.9936631265
  - # 21
    frequency:   64.1495060835

- q-position: [    0.0303030,    0.0000000,    0.0000000 ]
  distance:    0.0102897
  band:
  - # 1
    frequency:   -0.2593055616
  - # 2
    frequency:    0.0774222590
  - # 3
    frequency:    0.4646035595
  - # 4
    frequency:    1.3306156897
  - # 5
    frequency:    1.3769467587
  - # 6
    frequency:    2.6493014980
  - # 7
    frequency:    2.7176342905
  - # 8
    frequency:    4.1622094802
  - # 9
    frequency:    6.4273802037
  - # 10
    frequency:    6.4485798958
  - # 11
    frequency:    7.9457583861
  - # 12
    frequency:   10.4310987002
  - # 13
    frequency:   10.4721785260
  - # 14
    frequency:   11.0138156153
  - # 15
    frequency:   11.0537420391
  - # 16
    frequency:   12.6671823660
  - # 17
    frequency:   12.7546103732
  - # 18
    frequency:   13.6196017332
  - # 19
    frequency:   15.0939421970
  - # 20
    frequency:   20.9930955455
  - # 21
    frequency:   64.1492204182

- q-position: [    0.0353535,    0.0000000,    0.0000000 ]
  distance:    0.0120047
  band:
  - # 1
    frequency:   -0.3013685211
  - # 2
    frequency:    0.1036694028
  - # 3
    frequency:    0.5405161143
  - # 4
    frequency:    1.3314270257
  - # 5
    frequency:    1.3940959532
  - # 6
    frequency:    2.6601146426
  - # 7
    frequency:    2.7517585208
  - # 8
    frequency:    4.1565501449
  - # 9
    frequency:    6.4232854631
  - # 10
    frequency:    6.4520562432
  - # 11
    frequency:    7.9383078287
  - # 12
    frequency:   10.4305374302
  - # 13
    frequency:   10.4848705612
  - # 14
    frequency:   11.0143443322
  - # 15
    frequency:   11.0694462518
  - # 16
    frequency:   12.6368520159
  - # 17
    frequency:   12.7533043985
  - # 18
    frequency:   13.6305078226
  - # 19
    frequency:   15.1010284961
  - # 20
    frequency:   20.9924275245
  - # 21
    frequency:   64.1488844121

- q-position: [    0.0404040,    0.0000000,    0.0000000 ]
  distance:    0.0137197
  band:
  - # 1
    frequency:   -0.3428972933
  - # 2
    frequency:    0.1329531493
  - # 3
    frequency:    0.6156448009
  - # 4
    frequency:    1.3324213211
  - # 5
    frequency:    1.4137342329
  - # 6
    frequency:    2.6724632659
  - # 7
    frequency:    2.7901944136
  - # 8
    frequency:    4.1503696465
  - # 9
    frequency:    6.4186236164
  - # 10
    frequency:    6.4560737600
  - # 11
    frequency:    7.9298720260
  - # 12
    frequency:   10.4299145885
  - # 13
    frequency:   10.4985736827
  - # 14
    frequency:   11.0149855424
  - # 15
    frequency:   11.0880375353
  - # 16
    frequency:   12.6032068878
  - # 17
    frequency:   12.7517874274
  - # 18
    frequency:   13.6419234577
  - # 19
    frequency:   15.1091710900
  - # 20
    frequency:   20.9916604220
  - # 21
    frequency:   64.1484988548

- q-position: [    0.0454545,    0.0000000,    0.0000000 ]
  distance:    0.0154346
  band:
  - # 1
    frequency:   -0.3838145435
  - # 2
    frequency:    0.1649386557
  - # 3
    frequency:    0.6898220290
  - # 4
    frequency:    1.3336191387
  - # 5
    frequency:    1.4358304090
  - # 6
    frequency:    2.6862982164
  - # 7
    frequency:    2.8326138958
  - # 8
    frequency:    4.1438205792
  - # 9
    frequency:    6.4134221041
  - # 10
    frequency:    6.4606349426
  - # 11
    frequency:    7.9205115017
  - # 12
    frequency:   10.4292408849
  - # 13
    frequency:   10.5129578042
  - # 14
    frequency:   11.0157509054
  - # 15
    frequency:   11.1096559809
  - # 16
    frequency:   12.5666243138
  - # 17
    frequency:   12.7500554545
  - # 18
    frequency:   13.6535554826
  - # 19
    frequency:   15.1183528632
  - # 20
    frequency:   20.9907957904
  - # 21
    frequency:   64.1480646505

- q-position: [    0.0505051,    0.0000000,    0.0000000 ]
  distance:    0.0171496
  band:
  - # 1
    frequency:   -0.4240423616
  - # 2
    frequency:    0.1992911720
  - # 3
    frequency:    0.7628614927
  - # 4
    frequency:    1.3350414722
  - # 5
    frequency:    1.4603627196
  - # 6
    frequency:    2.7015670985
  - # 7
    frequency:    2.8786819302
  - # 8
    frequency:    4.1370779611
  - # 9
    frequency:    6.4077122984
  - # 10
    frequency:    6.4657424970
  - # 11
    frequency:    7.9102901819
  - # 12
    frequency:   10.4285284761
  - # 13
    frequency:   10.5276991247
  - # 14
    frequency:   11.0166526036
  - # 15
    frequency:   11.1344159403
  - # 16
    frequency:   12.5274593321
  - # 17
    frequency:   12.7481041383
  - # 18
    frequency:   13.6651483246
  - # 19
    frequency:   15.1285530435
  - # 20
    frequency:   20.9898353699
  - # 21
    frequency:   64.1475828142

- q-position: [    0.0555556,    0.0000000,    0.0000000 ]
  distance:    0.0188645
  band:
  - # 1
    frequency:   -0.4635020363
  - # 2
    frequency:    0.2356821069
  - # 3
    frequency:    0.8345592729
  - # 4
    frequency:    1.3367092839
  - # 5
    frequency:    1.4873183961
  - # 6
    frequency:    2.7182151335
  - # 7
    frequency:    2.9280623315
  - # 8
    frequency:    4.1303401568
  - # 9
    frequency:    6.4015295529
  - # 10
    frequency:    6.4713993106
  - # 11
    frequency:    7.8992743381
  - # 12
    frequency:   10.4277909414
  - # 13
    frequency:   10.5424965661
  - # 14
    frequency:   11.0177030322
  - # 15
    frequency:   11.1623901736
  - # 16
    frequency:   12.4860449579
  - # 17
    frequency:   12.7459288670
  - # 18
    frequency:   13.6764856775
  - # 19
    frequency:   15.1397469519
  - # 20
    frequency:   20.9887810807
  - # 21
    frequency:   64.1470544689

- q-position: [    0.0606061,    0.0000000,    0.0000000 ]
  distance:    0.0205795
  band:
  - # 1
    frequency:   -0.5021137538
  - # 2
    frequency:    0.2737929554
  - # 3
    frequency:    0.9046972911
  - # 4
    frequency:    1.3386431346
  - # 5
    frequency:    1.5166907685
  - # 6
    frequency:    2.7361859618
  - # 7
    frequency:    2.9804217468
  - # 8
    frequency:    4.1238299520
  - # 9
    frequency:    6.3949132305
  - # 10
    frequency:    6.4776084308
  - # 11
    frequency:    7.8875316791
  - # 12
    frequency:   10.4270432406
  - # 13
    frequency:   10.5570860147
  - # 14
    frequency:   11.0189144937
  - # 15
    frequency:   11.1935952499
  - # 16
    frequency:   12.4426960024
  - # 17
    frequency:   12.7435248265
  - # 18
    frequency:   13.6873893796
  - # 19
    frequency:   15.1519058388
  - # 20
    frequency:   20.9876350160
  - # 21
    frequency:   64.1464808416

- q-position: [    0.0656566,    0.0000000,    0.0000000 ]
  distance:    0.0222945
  band:
  - # 1
    frequency:   -0.5397962162
  - # 2
    frequency:    0.3133173675
  - # 3
    frequency:    0.9730499491
  - # 4
    frequency:    1.3408629079
  - # 5
    frequency:    1.5484732813
  - # 6
    frequency:    2.7554223674
  - # 7
    frequency:    3.0354318482
  - # 8
    frequency:    4.1177957642
  - # 9
    frequency:    6.3879067014
  - # 10
    frequency:    6.4843730499
  - # 11
    frequency:    7.8751306082
  - # 12
    frequency:   10.4263016519
  - # 13
    frequency:   10.5712504534
  - # 14
    frequency:   11.0202989027
  - # 15
    frequency:   11.2279795877
  - # 16
    frequency:   12.3977156847
  - # 17
    frequency:   12.7408870713
  - # 18
    frequency:   13.6977167088
  - # 19
    frequency:   15.1649968199
  - # 20
    frequency:   20.9863994329
  - # 21
    frequency:   64.1458632593

- q-position: [    0.0707071,    0.0000000,    0.0000000 ]
  distance:    0.0240094
  band:
  - # 1
    frequency:   -0.5764661789
  - # 2
    frequency:    0.3539617067
  - # 3
    frequency:    1.0393946742
  - # 4
    frequency:    1.3433876244
  - # 5
    frequency:    1.5826499085
  - # 6
    frequency:    2.7758669143
  - # 7
    frequency:    3.0927698611
  - # 8
    frequency:    4.1125129573
  - # 9
    frequency:    6.3805573057
  - # 10
    frequency:    6.4916964983
  - # 11
    frequency:    7.8621396535
  - # 12
    frequency:   10.4255836887
  - # 13
    frequency:   10.5848247724
  - # 14
    frequency:   11.0218675121
  - # 15
    frequency:   11.2654145063
  - # 16
    frequency:   12.3514050093
  - # 17
    frequency:   12.7380105955
  - # 18
    frequency:   13.7073569346
  - # 19
    frequency:   15.1789829180
  - # 20
    frequency:   20.9850767434
  - # 21
    frequency:   64.1452031444

- q-position: [    0.0757576,    0.0000000,    0.0000000 ]
  distance:    0.0257244
  band:
  - # 1
    frequency:   -0.6120379083
  - # 2
    frequency:    0.3954444549
  - # 3
    frequency:    1.1035265536
  - # 4
    frequency:    1.3462353354
  - # 5
    frequency:    1.6191819789
  - # 6
    frequency:    2.7974624883
  - # 7
    frequency:    3.1521175922
  - # 8
    frequency:    4.1082851961
  - # 9
    frequency:    6.3729162715
  - # 10
    frequency:    6.4995822471
  - # 11
    frequency:    7.8486270638
  - # 12
    frequency:   10.4249079958
  - # 13
    frequency:   10.5976951091
  - # 14
    frequency:   11.0236306649
  - # 15
    frequency:   11.3056869730
  - # 16
    frequency:   12.3040758361
  - # 17
    frequency:   12.7348904048
  - # 18
    frequency:   13.7162276553
  - # 19
    frequency:   15.1938232060
  - # 20
    frequency:   20.9836695043
  - # 21
    frequency:   64.1445020102

- q-position: [    0.0808081,    0.0000000,    0.0000000 ]
  distance:    0.0274393
  band:
  - # 1
    frequency:   -0.6464225680
  - # 2
    frequency:    0.4374947990
  - # 3
    frequency:    1.1652761691
  - # 4
    frequency:    1.3494230825
  - # 5
    frequency:    1.6579924899
  - # 6
    frequency:    2.8201527468
  - # 7
    frequency:    3.2131591305
  - # 8
    frequency:    4.1054457446
  - # 9
    frequency:    6.3650385861
  - # 10
    frequency:    6.5080339214
  - # 11
    frequency:    7.8346605583
  - # 12
    frequency:   10.4242942248
  - # 13
    frequency:   10.6097936116
  - # 14
    frequency:   11.0255975793
  - # 15
    frequency:   11.3484904850
  - # 16
    frequency:   12.2560700110
  - # 17
    frequency:   12.7315215865
  - # 18
    frequency:   13.7242712261
  - # 19
    frequency:   15.2094730429
  - # 20
    frequency:   20.9821804071
  - # 21
    frequency:   64.1437614555

- q-position: [    0.0858586,    0.0000000,    0.0000000 ]
  distance:    0.0291543
  band:
  - # 1
    frequency:   -0.6795275400
  - # 2
    frequency:    0.4798507023
  - # 3
    frequency:    1.2245282215
  - # 4
    frequency:    1.3529669086
  - # 5
    frequency:    1.6989504864
  - # 6
    frequency:    2.8438824794
  - # 7
    frequency:    3.2755774145
  - # 8
    frequency:    4.1043585427
  - # 9
    frequency:    6.3569828121
  - # 10
    frequency:    6.5170553243
  - # 11
    frequency:    7.8203072100
  - # 12
    frequency:   10.4237628908
  - # 13
    frequency:   10.6210901900
  - # 14
    frequency:   11.0277761684
  - # 15
    frequency:   11.3934074274
  - # 16
    frequency:   12.2077895152
  - # 17
    frequency:   12.7278993791
  - # 18
    frequency:   13.7314514402
  - # 19
    frequency:   15.2258843852
  - # 20
    frequency:   20.9806122672
  - # 21
    frequency:   64.1429831597

- q-position: [    0.0909091,    0.0000000,    0.0000000 ]
  distance:    0.0308692
  band:
  - # 1
    frequency:   -0.7112556893
  - # 2
    frequency:    0.5222567286
  - # 3
    frequency:    1.2812371527
  - # 4
    frequency:    1.3568819067
  - # 5
    frequency:    1.7418594449
  - # 6
    frequency:    2.8685978869
  - # 7
    frequency:    3.3390499234
  - # 8
    frequency:    4.1054187872
  - # 9
    frequency:    6.3488108484
  - # 10
    frequency:    6.5266504742
  - # 11
    frequency:    7.8056334431
  - # 12
    frequency:   10.4233352139
  - # 13
    frequency:   10.6315829563
  - # 14
    frequency:   11.0301728989
  - # 15
    frequency:   11.4398710476
  - # 16
    frequency:   12.1597477458
  - # 17
    frequency:   12.7240192386
  - # 18
    frequency:   13.7377505406
  - # 19
    frequency:   15.2430061561
  - # 20
    frequency:   20.9789680120
  - # 21
    frequency:   64.1421688773

- q-position: [    0.0959596,    0.0000000,    0.0000000 ]
  distance:    0.0325842
  band:
  - # 1
    frequency:   -0.7415045792
  - # 2
    frequency:    0.5644618714
  - # 3
    frequency:    1.3354356281
  - # 4
    frequency:    1.3611822944
  - # 5
    frequency:    1.7864539059
  - # 6
    frequency:    2.8942467878
  - # 7
    frequency:    3.4032439244
  - # 8
    frequency:    4.1090525329
  - # 9
    frequency:    6.3405876317
  - # 10
    frequency:    6.5368236554
  - # 11
    frequency:    7.7907051230
  - # 12
    frequency:   10.4230329483
  - # 13
    frequency:   10.6412887759
  - # 14
    frequency:   11.0327926892
  - # 15
    frequency:   11.4870846757
  - # 16
    frequency:   12.1126628873
  - # 17
    frequency:   12.7198769027
  - # 18
    frequency:   13.7431665900
  - # 19
    frequency:   15.2607846480
  - # 20
    frequency:   20.9772506699
  - # 21
    frequency:   64.1413204315

- q-position: [    0.1010101,    0.0000000,    0.0000000 ]
  distance:    0.0342992
  band:
  - # 1
    frequency:   -0.7701656398
  - # 2
    frequency:    0.6062176322
  - # 3
    frequency:    1.3658815041
  - # 4
    frequency:    1.3872331466
  - # 5
    frequency:    1.8324071133
  - # 6
    frequency:    2.9207787621
  - # 7
    frequency:    3.4678120890
  - # 8
    frequency:    4.1157144520
  - # 9
    frequency:    6.3323807793
  - # 10
    frequency:    6.5475794838
  - # 11
    frequency:    7.7755877180
  - # 12
    frequency:   10.4228782038
  - # 13
    frequency:   10.6502348485
  - # 14
    frequency:   11.0356388446
  - # 15
    frequency:   11.5338536156
  - # 16
    frequency:   12.0676370622
  - # 17
    frequency:   12.7154684524
  - # 18
    frequency:   13.7477112029
  - # 19
    frequency:   15.2791639398
  - # 20
    frequency:   20.9754633578
  - # 21
    frequency:   64.1404397090

- q-position: [    0.1060606,    0.0000000,    0.0000000 ]
  distance:    0.0360141
  band:
  - # 1
    frequency:   -0.7971232894
  - # 2
    frequency:    0.6472766025
  - # 3
    frequency:    1.3709922821
  - # 4
    frequency:    1.4368049029
  - # 5
    frequency:    1.8793494506
  - # 6
    frequency:    2.9481452408
  - # 7
    frequency:    3.5323899919
  - # 8
    frequency:    4.1258822300
  - # 9
    frequency:    6.3242601741
  - # 10
    frequency:    6.5589229882
  - # 11
    frequency:    7.7603465148
  - # 12
    frequency:   10.4228932632
  - # 13
    frequency:   10.6584517430
  - # 14
    frequency:   11.0387130304
  - # 15
    frequency:   11.5782443938
  - # 16
    frequency:   12.0265061985
  - # 17
    frequency:   12.7107903693
  - # 18
    frequency:   13.7514076323
  - # 19
    frequency:   15.2980863072
  - # 20
    frequency:   20.9736092689
  - # 21
    frequency:   64.1395286536

- q-position: [    0.1111111,    0.0000000,    0.0000000 ]
  distance:    0.0377291
  band:
  - # 1
    frequency:   -0.8222540001
  - # 2
    frequency:    0.6873918264
  - # 3
    frequency:    1.3765267924
  - # 4
    frequency:    1.4843739769
  - # 5
    frequency:    1.9268943347
  - # 6
    frequency:    2.9762995510
  - # 7
    frequency:    3.5965981371
  - # 8
    frequency:    4.1400450440
  - # 9
    frequency:    6.3162974954
  - # 10
    frequency:    6.5708597104
  - # 11
    frequency:    7.7450468719
  - # 12
    frequency:   10.4231004017
  - # 13
    frequency:   10.6659679249
  - # 14
    frequency:   11.0420152786
  - # 15
    frequency:   11.6169632690
  - # 16
    frequency:   11.9924687140
  - # 17
    frequency:   12.7058395906
  - # 18
    frequency:   13.7542891984
  - # 19
    frequency:   15.3174926098
  - # 20
    frequency:   20.9716916607
  - # 21
    frequency:   64.1385892595

- q-position: [    0.1161616,    0.0000000,    0.0000000 ]
  distance:    0.0394440
  band:
  - # 1
    frequency:   -0.8454252938
  - # 2
    frequency:    0.7263172450
  - # 3
    frequency:    1.3824967222
  - # 4
    frequency:    1.5301914380
  - # 5
    frequency:    1.9746665015
  - # 6
    frequency:    3.0051969254
  - # 7
    frequency:    3.6600525762
  - # 8
    frequency:    4.1586823057
  - # 9
    frequency:    6.3085656999
  - # 10
    frequency:    6.5833958213
  - # 11
    frequency:    7.7297544964
  - # 12
    frequency:   10.4235217105
  - # 13
    frequency:   10.6728055877
  - # 14
    frequency:   11.0455440243
  - # 15
    frequency:   11.6446706277
  - # 16
    frequency:   11.9707766208
  - # 17
    frequency:   12.7006135599
  - # 18
    frequency:   13.7563980460
  - # 19
    frequency:   15.3373226443
  - # 20
    frequency:   20.9697138420
  - # 21
    frequency:   64.1376235655

- q-position: [    0.1212121,    0.0000000,    0.0000000 ]
  distance:    0.0411590
  band:
  - # 1
    frequency:   -0.8664946398
  - # 2
    frequency:    0.7638095431
  - # 3
    frequency:    1.3889133889
  - # 4
    frequency:    1.5745184939
  - # 5
    frequency:    2.0223278343
  - # 6
    frequency:    3.0347944814
  - # 7
    frequency:    3.7223891209
  - # 8
    frequency:    4.1822281058
  - # 9
    frequency:    6.3011384592
  - # 10
    frequency:    6.5965382571
  - # 11
    frequency:    7.7145357332
  - # 12
    frequency:   10.4241789309
  - # 13
    frequency:   10.6789775030
  - # 14
    frequency:   11.0492961700
  - # 15
    frequency:   11.6550119128
  - # 16
    frequency:   11.9677087224
  - # 17
    frequency:   12.6951102751
  - # 18
    frequency:   13.7577842180
  - # 19
    frequency:   15.3575154534
  - # 20
    frequency:   20.9676791607
  - # 21
    frequency:   64.1366336481

- q-position: [    0.1262626,    0.0000000,    0.0000000 ]
  distance:    0.0428740
  band:
  - # 1
    frequency:   -0.8853082180
  - # 2
    frequency:    0.7996317058
  - # 3
    frequency:    1.3957878501
  - # 4
    frequency:    1.6176130391
  - # 5
    frequency:    2.0695974403
  - # 6
    frequency:    3.0650511785
  - # 7
    frequency:    3.7833046677
  - # 8
    frequency:    4.2110184912
  - # 9
    frequency:    6.2940895624
  - # 10
    frequency:    6.6102948715
  - # 11
    frequency:    7.6994578558
  - # 12
    frequency:   10.4250933003
  - # 13
    frequency:   10.6844845954
  - # 14
    frequency:   11.0532671710
  - # 15
    frequency:   11.6455141951
  - # 16
    frequency:   11.9856771090
  - # 17
    frequency:   12.6893283331
  - # 18
    frequency:   13.7585050332
  - # 19
    frequency:   15.3780095884
  - # 20
    frequency:   20.9655909916
  - # 21
    frequency:   64.1356216148

- q-position: [    0.1313131,    0.0000000,    0.0000000 ]
  distance:    0.0445889
  band:
  - # 1
    frequency:   -0.9016994883
  - # 2
    frequency:    0.8335585330
  - # 3
    frequency:    1.4031310193
  - # 4
    frequency:    1.6597210038
  - # 5
    frequency:    2.1162645126
  - # 6
    frequency:    3.0959277567
  - # 7
    frequency:    3.8426125578
  - # 8
    frequency:    4.2452254674
  - # 9
    frequency:    6.2874922918
  - # 10
    frequency:    6.6246746026
  - # 11
    frequency:    7.6845893510
  - # 12
    frequency:   10.4262854137
  - # 13
    frequency:   10.6893139974
  - # 14
    frequency:   11.0574511395
  - # 15
    frequency:   11.6203312638
  - # 16
    frequency:   12.0204843404
  - # 17
    frequency:   12.6832669706
  - # 18
    frequency:   13.7586247597
  - # 19
    frequency:   15.3987433257
  - # 20
    frequency:   20.9634527239
  - # 21
    frequency:   64.1345895979

- q-position: [    0.1363636,    0.0000000,    0.0000000 ]
  distance:    0.0463039
  band:
  - # 1
    frequency:   -0.9154874884
  - # 2
    frequency:    0.8653842250
  - # 3
    frequency:    1.4109537913
  - # 4
    frequency:    1.7010715659
  - # 5
    frequency:    2.1621938944
  - # 6
    frequency:    3.1273866619
  - # 7
    frequency:    3.9002968655
  - # 8
    frequency:    4.2847937294
  - # 9
    frequency:    6.2814187829
  - # 10
    frequency:    6.6396876487
  - # 11
    frequency:    7.6700001885
  - # 12
    frequency:   10.4277751024
  - # 13
    frequency:   10.6934374172
  - # 14
    frequency:   11.0618409630
  - # 15
    frequency:   11.5856953928
  - # 16
    frequency:   12.0658733319
  - # 17
    frequency:   12.6769261032
  - # 18
    frequency:   13.7582145737
  - # 19
    frequency:   15.4196548398
  - # 20
    frequency:   20.9612677495
  - # 21
    frequency:   64.1335397472

- q-position: [    0.1414141,    0.0000000,    0.0000000 ]
  distance:    0.0480188
  band:
  - # 1
    frequency:   -0.9264747485
  - # 2
    frequency:    0.8949319326
  - # 3
    frequency:    1.4192671814
  - # 4
    frequency:    1.7418747574
  - # 5
    frequency:    2.2073250570
  - # 6
    frequency:    3.1593919605
  - # 7
    frequency:    3.9565400670
  - # 8
    frequency:    4.3294065071
  - # 9
    frequency:    6.2759393785
  - # 10
    frequency:    6.6553456451
  - # 11
    frequency:    7.6557620700
  - # 12
    frequency:   10.4295813303
  - # 13
    frequency:   10.6968097578
  - # 14
    frequency:   11.0664284325
  - # 15
    frequency:   11.5461612093
  - # 16
    frequency:   12.1172845851
  - # 17
    frequency:   12.6703063608
  - # 18
    frequency:   13.7573527978
  - # 19
    frequency:   15.4406823408
  - # 20
    frequency:   20.9590394515
  - # 21
    frequency:   64.1324742237

- q-position: [    0.1464646,    0.0000000,    0.0000000 ]
  distance:    0.0497338
  band:
  - # 1
    frequency:   -0.9344446656
  - # 2
    frequency:    0.9220648643
  - # 3
    frequency:    1.4280824860
  - # 4
    frequency:    1.7823201018
  - # 5
    frequency:    2.2516655921
  - # 6
    frequency:    3.1919092464
  - # 7
    frequency:    4.0117026273
  - # 8
    frequency:    4.3785026183
  - # 9
    frequency:    6.2711219886
  - # 10
    frequency:    6.6716618266
  - # 11
    frequency:    7.6419486491
  - # 12
    frequency:   10.4317221094
  - # 13
    frequency:   10.6993680546
  - # 14
    frequency:   11.0712043779
  - # 15
    frequency:   11.5044468854
  - # 16
    frequency:   12.1720154749
  - # 17
    frequency:   12.6634091205
  - # 18
    frequency:   13.7561254094
  - # 19
    frequency:   15.4617641826
  - # 20
    frequency:   20.9567711926
  - # 21
    frequency:   64.1313951929

- q-position: [    0.1515152,    0.0000000,    0.0000000 ]
  distance:    0.0514487
  band:
  - # 1
    frequency:   -0.9391581162
  - # 2
    frequency:    0.9466981993
  - # 3
    frequency:    1.4374114705
  - # 4
    frequency:    1.8225753606
  - # 5
    frequency:    2.2952805381
  - # 6
    frequency:    3.2249055413
  - # 7
    frequency:    4.0662557157
  - # 8
    frequency:    4.4313438129
  - # 9
    frequency:    6.2670314665
  - # 10
    frequency:    6.6886511582
  - # 11
    frequency:    7.6286357172
  - # 12
    frequency:   10.4342144314
  - # 13
    frequency:   10.7010309738
  - # 14
    frequency:   11.0761588062
  - # 15
    frequency:   11.4621738563
  - # 16
    frequency:   12.2284801458
  - # 17
    frequency:   12.6562365379
  - # 18
    frequency:   13.7546268098
  - # 19
    frequency:   15.4828389530
  - # 20
    frequency:   20.9544663051
  - # 21
    frequency:   64.1303048180