nqpoint: 300    
npath: 3      
segment_nqpoint:
- 100
- 100
- 100
labels:
- [ 'G', 'M' ]
- [ 'M', 'K' ]
- [ 'K', 'G' ]
reciprocal_lattice:
- [   0.30060188,   0.17355258,   0.00000000 ] # a*
- [   0.00000000,   0.34710516,   0.00000000 ] # b*
- [   0.00000000,   0.00000000,   0.03725539 ] # c*
natom: 8      
lattice:
- [     3.326659113054744,     0.000000000000000,     0.000000000000000 ] # a
- [    -1.663329556527372,     2.880971301628798,     0.000000000000000 ] # b
- [     0.000000000000000,     0.000000000000000,    26.841753209379220 ] # c
points:
- symbol: C # 1
  coordinates: [  0.333332985432215,  0.666666983183674,  0.619677497848877 ]
  mass: 12.010700
- symbol: C # 2
  coordinates: [  0.666666984744047,  0.333332985985145,  0.379535334561098 ]
  mass: 12.010700
- symbol: Hf # 3
  coordinates: [  0.333332985432215,  0.666666983183674,  0.480432361564810 ]
  mass: 178.490000
- symbol: Hf # 4
  coordinates: [  0.666666984744047,  0.333332985985145,  0.565490487270968 ]
  mass: 178.490000
- symbol: N # 5
  coordinates: [  0.000000000000000,  0.000000000000000,  0.521257790256504 ]
  mass: 14.006700
- symbol: N # 6
  coordinates: [  0.333332985432215,  0.666666983183674,  0.664701484668477 ]
  mass: 14.006700
- symbol: N # 7
  coordinates: [  0.666666984744047,  0.333332985985145,  0.335298515331523 ]
  mass: 14.006700
- symbol: O # 8
  coordinates: [  0.666666984744047,  0.333332985985145,  0.429518836254617 ]
  mass: 15.999400

phonon:
- q-position: [    0.0000000,    0.0000000,    0.0000000 ]
  distance:    0.0000000
  band:
  - # 1
    frequency:   -2.6068284494
  - # 2
    frequency:   -2.6068284494
  - # 3
    frequency:   -0.5299398675
  - # 4
    frequency:   -0.5299398674
  - # 5
    frequency:   -0.0000143371
  - # 6
    frequency:    0.0000002679
  - # 7
    frequency:    0.0000088345
  - # 8
    frequency:    3.2090496792
  - # 9
    frequency:    3.2090496792
  - # 10
    frequency:    4.6284330560
  - # 11
    frequency:    6.3618242811
  - # 12
    frequency:    6.3618242811
  - # 13
    frequency:    6.8719982042
  - # 14
    frequency:    6.8719982042
  - # 15
    frequency:    7.0893576044
  - # 16
    frequency:    9.0750336451
  - # 17
    frequency:   13.7571942453
  - # 18
    frequency:   13.7571942453
  - # 19
    frequency:   14.2084698634
  - # 20
    frequency:   16.9915333950
  - # 21
    frequency:   16.9915333951
  - # 22
    frequency:   31.0782022582
  - # 23
    frequency:   59.2816164203
  - # 24
    frequency:   67.8857654663

- q-position: [    0.0050505,    0.0000000,    0.0000000 ]
  distance:    0.0017531
  band:
  - # 1
    frequency:   -2.6072597212
  - # 2
    frequency:   -2.6068865486
  - # 3
    frequency:   -0.5294917208
  - # 4
    frequency:   -0.5258143155
  - # 5
    frequency:    0.0021647303
  - # 6
    frequency:    0.0240749944
  - # 7
    frequency:    0.1049729991
  - # 8
    frequency:    3.2089751675
  - # 9
    frequency:    3.2090256797
  - # 10
    frequency:    4.6285332821
  - # 11
    frequency:    6.3616836040
  - # 12
    frequency:    6.3619120072
  - # 13
    frequency:    6.8723585210
  - # 14
    frequency:    6.8729254490
  - # 15
    frequency:    7.0897387496
  - # 16
    frequency:    9.0747999175
  - # 17
    frequency:   13.7572074482
  - # 18
    frequency:   13.7572721559
  - # 19
    frequency:   14.2084987441
  - # 20
    frequency:   16.9913223477
  - # 21
    frequency:   16.9916263039
  - # 22
    frequency:   31.0779099217
  - # 23
    frequency:   59.2813207079
  - # 24
    frequency:   67.8855466636

- q-position: [    0.0101010,    0.0000000,    0.0000000 ]
  distance:    0.0035061
  band:
  - # 1
    frequency:   -2.6085551486
  - # 2
    frequency:   -2.6070546603
  - # 3
    frequency:   -0.5281838425
  - # 4
    frequency:   -0.5131222542
  - # 5
    frequency:    0.0087711481
  - # 6
    frequency:    0.0487577339
  - # 7
    frequency:    0.2094189785
  - # 8
    frequency:    3.2087525426
  - # 9
    frequency:    3.2089561502
  - # 10
    frequency:    4.6288345732
  - # 11
    frequency:    6.3612629122
  - # 12
    frequency:    6.3621743694
  - # 13
    frequency:    6.8734358461
  - # 14
    frequency:    6.8757032161
  - # 15
    frequency:    7.0908795847
  - # 16
    frequency:    9.0740993682
  - # 17
    frequency:   13.7572472093
  - # 18
    frequency:   13.7575058963
  - # 19
    frequency:   14.2085861191
  - # 20
    frequency:   16.9906873903
  - # 21
    frequency:   16.9919039125
  - # 22
    frequency:   31.0770335222
  - # 23
    frequency:   59.2804343117
  - # 24
    frequency:   67.8848906935

- q-position: [    0.0151515,    0.0000000,    0.0000000 ]
  distance:    0.0052592
  band:
  - # 1
    frequency:   -2.6107194962
  - # 2
    frequency:   -2.6073146507
  - # 3
    frequency:   -0.5261236619
  - # 4
    frequency:   -0.4909517474
  - # 5
    frequency:    0.0202716374
  - # 6
    frequency:    0.0746079672
  - # 7
    frequency:    0.3129608633
  - # 8
    frequency:    3.2083846071
  - # 9
    frequency:    3.2088484419
  - # 10
    frequency:    4.6293387057
  - # 11
    frequency:    6.3605661854
  - # 12
    frequency:    6.3626089421
  - # 13
    frequency:    6.8752193780
  - # 14
    frequency:    6.8803196672
  - # 15
    frequency:    7.0927723362
  - # 16
    frequency:    9.0729338973
  - # 17
    frequency:   13.7573139828
  - # 18
    frequency:   13.7578954924
  - # 19
    frequency:   14.2087341609
  - # 20
    frequency:   16.9896230973
  - # 21
    frequency:   16.9923628672
  - # 22
    frequency:   31.0755748875
  - # 23
    frequency:   59.2789594512
  - # 24
    frequency:   67.8837988680

- q-position: [    0.0202020,    0.0000000,    0.0000000 ]
  distance:    0.0070122
  band:
  - # 1
    frequency:   -2.6137604674
  - # 2
    frequency:   -2.6076376618
  - # 3
    frequency:   -0.5234815568
  - # 4
    frequency:   -0.4578222927
  - # 5
    frequency:    0.0376655175
  - # 6
    frequency:    0.1020925680
  - # 7
    frequency:    0.4154105972
  - # 8
    frequency:    3.2078762656
  - # 9
    frequency:    3.2087146250
  - # 10
    frequency:    4.6300484400
  - # 11
    frequency:    6.3595999310
  - # 12
    frequency:    6.3632117560
  - # 13
    frequency:    6.8776913613
  - # 14
    frequency:    6.8867552853
  - # 15
    frequency:    7.0954041384
  - # 16
    frequency:    9.0713066736
  - # 17
    frequency:   13.7574085164
  - # 18
    frequency:   13.7584409886
  - # 19
    frequency:   14.2089464046
  - # 20
    frequency:   16.9881204950
  - # 21
    frequency:   16.9929975783
  - # 22
    frequency:   31.0735370584
  - # 23
    frequency:   59.2768998170
  - # 24
    frequency:   67.8822733699

- q-position: [    0.0252525,    0.0000000,    0.0000000 ]
  distance:    0.0087653
  band:
  - # 1
    frequency:   -2.6176883497
  - # 2
    frequency:   -2.6079860021
  - # 3
    frequency:   -0.5204743781
  - # 4
    frequency:   -0.4116307597
  - # 5
    frequency:    0.0631503485
  - # 6
    frequency:    0.1315472922
  - # 7
    frequency:    0.5167130645
  - # 8
    frequency:    3.2072348475
  - # 9
    frequency:    3.2085712208
  - # 10
    frequency:    4.6309672417
  - # 11
    frequency:    6.3583730043
  - # 12
    frequency:    6.3639773990
  - # 13
    frequency:    6.8808274449
  - # 14
    frequency:    6.8949831885
  - # 15
    frequency:    7.0987571682
  - # 16
    frequency:    9.0692221363
  - # 17
    frequency:   13.7575318375
  - # 18
    frequency:   13.7591424491
  - # 19
    frequency:   14.2092276210
  - # 20
    frequency:   16.9861671625
  - # 21
    frequency:   16.9938002202
  - # 22
    frequency:   31.0709242803
  - # 23
    frequency:   59.2742605576
  - # 24
    frequency:   67.8803172455

- q-position: [    0.0303030,    0.0000000,    0.0000000 ]
  distance:    0.0105183
  band:
  - # 1
    frequency:   -2.6225155210
  - # 2
    frequency:   -2.6083155087
  - # 3
    frequency:   -0.5173376080
  - # 4
    frequency:   -0.3499622519
  - # 5
    frequency:    0.1019143226
  - # 6
    frequency:    0.1631498048
  - # 7
    frequency:    0.6168719406
  - # 8
    frequency:    3.2064705094
  - # 9
    frequency:    3.2084388399
  - # 10
    frequency:    4.6320989305
  - # 11
    frequency:    6.3568963735
  - # 12
    frequency:    6.3648991426
  - # 13
    frequency:    6.8845971591
  - # 14
    frequency:    6.9049695605
  - # 15
    frequency:    7.1028088329
  - # 16
    frequency:    9.0666859973
  - # 17
    frequency:   13.7576852348
  - # 18
    frequency:   13.7599999600
  - # 19
    frequency:   14.2095836426
  - # 20
    frequency:   16.9837473728
  - # 21
    frequency:   16.9947607321
  - # 22
    frequency:   31.0677419913
  - # 23
    frequency:   59.2710482612
  - # 24
    frequency:   67.8779343958

- q-position: [    0.0353535,    0.0000000,    0.0000000 ]
  distance:    0.0122714
  band:
  - # 1
    frequency:   -2.6282558236
  - # 2
    frequency:   -2.6085781540
  - # 3
    frequency:   -0.5142863848
  - # 4
    frequency:   -0.2744764551
  - # 5
    frequency:    0.1658632611
  - # 6
    frequency:    0.1969098984
  - # 7
    frequency:    0.7159007120
  - # 8
    frequency:    3.2055966707
  - # 9
    frequency:    3.2083417361
  - # 10
    frequency:    4.6334472930
  - # 11
    frequency:    6.3551828443
  - # 12
    frequency:    6.3659690800
  - # 13
    frequency:    6.8889644930
  - # 14
    frequency:    6.9166741824
  - # 15
    frequency:    7.1075320113
  - # 16
    frequency:    9.0637052421
  - # 17
    frequency:   13.7578702343
  - # 18
    frequency:   13.7610136302
  - # 19
    frequency:   14.2100211487
  - # 20
    frequency:   16.9808422709
  - # 21
    frequency:   16.9958668204
  - # 22
    frequency:   31.0639968069
  - # 23
    frequency:   59.2672709321
  - # 24
    frequency:   67.8751295644

- q-position: [    0.0404040,    0.0000000,    0.0000000 ]
  distance:    0.0140245
  band:
  - # 1
    frequency:   -2.6349238121
  - # 2
    frequency:   -2.6087246741
  - # 3
    frequency:   -0.5114713061
  - # 4
    frequency:   -0.2061818180
  - # 5
    frequency:    0.2326820757
  - # 6
    frequency:    0.2646735201
  - # 7
    frequency:    0.8138013113
  - # 8
    frequency:    3.2046304355
  - # 9
    frequency:    3.2083072899
  - # 10
    frequency:    4.6350156975
  - # 11
    frequency:    6.3532467579
  - # 12
    frequency:    6.3671782665
  - # 13
    frequency:    6.8938885465
  - # 14
    frequency:    6.9300510467
  - # 15
    frequency:    7.1128953493
  - # 16
    frequency:    9.0602881283
  - # 17
    frequency:   13.7580885720
  - # 18
    frequency:   13.7621835924
  - # 19
    frequency:   14.2105474115
  - # 20
    frequency:   16.9774300862
  - # 21
    frequency:   16.9971039629
  - # 22
    frequency:   31.0596965020
  - # 23
    frequency:   59.2629379630
  - # 24
    frequency:   67.8719083233

- q-position: [    0.0454545,    0.0000000,    0.0000000 ]
  distance:    0.0157775
  band:
  - # 1
    frequency:   -2.6425338875
  - # 2
    frequency:   -2.6087070248
  - # 3
    frequency:   -0.5089400905
  - # 4
    frequency:   -0.1634880664
  - # 5
    frequency:    0.2702007340
  - # 6
    frequency:    0.3754126758
  - # 7
    frequency:    0.9105591867
  - # 8
    frequency:    3.2035929482
  - # 9
    frequency:    3.2083654374
  - # 10
    frequency:    4.6368067481
  - # 11
    frequency:    6.3511036775
  - # 12
    frequency:    6.3685168531
  - # 13
    frequency:    6.8993242369
  - # 14
    frequency:    6.9450490247
  - # 15
    frequency:    7.1188636161
  - # 16
    frequency:    9.0564441813
  - # 17
    frequency:   13.7583421629
  - # 18
    frequency:   13.7635100016
  - # 19
    frequency:   14.2111700116
  - # 20
    frequency:   16.9734863787
  - # 21
    frequency:   16.9984554175
  - # 22
    frequency:   31.0548499889
  - # 23
    frequency:   59.2580601012
  - # 24
    frequency:   67.8682770562

- q-position: [    0.0505051,    0.0000000,    0.0000000 ]
  distance:    0.0175306
  band:
  - # 1
    frequency:   -2.6510993367
  - # 2
    frequency:   -2.6084805168
  - # 3
    frequency:   -0.5066162523
  - # 4
    frequency:   -0.1328229308
  - # 5
    frequency:    0.3091303081
  - # 6
    frequency:    0.4795782396
  - # 7
    frequency:    1.0061452452
  - # 8
    frequency:    3.2025096409
  - # 9
    frequency:    3.2085480603
  - # 10
    frequency:    4.6388220164
  - # 11
    frequency:    6.3487700774
  - # 12
    frequency:    6.3699742080
  - # 13
    frequency:    6.9052230344
  - # 14
    frequency:    6.9616125472
  - # 15
    frequency:    7.1253981327
  - # 16
    frequency:    9.0521841848
  - # 17
    frequency:   13.7586330664
  - # 18
    frequency:   13.7649930330
  - # 19
    frequency:   14.2118965286
  - # 20
    frequency:   16.9689843145
  - # 21
    frequency:   16.9999022341
  - # 22
    frequency:   31.0494672925
  - # 23
    frequency:   59.2526494113
  - # 24
    frequency:   67.8642429389

- q-position: [    0.0555556,    0.0000000,    0.0000000 ]
  distance:    0.0192836
  band:
  - # 1
    frequency:   -2.6606312976
  - # 2
    frequency:   -2.6080055365
  - # 3
    frequency:   -0.5042994302
  - # 4
    frequency:   -0.0992142498
  - # 5
    frequency:    0.3491170532
  - # 6
    frequency:    0.5762055376
  - # 7
    frequency:    1.1005194854
  - # 8
    frequency:    3.2014103316
  - # 9
    frequency:    3.2088883536
  - # 10
    frequency:    4.6410618748
  - # 11
    frequency:    6.3462630429
  - # 12
    frequency:    6.3715390265
  - # 13
    frequency:    6.9115337092
  - # 14
    frequency:    6.9796822396
  - # 15
    frequency:    7.1324573002
  - # 16
    frequency:    9.0475201651
  - # 17
    frequency:   13.7589634506
  - # 18
    frequency:   13.7666328753
  - # 19
    frequency:   14.2127342138
  - # 20
    frequency:   16.9638949680
  - # 21
    frequency:   17.0014232733
  - # 22
    frequency:   31.0435595224
  - # 23
    frequency:   59.2467192325
  - # 24
    frequency:   67.8598139183

- q-position: [    0.0606061,    0.0000000,    0.0000000 ]
  distance:    0.0210367
  band:
  - # 1
    frequency:   -2.6711376809
  - # 2
    frequency:   -2.6072488067
  - # 3
    frequency:   -0.5016830117
  - # 4
    frequency:   -0.0360576441
  - # 5
    frequency:    0.3898300520
  - # 6
    frequency:    0.6671931188
  - # 7
    frequency:    1.1936341970
  - # 8
    frequency:    3.2003291506
  - # 9
    frequency:    3.2094201883
  - # 10
    frequency:    4.6435254543
  - # 11
    frequency:    6.3435999917
  - # 12
    frequency:    6.3731994297
  - # 13
    frequency:    6.9182030718
  - # 14
    frequency:    6.9991954251
  - # 15
    frequency:    7.1399972824
  - # 16
    frequency:    9.0424653684
  - # 17
    frequency:   13.7593355540
  - # 18
    frequency:   13.7684297220
  - # 19
    frequency:   14.2136896528
  - # 20
    frequency:   16.9581876481
  - # 21
    frequency:   17.0029952314
  - # 22
    frequency:   31.0371388418
  - # 23
    frequency:   59.2402841326
  - # 24
    frequency:   67.8549986879

- q-position: [    0.0656566,    0.0000000,    0.0000000 ]
  distance:    0.0227897
  band:
  - # 1
    frequency:   -2.6826220833
  - # 2
    frequency:   -2.6061841854
  - # 3
    frequency:   -0.4983791706
  - # 4
    frequency:    0.0947622651
  - # 5
    frequency:    0.4309854526
  - # 6
    frequency:    0.7540564446
  - # 7
    frequency:    1.2854361524
  - # 8
    frequency:    3.1993042777
  - # 9
    frequency:    3.2101774826
  - # 10
    frequency:    4.6462107353
  - # 11
    frequency:    6.3407984197
  - # 12
    frequency:    6.3749430595
  - # 13
    frequency:    6.9251766924
  - # 14
    frequency:    7.0200863428
  - # 15
    frequency:    7.1479729643
  - # 16
    frequency:    9.0370342286
  - # 17
    frequency:   13.7597516472
  - # 18
    frequency:   13.7703837582
  - # 19
    frequency:   14.2147684254
  - # 20
    frequency:   16.9518302446
  - # 21
    frequency:   17.0045926742
  - # 22
    frequency:   31.0302184334
  - # 23
    frequency:   59.2333598564
  - # 24
    frequency:   67.8498066622

- q-position: [    0.0707071,    0.0000000,    0.0000000 ]
  distance:    0.0245428
  band:
  - # 1
    frequency:   -2.6950827315
  - # 2
    frequency:   -2.6047930337
  - # 3
    frequency:   -0.4939415622
  - # 4
    frequency:    0.1471126234
  - # 5
    frequency:    0.4723549717
  - # 6
    frequency:    0.8378115055
  - # 7
    frequency:    1.3758678455
  - # 8
    frequency:    3.1983774914
  - # 9
    frequency:    3.2111935978
  - # 10
    frequency:    4.6491147709
  - # 11
    frequency:    6.3378756759
  - # 12
    frequency:    6.3767571730
  - # 13
    frequency:    6.9323995897
  - # 14
    frequency:    7.0422857832
  - # 15
    frequency:    7.1563394530
  - # 16
    frequency:    9.0312423251
  - # 17
    frequency:   13.7602139947
  - # 18
    frequency:   13.7724951421
  - # 19
    frequency:   14.2159747704
  - # 20
    frequency:   16.9447895914
  - # 21
    frequency:   17.0061880806
  - # 22
    frequency:   31.0228124624
  - # 23
    frequency:   59.2259632719
  - # 24
    frequency:   67.8442479486

- q-position: [    0.0757576,    0.0000000,    0.0000000 ]
  distance:    0.0262958
  band:
  - # 1
    frequency:   -2.7085115022
  - # 2
    frequency:   -2.6030642004
  - # 3
    frequency:   -0.4878793566
  - # 4
    frequency:    0.1928605457
  - # 5
    frequency:    0.5137635730
  - # 6
    frequency:    0.9191375496
  - # 7
    frequency:    1.4648680288
  - # 8
    frequency:    3.1975935397
  - # 9
    frequency:    3.2125007692
  - # 10
    frequency:    4.6522340328
  - # 11
    frequency:    6.3348487664
  - # 12
    frequency:    6.3786287448
  - # 13
    frequency:    6.9398168784
  - # 14
    frequency:    7.0657194590
  - # 15
    frequency:    7.1650547795
  - # 16
    frequency:    9.0251063305
  - # 17
    frequency:   13.7607248165
  - # 18
    frequency:   13.7747639828
  - # 19
    frequency:   14.2173112626
  - # 20
    frequency:   16.9370318432
  - # 21
    frequency:   17.0077518958
  - # 22
    frequency:   31.0149360368
  - # 23
    frequency:   59.2181123115
  - # 24
    frequency:   67.8383333174

- q-position: [    0.0808081,    0.0000000,    0.0000000 ]
  distance:    0.0280489
  band:
  - # 1
    frequency:   -2.7228930598
  - # 2
    frequency:   -2.6009936900
  - # 3
    frequency:   -0.4796596282
  - # 4
    frequency:    0.2368189249
  - # 5
    frequency:    0.5550816459
  - # 6
    frequency:    0.9985000430
  - # 7
    frequency:    1.5523718087
  - # 8
    frequency:    3.1969993540
  - # 9
    frequency:    3.2141295831
  - # 10
    frequency:    4.6555648635
  - # 11
    frequency:    6.3317341878
  - # 12
    frequency:    6.3805445827
  - # 13
    frequency:    6.9473743731
  - # 14
    frequency:    7.0903033103
  - # 15
    frequency:    7.1740855784
  - # 16
    frequency:    9.0186439458
  - # 17
    frequency:   13.7612862526
  - # 18
    frequency:   13.7771903115
  - # 19
    frequency:   14.2187785089
  - # 20
    frequency:   16.9285228619
  - # 21
    frequency:   17.0092525984
  - # 22
    frequency:   31.0066051645
  - # 23
    frequency:   59.2098259105
  - # 24
    frequency:   67.8320741695

- q-position: [    0.0858586,    0.0000000,    0.0000000 ]
  distance:    0.0298020
  band:
  - # 1
    frequency:   -2.7382041572
  - # 2
    frequency:   -2.5985840774
  - # 3
    frequency:   -0.4686964150
  - # 4
    frequency:    0.2805588121
  - # 5
    frequency:    0.5962155818
  - # 6
    frequency:    1.0762267155
  - # 7
    frequency:    1.6383105132
  - # 8
    frequency:    3.1966431344
  - # 9
    frequency:    3.2161085068
  - # 10
    frequency:    4.6591040087
  - # 11
    frequency:    6.3285477896
  - # 12
    frequency:    6.3824914582
  - # 13
    frequency:    6.9550191412
  - # 14
    frequency:    7.1159301469
  - # 15
    frequency:    7.1834213307
  - # 16
    frequency:    9.0118738245
  - # 17
    frequency:   13.7619003277
  - # 18
    frequency:   13.7797740482
  - # 19
    frequency:   14.2203748697
  - # 20
    frequency:   16.9192286102
  - # 21
    frequency:   17.0106567786
  - # 22
    frequency:   30.9978367088
  - # 23
    frequency:   59.2011239427
  - # 24
    frequency:   67.8254825032

- q-position: [    0.0909091,    0.0000000,    0.0000000 ]
  distance:    0.0315550
  band:
  - # 1
    frequency:   -2.7544131348
  - # 2
    frequency:   -2.5958437403
  - # 3
    frequency:   -0.4543234657
  - # 4
    frequency:    0.3247554281
  - # 5
    frequency:    0.6370989286
  - # 6
    frequency:    1.1525538887
  - # 7
    frequency:    1.7226114885
  - # 8
    frequency:    3.1965733401
  - # 9
    frequency:    3.2184634770
  - # 10
    frequency:    4.6628492039
  - # 11
    frequency:    6.3253046632
  - # 12
    frequency:    6.3844562573
  - # 13
    frequency:    6.9627000051
  - # 14
    frequency:    7.1424262384
  - # 15
    frequency:    7.1931185453
  - # 16
    frequency:    9.0048154850
  - # 17
    frequency:   13.7625689204
  - # 18
    frequency:   13.7825149628
  - # 19
    frequency:   14.2220962111
  - # 20
    frequency:   16.9091155477
  - # 21
    frequency:   17.0119292312
  - # 22
    frequency:   30.9886483399
  - # 23
    frequency:   59.1920271520
  - # 24
    frequency:   67.8185708790

- q-position: [    0.0959596,    0.0000000,    0.0000000 ]
  distance:    0.0333081
  band:
  - # 1
    frequency:   -2.7714796475
  - # 2
    frequency:   -2.5927859709
  - # 3
    frequency:   -0.4357431180
  - # 4
    frequency:    0.3697295521
  - # 5
    frequency:    0.6776850213
  - # 6
    frequency:    1.2276553046
  - # 7
    frequency:    1.8051979317
  - # 8
    frequency:    3.1968376197
  - # 9
    frequency:    3.2212175498
  - # 10
    frequency:    4.6667997833
  - # 11
    frequency:    6.3220190556
  - # 12
    frequency:    6.3864261481
  - # 13
    frequency:    6.9703679915
  - # 14
    frequency:    7.1693701629
  - # 15
    frequency:    7.2034825661
  - # 16
    frequency:    8.9974892117
  - # 17
    frequency:   13.7632937339
  - # 18
    frequency:   13.7854126313
  - # 19
    frequency:   14.2239356927
  - # 20
    frequency:   16.8981510271
  - # 21
    frequency:   17.0130330628
  - # 22
    frequency:   30.9790584857
  - # 23
    frequency:   59.1825570830
  - # 24
    frequency:   67.8113523823

- q-position: [    0.1010101,    0.0000000,    0.0000000 ]
  distance:    0.0350611
  band:
  - # 1
    frequency:   -2.7893546393
  - # 2
    frequency:   -2.5894280275
  - # 3
    frequency:   -0.4119329901
  - # 4
    frequency:    0.4156334322
  - # 5
    frequency:    0.7179412505
  - # 6
    frequency:    1.3016605929
  - # 7
    frequency:    1.8859888309
  - # 8
    frequency:    3.1974817151
  - # 9
    frequency:    3.2243906132
  - # 10
    frequency:    4.6709572810
  - # 11
    frequency:    6.3187043080
  - # 12
    frequency:    6.3883887665
  - # 13
    frequency:    6.9779767282
  - # 14
    frequency:    7.1950651223
  - # 15
    frequency:    7.2160957945
  - # 16
    frequency:    8.9899159464
  - # 17
    frequency:   13.7640762708
  - # 18
    frequency:   13.7884663868
  - # 19
    frequency:   14.2258835949
  - # 20
    frequency:   16.8863036873
  - # 21
    frequency:   17.0139298139
  - # 22
    frequency:   30.9690862788
  - # 23
    frequency:   59.1727360083
  - # 24
    frequency:   67.8038405862

- q-position: [    0.1060606,    0.0000000,    0.0000000 ]
  distance:    0.0368142
  band:
  - # 1
    frequency:   -2.8079805707
  - # 2
    frequency:   -2.5857901778
  - # 3
    frequency:   -0.3814649706
  - # 4
    frequency:    0.4625294060
  - # 5
    frequency:    0.7578447917
  - # 6
    frequency:    1.3746674492
  - # 7
    frequency:    1.9648990617
  - # 8
    frequency:    3.1985483688
  - # 9
    frequency:    3.2279991606
  - # 10
    frequency:    4.6753259932
  - # 11
    frequency:    6.3153728143
  - # 12
    frequency:    6.3903324126
  - # 13
    frequency:    6.9854827889
  - # 14
    frequency:    7.2138151616
  - # 15
    frequency:    7.2365418946
  - # 16
    frequency:    8.9821171714
  - # 17
    frequency:   13.7649178114
  - # 18
    frequency:   13.7916752670
  - # 19
    frequency:   14.2279271887
  - # 20
    frequency:   16.8735438401
  - # 21
    frequency:   17.0145795959
  - # 22
    frequency:   30.9587515024
  - # 23
    frequency:   59.1625868540
  - # 24
    frequency:   67.7960495115

- q-position: [    0.1111111,    0.0000000,    0.0000000 ]
  distance:    0.0385672
  band:
  - # 1
    frequency:   -2.8272918924
  - # 2
    frequency:   -2.5818947824
  - # 3
    frequency:   -0.3421096084
  - # 4
    frequency:    0.5104278990
  - # 5
    frequency:    0.7973795115
  - # 6
    frequency:    1.4467498843
  - # 7
    frequency:    2.0418396693
  - # 8
    frequency:    3.2000762587
  - # 9
    frequency:    3.2320561232
  - # 10
    frequency:    4.6799134726
  - # 11
    frequency:    6.3120360014
  - # 12
    frequency:    6.3922462559
  - # 13
    frequency:    6.9928459881
  - # 14
    frequency:    7.2257812274
  - # 15
    frequency:    7.2645500531
  - # 16
    frequency:    8.9741147856
  - # 17
    frequency:   13.7658193959
  - # 18
    frequency:   13.7950379580
  - # 19
    frequency:   14.2300506500
  - # 20
    frequency:   16.8598438472
  - # 21
    frequency:   17.0149412437
  - # 22
    frequency:   30.9480745339
  - # 23
    frequency:   59.1521331236
  - # 24
    frequency:   67.7879935866

- q-position: [    0.1161616,    0.0000000,    0.0000000 ]
  distance:    0.0403203
  band:
  - # 1
    frequency:   -2.8472157478
  - # 2
    frequency:   -2.5777654560
  - # 3
    frequency:   -0.2897887243
  - # 4
    frequency:    0.5593076312
  - # 5
    frequency:    0.8365337711
  - # 6
    frequency:    1.5179639475
  - # 7
    frequency:    2.1167183624
  - # 8
    frequency:    3.2020989756
  - # 9
    frequency:    3.2365707583
  - # 10
    frequency:    4.6847309274
  - # 11
    frequency:    6.3087043269
  - # 12
    frequency:    6.3941205404
  - # 13
    frequency:    7.0000296269
  - # 14
    frequency:    7.2358038200
  - # 15
    frequency:    7.2951725487
  - # 16
    frequency:    8.9659309770
  - # 17
    frequency:   13.7667818104
  - # 18
    frequency:   13.7985527346
  - # 19
    frequency:   14.2322350193
  - # 20
    frequency:   16.8451784845
  - # 21
    frequency:   17.0149724824
  - # 22
    frequency:   30.9370762869
  - # 23
    frequency:   59.1413988211
  - # 24
    frequency:   67.7796876067

- q-position: [    0.1212121,    0.0000000,    0.0000000 ]
  distance:    0.0420734
  band:
  - # 1
    frequency:   -2.8676728749
  - # 2
    frequency:   -2.5734263399
  - # 3
    frequency:   -0.2146642865
  - # 4
    frequency:    0.6091271875
  - # 5
    frequency:    0.8752988906
  - # 6
    frequency:    1.5883517842
  - # 7
    frequency:    2.1894402394
  - # 8
    frequency:    3.2046440521
  - # 9
    frequency:    3.2415485879
  - # 10
    frequency:    4.6897934994
  - # 11
    frequency:    6.3053872940
  - # 12
    frequency:    6.3959467846
  - # 13
    frequency:    7.0070006932
  - # 14
    frequency:    7.2451353304
  - # 15
    frequency:    7.3270525515
  - # 16
    frequency:    8.9575880935
  - # 17
    frequency:   13.7678055768
  - # 18
    frequency:   13.8022173988
  - # 19
    frequency:   14.2344582081
  - # 20
    frequency:   16.8295252919
  - # 21
    frequency:   17.0146301095
  - # 22
    frequency:   30.9257781509
  - # 23
    frequency:   59.1304083718
  - # 24
    frequency:   67.7711466911

- q-position: [    0.1262626,    0.0000000,    0.0000000 ]
  distance:    0.0438264
  band:
  - # 1
    frequency:   -2.8885786701
  - # 2
    frequency:   -2.5689015109
  - # 3
    frequency:   -0.0559359987
  - # 4
    frequency:    0.6598320582
  - # 5
    frequency:    0.9136680936
  - # 6
    frequency:    1.6579445658
  - # 7
    frequency:    2.2599087668
  - # 8
    frequency:    3.2077320422
  - # 9
    frequency:    3.2469913836
  - # 10
    frequency:    4.6951203977
  - # 11
    frequency:    6.3020934816
  - # 12
    frequency:    6.3977179670
  - # 13
    frequency:    7.0137300180
  - # 14
    frequency:    7.2540271853
  - # 15
    frequency:    7.3598370424
  - # 16
    frequency:    8.9491085154
  - # 17
    frequency:   13.7688909462
  - # 18
    frequency:   13.8060292159
  - # 19
    frequency:   14.2366950519
  - # 20
    frequency:   16.8128649042
  - # 21
    frequency:   17.0138701900
  - # 22
    frequency:   30.9142019306
  - # 23
    frequency:   59.1191865439
  - # 24
    frequency:   67.7623862411

- q-position: [    0.1313131,    0.0000000,    0.0000000 ]
  distance:    0.0455795
  band:
  - # 1
    frequency:   -2.9098443720
  - # 2
    frequency:   -2.5642145446
  - # 3
    frequency:    0.2122949275
  - # 4
    frequency:    0.7113591586
  - # 5
    frequency:    0.9516357944
  - # 6
    frequency:    1.7267646401
  - # 7
    frequency:    2.3280270314
  - # 8
    frequency:    3.2113756431
  - # 9
    frequency:    3.2528971922
  - # 10
    frequency:    4.7007348668
  - # 11
    frequency:    6.2988305881
  - # 12
    frequency:    6.3994286933
  - # 13
    frequency:    7.0201923910
  - # 14
    frequency:    7.2625276682
  - # 15
    frequency:    7.3933789963
  - # 16
    frequency:    8.9405145329
  - # 17
    frequency:   13.7700378965
  - # 18
    frequency:   13.8099848488
  - # 19
    frequency:   14.2389174079
  - # 20
    frequency:   16.7951813603
  - # 21
    frequency:   17.0126482644
  - # 22
    frequency:   30.9023697834
  - # 23
    frequency:   59.1077583681
  - # 24
    frequency:   67.7534218971

- q-position: [    0.1363636,    0.0000000,    0.0000000 ]
  distance:    0.0473325
  band:
  - # 1
    frequency:   -2.9313783226
  - # 2
    frequency:   -2.5593882415
  - # 3
    frequency:    0.3141286359
  - # 4
    frequency:    0.7636398699
  - # 5
    frequency:    0.9891971335
  - # 6
    frequency:    1.7948271310
  - # 7