nqpoint: 300    
npath: 3      
segment_nqpoint:
- 100
- 100
- 100
labels:
- [ 'G', 'M' ]
- [ 'M', 'K' ]
- [ 'K', 'G' ]
reciprocal_lattice:
- [   0.31682580,   0.18291946,   0.00000000 ] # a*
- [   0.00000000,   0.36583893,   0.00000000 ] # b*
- [   0.00000000,   0.00000000,   0.03699104 ] # c*
natom: 6      
lattice:
- [     3.156308571173569,     0.000000000000000,     0.000000000000000 ] # a
- [    -1.578154285586785,     2.733443404816289,     0.000000000000000 ] # b
- [     0.000000000000000,     0.000000000000000,    27.033576831888418 ] # c
points:
- symbol: Br # 1
  coordinates: [  0.666666984744047,  0.333332985985145,  0.332919319406662 ]
  mass: 79.904000
- symbol: C # 2
  coordinates: [  0.000000000000000,  0.000000000000000,  0.442414968548783 ]
  mass: 12.010700
- symbol: Cl # 3
  coordinates: [  0.333332985432215,  0.666666983183674,  0.667080680593338 ]
  mass: 35.453000
- symbol: O # 4
  coordinates: [  0.333332985432215,  0.666666983183674,  0.523822969716324 ]
  mass: 15.999400
- symbol: Ti # 5
  coordinates: [  0.333332985432215,  0.666666983183674,  0.402283831839562 ]
  mass: 47.867000
- symbol: Ti # 6
  coordinates: [  0.666666984744047,  0.333332985985145,  0.492666212778564 ]
  mass: 47.867000

phonon:
- q-position: [    0.0000000,    0.0000000,    0.0000000 ]
  distance:    0.0000000
  band:
  - # 1
    frequency:   -4.4819811279
  - # 2
    frequency:   -4.4819811279
  - # 3
    frequency:   -0.2209886559
  - # 4
    frequency:   -0.2209886559
  - # 5
    frequency:   -0.0000015022
  - # 6
    frequency:   -0.0000005429
  - # 7
    frequency:    0.0000015834
  - # 8
    frequency:    0.4884480662
  - # 9
    frequency:    3.5442218329
  - # 10
    frequency:    3.5442218329
  - # 11
    frequency:    5.4630091030
  - # 12
    frequency:    5.7785363933
  - # 13
    frequency:    5.7785363933
  - # 14
    frequency:   10.2767980754
  - # 15
    frequency:   14.8180407645
  - # 16
    frequency:   14.8180407645
  - # 17
    frequency:   15.1959666315
  - # 18
    frequency:   17.6706184447

- q-position: [    0.0050505,    0.0000000,    0.0000000 ]
  distance:    0.0018477
  band:
  - # 1
    frequency:   -4.4933254007
  - # 2
    frequency:   -4.4846224170
  - # 3
    frequency:   -0.3160438654
  - # 4
    frequency:   -0.2568980836
  - # 5
    frequency:   -0.2426558575
  - # 6
    frequency:    0.0958778358
  - # 7
    frequency:    0.3124214145
  - # 8
    frequency:    0.4990942073
  - # 9
    frequency:    3.5450498827
  - # 10
    frequency:    3.5486243978
  - # 11
    frequency:    5.4594691775
  - # 12
    frequency:    5.7783876172
  - # 13
    frequency:    5.7819166064
  - # 14
    frequency:   10.2761604686
  - # 15
    frequency:   14.8155867475
  - # 16
    frequency:   14.8162992104
  - # 17
    frequency:   15.1971352917
  - # 18
    frequency:   17.6710442058

- q-position: [    0.0101010,    0.0000000,    0.0000000 ]
  distance:    0.0036953
  band:
  - # 1
    frequency:   -4.5270820913
  - # 2
    frequency:   -4.4925064644
  - # 3
    frequency:   -0.4252200849
  - # 4
    frequency:   -0.3896746736
  - # 5
    frequency:   -0.3063863686
  - # 6
    frequency:    0.2039213782
  - # 7
    frequency:    0.4209975011
  - # 8
    frequency:    0.5563204663
  - # 9
    frequency:    3.5475321613
  - # 10
    frequency:    3.5617348487
  - # 11
    frequency:    5.4492994938
  - # 12
    frequency:    5.7779470243
  - # 13
    frequency:    5.7916191014
  - # 14
    frequency:   10.2742478924
  - # 15
    frequency:   14.8083438291
  - # 16
    frequency:   14.8110832505
  - # 17
    frequency:   15.2005260391
  - # 18
    frequency:   17.6723150051

- q-position: [    0.0151515,    0.0000000,    0.0000000 ]
  distance:    0.0055430
  band:
  - # 1
    frequency:   -4.5824514253
  - # 2
    frequency:   -4.5055152458
  - # 3
    frequency:   -0.5652364587
  - # 4
    frequency:   -0.4786467217
  - # 5
    frequency:   -0.3937669540
  - # 6
    frequency:    0.3135359684
  - # 7
    frequency:    0.4540381197
  - # 8
    frequency:    0.6723494057
  - # 9
    frequency:    3.5516630720
  - # 10
    frequency:    3.5832691680
  - # 11
    frequency:    5.4336200386
  - # 12
    frequency:    5.7772318459
  - # 13
    frequency:    5.8065595899
  - # 14
    frequency:   10.2710611280
  - # 15
    frequency:   14.7966389121
  - # 16
    frequency:   14.8024189490
  - # 17
    frequency:   15.2058235658
  - # 18
    frequency:   17.6744115424

- q-position: [    0.0202020,    0.0000000,    0.0000000 ]
  distance:    0.0073907
  band:
  - # 1
    frequency:   -4.6581883451
  - # 2
    frequency:   -4.5234566926
  - # 3
    frequency:   -0.7281558195
  - # 4
    frequency:   -0.5337159617
  - # 5
    frequency:   -0.4911956127
  - # 6
    frequency:    0.4219395335
  - # 7
    frequency:    0.4688962926
  - # 8
    frequency:    0.8018375371
  - # 9
    frequency:    3.5574333405
  - # 10
    frequency:    3.6127782056
  - # 11
    frequency:    5.4137649783
  - # 12
    frequency:    5.7762708830
  - # 13
    frequency:    5.8254629925
  - # 14
    frequency:   10.2666016365
  - # 15
    frequency:   14.7809322338
  - # 16
    frequency:   14.7903496044
  - # 17
    frequency:   15.2125866259
  - # 18
    frequency:   17.6773021492

- q-position: [    0.0252525,    0.0000000,    0.0000000 ]
  distance:    0.0092384
  band:
  - # 1
    frequency:   -4.7527116752
  - # 2
    frequency:   -4.5460711620
  - # 3
    frequency:   -0.8948138174
  - # 4
    frequency:   -0.5930735589
  - # 5
    frequency:   -0.5761798415
  - # 6
    frequency:    0.4814262940
  - # 7
    frequency:    0.5289194944
  - # 8
    frequency:    0.9327529202
  - # 9
    frequency:    3.5648300907
  - # 10
    frequency:    3.6496792002
  - # 11
    frequency:    5.3909548923
  - # 12
    frequency:    5.7751046220
  - # 13
    frequency:    5.8471908581
  - # 14
    frequency:   10.2608717866
  - # 15
    frequency:   14.7617348045
  - # 16
    frequency:   14.7749355367
  - # 17
    frequency:   15.2203301187
  - # 18
    frequency:   17.6809435116

- q-position: [    0.0303030,    0.0000000,    0.0000000 ]
  distance:    0.0110860
  band:
  - # 1
    frequency:   -4.8642216049
  - # 2
    frequency:   -4.5730396164
  - # 3
    frequency:   -1.0623527444
  - # 4
    frequency:   -0.6969586034
  - # 5
    frequency:   -0.6101789391
  - # 6
    frequency:    0.4945282511
  - # 7
    frequency:    0.6344711738
  - # 8
    frequency:    1.0635782443
  - # 9
    frequency:    3.5738369436
  - # 10
    frequency:    3.6932917381
  - # 11
    frequency:    5.3661849327
  - # 12
    frequency:    5.7737853782
  - # 13
    frequency:    5.8708532376
  - # 14
    frequency:   10.2538751518
  - # 15
    frequency:   14.7395453505
  - # 16
    frequency:   14.7562537885
  - # 17
    frequency:   15.2285875218
  - # 18
    frequency:   17.6852816345

- q-position: [    0.0353535,    0.0000000,    0.0000000 ]
  distance:    0.0129337
  band:
  - # 1
    frequency:   -4.9908070715
  - # 2
    frequency:   -4.6039928176
  - # 3
    frequency:   -1.2296314184
  - # 4
    frequency:   -0.8016148099
  - # 5
    frequency:   -0.6373263463
  - # 6
    frequency:    0.5089588936
  - # 7
    frequency:    0.7385637389
  - # 8
    frequency:    1.1939981323
  - # 9
    frequency:    3.5844341338
  - # 10
    frequency:    3.7428726657
  - # 11
    frequency:    5.3402403772
  - # 12
    frequency:    5.7723774532
  - # 13
    frequency:    5.8957940433
  - # 14
    frequency:   10.2456168591
  - # 15
    frequency:   14.7148149368
  - # 16
    frequency:   14.7343977430
  - # 17
    frequency:   15.2369455388
  - # 18
    frequency:   17.6902530054

- q-position: [    0.0404040,    0.0000000,    0.0000000 ]
  distance:    0.0147814
  band:
  - # 1
    frequency:   -5.1305324649
  - # 2
    frequency:   -4.6385208622
  - # 3
    frequency:   -1.3959891339
  - # 4
    frequency:   -0.9063241260
  - # 5
    frequency:   -0.6581716487
  - # 6
    frequency:    0.5249453867
  - # 7
    frequency:    0.8411445568
  - # 8
    frequency:    1.3238334392
  - # 9
    frequency:    3.5965986360
  - # 10
    frequency:    3.7976454850
  - # 11
    frequency:    5.3137525487
  - # 12
    frequency:    5.7709572818
  - # 13
    frequency:    5.9215375389
  - # 14
    frequency:   10.2361039672
  - # 15
    frequency:   14.6879340053
  - # 16
    frequency:   14.7094766555
  - # 17
    frequency:   15.2450562718
  - # 18
    frequency:   17.6957859052

- q-position: [    0.0454545,    0.0000000,    0.0000000 ]
  distance:    0.0166290
  band:
  - # 1
    frequency:   -5.2815006405
  - # 2
    frequency:   -4.6761824717
  - # 3
    frequency:   -1.5609641599
  - # 4
    frequency:   -1.0106172730
  - # 5
    frequency:   -0.6726742964
  - # 6
    frequency:    0.5425380018
  - # 7
    frequency:    0.9421556503
  - # 8
    frequency:    1.4529164075
  - # 9
    frequency:    3.6103042973
  - # 10
    frequency:    3.8568212560
  - # 11
    frequency:    5.2872553516
  - # 12
    frequency:    5.7696135452
  - # 13
    frequency:    5.9477364617
  - # 14
    frequency:   10.2253458528
  - # 15
    frequency:   14.6592328590
  - # 16
    frequency:   14.6816151019
  - # 17
    frequency:   15.2526359383
  - # 18
    frequency:   17.7018018164

- q-position: [    0.0505051,    0.0000000,    0.0000000 ]
  distance:    0.0184767
  band:
  - # 1
    frequency:   -5.4418942978
  - # 2
    frequency:   -4.7165136011
  - # 3
    frequency:   -1.7241936626
  - # 4
    frequency:   -1.1141562343
  - # 5
    frequency:   -0.6804288466
  - # 6
    frequency:    0.5617171279
  - # 7
    frequency:    1.0415430840
  - # 8
    frequency:    1.5810813239
  - # 9
    frequency:    3.6255219721
  - # 10
    frequency:    3.9196094231
  - # 11
    frequency:    5.2612324108
  - # 12
    frequency:    5.7684472188
  - # 13
    frequency:    5.9741327164
  - # 14
    frequency:   10.2133545832
  - # 15
    frequency:   14.6289883266
  - # 16
    frequency:   14.6509523443
  - # 17
    frequency:   15.2594574444
  - # 18
    frequency:   17.7082168730

- q-position: [    0.0555556,    0.0000000,    0.0000000 ]
  distance:    0.0203244
  band:
  - # 1
    frequency:   -5.6100001183
  - # 2
    frequency:   -4.7590350792
  - # 3
    frequency:   -1.8853702975
  - # 4
    frequency:   -1.2166779402
  - # 5
    frequency:   -0.6807705376
  - # 6
    frequency:    0.5824339671
  - # 7
    frequency:    1.1392608464
  - # 8
    frequency:    1.7081647423
  - # 9
    frequency:    3.6422196578
  - # 10
    frequency:    3.9852179200
  - # 11
    frequency:    5.2361562395
  - # 12
    frequency:    5.7675715216
  - # 13
    frequency:    6.0005303634
  - # 14
    frequency:   10.2001452572
  - # 15
    frequency:   14.5974322436
  - # 16
    frequency:   14.6176416146
  - # 17
    frequency:   15.2653412256
  - # 18
    frequency:   17.7149433039

- q-position: [    0.0606061,    0.0000000,    0.0000000 ]
  distance:    0.0221721
  band:
  - # 1
    frequency:   -5.7842204144
  - # 2
    frequency:   -4.8032591437
  - # 3
    frequency:   -2.0442210506
  - # 4
    frequency:   -1.3179651716
  - # 5
    frequency:   -0.6728003794
  - # 6
    frequency:    0.6046285116
  - # 7
    frequency:    1.2352716314
  - # 8
    frequency:    1.8340034467
  - # 9
    frequency:    3.6603626374
  - # 10
    frequency:    4.0528422790
  - # 11
    frequency:    5.2125238417
  - # 12
    frequency:    5.7671117290
  - # 13
    frequency:    6.0267779425
  - # 14
    frequency:   10.1857362978
  - # 15
    frequency:   14.5647596287
  - # 16
    frequency:   14.5818493190
  - # 17
    frequency:   15.2701465113
  - # 18
    frequency:   17.7218908255

- q-position: [    0.0656566,    0.0000000,    0.0000000 ]
  distance:    0.0240197
  band:
  - # 1
    frequency:   -5.9630763901
  - # 2
    frequency:   -4.8486948452
  - # 3
    frequency:   -2.2004960897
  - # 4
    frequency:   -1.4178305849
  - # 5
    frequency:   -0.6553366288
  - # 6
    frequency:    0.6282382196
  - # 7
    frequency:    1.3295460781
  - # 8
    frequency:    1.9584310056
  - # 9
    frequency:    3.6799136356
  - # 10
    frequency:    4.1216434216
  - # 11
    frequency:    5.1908933030
  - # 12
    frequency:    5.7672048116
  - # 13
    frequency:    6.0527572846
  - # 14
    frequency:   10.1701496846
  - # 15
    frequency:   14.5311357674
  - # 16
    frequency:   14.5437541666
  - # 17
    frequency:   15.2737638356
  - # 18
    frequency:   17.7289679478

- q-position: [    0.0707071,    0.0000000,    0.0000000 ]
  distance:    0.0258674
  band:
  - # 1
    frequency:   -6.1452061307
  - # 2
    frequency:   -4.8948523807
  - # 3
    frequency:   -2.3539625593
  - # 4
    frequency:   -1.5161075033
  - # 5
    frequency:   -0.6267695149
  - # 6
    frequency:    0.6532023898
  - # 7
    frequency:    1.4220613890
  - # 8
    frequency:    2.0812742748
  - # 9
    frequency:    3.7008330042
  - # 10
    frequency:    4.1907138179
  - # 11
    frequency:    5.1719251316
  - # 12
    frequency:    5.7679988554
  - # 13
    frequency:    6.0783766809
  - # 14
    frequency:   10.1534111193
  - # 15
    frequency:   14.4967020659
  - # 16
    frequency:   14.5035462245
  - # 17
    frequency:   15.2761089504
  - # 18
    frequency:   17.7360831652

- q-position: [    0.0757576,    0.0000000,    0.0000000 ]
  distance:    0.0277151
  band:
  - # 1
    frequency:   -6.3293595094
  - # 2
    frequency:   -4.9412464646
  - # 3
    frequency:   -2.5044009969
  - # 4
    frequency:   -1.6126443963
  - # 5
    frequency:   -0.5847376360
  - # 6
    frequency:    0.6794644558
  - # 7
    frequency:    1.5127998537
  - # 8
    frequency:    2.2023503833
  - # 9
    frequency:    3.7230789552
  - # 10
    frequency:    4.2590328111
  - # 11
    frequency:    5.1564301079
  - # 12
    frequency:    5.7696522257
  - # 13
    frequency:    6.1035669478
  - # 14
    frequency:   10.1355501184
  - # 15
    frequency:   14.4614259060
  - # 16
    frequency:   14.4615808142
  - # 17
    frequency:   15.2771180168
  - # 18
    frequency:   17.7431460139

- q-position: [    0.0808081,    0.0000000,    0.0000000 ]
  distance:    0.0295627
  band:
  - # 1
    frequency:   -6.5143914621
  - # 2
    frequency:   -4.9873988703
  - # 3
    frequency:   -2.6516032140
  - # 4
    frequency:   -1.7073014665
  - # 5
    frequency:   -0.5253742390
  - # 6
    frequency:    0.7069733743
  - # 7
    frequency:    1.6017475699
  - # 8
    frequency:    2.3214641975
  - # 9
    frequency:    3.7466078674
  - # 10
    frequency:    4.3254163402
  - # 11
    frequency:    5.1454201998
  - # 12
    frequency:    5.7723324342
  - # 13
    frequency:    6.1282794188
  - # 14
    frequency:   10.1166000348
  - # 15
    frequency:   14.4176028953
  - # 16
    frequency:   14.4258790711
  - # 17
    frequency:   15.2767438657
  - # 18
    frequency:   17.7500679856

- q-position: [    0.0858586,    0.0000000,    0.0000000 ]
  distance:    0.0314104
  band:
  - # 1
    frequency:   -6.6992545515
  - # 2
    frequency:   -5.0328402822
  - # 3
    frequency:   -2.7953710344
  - # 4
    frequency:   -1.7999484898
  - # 5
    frequency:   -0.4411910103
  - # 6
    frequency:    0.7356849210
  - # 7
    frequency:    1.6888934992
  - # 8
    frequency:    2.4384060399
  - # 9
    frequency:    3.7713746949
  - # 10
    frequency:    4.3884780534
  - # 11
    frequency:    5.1401467635
  - # 12
    frequency:    5.7762146761
  - # 13
    frequency:    6.1524852372
  - # 14
    frequency:   10.0965980112
  - # 15
    frequency:   14.3722950183
  - # 16
    frequency:   14.3896918844
  - # 17
    frequency:   15.2749531121
  - # 18
    frequency:   17.7567632956

- q-position: [    0.0909091,    0.0000000,    0.0000000 ]
  distance:    0.0332581
  band:
  - # 1
    frequency:   -6.8829913896
  - # 2
    frequency:   -5.0771115897
  - # 3
    frequency:   -2.9355155505
  - # 4
    frequency:   -1.8904634258
  - # 5
    frequency:   -0.3122783335
  - # 6
    frequency:    0.7655637433
  - # 7
    frequency:    1.7742289029
  - # 8
    frequency:    2.5529493985
  - # 9
    frequency:    3.7973335082
  - # 10
    frequency:    4.4466418204
  - # 11
    frequency:    5.1420867970
  - # 12
    frequency:    5.7814800136
  - # 13
    frequency:    6.1761755509
  - # 14
    frequency:   10.0755848716
  - # 15
    frequency:   14.3257270644
  - # 16
    frequency:   14.3531050214
  - # 17
    frequency:   15.2717239375
  - # 18
    frequency:   17.7631495087

- q-position: [    0.0959596,    0.0000000,    0.0000000 ]
  distance:    0.0351058
  band:
  - # 1
    frequency:   -7.0647272526
  - # 2
    frequency:   -5.1197647429
  - # 3
    frequency:   -3.0718567006
  - # 4
    frequency:   -1.9787315166
  - # 5
    frequency:    0.1243887072
  - # 6
    frequency:    0.7965876166
  - # 7
    frequency:    1.8577471389
  - # 8
    frequency:    2.6648484029
  - # 9
    frequency:    3.8244381973
  - # 10
    frequency:    4.4982731222
  - # 11
    frequency:    5.1528102434
  - # 12
    frequency:    5.7883131928
  - # 13
    frequency:    6.1993623677
  - # 14
    frequency:   10.0536049600
  - # 15
    frequency:   14.2781295699
  - # 16
    frequency:   14.3161973467
  - # 17
    frequency:   15.2670443885
  - # 18
    frequency:   17.7691480325

- q-position: [    0.1010101,    0.0000000,    0.0000000 ]
  distance:    0.0369534
  band:
  - # 1
    frequency:   -7.2436630841
  - # 2
    frequency:   -5.1603632731
  - # 3
    frequency:   -3.2042230493
  - # 4
    frequency:   -2.0646446996
  - # 5
    frequency:    0.3797454240
  - # 6
    frequency:    0.8287573013
  - # 7
    frequency:    1.9394437626
  - # 8
    frequency:    2.7738349172
  - # 9
    frequency:    3.8526433608
  - # 10
    frequency:    4.5419880417
  - # 11
    frequency:    5.1736698597
  - # 12
    frequency:    5.7969001009
  - # 13
    frequency:    6.2220799338
  - # 14
    frequency:   10.0307059383
  - # 15
    frequency:   14.2297375719
  - # 16
    frequency:   14.2790429457
  - # 17
    frequency:   15.2609110740
  - # 18
    frequency:   17.7746844919

- q-position: [    0.1060606,    0.0000000,    0.0000000 ]
  distance:    0.0388011
  band:
  - # 1
    frequency:   -7.4190689884
  - # 2
    frequency:   -5.1984825665
  - # 3
    frequency:   -3.3324516977
  - # 4
    frequency:   -2.1481012294
  - # 5
    frequency:    0.5369538219
  - # 6
    frequency:    0.8621218732
  - # 7
    frequency:    2.0193168522
  - # 8
    frequency:    2.8796152038
  - # 9
    frequency:    3.8819053954
  - # 10
    frequency:    4.5770859637
  - # 11
    frequency:    5.2053675889
  - # 12
    frequency:    5.8074248917
  - # 13
    frequency:    6.2443865794
  - # 14
    frequency:   10.0069385549
  - # 15
    frequency:   14.1807893435
  - # 16
    frequency:   14.2417130639
  - # 17
    frequency:   15.2533281698
  - # 18
    frequency:   17.7796889993

- q-position: [    0.1111111,    0.0000000,    0.0000000 ]
  distance:    0.0406488
  band:
  - # 1
    frequency:   -7.5902782620
  - # 2
    frequency:   -5.2337099640
  - # 3
    frequency:   -3.4563882757
  - # 4
    frequency:   -2.2290054387
  - # 5
    frequency:    0.6686217298
  - # 6
    frequency:    0.8968547525
  - # 7
    frequency:    2.0973674672
  - # 8
    frequency:    2.9818662702
  - # 9
    frequency:    3.9121837830
  - # 10
    frequency:    4.6038686907
  - # 11
    frequency:    5.2476345584
  - # 12
    frequency:    5.8200668355
  - # 13
    frequency:    6.2663670253
  - # 14
    frequency:    9.9823564001
  - # 15
    frequency:   14.1315251197
  - # 16
    frequency:   14.2042779042
  - # 17
    frequency:   15.2443066622
  - # 18
    frequency:   17.7840963374

- q-position: [    0.1161616,    0.0000000,    0.0000000 ]
  distance:    0.0424964
  band:
  - # 1
    frequency:   -7.7566819793
  - # 2
    frequency:   -5.2656447480
  - # 3
    frequency:   -3.5758869861
  - # 4
    frequency:   -2.3072675926
  - # 5
    frequency:    0.7865687058
  - # 6
    frequency:    0.9335443468
  - # 7
    frequency:    2.1736001475
  - # 8
    frequency:    3.0802322644
  - # 9
    frequency:    3.9434425551
  - # 10
    frequency:    4.6235963850
  - # 11
    frequency:    5.2992738398
  - # 12
    frequency:    5.8349969763
  - # 13
    frequency:    6.2881351843
  - # 14
    frequency:    9.9570156620
  - # 15
    frequency:   14.0821858273
  - # 16
    frequency:   14.1668083092
  - # 17
    frequency:   15.2338637817
  - # 18
    frequency:   17.7878460699

- q-position: [    0.1212121,    0.0000000,    0.0000000 ]
  distance:    0.0443441
  band:
  - # 1
    frequency:   -7.9177241242
  - # 2
    frequency:   -5.2938980665
  - # 3
    frequency:   -3.6908106791
  - # 4
    frequency:   -2.3828038060
  - # 5
    frequency:    0.8928958353
  - # 6
    frequency:    0.9747950576
  - # 7
    frequency:    2.2480233666
  - # 8
    frequency:    3.1743216859
  - # 9
    frequency:    3.9756518859
  - # 10
    frequency:    4.6381109040
  - # 11
    frequency:    5.3585345433
  - # 12
    frequency:    5.8523747108
  - # 13
    frequency:    6.3098375061
  - # 14
    frequency:    9.9309749001
  - # 15
    frequency:   14.0330118279
  - # 16
    frequency:   14.1293773374
  - # 17
    frequency:   15.2220225894
  - # 18
    frequency:   17.7908825964

- q-position: [    0.1262626,    0.0000000,    0.0000000 ]
  distance:    0.0461918
  band:
  - # 1
    frequency:   -8.0728972519
  - # 2
    frequency:   -5.3180928362
  - # 3
    frequency:   -3.8010309430
  - # 4
    frequency:   -2.4555360040
  - # 5
    frequency:    0.9760531903
  - # 6
    frequency:    1.0344239675
  - # 7
    frequency:    2.3206498639
  - # 8
    frequency:    3.2637067795
  - # 9
    frequency:    4.0087897454
  - # 10
    frequency:    4.6494010539
  - # 11
    frequency:    5.4235412887
  - # 12
    frequency:    5.8723444307
  - # 13
    frequency:    6.3316568924
  - # 14
    frequency:    9.9042948518
  - # 15
    frequency:   13.9842416862
  - # 16
    frequency:   14.0920617347
  - # 17
    frequency:   15.2088116926
  - # 18
    frequency:   17.7931551638

- q-position: [    0.1313131,    0.0000000,    0.0000000 ]
  distance:    0.0480395
  band:
  - # 1
    frequency:   -8.2217386522
  - # 2
    frequency:   -5.3378636593
  - # 3
    frequency:   -3.9064282011
  - # 4
    frequency:   -2.5253919095
  - # 5
    frequency:    1.0269357809
  - # 6
    frequency:    1.1227666241
  - # 7
    frequency:    2.3914967978
  - # 8
    frequency:    3.3479272806
  - # 9
    frequency:    4.0428435186
  - # 10
    frequency:    4.6593201186
  - # 11
    frequency:    5.4925665633
  - # 12
    frequency:    5.8950323866
  - # 13
    frequency:    6.3538171213
  - # 14
    frequency:    9.8770382887
  - # 15
    frequency:   13.9361109727
  - # 16
    frequency:   14.0549432895
  - # 17
    frequency:   15.1942650727
  - # 18
    frequency:   17.7946178459

- q-position: [    0.1363636,    0.0000000,    0.0000000 ]
  distance:    0.0498871
  band:
  - # 1
    frequency:   -8.3638269877
  - # 2
    frequency:   -5.3528567828
  - # 3
    frequency:   -4.0068918078
  - # 4
    frequency:   -2.5923050483
  - # 5
    frequency:    1.0684594451
  - # 6
    frequency:    1.2176199204
  - # 7
    frequency:    2.4605856841
  - # 8
    frequency:    3.4265015347
  - # 9
    frequency:    4.0778114802
  - # 10
    frequency:    4.6694751891
  - # 11
    frequency:    5.5641236778
  - # 12
    frequency:    5.9205439438
  - # 13
    frequency:    6.3765875020
  - # 14
    frequency:    9.8492699369
  - # 15
    frequency:   13.8888511118
  - # 16
    frequency:   14.0181100585
  - # 17
    frequency:   15.1784220168
  - # 18
    frequency:   17.7952295009

- q-position: [    0.1414141,    0.0000000,    0.0000000 ]
  distance:    0.0517348
  band:
  - # 1
    frequency:   -8.4987793741
  - # 2
    frequency:   -5.3627301260
  - # 3
    frequency:   -4.1023201382
  - # 4
    frequency:   -2.6562147642
  - # 5
    frequency:    1.1085067978
  - # 6
    frequency:    1.3115273286
  - # 7
    frequency:    2.5279421048
  - # 8
    frequency:    3.4989485030
  - # 9
    frequency:    4.1137040107
  - # 10
    frequency:    4.6812133111
  - # 11
    frequency:    5.6369525049
  - # 12
    frequency:    5.9489613928
  - # 13
    frequency:    6.4002870380
  - # 14
    frequency:    9.8210564775
  - # 15
    frequency:   13.8426882825
  - # 16
    frequency:   13.9816574393
  - # 17
    frequency:   15.1613271475
  - # 18
    frequency:   17.7949537118

- q-position: [    0.1464646,    0.0000000,    0.0000000 ]
  distance:    0.0535825
  band:
  - # 1
    frequency:   -8.6262488729
  - # 2
    frequency:   -5.3671533958
  - # 3
    frequency:   -4.1926206677
  - # 4
    frequency:   -2.7170662386
  - # 5
    frequency:    1.1484887585
  - # 6
    frequency:    1.4033337678
  - # 7
    frequency:    2.5935951990
  - # 8
    frequency:    3.5648234691
  - # 9
    frequency:    4.1505444443
  - # 10
    frequency:    4.6956346890
  - # 11
    frequency:    5.7099664858
  - # 12
    frequency:    5.9803424558
  - # 13
    frequency:    6.4252865590
  - # 14
    frequency:    9.7924666370
  - # 15
    frequency:   13.7978423790
  - # 16
    frequency:   13.9456890684
  - # 17
    frequency:   15.1430305521
  - # 18
    frequency:   17.7937587175

- q-position: [    0.1515152,    0.0000000,    0.0000000 ]
  distance:    0.0554301
  band:
  - # 1
    frequency:   -8.7459223666
  - # 2
    frequency:   -5.3658083094
  - # 3
    frequency:   -4.2777100386
  - # 4
    frequency:   -2.7748105106
  - # 5
    frequency:    1.1887686684
  - # 6
    frequency:    1.4928254139
  - # 7
    frequency:    2.6575769694
  - # 8
    frequency:    3.6237673619
  - # 9
    frequency:    4.1883694602
  - # 10
    frequency:    4.7135972005
  - # 11
    frequency:    5.7821995983
  - # 12
    frequency:    6.0147195939
  - # 13
    frequency:    6.4520059656
  - # 14
    frequency:    9.7635713798
  - # 15
    frequency:   13.7545260388
  - # 16
    frequency:   13.9103175138
  - # 17
    frequency:   15.1235880110
  - # 18
    frequency:   17.7916173336

- q-position: [    0.1565657,    0.0000000,    0.0000000 ]
  distance:    0.0572778
  band:
  - # 1
    frequency:   -8.8575187874
  - # 2
    frequency:   -5.3583889372
  - # 3
    frequency:   -4.3575141114
  - # 4
    frequency:   -2.8294044945
  - # 5
    frequency:    1.2294585484
  - # 6
    frequency:    1.5799709302
  - # 7
    frequency:    2.7199214560
  - # 8
    frequency:    3.6755640888
  - # 9
    frequency:    4.2272289595
  - # 10
    frequency:    4.7357046163
  - # 11
    frequency:    5.8527711582
  - # 12
    frequency:    6.0521001705
  - # 13
    frequency:    6.4809019424
  - # 14
    frequency:    9.7344442065
  - # 15
    frequency:   13.7129437398
  - # 16
    frequency:   13.8756647339
  - # 17
    frequency:   15.1030613303
  - # 18
    frequency:   17.7885068680

- q-position: [    0.1616162,    0.0000000,    0.0000000 ]
  distance:    0.0591255
  band:
  - # 1
    frequency:   -8.9607876753
  - # 2
    frequency:   -5.3446021804
  - # 3
    frequency:   -4.4319679996
  - # 4
    frequency:   -2.8808109929
  - # 5
    frequency:    1.2705873709
  - # 6
    frequency:    1.6647763441
  - # 7
    frequency:    2.7806638430
  - # 8
    frequency:    3.7201936238
  - # 9
    frequency:    4.2671854123
  - # 10
    frequency:    4.7622883509
  - # 11
    frequency:    5.9208771509
  - # 12
    frequency:    6.0924674691
  - # 13
    frequency:    6.5124398987
  - # 14
    frequency:    9.7051615602
  - # 15
    frequency:   13.6732909726
  - # 16
    frequency:   13.8418622686
  - # 17
    frequency:   15.0815187820
  - # 18
    frequency:   17.7844090295

- q-position: [    0.1666667,    0.0000000,    0.0000000 ]
  distance:    0.0609732
  band:
  - # 1
    frequency:   -9.0555080391
  - # 2
    frequency:   -5.3241683912
  - # 3
    frequency:   -4.5010160859
  - # 4
    frequency:   -2.9289987031
  - # 5
    frequency:    1.3121502781
  - # 6
    frequency:    1.7472507448
  - # 7
    frequency:    2.8398395726
  - # 8
    frequency:    3.7578648044
  - # 9
    frequency:    4.3083126976
  - # 10
    frequency:    4.7934001985
  - # 11
    frequency:    5.9858125709
  - # 12
    frequency:    6.1357825079
  - # 13
    frequency:    6.5470442856
  - # 14
    frequency:    9.6758033324
  - # 15
    frequency:   13.6357534877
  - # 16
    frequency:   13.8090511288
  - # 17
    frequency:   15.0590356573
  - # 18
    frequency:   17.7793098295

- q-position: [    0.1717172,    0.0000000,    0.0000000 ]
  distance:    0.0628208
  band:
  - # 1
    frequency:   -9.1414875015
  - # 2
    frequency:   -5.2968221426
  - # 3
    frequency:   -4.5646120203
  - # 4
    frequency:   -2.9739422159
  - # 5
    frequency:    1.3541264551
  - # 6
    frequency:    1.8273983799
  - # 7
    frequency:    2.8974835355
  - # 8
    frequency:    3.7890151513
  - # 9
    frequency:    4.3506945010
  - # 10
    frequency:    4.8288309673
  - # 11
    frequency:    6.0470231024
  - # 12
    frequency:    6.1819865421
  - # 13
    frequency:    6.5850267767
  - # 14
    frequency:    9.6464534561
  - # 15
    frequency:   13.6005066188
  - # 16
    frequency:   13.7773813466
  - # 17
    frequency:   15.0356949383
  - # 18
    frequency:   17.7731994770

- q-position: [    0.1767677,    0.0000000,    0.0000000 ]
  distance:    0.0646685
  band:
  - # 1
    frequency:   -9.2185617069
  - # 2
    frequency:   -5.2623131491
  - # 3
    frequency:   -4.6227186975
  - # 4
    frequency:   -3.0156220056
  - # 5
    frequency:    1.3964866909
  - # 6
    frequency:    1.9052179822
  - # 7
    frequency:    2.9536294026
  - # 8
    frequency:    3.8142758011
  - # 9
    frequency:    4.3944223613
  - # 10
    frequency:    4.8681589305
  - # 11
    frequency:    6.1041726868
  - # 12
    frequency:    6.2310041097
  - # 13
    frequency:    6.6265038183
  - # 14