nqpoint: 300    
npath: 3      
segment_nqpoint:
- 100
- 100
- 100
labels:
- [ 'G', 'M' ]
- [ 'M', 'K' ]
- [ 'K', 'G' ]
reciprocal_lattice:
- [   0.30690908,   0.17719404,   0.00000000 ] # a*
- [   0.00000000,   0.35438808,   0.00000000 ] # b*
- [   0.00000000,   0.00000000,   0.04096872 ] # c*
natom: 6      
lattice:
- [     3.258293996013800,     0.000000000000000,     0.000000000000000 ] # a
- [    -1.629146998006900,     2.821765373536437,     0.000000000000000 ] # b
- [     0.000000000000000,     0.000000000000000,    24.408866896482476 ] # c
points:
- symbol: Br # 1
  coordinates: [  0.666666984744048,  0.333332985985145,  0.368718467685076 ]
  mass: 79.904000
- symbol: C # 2
  coordinates: [  0.000000000000000,  0.000000000000000,  0.485981888715133 ]
  mass: 12.010700
- symbol: N # 3
  coordinates: [  0.333332985432215,  0.666666983183674,  0.577406818570033 ]
  mass: 14.006700
- symbol: O # 4
  coordinates: [  0.333332985432215,  0.666666983183674,  0.631281532314924 ]
  mass: 15.999400
- symbol: Ti # 5
  coordinates: [  0.333332985432215,  0.666666983183674,  0.444945106969410 ]
  mass: 47.867000
- symbol: Ti # 6
  coordinates: [  0.666666984744048,  0.333332985985145,  0.540562944187461 ]
  mass: 47.867000

phonon:
- q-position: [    0.0000000,    0.0000000,    0.0000000 ]
  distance:    0.0000000
  band:
  - # 1
    frequency:   -3.9041426403
  - # 2
    frequency:   -3.9041426403
  - # 3
    frequency:   -0.0000016752
  - # 4
    frequency:    0.0000009903
  - # 5
    frequency:    0.0000014088
  - # 6
    frequency:    3.2195307555
  - # 7
    frequency:    3.2195307555
  - # 8
    frequency:    4.9655892677
  - # 9
    frequency:    5.8878746275
  - # 10
    frequency:    5.8878746275
  - # 11
    frequency:    9.5290633838
  - # 12
    frequency:   10.1238179223
  - # 13
    frequency:   10.8308451408
  - # 14
    frequency:   10.8308451408
  - # 15
    frequency:   15.7229529268
  - # 16
    frequency:   15.7229529268
  - # 17
    frequency:   16.6996773677
  - # 18
    frequency:   40.9514280161

- q-position: [    0.0050505,    0.0000000,    0.0000000 ]
  distance:    0.0017898
  band:
  - # 1
    frequency:   -3.9046310135
  - # 2
    frequency:   -3.9033565063
  - # 3
    frequency:   -0.0704506607
  - # 4
    frequency:    0.0707169000
  - # 5
    frequency:    0.1406554737
  - # 6
    frequency:    3.2200683586
  - # 7
    frequency:    3.2215473566
  - # 8
    frequency:    4.9650282432
  - # 9
    frequency:    5.8881509209
  - # 10
    frequency:    5.8893377736
  - # 11
    frequency:    9.5282053722
  - # 12
    frequency:   10.1228065014
  - # 13
    frequency:   10.8303571456
  - # 14
    frequency:   10.8309901675
  - # 15
    frequency:   15.7227493491
  - # 16
    frequency:   15.7232516608
  - # 17
    frequency:   16.7000505763
  - # 18
    frequency:   40.9507136013

- q-position: [    0.0101010,    0.0000000,    0.0000000 ]
  distance:    0.0035797
  band:
  - # 1
    frequency:   -3.9060958977
  - # 2
    frequency:   -3.9009994821
  - # 3
    frequency:   -0.0862839533
  - # 4
    frequency:    0.1414407831
  - # 5
    frequency:    0.2584519883
  - # 6
    frequency:    3.2216802230
  - # 7
    frequency:    3.2275755376
  - # 8
    frequency:    4.9633611494
  - # 9
    frequency:    5.8889792160
  - # 10
    frequency:    5.8937100222
  - # 11
    frequency:    9.5256254135
  - # 12
    frequency:   10.1197956956
  - # 13
    frequency:   10.8288958874
  - # 14
    frequency:   10.8314133364
  - # 15
    frequency:   15.7221376759
  - # 16
    frequency:   15.7241533287
  - # 17
    frequency:   16.7011617533
  - # 18
    frequency:   40.9485717338

- q-position: [    0.0151515,    0.0000000,    0.0000000 ]
  distance:    0.0053695
  band:
  - # 1
    frequency:   -3.9085365707
  - # 2
    frequency:   -3.8970756494
  - # 3
    frequency:   -0.1010544999
  - # 4
    frequency:    0.2121782780
  - # 5
    frequency:    0.3794899608
  - # 6
    frequency:    3.2243635228
  - # 7
    frequency:    3.2375513341
  - # 8
    frequency:    4.9606348893
  - # 9
    frequency:    5.8903577600
  - # 10
    frequency:    5.9009409065
  - # 11
    frequency:    9.5213060360
  - # 12
    frequency:   10.1148546614
  - # 13
    frequency:   10.8264695357
  - # 14
    frequency:   10.8320799042
  - # 15
    frequency:   15.7211151005
  - # 16
    frequency:   15.7256740030
  - # 17
    frequency:   16.7029858352
  - # 18
    frequency:   40.9450065388

- q-position: [    0.0202020,    0.0000000,    0.0000000 ]
  distance:    0.0071594
  band:
  - # 1
    frequency:   -3.9119517766
  - # 2
    frequency:   -3.8915916410
  - # 3
    frequency:   -0.1152305336
  - # 4
    frequency:    0.2829353089
  - # 5
    frequency:    0.5017673337
  - # 6
    frequency:    3.2281135749
  - # 7
    frequency:    3.2513710534
  - # 8
    frequency:    4.9569243459
  - # 9
    frequency:    5.8922836426
  - # 10
    frequency:    5.9109498275
  - # 11
    frequency:    9.5152191373
  - # 12
    frequency:   10.1080947354
  - # 13
    frequency:   10.8230916626
  - # 14
    frequency:   10.8329351225
  - # 15
    frequency:   15.7196769879
  - # 16
    frequency:   15.7278394117
  - # 17
    frequency:   16.7054819766
  - # 18
    frequency:   40.9400248725

- q-position: [    0.0252525,    0.0000000,    0.0000000 ]
  distance:    0.0089492
  band:
  - # 1
    frequency:   -3.9163396476
  - # 2
    frequency:   -3.8845563901
  - # 3
    frequency:   -0.1271510427
  - # 4
    frequency:    0.3537167548
  - # 5
    frequency:    0.6245193875
  - # 6
    frequency:    3.2329238793
  - # 7
    frequency:    3.2688953275
  - # 8
    frequency:    4.9523279810
  - # 9
    frequency:    5.8947528123
  - # 10
    frequency:    5.9236307883
  - # 11
    frequency:    9.5073275650
  - # 12
    frequency:   10.0996639571
  - # 13
    frequency:   10.8187811786
  - # 14
    frequency:   10.8339084947
  - # 15
    frequency:   15.7178169395
  - # 16
    frequency:   15.7306834269
  - # 17
    frequency:   16.7085948753
  - # 18
    frequency:   40.9336362939

- q-position: [    0.0303030,    0.0000000,    0.0000000 ]
  distance:    0.0107390
  band:
  - # 1
    frequency:   -3.9216975986
  - # 2
    frequency:   -3.8759807877
  - # 3
    frequency:   -0.1349840862
  - # 4
    frequency:    0.4245261219
  - # 5
    frequency:    0.7474090354
  - # 6
    frequency:    3.2387861750
  - # 7
    frequency:    3.2899542062
  - # 8
    frequency:    4.9469626013
  - # 9
    frequency:    5.8977600996
  - # 10
    frequency:    5.9388580949
  - # 11
    frequency:    9.4975874197
  - # 12
    frequency:   10.0897401138
  - # 13
    frequency:   10.8135622409
  - # 14
    frequency:   10.8349189030
  - # 15
    frequency:   15.7155268818
  - # 16
    frequency:   15.7342460953
  - # 17
    frequency:   16.7122565087
  - # 18
    frequency:   40.9258530248

- q-position: [    0.0353535,    0.0000000,    0.0000000 ]
  distance:    0.0125289
  band:
  - # 1
    frequency:   -3.9280221949
  - # 2
    frequency:   -3.8658772580
  - # 3
    frequency:   -0.1366238103
  - # 4
    frequency:    0.4953652327
  - # 5
    frequency:    0.8702505008
  - # 6
    frequency:    3.2456905105
  - # 7
    frequency:    3.3143528286
  - # 8
    frequency:    4.9409579414
  - # 9
    frequency:    5.9012992465
  - # 10
    frequency:    5.9564923683
  - # 11
    frequency:    9.4859511309
  - # 12
    frequency:   10.0785228254
  - # 13
    frequency:   10.8074641368
  - # 14
    frequency:   10.8358800098
  - # 15
    frequency:   15.7127971798
  - # 16
    frequency:   15.7385713394
  - # 17
    frequency:   16.7163881770
  - # 18
    frequency:   40.9166899000

- q-position: [    0.0404040,    0.0000000,    0.0000000 ]
  distance:    0.0143187
  band:
  - # 1
    frequency:   -3.9353089985
  - # 2
    frequency:   -3.8542592617
  - # 3
    frequency:   -0.1290556450
  - # 4
    frequency:    0.5662339370
  - # 5
    frequency:    0.9929178886
  - # 6
    frequency:    3.2536253294
  - # 7
    frequency:    3.3418772087
  - # 8
    frequency:    4.9344516310
  - # 9
    frequency:    5.9053629437
  - # 10
    frequency:    5.9763863046
  - # 11
    frequency:    9.4723713084
  - # 12
    frequency:   10.0662251553
  - # 13
    frequency:   10.8005211391
  - # 14
    frequency:   10.8367054137
  - # 15
    frequency:   15.7096167730
  - # 16
    frequency:   15.7437044672
  - # 17
    frequency:   16.7209027423
  - # 18
    frequency:   40.9061643058

- q-position: [    0.0454545,    0.0000000,    0.0000000 ]
  distance:    0.0161085
  band:
  - # 1
    frequency:   -3.9435523946
  - # 2
    frequency:   -3.8411407389
  - # 3
    frequency:   -0.1062687072
  - # 4
    frequency:    0.6371298451
  - # 5
    frequency:    1.1153101145
  - # 6
    frequency:    3.2625775685
  - # 7
    frequency:    3.3722997309
  - # 8
    frequency:    4.9275849440
  - # 9
    frequency:    5.9099428735
  - # 10
    frequency:    5.9983897777
  - # 11
    frequency:    9.4568052966
  - # 12
    frequency:   10.0530651644
  - # 13
    frequency:   10.7927723368
  - # 14
    frequency:   10.8373131806
  - # 15
    frequency:   15.7059733326
  - # 16
    frequency:   15.7496896318
  - # 17
    frequency:   16.7257069548
  - # 18
    frequency:   40.8942961090

- q-position: [    0.0505051,    0.0000000,    0.0000000 ]
  distance:    0.0178984
  band:
  - # 1
    frequency:   -3.9527454040
  - # 2
    frequency:   -3.8265355086
  - # 3
    frequency:   -0.0407581173
  - # 4
    frequency:    0.7080480881
  - # 5
    frequency:    1.2373354922
  - # 6
    frequency:    3.2725327694
  - # 7
    frequency:    3.4053840375
  - # 8
    frequency:    4.9204995530
  - # 9
    frequency:    5.9150297609
  - # 10
    frequency:    6.0223540642
  - # 11
    frequency:    9.4392202488
  - # 12
    frequency:   10.0392577779
  - # 13
    frequency:   10.7842614376
  - # 14
    frequency:   10.8376295295
  - # 15
    frequency:   15.7018534396
  - # 16
    frequency:   15.7565673694
  - # 17
    frequency:   16.7307037682
  - # 18
    frequency:   40.8811075764

- q-position: [    0.0555556,    0.0000000,    0.0000000 ]
  distance:    0.0196882
  band:
  - # 1
    frequency:   -3.9628794855
  - # 2
    frequency:   -3.8104566368
  - # 3
    frequency:    0.1147095366
  - # 4
    frequency:    0.7789811063
  - # 5
    frequency:    1.3589041407
  - # 6
    frequency:    3.2834752008
  - # 7
    frequency:    3.4408890951
  - # 8
    frequency:    4.9133353525
  - # 9
    frequency:    5.9206134310
  - # 10
    frequency:    6.0481351229
  - # 11
    frequency:    9.4195984198
  - # 12
    frequency:   10.0250073085
  - # 13
    frequency:   10.7750365450
  - # 14
    frequency:   10.8375915965
  - # 15
    frequency:   15.6972427805
  - # 16
    frequency:   15.7643723257
  - # 17
    frequency:   16.7357945597
  - # 18
    frequency:   40.8666232848

- q-position: [    0.0606061,    0.0000000,    0.0000000 ]
  distance:    0.0214781
  band:
  - # 1
    frequency:   -3.9739443332
  - # 2
    frequency:   -3.7929157907
  - # 3
    frequency:    0.1845673795
  - # 4
    frequency:    0.8499184665
  - # 5
    frequency:    1.4799238718
  - # 6
    frequency:    3.2953879916
  - # 7
    frequency:    3.4785723252
  - # 8
    frequency:    4.9062293028
  - # 9
    frequency:    5.9266828734
  - # 10
    frequency:    6.0755959765
  - # 11
    frequency:    9.3979422783
  - # 12
    frequency:   10.0105009765
  - # 13
    frequency:   10.7651499090
  - # 14
    frequency:   10.8371493080
  - # 15
    frequency:   15.6921263598
  - # 16
    frequency:   15.7731312585
  - # 17
    frequency:   16.7408811959
  - # 18
    frequency:   40.8508700223

- q-position: [    0.0656566,    0.0000000,    0.0000000 ]
  distance:    0.0232679
  band:
  - # 1
    frequency:   -3.9859276740
  - # 2
    frequency:   -3.7739225942
  - # 3
    frequency:    0.2488467470
  - # 4
    frequency:    0.9208467101
  - # 5
    frequency:    1.6002977893
  - # 6
    frequency:    3.3082532720
  - # 7
    frequency:    3.5181917688
  - # 8
    frequency:    4.8993151780
  - # 9
    frequency:    5.9332263144
  - # 10
    frequency:    6.1046083056
  - # 11
    frequency:    9.3742789946
  - # 12
    frequency:    9.9959037482
  - # 13
    frequency:   10.7546576507
  - # 14
    frequency:   10.8362664601
  - # 15
    frequency:   15.6864887266
  - # 16
    frequency:   15.7828613779
  - # 17
    frequency:   16.7458678991
  - # 18
    frequency:   40.8338766822

- q-position: [    0.0707071,    0.0000000,    0.0000000 ]
  distance:    0.0250577
  band:
  - # 1
    frequency:   -3.9988150703
  - # 2
    frequency:   -3.7534840003
  - # 3
    frequency:    0.3123388346
  - # 4
    frequency:    0.9917492313
  - # 5
    frequency:    1.7199228115
  - # 6
    frequency:    3.3220523218
  - # 7
    frequency:    3.5595073155
  - # 8
    frequency:    4.8927240771
  - # 9
    frequency:    5.9402312948
  - # 10
    frequency:    6.1350533929
  - # 11
    frequency:    9.3486638952
  - # 12
    frequency:    9.9813547550
  - # 13
    frequency:   10.7436194620
  - # 14
    frequency:   10.8349211364
  - # 15
    frequency:   15.6803142143
  - # 16
    frequency:   15.7935690592
  - # 17
    frequency:   16.7506628906
  - # 18
    frequency:   40.8156741491

- q-position: [    0.0757576,    0.0000000,    0.0000000 ]
  distance:    0.0268476
  band:
  - # 1
    frequency:   -4.0125897324
  - # 2
    frequency:   -3.7316036919
  - # 3
    frequency:    0.3764563836
  - # 4
    frequency:    1.0626061859
  - # 5
    frequency:    1.8386887417
  - # 6
    frequency:    3.3367657244
  - # 7
    frequency:    3.6022810719
  - # 8
    frequency:    4.8865855495
  - # 9
    frequency:    5.9476847555
  - # 10
    frequency:    6.1668225519
  - # 11
    frequency:    9.3211825953
  - # 12
    frequency:    9.9669654316
  - # 13
    frequency:   10.7320982807
  - # 14
    frequency:   10.8331056023
  - # 15
    frequency:   15.6735871888
  - # 16
    frequency:   15.8052489446
  - # 17
    frequency:   16.7551798036
  - # 18
    frequency:   40.7962951790

- q-position: [    0.0808081,    0.0000000,    0.0000000 ]
  distance:    0.0286374
  band:
  - # 1
    frequency:   -4.0272323466
  - # 2
    frequency:   -3.7082815266
  - # 3
    frequency:    0.4417170104
  - # 4
    frequency:    1.1333944300
  - # 5
    frequency:    1.9564776979
  - # 6
    frequency:    3.3523735240
  - # 7
    frequency:    3.6462769721
  - # 8
    frequency:    4.8810292003
  - # 9
    frequency:    5.9555731283
  - # 10
    frequency:    6.1998171553
  - # 11
    frequency:    9.2919516992
  - # 12
    frequency:    9.9528193504
  - # 13
    frequency:   10.7201599431
  - # 14
    frequency:   10.8308258090
  - # 15
    frequency:   15.6662923056
  - # 16
    frequency:   15.8178834246
  - # 17
    frequency:   16.7593388680
  - # 18
    frequency:   40.7757742730

- q-position: [    0.0858586,    0.0000000,    0.0000000 ]
  distance:    0.0304273
  band:
  - # 1
    frequency:   -4.0427209227
  - # 2
    frequency:   -3.6835130317
  - # 3
    frequency:    0.5082984779
  - # 4
    frequency:    1.2040874868
  - # 5
    frequency:    2.0731638016
  - # 6
    frequency:    3.3688553836
  - # 7
    frequency:    3.6912597544
  - # 8
    frequency:    4.8761866453
  - # 9
    frequency:    5.9638824332
  - # 10
    frequency:    6.2339483533
  - # 11
    frequency:    9.2611181551
  - # 12
    frequency:    9.9389735528
  - # 13
    frequency:   10.7078728144
  - # 14
    frequency:   10.8281006256
  - # 15
    frequency:   15.6584147712
  - # 16
    frequency:   15.8314424794
  - # 17
    frequency:   16.7630678804
  - # 18
    frequency:   40.7541475467

- q-position: [    0.0909091,    0.0000000,    0.0000000 ]
  distance:    0.0322171
  band:
  - # 1
    frequency:   -4.0590306658
  - # 2
    frequency:   -3.6572889581
  - # 3
    frequency:    0.5762249321
  - # 4
    frequency:    1.2746555423
  - # 5
    frequency:    2.1886130727
  - # 6
    frequency:    3.3861907434
  - # 7
    frequency:    3.7369934481
  - # 8
    frequency:    4.8721936930
  - # 9
    frequency:    5.9725983803
  - # 10
    frequency:    6.2691365423
  - # 11
    frequency:    9.2288575183
  - # 12
    frequency:    9.9254610374
  - # 13
    frequency:   10.6953074000
  - # 14
    frequency:   10.8249608966
  - # 15
    frequency:   15.6499406071
  - # 16
    frequency:   15.8458838447
  - # 17
    frequency:   16.7663029773
  - # 18
    frequency:   40.7314525952

- q-position: [    0.0959596,    0.0000000,    0.0000000 ]
  distance:    0.0340069
  band:
  - # 1
    frequency:   -4.0761338753
  - # 2
    frequency:   -3.6295948973
  - # 3
    frequency:    0.6454441891
  - # 4
    frequency:    1.3450654671
  - # 5
    frequency:    2.3026834981
  - # 6
    frequency:    3.4043589746
  - # 7
    frequency:    3.7832395498
  - # 8
    frequency:    4.8691926085
  - # 9
    frequency:    5.9817064762
  - # 10
    frequency:    6.3053106219
  - # 11
    frequency:    9.1953714694
  - # 12
    frequency:    9.9122939937
  - # 13
    frequency:   10.6825359392
  - # 14
    frequency:   10.8214484095
  - # 15
    frequency:   15.6408569141
  - # 16
    frequency:   15.8611534601
  - # 17
    frequency:   16.7689892342
  - # 18
    frequency:   40.7077283547

- q-position: [    0.1010101,    0.0000000,    0.0000000 ]
  distance:    0.0357968
  band:
  - # 1
    frequency:   -4.0939998762
  - # 2
    frequency:   -3.6004109611
  - # 3
    frequency:    0.7158644181
  - # 4
    frequency:    1.4152808639
  - # 5
    frequency:    2.4152252535
  - # 6
    frequency:    3.4233395284
  - # 7
    frequency:    3.8297551188
  - # 8
    frequency:    4.8673342810
  - # 9
    frequency:    5.9911921338
  - # 10
    frequency:    6.3424070514
  - # 11
    frequency:    9.1608849598
  - # 12
    frequency:    9.8994673657
  - # 13
    frequency:   10.6696319837
  - # 14
    frequency:   10.8176148340
  - # 15
    frequency:   15.6311521340
  - # 16
    frequency:   15.8771861526
  - # 17
    frequency:   16.7710811114
  - # 18
    frequency:   40.6830149618

- q-position: [    0.1060606,    0.0000000,    0.0000000 ]
  distance:    0.0375866
  band:
  - # 1
    frequency:   -4.1125949836
  - # 2
    frequency:   -3.5697115243
  - # 3
    frequency:    0.7873732269
  - # 4
    frequency:    1.4852621399
  - # 5
    frequency:    2.5260810575
  - # 6
    frequency:    3.4431120764
  - # 7
    frequency:    3.8762911090
  - # 8
    frequency:    4.8667800371
  - # 9
    frequency:    6.0010407842
  - # 10
    frequency:    6.3803687033
  - # 11
    frequency:    9.1256433107
  - # 12
    frequency:    9.8869623957
  - # 13
    frequency:   10.6566699649
  - # 14
    frequency:   10.8135206844
  - # 15
    frequency:   15.6208163060
  - # 16
    frequency:   15.8939065056
  - # 17
    frequency:   16.7725427721
  - # 18
    frequency:   40.6573536114

- q-position: [    0.1111111,    0.0000000,    0.0000000 ]
  distance:    0.0393765
  band:
  - # 1
    frequency:   -4.1318825034
  - # 2
    frequency:   -3.5374650216
  - # 3
    frequency:    0.8598482572
  - # 4
    frequency:    1.5549666034
  - # 5
    frequency:    2.6350866322
  - # 6
    frequency:    3.4636566395
  - # 7
    frequency:    3.9225913715
  - # 8
    frequency:    4.8677027424
  - # 9
    frequency:    6.0112379895
  - # 10
    frequency:    6.4191434944
  - # 11
    frequency:    9.0899095076
  - # 12
    frequency:    9.8747498900
  - # 13
    frequency:   10.6437247524
  - # 14
    frequency:   10.8092343409
  - # 15
    frequency:   15.6098413158
  - # 16
    frequency:   15.9112298647
  - # 17
    frequency:   16.7733482907
  - # 18
    frequency:   40.6307864137

- q-position: [    0.1161616,    0.0000000,    0.0000000 ]
  distance:    0.0411663
  band:
  - # 1
    frequency:   -4.1518227716
  - # 2
    frequency:   -3.5036337946
  - # 3
    frequency:    0.9331633470
  - # 4
    frequency:    1.6243485842
  - # 5
    frequency:    2.7420712326
  - # 6
    frequency:    3.4849537024
  - # 7
    frequency:    3.9683929261
  - # 8
    frequency:    4.8702866843
  - # 9
    frequency:    6.0217695553
  - # 10
    frequency:    6.4586827669
  - # 11
    frequency:    9.0539618392
  - # 12
    frequency:    9.8627930563
  - # 13
    frequency:   10.6308712066
  - # 14
    frequency:   10.8048311549
  - # 15
    frequency:   15.5982211349
  - # 16
    frequency:   15.9290634330
  - # 17
    frequency:   16.7734817739
  - # 18
    frequency:   40.6033562517

- q-position: [    0.1212121,    0.0000000,    0.0000000 ]
  distance:    0.0429561
  band:
  - # 1
    frequency:   -4.1723732314
  - # 2
    frequency:   -3.4681739748
  - # 3
    frequency:    1.0071922297
  - # 4
    frequency:    1.6933595779
  - # 5
    frequency:    2.8468581852
  - # 6
    frequency:    3.5069843111
  - # 7
    frequency:    4.0134282717
  - # 8
    frequency:    4.8747255792
  - # 9
    frequency:    6.0326216408
  - # 10
    frequency:    6.4989393889
  - # 11
    frequency:    9.0180919403
  - # 12
    frequency:    9.8510498519
  - # 13
    frequency:   10.6181837319
  - # 14
    frequency:   10.8003926527
  - # 15
    frequency:   15.5859520474
  - # 16
    frequency:   15.9473074144
  - # 17
    frequency:   16.7729374097
  - # 18
    frequency:   40.5751066391

- q-position: [    0.1262626,    0.0000000,    0.0000000 ]
  distance:    0.0447460
  band:
  - # 1
    frequency:   -4.1934885494
  - # 2
    frequency:   -3.4310353911
  - # 3
    frequency:    1.0818107979
  - # 4
    frequency:    1.7619484150
  - # 5
    frequency:    2.9492653555
  - # 6
    frequency:    3.5297301480
  - # 7
    frequency:    4.0574306530
  - # 8
    frequency:    4.8812179241
  - # 9
    frequency:    6.0437808656
  - # 10
    frequency:    6.5398655454
  - # 11
    frequency:    8.9826032316
  - # 12
    frequency:    9.8394748530
  - # 13
    frequency:   10.6057358306
  - # 14
    frequency:   10.7960058457
  - # 15
    frequency:   15.5730328621
  - # 16
    frequency:   15.9658561653
  - # 17
    frequency:   16.7717194593
  - # 18
    frequency:   40.5460815810

- q-position: [    0.1313131,    0.0000000,    0.0000000 ]
  distance:    0.0465358
  band:
  - # 1
    frequency:   -4.2151207707
  - # 2
    frequency:   -3.3921614852
  - # 3
    frequency:    1.1568984963
  - # 4
    frequency:    1.8300614561
  - # 5
    frequency:    3.0491054330
  - # 6
    frequency:    3.5531735838
  - # 7
    frequency:    4.1001432146
  - # 8
    frequency:    4.8899589209
  - # 9
    frequency:    6.0552344106
  - # 10
    frequency:    6.5814101993
  - # 11
    frequency:    8.9478096937
  - # 12
    frequency:    9.8280206964
  - # 13
    frequency:   10.5935996658
  - # 14
    frequency:   10.7917626469
  - # 15
    frequency:   15.5594651087
  - # 16
    frequency:   15.9845993245
  - # 17
    frequency:   16.7698422038
  - # 18
    frequency:   40.5163254368

- q-position: [    0.1363636,    0.0000000,    0.0000000 ]
  distance:    0.0483256
  band:
  - # 1
    frequency:   -4.2372195109
  - # 2
    frequency:   -3.3514892175
  - # 3
    frequency:    1.2323391673
  - # 4
    frequency:    1.8976428145
  - # 5
    frequency:    3.1461858978
  - # 6
    frequency:    3.5772976992
  - # 7
    frequency:    4.1413327202
  - # 8
    frequency:    4.9011284791
  - # 9
    frequency:    6.0669701115
  - # 10
    frequency:    6.6235162269
  - # 11
    frequency:    8.9140348849
  - # 12
    frequency:    9.8166391706
  - # 13
    frequency:   10.5818456336
  - # 14
    frequency:   10.7877593890
  - # 15
    frequency:   15.5452532146
  - # 16
    frequency:   16.0034228957
  - # 17
    frequency:   16.7673298529
  - # 18
    frequency:   40.4858827864

- q-position: [    0.1414141,    0.0000000,    0.0000000 ]
  distance:    0.0501155
  band:
  - # 1
    frequency:   -4.2597321832
  - # 2
    frequency:   -3.3089489431
  - # 3
    frequency:    1.3080215428
  - # 4
    frequency:    1.9646346094
  - # 5
    frequency:    3.2403085208
  - # 6
    frequency:    3.6020862750
  - # 7
    frequency:    4.1808078382
  - # 8
    frequency:    4.9148754711
  - # 9
    frequency:    6.0789765431
  - # 10
    frequency:    6.6661172589
  - # 11
    frequency:    8.8816110762
  - # 12
    frequency:    9.8052820394
  - # 13
    frequency:   10.5705419521
  - # 14
    frequency:   10.7840964349
  - # 15
    frequency:   15.5304046617
  - # 16
    frequency:   16.0222102639
  - # 17
    frequency:   16.7642164203
  - # 18
    frequency:   40.4547983009

- q-position: [    0.1464646,    0.0000000,    0.0000000 ]
  distance:    0.0519053
  band:
  - # 1
    frequency:   -4.2826042596
  - # 2
    frequency:   -3.2644642352
  - # 3
    frequency:    1.3838394990
  - # 4
    frequency:    2.0309772506
  - # 5
    frequency:    3.3312682620
  - # 6
    frequency:    3.6275237452
  - # 7
    frequency:    4.2184408540
  - # 8
    frequency:    4.9312995350
  - # 9
    frequency:    6.0912430934
  - # 10
    frequency:    6.7091343093
  - # 11
    frequency:    8.8508783570
  - # 12
    frequency:    9.7939016733
  - # 13
    frequency:   10.5597542687
  - # 14
    frequency:   10.7808778705
  - # 15
    frequency:   15.5149301207
  - # 16
    frequency:   16.0408431372
  - # 17
    frequency:   16.7605455659
  - # 18
    frequency:   40.4231166185

- q-position: [    0.1515152,    0.0000000,    0.0000000 ]
  distance:    0.0536952
  band:
  - # 1
    frequency:   -4.3057795610
  - # 2
    frequency:   -3.2179516310
  - # 3
    frequency:    1.4596921466
  - # 4
    frequency:    2.0966097601
  - # 5
    frequency:    3.4188515113
  - # 6
    frequency:    3.6535951092
  - # 7
    frequency:    4.2541902229
  - # 8
    frequency:    4.9504330530
  - # 9
    frequency:    6.1037600233
  - # 10
    frequency:    6.7524723373
  - # 11
    frequency:    8.8221835293
  - # 12
    frequency:    9.7824515605
  - # 13
    frequency:   10.5495452908
  - # 14
    frequency:   10.7782112671
  - # 15
    frequency:   15.4988435621
  - # 16
    frequency:   16.0592024123
  - # 17
    frequency:   16.7563703970
  - # 18
    frequency:   40.3908822255

- q-position: [    0.1565657,    0.0000000,    0.0000000 ]
  distance:    0.0554850
  band:
  - # 1
    frequency:   -4.3292005750
  - # 2
    frequency:   -3.1693202703
  - # 3
    frequency:    1.5354838042
  - # 4
    frequency:    2.1614701308
  - # 5
    frequency:    3.5028337868
  - # 6
    frequency:    3.6802858006
  - # 7
    frequency:    4.2881201341
  - # 8
    frequency:    4.9722269863
  - # 9
    frequency:    6.1165185135
  - # 10
    frequency:    6.7960169679
  - # 11
    frequency:    8.7958785666
  - # 12
    frequency:    9.7708867518
  - # 13
    frequency:   10.5399744435
  - # 14
    frequency:   10.7762075010
  - # 15
    frequency:   15.4821623411
  - # 16
    frequency:   16.0771689734
  - # 17
    frequency:   16.7517532166
  - # 18
    frequency:   40.3581393436

- q-position: [    0.1616162,    0.0000000,    0.0000000 ]
  distance:    0.0572748
  band:
  - # 1
    frequency:   -4.3528087949
  - # 2
    frequency:   -3.1184713945
  - # 3
    frequency:    1.6111238809
  - # 4
    frequency:    2.2254957275
  - # 5
    frequency:    3.5829773460
  - # 6
    frequency:    3.7075815084
  - # 7
    frequency:    4.3204128118
  - # 8
    frequency:    4.9965443096
  - # 9
    frequency:    6.1295106951
  - # 10
    frequency:    6.8396316882
  - # 11
    frequency:    8.7723183679
  - # 12
    frequency:    9.7591642826
  - # 13
    frequency:   10.5310975566
  - # 14
    frequency:   10.7749806198
  - # 15
    frequency:   15.4649072572
  - # 16
    frequency:   16.0946244450
  - # 17
    frequency:   16.7467651958
  - # 18
    frequency:   40.3249318244

- q-position: [    0.1666667,    0.0000000,    0.0000000 ]
  distance:    0.0590647
  band:
  - # 1
    frequency:   -4.3765450784
  - # 2
    frequency:   -3.0652976642
  - # 3
    frequency:    1.6865266894
  - # 4
    frequency:    2.2886237296
  - # 5
    frequency:    3.6590297282
  - # 6
    frequency:    3.7354679494
  - # 7
    frequency:    4.3513699944
  - # 8
    frequency:    5.0231634841
  - # 9
    frequency:    6.1427296630
  - # 10
    frequency:    6.8831559394
  - # 11
    frequency:    8.7518574788
  - # 12
    frequency:    9.7472436047
  - # 13
    frequency:   10.5229665840
  - # 14
    frequency:   10.7746477441
  - # 15
    frequency:   15.4471025858
  - # 16
    frequency:   16.1114519319
  - # 17
    frequency:   16.7414859365
  - # 18
    frequency:   40.2913030502

- q-position: [    0.1717172,    0.0000000,    0.0000000 ]
  distance:    0.0608545
  band:
  - # 1
    frequency:   -4.4003500181
  - # 2
    frequency:   -3.0096822477
  - # 3
    frequency:    1.7616111980
  - # 4
    frequency:    2.3507916186
  - # 5
    frequency:    3.7307250684
  - # 6
    frequency:    3.7639305903
  - # 7
    frequency:    4.3814015622
  - # 8
    frequency:    5.0517920164
  - # 9
    frequency:    6.1561694715
  - # 10
    frequency:    6.9264046044
  - # 11
    frequency:    8.7348454131
  - # 12
    frequency:    9.7350870476
  - # 13
    frequency:   10.5156293580
  - # 14
    frequency:   10.7753289975
  - # 15
    frequency:   15.4287760813
  - # 16
    frequency:   16.1275367948
  - # 17
    frequency:   16.7360028808
  - # 18
    frequency:   40.2572958438

- q-position: [    0.1767677,    0.0000000,    0.0000000 ]
  distance:    0.0626444
  band:
  - # 1
    frequency:   -4.4241643214
  - # 2
    frequency:   -2.9514976174
  - # 3
    frequency:    1.8363007295
  - # 4
    frequency:    2.4119377081
  - # 5
    frequency:    3.7929543221
  - # 6
    frequency:    3.7977909835
  - # 7
    frequency:    4.4110007899
  - # 8
    frequency:    5.0820876614
  - # 9
    frequency:    6.1698251120
  - # 10
    frequency:    6.9691694399
  - # 11
    frequency:    8.7216201915
  - # 12
    frequency:    9.7226603227
  - # 13
    frequency:   10.5091293795
  - # 14