nqpoint: 300    
npath: 3      
segment_nqpoint:
- 100
- 100
- 100
labels:
- [ 'G', 'M' ]
- [ 'M', 'K' ]
- [ 'K', 'G' ]
reciprocal_lattice:
- [   0.30081435,   0.17367524,   0.00000000 ] # a*
- [   0.00000000,   0.34735049,   0.00000000 ] # b*
- [   0.00000000,   0.00000000,   0.03452617 ] # c*
natom: 8      
lattice:
- [     3.324309543105332,     0.000000000000000,     0.000000000000000 ] # a
- [    -1.662154771552666,     2.878936514371437,     0.000000000000000 ] # b
- [     0.000000000000000,     0.000000000000000,    28.963535323179993 ] # c
points:
- symbol: C # 1
  coordinates: [  0.000000000000000,  0.000000000000000,  0.488558855597114 ]
  mass: 12.010700
- symbol: C # 2
  coordinates: [  0.666666984744047,  0.333332985985145,  0.352306105984972 ]
  mass: 12.010700
- symbol: Cl # 3
  coordinates: [  0.333332985432215,  0.666666983183674,  0.689264452713507 ]
  mass: 35.453000
- symbol: N # 4
  coordinates: [  0.666666984744047,  0.333332985985145,  0.395400519101189 ]
  mass: 14.006700
- symbol: O # 5
  coordinates: [  0.333332985432215,  0.666666983183674,  0.569834140687375 ]
  mass: 15.999400
- symbol: O # 6
  coordinates: [  0.666666984744047,  0.333332985985145,  0.310735547286493 ]
  mass: 15.999400
- symbol: Zr # 7
  coordinates: [  0.333332985432215,  0.666666983183674,  0.445418358472529 ]
  mass: 91.224000
- symbol: Zr # 8
  coordinates: [  0.666666984744047,  0.333332985985145,  0.538744595599143 ]
  mass: 91.224000

phonon:
- q-position: [    0.0000000,    0.0000000,    0.0000000 ]
  distance:    0.0000000
  band:
  - # 1
    frequency:   -1.1190096923
  - # 2
    frequency:   -1.1190096923
  - # 3
    frequency:   -0.4918531686
  - # 4
    frequency:   -0.4918531686
  - # 5
    frequency:   -0.0000004944
  - # 6
    frequency:   -0.0000001523
  - # 7
    frequency:    0.0000013918
  - # 8
    frequency:    1.0511393195
  - # 9
    frequency:    3.1726801240
  - # 10
    frequency:    3.1726801240
  - # 11
    frequency:    5.0588549006
  - # 12
    frequency:    5.0588549006
  - # 13
    frequency:    5.4730705856
  - # 14
    frequency:    6.5147073755
  - # 15
    frequency:    6.5147073755
  - # 16
    frequency:    9.1446810925
  - # 17
    frequency:   14.0138170403
  - # 18
    frequency:   14.5006431638
  - # 19
    frequency:   14.5006431638
  - # 20
    frequency:   16.8963529288
  - # 21
    frequency:   16.8963529288
  - # 22
    frequency:   18.1734091616
  - # 23
    frequency:   38.3049043492
  - # 24
    frequency:   68.7279412094

- q-position: [    0.0050505,    0.0000000,    0.0000000 ]
  distance:    0.0017543
  band:
  - # 1
    frequency:   -1.1208489836
  - # 2
    frequency:   -1.1201531543
  - # 3
    frequency:   -0.5320053249
  - # 4
    frequency:   -0.5113475068
  - # 5
    frequency:   -0.4095421226
  - # 6
    frequency:    0.1442252694
  - # 7
    frequency:    0.4348706107
  - # 8
    frequency:    1.0548099154
  - # 9
    frequency:    3.1748559763
  - # 10
    frequency:    3.1751132254
  - # 11
    frequency:    5.0651620628
  - # 12
    frequency:    5.0659071480
  - # 13
    frequency:    5.4738373820
  - # 14
    frequency:    6.5151902645
  - # 15
    frequency:    6.5151967027
  - # 16
    frequency:    9.1438068663
  - # 17
    frequency:   14.0133883968
  - # 18
    frequency:   14.4999526018
  - # 19
    frequency:   14.5001108330
  - # 20
    frequency:   16.8964262515
  - # 21
    frequency:   16.8965279352
  - # 22
    frequency:   18.1725940954
  - # 23
    frequency:   38.3049291673
  - # 24
    frequency:   68.7269019520

- q-position: [    0.0101010,    0.0000000,    0.0000000 ]
  distance:    0.0035086
  band:
  - # 1
    frequency:   -1.1266408161
  - # 2
    frequency:   -1.1243910270
  - # 3
    frequency:   -0.6690157369
  - # 4
    frequency:   -0.5532037224
  - # 5
    frequency:   -0.4919780825
  - # 6
    frequency:    0.2643456884
  - # 7
    frequency:    0.6080461251
  - # 8
    frequency:    1.0665240208
  - # 9
    frequency:    3.1813279876
  - # 10
    frequency:    3.1822744180
  - # 11
    frequency:    5.0838264050
  - # 12
    frequency:    5.0870138365
  - # 13
    frequency:    5.4762157307
  - # 14
    frequency:    6.5166510160
  - # 15
    frequency:    6.5166728580
  - # 16
    frequency:    9.1411848894
  - # 17
    frequency:   14.0120999449
  - # 18
    frequency:   14.4978867538
  - # 19
    frequency:   14.4985167159
  - # 20
    frequency:   16.8966460651
  - # 21
    frequency:   16.8970522947
  - # 22
    frequency:   18.1701551466
  - # 23
    frequency:   38.3050035527
  - # 24
    frequency:   68.7237864633

- q-position: [    0.0151515,    0.0000000,    0.0000000 ]
  distance:    0.0052629
  band:
  - # 1
    frequency:   -1.1371449870
  - # 2
    frequency:   -1.1346087199
  - # 3
    frequency:   -0.8065626131
  - # 4
    frequency:   -0.5974902945
  - # 5
    frequency:   -0.5433021728
  - # 6
    frequency:    0.3617621084
  - # 7
    frequency:    0.7297277600
  - # 8
    frequency:    1.0884295530
  - # 9
    frequency:    3.1919368492
  - # 10
    frequency:    3.1937691581
  - # 11
    frequency:    5.1140606486
  - # 12
    frequency:    5.1220167754
  - # 13
    frequency:    5.4804671504
  - # 14
    frequency:    6.5191267256
  - # 15
    frequency:    6.5191614747
  - # 16
    frequency:    9.1368172690
  - # 17
    frequency:   14.0099440357
  - # 18
    frequency:   14.4944631763
  - # 19
    frequency:   14.4958694296
  - # 20
    frequency:   16.8970119102
  - # 21
    frequency:   16.8979240335
  - # 22
    frequency:   18.1661110220
  - # 23
    frequency:   38.3051272993
  - # 24
    frequency:   68.7186015840

- q-position: [    0.0202020,    0.0000000,    0.0000000 ]
  distance:    0.0070172
  band:
  - # 1
    frequency:   -1.1574319946
  - # 2
    frequency:   -1.1533955398
  - # 3
    frequency:   -0.9207967268
  - # 4
    frequency:   -0.6358001416
  - # 5
    frequency:   -0.5927797676
  - # 6
    frequency:    0.4437596751
  - # 7
    frequency:    0.8175481311
  - # 8
    frequency:    1.1235716973
  - # 9
    frequency:    3.2064391438
  - # 10
    frequency:    3.2090013046
  - # 11
    frequency:    5.1544826712
  - # 12
    frequency:    5.1706276085
  - # 13
    frequency:    5.4871346510
  - # 14
    frequency:    6.5226821318
  - # 15
    frequency:    6.5227092067
  - # 16
    frequency:    9.1307075228
  - # 17
    frequency:   14.0069076451
  - # 18
    frequency:   14.4897112641
  - # 19
    frequency:   14.4921833046
  - # 20
    frequency:   16.8975230348
  - # 21
    frequency:   16.8991398771
  - # 22
    frequency:   18.1604927574
  - # 23
    frequency:   38.3053000638
  - # 24
    frequency:   68.7113586816

- q-position: [    0.0252525,    0.0000000,    0.0000000 ]
  distance:    0.0087715
  band:
  - # 1
    frequency:   -1.2044691227
  - # 2
    frequency:   -1.1763216322
  - # 3
    frequency:   -1.0064295748
  - # 4
    frequency:   -0.6650471642
  - # 5
    frequency:   -0.6354470866
  - # 6
    frequency:    0.5157613443
  - # 7
    frequency:    0.8782575584
  - # 8
    frequency:    1.1733324379
  - # 9
    frequency:    3.2245334777
  - # 10
    frequency:    3.2272507960
  - # 11
    frequency:    5.2029445708
  - # 12
    frequency:    5.2323971898
  - # 13
    frequency:    5.4972623542
  - # 14
    frequency:    6.5273904835
  - # 15
    frequency:    6.5274143806
  - # 16
    frequency:    9.1228605915
  - # 17
    frequency:   14.0029719839
  - # 18
    frequency:   14.4836724272
  - # 19
    frequency:   14.4874783391
  - # 20
    frequency:   16.8981784125
  - # 21
    frequency:   16.9006952738
  - # 22
    frequency:   18.1533435003
  - # 23
    frequency:   38.3055213658
  - # 24
    frequency:   68.7020736009

- q-position: [    0.0303030,    0.0000000,    0.0000000 ]
  distance:    0.0105258
  band:
  - # 1
    frequency:   -1.2815797374
  - # 2
    frequency:   -1.2063190349
  - # 3
    frequency:   -1.0629048638
  - # 4
    frequency:   -0.6844010619
  - # 5
    frequency:   -0.6651448767
  - # 6
    frequency:    0.5814467918
  - # 7
    frequency:    0.9189222459
  - # 8
    frequency:    1.2348271087
  - # 9
    frequency:    3.2458863929
  - # 10
    frequency:    3.2477580128
  - # 11
    frequency:    5.2561603825
  - # 12
    frequency:    5.3066829267
  - # 13
    frequency:    5.5128235895
  - # 14
    frequency:    6.5333189742
  - # 15
    frequency:    6.5334605232
  - # 16
    frequency:    9.1132828614
  - # 17
    frequency:   13.9981120042
  - # 18
    frequency:   14.4764002876
  - # 19
    frequency:   14.4817801334
  - # 20
    frequency:   16.8989767677
  - # 21
    frequency:   16.9025844280
  - # 22
    frequency:   18.1447181968
  - # 23
    frequency:   38.3057905883
  - # 24
    frequency:   68.6907665945

- q-position: [    0.0353535,    0.0000000,    0.0000000 ]
  distance:    0.0122801
  band:
  - # 1
    frequency:   -1.3783332584
  - # 2
    frequency:   -1.2430329329
  - # 3
    frequency:   -1.1030519613
  - # 4
    frequency:   -0.6944305218
  - # 5
    frequency:   -0.6781829931
  - # 6
    frequency:    0.6434181781
  - # 7
    frequency:    0.9471391067
  - # 8
    frequency:    1.3028864621
  - # 9
    frequency:    3.2697993632
  - # 10
    frequency:    3.2701530428
  - # 11
    frequency:    5.3091711894
  - # 12
    frequency:    5.3926187094
  - # 13
    frequency:    5.5373098065
  - # 14
    frequency:    6.5406665685
  - # 15
    frequency:    6.5410086447
  - # 16
    frequency:    9.1019822023
  - # 17
    frequency:   13.9922958571
  - # 18
    frequency:   14.4679608397
  - # 19
    frequency:   14.4751198084
  - # 20
    frequency:   16.8999166032
  - # 21
    frequency:   16.9048003449
  - # 22
    frequency:   18.1346831745
  - # 23
    frequency:   38.3061069784
  - # 24
    frequency:   68.6774622346

- q-position: [    0.0404040,    0.0000000,    0.0000000 ]
  distance:    0.0140344
  band:
  - # 1
    frequency:   -1.4842141439
  - # 2
    frequency:   -1.2854986754
  - # 3
    frequency:   -1.1366196300
  - # 4
    frequency:   -0.6966182418
  - # 5
    frequency:   -0.6739706629
  - # 6
    frequency:    0.7035773962
  - # 7
    frequency:    0.9684915724
  - # 8
    frequency:    1.3734029251
  - # 9
    frequency:    3.2927432188
  - # 10
    frequency:    3.2969904617
  - # 11
    frequency:    5.3556445850
  - # 12
    frequency:    5.4890867499
  - # 13
    frequency:    5.5754754643
  - # 14
    frequency:    6.5496950377
  - # 15
    frequency:    6.5503138260
  - # 16
    frequency:    9.0889680291
  - # 17
    frequency:   13.9854843863
  - # 18
    frequency:   14.4584324964
  - # 19
    frequency:   14.4675339041
  - # 20
    frequency:   16.9009962299
  - # 21
    frequency:   16.9073348872
  - # 22
    frequency:   18.1233156122
  - # 23
    frequency:   38.3064696483
  - # 24
    frequency:   68.6621893068

- q-position: [    0.0454545,    0.0000000,    0.0000000 ]
  distance:    0.0157887
  band:
  - # 1
    frequency:   -1.5946947207
  - # 2
    frequency:   -1.3324882626
  - # 3
    frequency:   -1.1654214488
  - # 4
    frequency:   -0.6928712289
  - # 5
    frequency:   -0.6537894382
  - # 6
    frequency:    0.7633052477
  - # 7
    frequency:    0.9862453297
  - # 8
    frequency:    1.4439971451
  - # 9
    frequency:    3.3160817800
  - # 10
    frequency:    3.3260638190
  - # 11
    frequency:    5.3910786243
  - # 12
    frequency:    5.5946821803
  - # 13
    frequency:    5.6301629827
  - # 14
    frequency:    6.5608099393
  - # 15
    frequency:    6.5617203117
  - # 16
    frequency:    9.0742513925
  - # 17
    frequency:   13.9776307656
  - # 18
    frequency:   14.4479059158
  - # 19
    frequency:   14.4590642607
  - # 20
    frequency:   16.9022137957
  - # 21
    frequency:   16.9101788450
  - # 22
    frequency:   18.1107028835
  - # 23
    frequency:   38.3068775758
  - # 24
    frequency:   68.6449806858

- q-position: [    0.0505051,    0.0000000,    0.0000000 ]
  distance:    0.0175430
  band:
  - # 1
    frequency:   -1.7079057018
  - # 2
    frequency:   -1.3828104713
  - # 3
    frequency:   -1.1882581972
  - # 4
    frequency:   -0.6851264199
  - # 5
    frequency:   -0.6190451877
  - # 6
    frequency:    0.8235462056
  - # 7
    frequency:    1.0021850873
  - # 8
    frequency:    1.5133739921
  - # 9
    frequency:    3.3394404332
  - # 10
    frequency:    3.3570475314
  - # 11
    frequency:    5.4161159191
  - # 12
    frequency:    5.6989991271
  - # 13
    frequency:    5.7076493528
  - # 14
    frequency:    6.5746545977
  - # 15
    frequency:    6.5756908783
  - # 16
    frequency:    9.0578451093
  - # 17
    frequency:   13.9686804198
  - # 18
    frequency:   14.4364834795
  - # 19
    frequency:   14.4497578810
  - # 20
    frequency:   16.9035673106
  - # 21
    frequency:   16.9133220224
  - # 22
    frequency:   18.0969417633
  - # 23
    frequency:   38.3073296065
  - # 24
    frequency:   68.6258731958

- q-position: [    0.0555556,    0.0000000,    0.0000000 ]
  distance:    0.0192972
  band:
  - # 1
    frequency:   -1.8228020399
  - # 2
    frequency:   -1.4354582417
  - # 3
    frequency:   -1.2036070203
  - # 4
    frequency:   -0.6751173387
  - # 5
    frequency:   -0.5701078790
  - # 6
    frequency:    0.8848611122
  - # 7
    frequency:    1.0172999259
  - # 8
    frequency:    1.5807542297
  - # 9
    frequency:    3.3625700250
  - # 10
    frequency:    3.3896235028
  - # 11
    frequency:    5.4342908784
  - # 12
    frequency:    5.7766407690
  - # 13
    frequency:    5.8257521350
  - # 14
    frequency:    6.5922765628
  - # 15
    frequency:    6.5928424668
  - # 16
    frequency:    9.0397639391
  - # 17
    frequency:   13.9585713941
  - # 18
    frequency:   14.4242782721
  - # 19
    frequency:   14.4396667729
  - # 20
    frequency:   16.9050546664
  - # 21
    frequency:   16.9167533414
  - # 22
    frequency:   18.0821374841
  - # 23
    frequency:   38.3078244554
  - # 24
    frequency:   68.6049074540

- q-position: [    0.0606061,    0.0000000,    0.0000000 ]
  distance:    0.0210515
  band:
  - # 1
    frequency:   -1.9386082566
  - # 2
    frequency:   -1.4896363791
  - # 3
    frequency:   -1.2103290061
  - # 4
    frequency:   -0.6642668258
  - # 5
    frequency:   -0.5055172137
  - # 6
    frequency:    0.9474810584
  - # 7
    frequency:    1.0321625481
  - # 8
    frequency:    1.6455733987
  - # 9
    frequency:    3.3853287915
  - # 10
    frequency:    3.4234784703
  - # 11
    frequency:    5.4486540774
  - # 12
    frequency:    5.8581338555
  - # 13
    frequency:    5.9460207289
  - # 14
    frequency:    6.6139815304
  - # 15
    frequency:    6.6154185054
  - # 16
    frequency:    9.0200248169
  - # 17
    frequency:   13.9472353482
  - # 18
    frequency:   14.4114124043
  - # 19
    frequency:   14.4288477694
  - # 20
    frequency:   16.9066736486
  - # 21
    frequency:   16.9204609664
  - # 22
    frequency:   18.0664026306
  - # 23
    frequency:   38.3083607089
  - # 24
    frequency:   68.5821277009

- q-position: [    0.0656566,    0.0000000,    0.0000000 ]
  distance:    0.0228058
  band:
  - # 1
    frequency:   -2.0546737947
  - # 2
    frequency:   -1.5447337979
  - # 3
    frequency:   -1.2076821446
  - # 4
    frequency:   -0.6536529106
  - # 5
    frequency:   -0.4204179931
  - # 6
    frequency:    1.0113742027
  - # 7
    frequency:    1.0471221691
  - # 8
    frequency:    1.7073442396
  - # 9
    frequency:    3.4076600025
  - # 10
    frequency:    3.4583018683
  - # 11
    frequency:    5.4610684822
  - # 12
    frequency:    5.9396117826
  - # 13
    frequency:    6.0643260011
  - # 14
    frequency:    6.6401200112
  - # 15
    frequency:    6.6469782256
  - # 16
    frequency:    8.9986471469
  - # 17
    frequency:   13.9345993421
  - # 18
    frequency:   14.3980145383
  - # 19
    frequency:   14.4173623263
  - # 20
    frequency:   16.9084219386
  - # 21
    frequency:   16.9244324520
  - # 22
    frequency:   18.0498558638
  - # 23
    frequency:   38.3089368283
  - # 24
    frequency:   68.5575816167

- q-position: [    0.0707071,    0.0000000,    0.0000000 ]
  distance:    0.0245601
  band:
  - # 1
    frequency:   -2.1704363699
  - # 2
    frequency:   -1.6002822137
  - # 3
    frequency:   -1.1951819203
  - # 4
    frequency:   -0.6440164917
  - # 5
    frequency:   -0.3000914915
  - # 6
    frequency:    1.0624036081
  - # 7
    frequency:    1.0763219016
  - # 8
    frequency:    1.7655980150
  - # 9
    frequency:    3.4295696867
  - # 10
    frequency:    3.4937850880
  - # 11
    frequency:    5.4725921227
  - # 12
    frequency:    6.0179603502
  - # 13
    frequency:    6.1749293417
  - # 14
    frequency:    6.6724320595
  - # 15
    frequency:    6.6914871787
  - # 16
    frequency:    8.9756531634
  - # 17
    frequency:   13.9205885316
  - # 18
    frequency:   14.3842165316
  - # 19
    frequency:   14.4052762914
  - # 20
    frequency:   16.9102971050
  - # 21
    frequency:   16.9286549150
  - # 22
    frequency:   18.0326204682
  - # 23
    frequency:   38.3095511522
  - # 24
    frequency:   68.5313201265

- q-position: [    0.0757576,    0.0000000,    0.0000000 ]
  distance:    0.0263144
  band:
  - # 1
    frequency:   -2.2854090087
  - # 2
    frequency:   -1.6559189989
  - # 3
    frequency:   -1.1724638024
  - # 4
    frequency:   -0.6357956301
  - # 5
    frequency:    0.0590018885
  - # 6
    frequency:    1.0781608193
  - # 7
    frequency:    1.1419932259
  - # 8
    frequency:    1.8198611289
  - # 9
    frequency:    3.4511069717
  - # 10
    frequency:    3.5296225865
  - # 11
    frequency:    5.4838382586
  - # 12
    frequency:    6.0906167343
  - # 13
    frequency:    6.2709019419
  - # 14
    frequency:    6.7120946417
  - # 15
    frequency:    6.7547127163
  - # 16
    frequency:    8.9510683581
  - # 17
    frequency:   13.9051297964
  - # 18
    frequency:   14.3701492108
  - # 19
    frequency:   14.3926596442
  - # 20
    frequency:   16.9122965840
  - # 21
    frequency:   16.9331152326
  - # 22
    frequency:   18.0148227208
  - # 23
    frequency:   38.3102019014
  - # 24
    frequency:   68.5033971946

- q-position: [    0.0808081,    0.0000000,    0.0000000 ]
  distance:    0.0280687
  band:
  - # 1
    frequency:   -2.3991706492
  - # 2
    frequency:   -1.7113587493
  - # 3
    frequency:   -1.1391695158
  - # 4
    frequency:   -0.6291759039
  - # 5
    frequency:    0.3209659266
  - # 6
    frequency:    1.0945084219
  - # 7
    frequency:    1.2080076018
  - # 8
    frequency:    1.8696468228
  - # 9
    frequency:    3.4723480867
  - # 10
    frequency:    3.5655150211
  - # 11
    frequency:    5.4951762589
  - # 12
    frequency:    6.1556693431
  - # 13
    frequency:    6.3469400096
  - # 14
    frequency:    6.7599832209
  - # 15
    frequency:    6.8408578140
  - # 16
    frequency:    8.9249219722
  - # 17
    frequency:   13.8881561866
  - # 18
    frequency:   14.3559374357
  - # 19
    frequency:   14.3795861994
  - # 20
    frequency:   16.9144176468
  - # 21
    frequency:   16.9378002665
  - # 22
    frequency:   17.9965900895
  - # 23
    frequency:   38.3108871825
  - # 24
    frequency:   68.4738696099

- q-position: [    0.0858586,    0.0000000,    0.0000000 ]
  distance:    0.0298230
  band:
  - # 1
    frequency:   -2.5113570091
  - # 2
    frequency:   -1.7663729827
  - # 3
    frequency:   -1.0948429958
  - # 4
    frequency:   -0.6241469424
  - # 5
    frequency:    0.4558907038
  - # 6
    frequency:    1.1115432025
  - # 7
    frequency:    1.2739804125
  - # 8
    frequency:    1.9144529789
  - # 9
    frequency:    3.4933841108
  - # 10
    frequency:    3.6011743757
  - # 11
    frequency:    5.5068317153
  - # 12
    frequency:    6.2121136086
  - # 13
    frequency:    6.4029868080
  - # 14
    frequency:    6.8163098456
  - # 15
    frequency:    6.9489483667
  - # 16
    frequency:    8.8972475415
  - # 17
    frequency:   13.8696119059
  - # 18
    frequency:   14.3416947801
  - # 19
    frequency:   14.3661332702
  - # 20
    frequency:   16.9166573575
  - # 21
    frequency:   16.9426971095
  - # 22
    frequency:   17.9780492738
  - # 23
    frequency:   38.3116049932
  - # 24
    frequency:   68.4427967638

- q-position: [    0.0909091,    0.0000000,    0.0000000 ]
  distance:    0.0315773
  band:
  - # 1
    frequency:   -2.6216519427
  - # 2
    frequency:   -1.8207760645
  - # 3
    frequency:   -1.0388107188
  - # 4
    frequency:   -0.6205568324
  - # 5
    frequency:    0.5632355784
  - # 6
    frequency:    1.1293625480
  - # 7
    frequency:    1.3395517022
  - # 8
    frequency:    1.9537623639
  - # 9
    frequency:    3.5143120344
  - # 10
    frequency:    3.6363308731
  - # 11
    frequency:    5.5189341868
  - # 12
    frequency:    6.2599960945
  - # 13
    frequency:    6.4435172604
  - # 14
    frequency:    6.8804235130
  - # 15
    frequency:    7.0735535239
  - # 16
    frequency:    8.8680834806
  - # 17
    frequency:   13.8494573954
  - # 18
    frequency:   14.3275183109
  - # 19
    frequency:   14.3523812859
  - # 20
    frequency:   16.9190125193
  - # 21
    frequency:   16.9477933507
  - # 22
    frequency:   17.9593241127
  - # 23
    frequency:   38.3123532280
  - # 24
    frequency:   68.4102404219

- q-position: [    0.0959596,    0.0000000,    0.0000000 ]
  distance:    0.0333316
  band:
  - # 1
    frequency:   -2.7297797806
  - # 2
    frequency:   -1.8744155100
  - # 3
    frequency:   -0.9700063941
  - # 4
    frequency:   -0.6181589982
  - # 5
    frequency:    0.6560828070
  - # 6
    frequency:    1.1480850587
  - # 7
    frequency:    1.4044013071
  - # 8
    frequency:    1.9870442820
  - # 9
    frequency:    3.5352285128
  - # 10
    frequency:    3.6707412784
  - # 11
    frequency:    5.5315383587
  - # 12
    frequency:    6.3002553615
  - # 13
    frequency:    6.4737049366
  - # 14
    frequency:    6.9509390560
  - # 15
    frequency:    7.2086204364
  - # 16
    frequency:    8.8374736809
  - # 17
    frequency:   13.8276739863
  - # 18
    frequency:   14.3134840412
  - # 19
    frequency:   14.3384133567
  - # 20
    frequency:   16.9214796137
  - # 21
    frequency:   16.9530773511
  - # 22
    frequency:   17.9405333978
  - # 23
    frequency:   38.3131296838
  - # 24
    frequency:   68.3762644904

- q-position: [    0.1010101,    0.0000000,    0.0000000 ]
  distance:    0.0350859
  band:
  - # 1
    frequency:   -2.8354988597
  - # 2
    frequency:   -1.9271652341
  - # 3
    frequency:   -0.8866591689
  - # 4
    frequency:   -0.6166492125
  - # 5
    frequency:    0.7392650943
  - # 6
    frequency:    1.1678787508
  - # 7
    frequency:    1.4682546264
  - # 8
    frequency:    2.0137581133
  - # 9
    frequency:    3.5562256893
  - # 10
    frequency:    3.7041979938
  - # 11
    frequency:    5.5446317024
  - # 12
    frequency:    6.3343336797
  - # 13
    frequency:    6.4973614372
  - # 14
    frequency:    7.0261077904
  - # 15
    frequency:    7.3495344208
  - # 16
    frequency:    8.8054680950
  - # 17
    frequency:   13.8042675979
  - # 18
    frequency:   14.2996436173
  - # 19
    frequency:   14.3243147816
  - # 20
    frequency:   16.9240547322
  - # 21
    frequency:   16.9585385174
  - # 22
    frequency:   17.9217886372
  - # 23
    frequency:   38.3139320670
  - # 24
    frequency:   68.3409347807

- q-position: [    0.1060606,    0.0000000,    0.0000000 ]
  distance:    0.0368402
  band:
  - # 1
    frequency:   -2.9385962242
  - # 2
    frequency:   -1.9789207355
  - # 3
    frequency:   -0.7856381674
  - # 4
    frequency:   -0.6156926793
  - # 5
    frequency:    0.8149449465
  - # 6
    frequency:    1.1890032743
  - # 7
    frequency:    1.5308827305
  - # 8
    frequency:    2.0333603758
  - # 9
    frequency:    3.5773885509
  - # 10
    frequency:    3.7365381342
  - # 11
    frequency:    5.5581357454
  - # 12
    frequency:    6.3637930212
  - # 13
    frequency:    6.5168801392
  - # 14
    frequency:    7.1041897970
  - # 15
    frequency:    7.4931733834
  - # 16
    frequency:    8.7721232697
  - # 17
    frequency:   13.7792710834
  - # 18
    frequency:   14.2860226615
  - # 19
    frequency:   14.3101724931
  - # 20
    frequency:   16.9267335059
  - # 21
    frequency:   16.9641675606
  - # 22
    frequency:   17.9031918336
  - # 23
    frequency:   38.3147579999
  - # 24
    frequency:   68.3043187704

- q-position: [    0.1111111,    0.0000000,    0.0000000 ]
  distance:    0.0385945
  band:
  - # 1
    frequency:   -3.0388833665
  - # 2
    frequency:   -2.0295955329
  - # 3
    frequency:   -0.6607786596
  - # 4
    frequency:   -0.6149424234
  - # 5
    frequency:    0.8839802761
  - # 6
    frequency:    1.2118719386
  - # 7
    frequency:    1.5920994837
  - # 8
    frequency:    2.0453182466
  - # 9
    frequency:    3.5987933968
  - # 10
    frequency:    3.7676515984
  - # 11
    frequency:    5.5719053984
  - # 12
    frequency:    6.3900824784
  - # 13
    frequency:    6.5337030742
  - # 14
    frequency:    7.1836767127
  - # 15
    frequency:    7.6374383330
  - # 16
    frequency:    8.7375027949
  - # 17
    frequency:   13.7527450400
  - # 18
    frequency:   14.2726209647
  - # 19
    frequency:   14.2960744342
  - # 20
    frequency:   16.9295110332
  - # 21
    frequency:   16.9699567201
  - # 22
    frequency:   17.8848333455
  - # 23
    frequency:   38.3156050285
  - # 24
    frequency:   68.2664853650

- q-position: [    0.1161616,    0.0000000,    0.0000000 ]
  distance:    0.0403488
  band:
  - # 1
    frequency:   -3.1361928384
  - # 2
    frequency:   -2.0791184012
  - # 3
    frequency:   -0.6140507062
  - # 4
    frequency:   -0.4970674290
  - # 5
    frequency:    0.9463482683
  - # 6
    frequency:    1.2371286190
  - # 7
    frequency:    1.6517573774
  - # 8
    frequency:    2.0491343730
  - # 9
    frequency:    3.6205071069
  - # 10
    frequency:    3.7974870781
  - # 11
    frequency:    5.5857295868
  - # 12
    frequency:    6.4144547926
  - # 13
    frequency:    6.5487043989
  - # 14
    frequency:    7.2633645885
  - # 15
    frequency:    7.7808669445
  - # 16
    frequency:    8.7016776331
  - # 17
    frequency:   13.7247771507
  - # 18
    frequency:   14.2594144548
  - # 19
    frequency:   14.2821088669
  - # 20
    frequency:   16.9323818117
  - # 21
    frequency:   16.9758999370
  - # 22
    frequency:   17.8667899130
  - # 23
    frequency:   38.3164706298
  - # 24
    frequency:   68.2275046601

- q-position: [    0.1212121,    0.0000000,    0.0000000 ]
  distance:    0.0421031
  band:
  - # 1
    frequency:   -3.2303755726
  - # 2
    frequency:   -2.1274311155
  - # 3
    frequency:   -0.6126751691
  - # 4
    frequency:   -0.2269455399
  - # 5
    frequency:    1.0012977083
  - # 6
    frequency:    1.2656938204
  - # 7
    frequency:    1.7097430318
  - # 8
    frequency:    2.0443909009
  - # 9
    frequency:    3.6425869872
  - # 10
    frequency:    3.8260550135
  - # 11
    frequency:    5.5993357813
  - # 12
    frequency:    6.4379670569
  - # 13
    frequency:    6.5624256036
  - # 14
    frequency:    7.3423396244
  - # 15
    frequency:    7.9223953076
  - # 16
    frequency:    8.6647263136
  - # 17
    frequency:   13.6954803317
  - # 18
    frequency:   14.2463586382
  - # 19
    frequency:   14.2683636091
  - # 20
    frequency:   16.9353396748
  - # 21
    frequency:   16.9819929551
  - # 22
    frequency:   17.8491229306
  - # 23
    frequency:   38.3173522199
  - # 24
    frequency:   68.1874477061

- q-position: [    0.1262626,    0.0000000,    0.0000000 ]
  distance:    0.0438574
  band:
  - # 1
    frequency:   -3.3212987696
  - # 2
    frequency:   -2.1744865158
  - # 3
    frequency:   -0.6104811272
  - # 4
    frequency:    0.3831089254
  - # 5
    frequency:    1.0475452593
  - # 6
    frequency:    1.2986517778
  - # 7
    frequency:    1.7659728481
  - # 8
    frequency:    2.0308257889
  - # 9
    frequency:    3.6650810322
  - # 10
    frequency:    3.8534267704
  - # 11
    frequency:    5.6124003717
  - # 12
    frequency:    6.4615098861
  - # 13
    frequency:    6.5752100883
  - # 14
    frequency:    7.4199309000
  - # 15
    frequency:    8.0612204066
  - # 16
    frequency:    8.6267349936
  - # 17
    frequency:   13.6649900839
  - # 18
    frequency:   14.2333930705
  - # 19
    frequency:   14.2549252059
  - # 20
    frequency:   16.9383777388
  - # 21
    frequency:   16.9882333336
  - # 22
    frequency:   17.8318770519
  - # 23
    frequency:   38.3182471623
  - # 24
    frequency:   68.1463862753

- q-position: [    0.1313131,    0.0000000,    0.0000000 ]
  distance:    0.0456117
  band:
  - # 1
    frequency:   -3.4088442342
  - # 2
    frequency:   -2.2202467756
  - # 3
    frequency:   -0.6071410640
  - # 4
    frequency:    0.5861902053
  - # 5
    frequency:    1.0837715448
  - # 6
    frequency:    1.3368370556
  - # 7
    frequency:    1.8203890128
  - # 8
    frequency:    2.0084623492
  - # 9
    frequency:    3.6880284926
  - # 10
    frequency:    3.8797297424
  - # 11
    frequency:    5.6245658816
  - # 12
    frequency:    6.4858355644
  - # 13
    frequency:    6.5872799348
  - # 14
    frequency:    7.4956587496
  - # 15
    frequency:    8.1967206007
  - # 16
    frequency:    8.5877974406
  - # 17
    frequency:   13.6334614653
  - # 18
    frequency:   14.2204463741
  - # 19
    frequency:   14.2418780392
  - # 20
    frequency:   16.9414883620
  - # 21
    frequency:   16.9946203595
  - # 22
    frequency:   17.8150792005
  - # 23
    frequency:   38.3191527758
  - # 24
    frequency:   68.1043926346

- q-position: [    0.1363636,    0.0000000,    0.0000000 ]
  distance:    0.0473660
  band:
  - # 1
    frequency:   -3.4929070641
  - # 2
    frequency:   -2.2646818045
  - # 3
    frequency:   -0.6023319932
  - # 4
    frequency:    0.7299185191
  - # 5
    frequency:    1.1094857424
  - # 6
    frequency:    1.3802928861
  - # 7