nqpoint: 300    
npath: 3      
segment_nqpoint:
- 100
- 100
- 100
labels:
- [ 'G', 'M' ]
- [ 'M', 'K' ]
- [ 'K', 'G' ]
reciprocal_lattice:
- [   0.30766207,   0.17762878,   0.00000000 ] # a*
- [   0.00000000,   0.35525756,   0.00000000 ] # b*
- [   0.00000000,   0.00000000,   0.03873440 ] # c*
natom: 7      
lattice:
- [     3.250319442027156,     0.000000000000000,     0.000000000000000 ] # a
- [    -1.625159721013578,     2.814859207209202,     0.000000000000000 ] # b
- [     0.000000000000000,     0.000000000000000,    25.816848213751900 ] # c
points:
- symbol: Br # 1
  coordinates: [  0.333332985432215,  0.666666983183674,  0.651390443733331 ]
  mass: 79.904000
- symbol: C # 2
  coordinates: [  0.000000000000000,  0.000000000000000,  0.537671317235090 ]
  mass: 12.010700
- symbol: C # 3
  coordinates: [  0.666666984744048,  0.333332985985145,  0.394640668124162 ]
  mass: 12.010700
- symbol: N # 4
  coordinates: [  0.666666984744048,  0.333332985985145,  0.348609556266669 ]
  mass: 14.006700
- symbol: O # 5
  coordinates: [  0.666666984744048,  0.333332985985145,  0.446312761022921 ]
  mass: 15.999400
- symbol: Ti # 6
  coordinates: [  0.333332985432215,  0.666666983183674,  0.495859555984431 ]
  mass: 47.867000
- symbol: Ti # 7
  coordinates: [  0.666666984744048,  0.333332985985145,  0.579754744550074 ]
  mass: 47.867000

phonon:
- q-position: [    0.0000000,    0.0000000,    0.0000000 ]
  distance:    0.0000000
  band:
  - # 1
    frequency:   -0.0000007194
  - # 2
    frequency:   -0.0000002019
  - # 3
    frequency:    0.0000006912
  - # 4
    frequency:    0.2248268296
  - # 5
    frequency:    0.2248268296
  - # 6
    frequency:    3.4790328013
  - # 7
    frequency:    3.4790328013
  - # 8
    frequency:    5.1002378160
  - # 9
    frequency:    6.2127079497
  - # 10
    frequency:    6.2127079497
  - # 11
    frequency:    7.3471666662
  - # 12
    frequency:    7.3471666662
  - # 13
    frequency:    8.7732117325
  - # 14
    frequency:   12.5293820732
  - # 15
    frequency:   14.2152317129
  - # 16
    frequency:   14.2152317129
  - # 17
    frequency:   17.1725873687
  - # 18
    frequency:   17.5597213885
  - # 19
    frequency:   17.5597213885
  - # 20
    frequency:   31.8260989364
  - # 21
    frequency:   67.4561445330

- q-position: [    0.0050505,    0.0000000,    0.0000000 ]
  distance:    0.0017942
  band:
  - # 1
    frequency:   -0.0358962604
  - # 2
    frequency:    0.0726632350
  - # 3
    frequency:    0.1173052355
  - # 4
    frequency:    0.2297835920
  - # 5
    frequency:    0.2434065959
  - # 6
    frequency:    3.4795736615
  - # 7
    frequency:    3.4809697870
  - # 8
    frequency:    5.0995913231
  - # 9
    frequency:    6.2126378438
  - # 10
    frequency:    6.2136375809
  - # 11
    frequency:    7.3472672647
  - # 12
    frequency:    7.3472976597
  - # 13
    frequency:    8.7734282062
  - # 14
    frequency:   12.5281570527
  - # 15
    frequency:   14.2153082961
  - # 16
    frequency:   14.2155330282
  - # 17
    frequency:   17.1722484691
  - # 18
    frequency:   17.5601321074
  - # 19
    frequency:   17.5607552150
  - # 20
    frequency:   31.8256796393
  - # 21
    frequency:   67.4559823039

- q-position: [    0.0101010,    0.0000000,    0.0000000 ]
  distance:    0.0035885
  band:
  - # 1
    frequency:   -0.0543784228
  - # 2
    frequency:    0.1434904776
  - # 3
    frequency:    0.2256881474
  - # 4
    frequency:    0.2451189518
  - # 5
    frequency:    0.2954587798
  - # 6
    frequency:    3.4811953901
  - # 7
    frequency:    3.4867630789
  - # 8
    frequency:    5.0976624297
  - # 9
    frequency:    6.2124276134
  - # 10
    frequency:    6.2164179119
  - # 11
    frequency:    7.3475665420
  - # 12
    frequency:    7.3476896321
  - # 13
    frequency:    8.7740778998
  - # 14
    frequency:   12.5244855390
  - # 15
    frequency:   14.2155378142
  - # 16
    frequency:   14.2164359593
  - # 17
    frequency:   17.1712320791
  - # 18
    frequency:   17.5613614845
  - # 19
    frequency:   17.5638498933
  - # 20
    frequency:   31.8244231916
  - # 21
    frequency:   67.4554959774

- q-position: [    0.0151515,    0.0000000,    0.0000000 ]
  distance:    0.0053827
  band:
  - # 1
    frequency:   -0.0712750627
  - # 2
    frequency:    0.2075225707
  - # 3
    frequency:    0.2742911100
  - # 4
    frequency:    0.3181183956
  - # 5
    frequency:    0.3810669877
  - # 6
    frequency:    3.4838954393
  - # 7
    frequency:    3.4963603091
  - # 8
    frequency:    5.0944824715
  - # 9
    frequency:    6.2120775243
  - # 10
    frequency:    6.2210236665
  - # 11
    frequency:    7.3480570085
  - # 12
    frequency:    7.3483395696
  - # 13
    frequency:    8.7751616002
  - # 14
    frequency:   12.5183781428
  - # 15
    frequency:   14.2159195746
  - # 16
    frequency:   14.2179374795
  - # 17
    frequency:   17.1695392014
  - # 18
    frequency:   17.5634012053
  - # 19
    frequency:   17.5689850055
  - # 20
    frequency:   31.8223339165
  - # 21
    frequency:   67.4546866335

- q-position: [    0.0202020,    0.0000000,    0.0000000 ]
  distance:    0.0071769
  band:
  - # 1
    frequency:   -0.0855090227
  - # 2
    frequency:    0.2553722576
  - # 3
    frequency:    0.3251342105
  - # 4
    frequency:    0.3968618663
  - # 5
    frequency:    0.4897869462
  - # 6
    frequency:    3.4876695889
  - # 7
    frequency:    3.5096762332
  - # 8
    frequency:    5.0901023211
  - # 9
    frequency:    6.2115880291
  - # 10
    frequency:    6.2274140430
  - # 11
    frequency:    7.3487263950
  - # 12
    frequency:    7.3492424812
  - # 13
    frequency:    8.7766805172
  - # 14
    frequency:   12.5098524383
  - # 15
    frequency:   14.2164524301
  - # 16
    frequency:   14.2200326016
  - # 17
    frequency:   17.1671717449
  - # 18
    frequency:   17.5662374926
  - # 19
    frequency:   17.5761264879
  - # 20
    frequency:   31.8194189915
  - # 21
    frequency:   67.4535560678

- q-position: [    0.0252525,    0.0000000,    0.0000000 ]
  distance:    0.0089712
  band:
  - # 1
    frequency:   -0.0961796541
  - # 2
    frequency:    0.2914397427
  - # 3
    frequency:    0.3918669073
  - # 4
    frequency:    0.4743117264
  - # 5
    frequency:    0.6050138264
  - # 6
    frequency:    3.4925119857
  - # 7
    frequency:    3.5265955956
  - # 8
    frequency:    5.0845905056
  - # 9
    frequency:    6.2109597815
  - # 10
    frequency:    6.2355345565
  - # 11
    frequency:    7.3495579669
  - # 12
    frequency:    7.3503914470
  - # 13
    frequency:    8.7786361342
  - # 14
    frequency:   12.4989328043
  - # 15
    frequency:   14.2171347881
  - # 16
    frequency:   14.2227144597
  - # 17
    frequency:   17.1641328263
  - # 18
    frequency:   17.5698512267
  - # 19
    frequency:   17.5852266328
  - # 20
    frequency:   31.8156884063
  - # 21
    frequency:   67.4521067827

- q-position: [    0.0303030,    0.0000000,    0.0000000 ]
  distance:    0.0107654
  band:
  - # 1
    frequency:   -0.1019106527
  - # 2
    frequency:    0.3252933957
  - # 3
    frequency:    0.4638147806
  - # 4
    frequency:    0.5529971530
  - # 5
    frequency:    0.7219770428
  - # 6
    frequency:    3.4984151981
  - # 7
    frequency:    3.5469767926
  - # 8
    frequency:    5.0780308457
  - # 9
    frequency:    6.2101936562
  - # 10
    frequency:    6.2453193528
  - # 11
    frequency:    7.3505309524
  - # 12
    frequency:    7.3517776840
  - # 13
    frequency:    8.7810300084
  - # 14
    frequency:   12.4856502082
  - # 15
    frequency:   14.2179646248
  - # 16
    frequency:   14.2259744191
  - # 17
    frequency:   17.1604271000
  - # 18
    frequency:   17.5742181119
  - # 19
    frequency:   17.5962241752
  - # 20
    frequency:   31.8111549050
  - # 21
    frequency:   67.4503419780

- q-position: [    0.0353535,    0.0000000,    0.0000000 ]
  distance:    0.0125596
  band:
  - # 1
    frequency:   -0.1005460890
  - # 2
    frequency:    0.3596552210
  - # 3
    frequency:    0.5374185186
  - # 4
    frequency:    0.6328394561
  - # 5
    frequency:    0.8394863687
  - # 6
    frequency:    3.5053702847
  - # 7
    frequency:    3.5706560456
  - # 8
    frequency:    5.0705198309
  - # 9
    frequency:    6.2092907715
  - # 10
    frequency:    6.2566937833
  - # 11
    frequency:    7.3516210727
  - # 12
    frequency:    7.3533906300
  - # 13
    frequency:    8.7838635245
  - # 14
    frequency:   12.4700419440
  - # 15
    frequency:   14.2189395019
  - # 16
    frequency:   14.2298022065
  - # 17
    frequency:   17.1560610579
  - # 18
    frequency:   17.5793088885
  - # 19
    frequency:   17.6090445179
  - # 20
    frequency:   31.8058339123
  - # 21
    frequency:   67.4482655364

- q-position: [    0.0404040,    0.0000000,    0.0000000 ]
  distance:    0.0143538
  band:
  - # 1
    frequency:   -0.0879729441
  - # 2
    frequency:    0.3949390546
  - # 3
    frequency:    0.6116444946
  - # 4
    frequency:    0.7134926908
  - # 5
    frequency:    0.9571163034
  - # 6
    frequency:    3.5133668777
  - # 7
    frequency:    3.5974517846
  - # 8
    frequency:    5.0621639488
  - # 9
    frequency:    6.2082525175
  - # 10
    frequency:    6.2695770352
  - # 11
    frequency:    7.3528011601
  - # 12
    frequency:    7.3552180424
  - # 13
    frequency:    8.7871376156
  - # 14
    frequency:   12.4521513311
  - # 15
    frequency:   14.2200565874
  - # 16
    frequency:   14.2341860563
  - # 17
    frequency:   17.1510432562
  - # 18
    frequency:   17.5850895880
  - # 19
    frequency:   17.6236001308
  - # 20
    frequency:   31.7997434448
  - # 21
    frequency:   67.4458820078

- q-position: [    0.0454545,    0.0000000,    0.0000000 ]
  distance:    0.0161481
  band:
  - # 1
    frequency:   -0.0503987554
  - # 2
    frequency:    0.4310727768
  - # 3
    frequency:    0.6861066188
  - # 4
    frequency:    0.7946593698
  - # 5
    frequency:    1.0746602571
  - # 6
    frequency:    3.5223932783
  - # 7
    frequency:    3.6271689641
  - # 8
    frequency:    5.0530771610
  - # 9
    frequency:    6.2070805848
  - # 10
    frequency:    6.2838846372
  - # 11
    frequency:    7.3540418471
  - # 12
    frequency:    7.3572461129
  - # 13
    frequency:    8.7908524581
  - # 14
    frequency:   12.4320273841
  - # 15
    frequency:   14.2213126779
  - # 16
    frequency:   14.2391128654
  - # 17
    frequency:   17.1453844452
  - # 18
    frequency:   17.5915218306
  - # 19
    frequency:   17.6397911357
  - # 20
    frequency:   31.7929040069
  - # 21
    frequency:   67.4431965898

- q-position: [    0.0505051,    0.0000000,    0.0000000 ]
  distance:    0.0179423
  band:
  - # 1
    frequency:    0.0790941119
  - # 2
    frequency:    0.4678955614
  - # 3
    frequency:    0.7606230380
  - # 4
    frequency:    0.8761136125
  - # 5
    frequency:    1.1919908682
  - # 6
    frequency:    3.5324365655
  - # 7
    frequency:    3.6596030713
  - # 8
    frequency:    5.0433786763
  - # 9
    frequency:    6.2057769955
  - # 10
    frequency:    6.2995307052
  - # 11
    frequency:    7.3553123066
  - # 12
    frequency:    7.3594595945
  - # 13
    frequency:    8.7950071564
  - # 14
    frequency:   12.4097244628
  - # 15
    frequency:   14.2227042249
  - # 16
    frequency:   14.2445683517
  - # 17
    frequency:   17.1390976023
  - # 18
    frequency:   17.5985631605
  - # 19
    frequency:   17.6575060708
  - # 20
    frequency:   31.7853384738
  - # 21
    frequency:   67.4402151064

- q-position: [    0.0555556,    0.0000000,    0.0000000 ]
  distance:    0.0197365
  band:
  - # 1
    frequency:    0.1393988841
  - # 2
    frequency:    0.5052495637
  - # 3
    frequency:    0.8350903774
  - # 4
    frequency:    0.9576851949
  - # 5
    frequency:    1.3090138659
  - # 6
    frequency:    3.5434827145
  - # 7
    frequency:    3.6945436486
  - # 8
    frequency:    5.0331911305
  - # 9
    frequency:    6.2043441346
  - # 10
    frequency:    6.3164298409
  - # 11
    frequency:    7.3565810247
  - # 12
    frequency:    7.3618419400
  - # 13
    frequency:    8.7995994275
  - # 14
    frequency:   12.3853019101
  - # 15
    frequency:   14.2242273623
  - # 16
    frequency:   14.2505372102
  - # 17
    frequency:   17.1321978778
  - # 18
    frequency:   17.6061674184
  - # 19
    frequency:   17.6766228119
  - # 20
    frequency:   31.7770719611
  - # 21
    frequency:   67.4369439836

- q-position: [    0.0606061,    0.0000000,    0.0000000 ]
  distance:    0.0215308
  band:
  - # 1
    frequency:    0.1943529918
  - # 2
    frequency:    0.5429995712
  - # 3
    frequency:    0.9094399860
  - # 4
    frequency:    1.0392431468
  - # 5
    frequency:    1.4256497133
  - # 6
    frequency:    3.5555167259
  - # 7
    frequency:    3.7317772011
  - # 8
    frequency:    5.0226392398
  - # 9
    frequency:    6.2027847796
  - # 10
    frequency:    6.3344986426
  - # 11
    frequency:    7.3578165829
  - # 12
    frequency:    7.3643754510
  - # 13
    frequency:    8.8046253018
  - # 14
    frequency:   12.3588236857
  - # 15
    frequency:   14.2258779351
  - # 16
    frequency:   14.2570032633
  - # 17
    frequency:   17.1247024738
  - # 18
    frequency:   17.6142851462
  - # 19
    frequency:   17.6970096190
  - # 20
    frequency:   31.7681316830
  - # 21
    frequency:   67.4333902234

- q-position: [    0.0656566,    0.0000000,    0.0000000 ]
  distance:    0.0233250
  band:
  - # 1
    frequency:    0.2491029509
  - # 2
    frequency:    0.5810340654
  - # 3
    frequency:    0.9836200920
  - # 4
    frequency:    1.1206837854
  - # 5
    frequency:    1.5418252046
  - # 6
    frequency:    3.5685227621
  - # 7
    frequency:    3.7710894145
  - # 8
    frequency:    5.0118489632
  - # 9
    frequency:    6.2011021287
  - # 10
    frequency:    6.3536568244
  - # 11
    frequency:    7.3589884298
  - # 12
    frequency:    7.3670414334
  - # 13
    frequency:    8.8100788517
  - # 14
    frequency:   12.3303580006
  - # 15
    frequency:   14.2276515306
  - # 16
    frequency:   14.2639496013
  - # 17
    frequency:   17.1166304766
  - # 18
    frequency:   17.6228640219
  - # 19
    frequency:   17.7185262785
  - # 20
    frequency:   31.7585467991
  - # 21
    frequency:   67.4295613747

- q-position: [    0.0707071,    0.0000000,    0.0000000 ]
  distance:    0.0251192
  band:
  - # 1
    frequency:    0.3049941733
  - # 2
    frequency:    0.6192617775
  - # 3
    frequency:    1.0575875791
  - # 4
    frequency:    1.2019225743
  - # 5
    frequency:    1.6574691614
  - # 6
    frequency:    3.5824842908
  - # 7
    frequency:    3.8122666439
  - # 8
    frequency:    5.0009471940
  - # 9
    frequency:    6.1992998252
  - # 10
    frequency:    6.3738279688
  - # 11
    frequency:    7.3600676221
  - # 12
    frequency:    7.3698203600
  - # 13
    frequency:    8.8159519613
  - # 14
    frequency:   12.2999769580
  - # 15
    frequency:   14.2295435092
  - # 16
    frequency:   14.2713587109
  - # 17
    frequency:   17.1080026603
  - # 18
    frequency:   17.6318493193
  - # 19
    frequency:   17.7410253102
  - # 20
    frequency:   31.7483482521
  - # 21
    frequency:   67.4254655035

- q-position: [    0.0757576,    0.0000000,    0.0000000 ]
  distance:    0.0269135
  band:
  - # 1
    frequency:    0.3624952250
  - # 2
    frequency:    0.6576077046
  - # 3
    frequency:    1.1313038088
  - # 4
    frequency:    1.2828886487
  - # 5
    frequency:    1.7725100098
  - # 6
    frequency:    3.5973842338
  - # 7
    frequency:    3.8550966559
  - # 8
    frequency:    4.9900619925
  - # 9
    frequency:    6.1973819778
  - # 10
    frequency:    6.3949399533
  - # 11
    frequency:    7.3610275158
  - # 12
    frequency:    7.3726920365
  - # 13
    frequency:    8.8222341493
  - # 14
    frequency:   12.2677562018
  - # 15
    frequency:   14.2315490360
  - # 16
    frequency:   14.2792125913
  - # 17
    frequency:   17.0988412769
  - # 18
    frequency:   17.6411843905
  - # 19
    frequency:   17.7643532151
  - # 20
    frequency:   31.7375685966
  - # 21
    frequency:   67.4211111600

- q-position: [    0.0808081,    0.0000000,    0.0000000 ]
  distance:    0.0287077
  band:
  - # 1
    frequency:    0.4217612841
  - # 2
    frequency:    0.6960096390
  - # 3
    frequency:    1.2047323232
  - # 4
    frequency:    1.3635211101
  - # 5
    frequency:    1.8868742982
  - # 6
    frequency:    3.6132051176
  - # 7
    frequency:    3.8993686135
  - # 8
    frequency:    4.9793233829
  - # 9
    frequency:    6.1953531758
  - # 10
    frequency:    6.4169251011
  - # 11
    frequency:    7.3618443923
  - # 12
    frequency:    7.3756357706
  - # 13
    frequency:    8.8289124529
  - # 14
    frequency:   12.2337745760
  - # 15
    frequency:   14.2336631132
  - # 16
    frequency:   14.2874928576
  - # 17
    frequency:   17.0891698404
  - # 18
    frequency:   17.6508111643
  - # 19
    frequency:   17.7883517433
  - # 20
    frequency:   31.7262418210
  - # 21
    frequency:   67.4165073454

- q-position: [    0.0858586,    0.0000000,    0.0000000 ]
  distance:    0.0305019
  band:
  - # 1
    frequency:    0.4828109134
  - # 2
    frequency:    0.7344153936
  - # 3
    frequency:    1.2778374953
  - # 4
    frequency:    1.4437664838
  - # 5
    frequency:    2.0004857200
  - # 6
    frequency:    3.6299292262
  - # 7
    frequency:    3.9448722823
  - # 8
    frequency:    4.9688647547
  - # 9
    frequency:    6.1932184977
  - # 10
    frequency:    6.4397201072
  - # 11
    frequency:    7.3624980061
  - # 12
    frequency:    7.3786305406
  - # 13
    frequency:    8.8359713818
  - # 14
    frequency:   12.1981137940
  - # 15
    frequency:   14.2358806103
  - # 16
    frequency:   14.2961808309
  - # 17
    frequency:   17.0790129139
  - # 18
    frequency:   17.6606706590
  - # 19
    frequency:   17.8128591667
  - # 20
    frequency:   31.7144031634
  - # 21
    frequency:   67.4116634763

- q-position: [    0.0909091,    0.0000000,    0.0000000 ]
  distance:    0.0322961
  band:
  - # 1
    frequency:    0.5455964628
  - # 2
    frequency:    0.7727806541
  - # 3
    frequency:    1.3505836909
  - # 4
    frequency:    1.5235769480
  - # 5
    frequency:    2.1132644218
  - # 6
    frequency:    3.6475387517
  - # 7
    frequency:    3.9913964140
  - # 8
    frequency:    4.9588249439
  - # 9
    frequency:    6.1909835137
  - # 10
    frequency:    6.4632657864
  - # 11
    frequency:    7.3629720454
  - # 12
    frequency:    7.3816551637
  - # 13
    frequency:    8.8433929448
  - # 14
    frequency:   12.1608581186
  - # 15
    frequency:   14.2381962960
  - # 16
    frequency:   14.3052576175
  - # 17
    frequency:   17.0683959001
  - # 18
    frequency:   17.6707035020
  - # 19
    frequency:   17.8377115441
  - # 20
    frequency:   31.7020889231
  - # 21
    frequency:   67.4065893488

- q-position: [    0.0959596,    0.0000000,    0.0000000 ]
  distance:    0.0340904
  band:
  - # 1
    frequency:    0.6100364999
  - # 2
    frequency:    0.8110673345
  - # 3
    frequency:    1.4229347261
  - # 4
    frequency:    1.6029090801
  - # 5
    frequency:    2.2251264812
  - # 6
    frequency:    3.6660159411
  - # 7
    frequency:    4.0387262234
  - # 8
    frequency:    4.9493511091
  - # 9
    frequency:    6.1886542800
  - # 10
    frequency:    6.4875066868
  - # 11
    frequency:    7.3632544995
  - # 12
    frequency:    7.3846884617
  - # 13
    frequency:    8.8511567518
  - # 14
    frequency:   12.1220940511
  - # 15
    frequency:   14.2406048673
  - # 16
    frequency:   14.3147041772
  - # 17
    frequency:   17.0573448398
  - # 18
    frequency:   17.6808504540
  - # 19
    frequency:   17.8627439672
  - # 20
    frequency:   31.6893362687
  - # 21
    frequency:   67.4012951009

- q-position: [    0.1010101,    0.0000000,    0.0000000 ]
  distance:    0.0358846
  band:
  - # 1
    frequency:    0.6760322466
  - # 2
    frequency:    0.8492423214
  - # 3
    frequency:    1.4948535058
  - # 4
    frequency:    1.6817229555
  - # 5
    frequency:    2.3359834861
  - # 6
    frequency:    3.6853432378
  - # 7
    frequency:    4.0866398295
  - # 8
    frequency:    4.9406025666
  - # 9
    frequency:    6.1862373268
  - # 10
    frequency:    6.5123906036
  - # 11
    frequency:    7.3633379333
  - # 12
    frequency:    7.3877094219
  - # 13
    frequency:    8.8592401878
  - # 14
    frequency:   12.0819100277
  - # 15
    frequency:   14.2431009785
  - # 16
    frequency:   14.3245013830
  - # 17
    frequency:   17.0458862157
  - # 18
    frequency:   17.6910529310
  - # 19
    frequency:   17.8877917810
  - # 20
    frequency:   31.6761830447
  - # 21
    frequency:   67.3957911751

- q-position: [    0.1060606,    0.0000000,    0.0000000 ]
  distance:    0.0376788
  band:
  - # 1
    frequency:    0.7434764489
  - # 2
    frequency:    0.8872765121
  - # 3
    frequency:    1.5663017823
  - # 4
    frequency:    1.7599814906
  - # 5
    frequency:    2.4457421717
  - # 6
    frequency:    3.7055034123
  - # 7
    frequency:    4.1349034807
  - # 8
    frequency:    4.9327558030
  - # 9
    frequency:    6.1837396375
  - # 10
    frequency:    6.5378680191
  - # 11
    frequency:    7.3632196719
  - # 12
    frequency:    7.3906973539
  - # 13
    frequency:    8.8676186564
  - # 14
    frequency:   12.0403961223
  - # 15
    frequency:   14.2456792683
  - # 16
    frequency:   14.3346300740
  - # 17
    frequency:   17.0340467646
  - # 18
    frequency:   17.7012535205
  - # 19
    frequency:   17.9126917707
  - # 20
    frequency:   31.6626675772
  - # 21
    frequency:   67.3900882796

- q-position: [    0.1111111,    0.0000000,    0.0000000 ]
  distance:    0.0394731
  band:
  - # 1
    frequency:    0.8122583475
  - # 2
    frequency:    0.9251440728
  - # 3
    frequency:    1.6372399971
  - # 4
    frequency:    1.8376499562
  - # 5
    frequency:    2.5543040848
  - # 6
    frequency:    3.7264796823
  - # 7
    frequency:    4.1832653529
  - # 8
    frequency:    4.9260109095
  - # 9
    frequency:    6.1811686204
  - # 10
    frequency:    6.5638914909
  - # 11
    frequency:    7.3629019014
  - # 12
    frequency:    7.3936320384
  - # 13
    frequency:    8.8762658836
  - # 14
    frequency:   11.9976437546
  - # 15
    frequency:   14.2483343859
  - # 16
    frequency:   14.3450711012
  - # 17
    frequency:   17.0218532957
  - # 18
    frequency:   17.7113964868
  - # 19
    frequency:   17.9372833081
  - # 20
    frequency:   31.6488284812
  - # 21
    frequency:   67.3841973496

- q-position: [    0.1161616,    0.0000000,    0.0000000 ]
  distance:    0.0412673
  band:
  - # 1
    frequency:    0.8822665033
  - # 2
    frequency:    0.9628218644
  - # 3
    frequency:    1.7076271886
  - # 4
    frequency:    1.9146956134
  - # 5
    frequency:    2.6615652475
  - # 6
    frequency:    3.7482558166
  - # 7
    frequency:    4.2314477458
  - # 8
    frequency:    4.9205996558
  - # 9
    frequency:    6.1785320733
  - # 10
    frequency:    6.5904150003
  - # 11
    frequency:    7.3623916972
  - # 12
    frequency:    7.3964938699
  - # 13
    frequency:    8.8851542734
  - # 14
    frequency:   11.9537454004
  - # 15
    frequency:   14.2510610149
  - # 16
    frequency:   14.3558053696
  - # 17
    frequency:   17.0093325168
  - # 18
    frequency:   17.7214282606
  - # 19
    frequency:   17.9614094530
  - # 20
    frequency:   31.6347044693
  - # 21
    frequency:   67.3781295091

- q-position: [    0.1212121,    0.0000000,    0.0000000 ]
  distance:    0.0430615
  band:
  - # 1
    frequency:    0.9533903864
  - # 2
    frequency:    1.0002889929
  - # 3
    frequency:    1.7774209531
  - # 4
    frequency:    1.9910874368
  - # 5
    frequency:    2.7674157936
  - # 6
    frequency:    3.7708162206
  - # 7
    frequency:    4.2791376984
  - # 8
    frequency:    4.9167952167
  - # 9
    frequency:    6.1758381404
  - # 10
    frequency:    6.6173932697
  - # 11
    frequency:    7.3617009944
  - # 12
    frequency:    7.3992639899
  - # 13
    frequency:    8.8942553039
  - # 14
    frequency:   11.9087943045
  - # 15
    frequency:   14.2538538959
  - # 16
    frequency:   14.3668138760
  - # 17
    frequency:   16.9965108672
  - # 18
    frequency:   17.7312979080
  - # 19
    frequency:   17.9849180026
  - # 20
    frequency:   31.6203341647
  - # 21
    frequency:   67.3718960320

- q-position: [    0.1262626,    0.0000000,    0.0000000 ]
  distance:    0.0448558
  band:
  - # 1
    frequency:    1.0255212256
  - # 2
    frequency:    1.0375264556
  - # 3
    frequency:    1.8465774536
  - # 4
    frequency:    2.0667959014
  - # 5
    frequency:    2.8717395489
  - # 6
    frequency:    3.7941459991
  - # 7
    frequency:    4.3259766178
  - # 8
    frequency:    4.9149230055
  - # 9
    frequency:    6.1730952624
  - # 10
    frequency:    6.6447810511
  - # 11
    frequency:    7.3608465149
  - # 12
    frequency:    7.4019244116
  - # 13
    frequency:    8.9035399517
  - # 14
    frequency:   11.8628841948
  - # 15
    frequency:   14.2567078471
  - # 16
    frequency:   14.3780777452
  - # 17
    frequency:   16.9834143592
  - # 18
    frequency:   17.7409575756
  - # 19
    frequency:   18.0076624864
  - # 20
    frequency:   31.6057559183
  - # 21
    frequency:   67.3655083037

- q-position: [    0.1313131,    0.0000000,    0.0000000 ]
  distance:    0.0466500
  band:
  - # 1
    frequency:    1.0745168598
  - # 2
    frequency:    1.0985524066
  - # 3
    frequency:    1.9150514745
  - # 4
    frequency:    2.1417928170
  - # 5
    frequency:    2.9744135176
  - # 6
    frequency:    3.8182309943
  - # 7
    frequency:    4.3715507915
  - # 8
    frequency:    4.9153707885
  - # 9
    frequency:    6.1703121206
  - # 10
    frequency:    6.6725323835
  - # 11
    frequency:    7.3598496714
  - # 12
    frequency:    7.4044581350
  - # 13
    frequency:    8.9129791313
  - # 14
    frequency:   11.8161089966
  - # 15
    frequency:   14.2596177831
  - # 16
    frequency:   14.3895782623
  - # 17
    frequency:   16.9700684280
  - # 18
    frequency:   17.7503629063
  - # 19
    frequency:   18.0295030990
  - # 20
    frequency:   31.5910076323
  - # 21
    frequency:   67.3589777842

- q-position: [    0.1363636,    0.0000000,    0.0000000 ]
  distance:    0.0484442
  band:
  - # 1
    frequency:    1.1112441969
  - # 2
    frequency:    1.1723795913
  - # 3
    frequency:    1.9827965205
  - # 4
    frequency:    2.2160511975
  - # 5
    frequency:    3.0753072309
  - # 6
    frequency:    3.8430577929
  - # 7
    frequency:    4.4153870999
  - # 8
    frequency:    4.9185938197
  - # 9
    frequency:    6.1674975755
  - # 10
    frequency:    6.7005998141
  - # 11
    frequency:    7.3587364681
  - # 12
    frequency:    7.4068492508
  - # 13
    frequency:    8.9225441375
  - # 14
    frequency:   11.7685625488
  - # 15
    frequency:   14.2625787318
  - # 16
    frequency:   14.4012969054
  - # 17
    frequency:   16.9564977918
  - # 18
    frequency:   17.7594734226
  - # 19
    frequency:   18.0503075684
  - # 20
    frequency:   31.5761265899
  - # 21
    frequency:   67.3523159705

- q-position: [    0.1414141,    0.0000000,    0.0000000 ]
  distance:    0.0502384
  band:
  - # 1
    frequency:    1.1476936600
  - # 2
    frequency:    1.2469006637
  - # 3
    frequency:    2.0497649603
  - # 4
    frequency:    2.2895451562
  - # 5
    frequency:    3.1742819036
  - # 6
    frequency:    3.8686137015
  - # 7
    frequency:    4.4569620201
  - # 8
    frequency:    4.9251069690
  - # 9
    frequency:    6.1646605999
  - # 10
    frequency:    6.7289335743
  - # 11
    frequency:    7.3575374218
  - # 12
    frequency:    7.4090830349
  - # 13
    frequency:    8.9322070764
  - # 14
    frequency:   11.7203383196
  - # 15
    frequency:   14.2655858491
  - # 16
    frequency:   14.4132153761
  - # 17
    frequency:   16.9427263226
  - # 18
    frequency:   17.7682528745
  - # 19
    frequency:   18.0699519559
  - # 20
    frequency:   31.5611492946
  - # 21
    frequency:   67.3455343613

- q-position: [    0.1464646,    0.0000000,    0.0000000 ]
  distance:    0.0520327
  band:
  - # 1
    frequency:    1.1838514952
  - # 2
    frequency:    1.3220155716
  - # 3
    frequency:    2.1159082159
  - # 4
    frequency:    2.3622498213
  - # 5
    frequency:    3.2711893335
  - # 6
    frequency:    3.8948866844
  - # 7
    frequency:    4.4957358003
  - # 8
    frequency:    4.9354520336
  - # 9
    frequency:    6.1618102091
  - # 10
    frequency:    6.7574806974
  - # 11
    frequency:    7.3562875266
  - # 12
    frequency:    7.4111460307
  - # 13
    frequency:    8.9419412753
  - # 14
    frequency:   11.6715291250
  - # 15
    frequency:   14.2686344327
  - # 16
    frequency:   14.4253156287
  - # 17
    frequency:   16.9287769298
  - # 18
    frequency:   17.7766695464
  - # 19
    frequency:   18.0883213822
  - # 20
    frequency:   31.5461113165
  - # 21
    frequency:   67.3386444218

- q-position: [    0.1515152,    0.0000000,    0.0000000 ]
  distance:    0.0538269
  band:
  - # 1
    frequency:    1.2197048780
  - # 2
    frequency:    1.3976261057
  - # 3
    frequency:    2.1811769994
  - # 4
    frequency:    2.4341412660
  - # 5
    frequency:    3.3658704706
  - # 6
    frequency:    3.9218652626
  - # 7
    frequency:    4.5312227845
  - # 8
    frequency:    4.9501293306
  - # 9
    frequency:    6.1589553868
  - # 10
    frequency:    6.7861840630
  - # 11
    frequency:    7.3550262904
  - # 12
    frequency:    7.4130261215
  - # 13
    frequency:    8.9517216591
  - # 14
    frequency:   11.6222268494
  - # 15
    frequency:   14.2717199326
  - # 16
    frequency:   14.4375798991
  - # 17
    frequency:   16.9146714572
  - # 18
    frequency:   17.7846965238
  - # 19
    frequency:   18.1053106778
  - # 20
    frequency:   31.5310471502
  - # 21