nqpoint: 300    
npath: 3      
segment_nqpoint:
- 100
- 100
- 100
labels:
- [ 'G', 'M' ]
- [ 'M', 'K' ]
- [ 'K', 'G' ]
reciprocal_lattice:
- [   0.30477408,   0.17596139,   0.00000000 ] # a*
- [   0.00000000,   0.35192279,   0.00000000 ] # b*
- [   0.00000000,   0.00000000,   0.04341577 ] # c*
natom: 5      
lattice:
- [     3.281118963462270,     0.000000000000000,     0.000000000000000 ] # a
- [    -1.640559481731135,     2.841532375193343,     0.000000000000000 ] # b
- [     0.000000000000000,     0.000000000000000,    23.033104315960333 ] # c
points:
- symbol: Br # 1
  coordinates: [  0.666666984744047,  0.333332985985145,  0.390741945876728 ]
  mass: 79.904000
- symbol: F # 2
  coordinates: [  0.333332985432215,  0.666666983183674,  0.609258054123272 ]
  mass: 18.998403
- symbol: N # 3
  coordinates: [  0.000000000000000,  0.000000000000000,  0.515518972247919 ]
  mass: 14.006700
- symbol: Ti # 4
  coordinates: [  0.333332985432215,  0.666666983183674,  0.470740358586625 ]
  mass: 47.867000
- symbol: Ti # 5
  coordinates: [  0.666666984744047,  0.333332985985145,  0.558255353938857 ]
  mass: 47.867000

phonon:
- q-position: [    0.0000000,    0.0000000,    0.0000000 ]
  distance:    0.0000000
  band:
  - # 1
    frequency:   -0.0000012549
  - # 2
    frequency:    0.0000002181
  - # 3
    frequency:    0.0000014006
  - # 4
    frequency:    3.4925152462
  - # 5
    frequency:    3.4925152462
  - # 6
    frequency:    5.5765114521
  - # 7
    frequency:    6.4477579325
  - # 8
    frequency:    6.4477579325
  - # 9
    frequency:    7.1773724898
  - # 10
    frequency:    7.1773724898
  - # 11
    frequency:   10.3558243683
  - # 12
    frequency:   13.2037119165
  - # 13
    frequency:   15.3547270448
  - # 14
    frequency:   16.3830141368
  - # 15
    frequency:   16.3830141368

- q-position: [    0.0050505,    0.0000000,    0.0000000 ]
  distance:    0.0017774
  band:
  - # 1
    frequency:   -0.0074376193
  - # 2
    frequency:    0.0772736227
  - # 3
    frequency:    0.1256997131
  - # 4
    frequency:    3.4929709776
  - # 5
    frequency:    3.4943324149
  - # 6
    frequency:    5.5755692117
  - # 7
    frequency:    6.4474834749
  - # 8
    frequency:    6.4486826272
  - # 9
    frequency:    7.1772361954
  - # 10
    frequency:    7.1784085685
  - # 11
    frequency:   10.3551908859
  - # 12
    frequency:   13.2024318237
  - # 13
    frequency:   15.3543687006
  - # 14
    frequency:   16.3825275121
  - # 15
    frequency:   16.3829377950

- q-position: [    0.0101010,    0.0000000,    0.0000000 ]
  distance:    0.0035548
  band:
  - # 1
    frequency:    0.0394104300
  - # 2
    frequency:    0.1544599162
  - # 3
    frequency:    0.2477824684
  - # 4
    frequency:    3.4943367741
  - # 5
    frequency:    3.4997699505
  - # 6
    frequency:    5.5727586562
  - # 7
    frequency:    6.4466619671
  - # 8
    frequency:    6.4514426634
  - # 9
    frequency:    7.1768265950
  - # 10
    frequency:    7.1815100681
  - # 11
    frequency:   10.3532923070
  - # 12
    frequency:   13.1985949787
  - # 13
    frequency:   15.3532939737
  - # 14
    frequency:   16.3810717843
  - # 15
    frequency:   16.3827093237

- q-position: [    0.0151515,    0.0000000,    0.0000000 ]
  distance:    0.0053322
  band:
  - # 1
    frequency:    0.0662350368
  - # 2
    frequency:    0.2314719827
  - # 3
    frequency:    0.3703135463
  - # 4
    frequency:    3.4966084450
  - # 5
    frequency:    3.5087863050
  - # 6
    frequency:    5.5681272563
  - # 7
    frequency:    6.4452989803
  - # 8
    frequency:    6.4559968904
  - # 9
    frequency:    7.1761415547
  - # 10
    frequency:    7.1866568370
  - # 11
    frequency:   10.3501342359
  - # 12
    frequency:   13.1922116812
  - # 13
    frequency:   15.3515037839
  - # 14
    frequency:   16.3786593457
  - # 15
    frequency:   16.3823303773

- q-position: [    0.0202020,    0.0000000,    0.0000000 ]
  distance:    0.0071096
  band:
  - # 1
    frequency:    0.0928582161
  - # 2
    frequency:    0.3082237857
  - # 3
    frequency:    0.4926208306
  - # 4
    frequency:    3.4997790119
  - # 5
    frequency:    3.5213134169
  - # 6
    frequency:    5.5617508636
  - # 7
    frequency:    6.4434037197
  - # 8
    frequency:    6.4622798794
  - # 9
    frequency:    7.1751775779
  - # 10
    frequency:    7.1938154838
  - # 11
    frequency:   10.3457260123
  - # 12
    frequency:   13.1832990936
  - # 13
    frequency:   15.3489996774
  - # 14
    frequency:   16.3753106930
  - # 15
    frequency:   16.3818036906

- q-position: [    0.0252525,    0.0000000,    0.0000000 ]
  distance:    0.0088869
  band:
  - # 1
    frequency:    0.1204703885
  - # 2
    frequency:    0.3846305746
  - # 3
    frequency:    0.6144519211
  - # 4
    frequency:    3.5038387192
  - # 5
    frequency:    3.5372584035
  - # 6
    frequency:    5.5537293135
  - # 7
    frequency:    6.4409889073
  - # 8
    frequency:    6.4702061513
  - # 9
    frequency:    7.1739298936
  - # 10
    frequency:    7.2029396717
  - # 11
    frequency:   10.3400807094
  - # 12
    frequency:   13.1718812343
  - # 13
    frequency:   15.3457838486
  - # 14
    frequency:   16.3710541928
  - # 15
    frequency:   16.3811330433

- q-position: [    0.0303030,    0.0000000,    0.0000000 ]
  distance:    0.0106643
  band:
  - # 1
    frequency:    0.1495740140
  - # 2
    frequency:    0.4606093022
  - # 3
    frequency:    0.7356350368
  - # 4
    frequency:    3.5087750489
  - # 5
    frequency:    3.5565057710
  - # 6
    frequency:    5.5441811417
  - # 7
    frequency:    6.4380706211
  - # 8
    frequency:    6.4796752209
  - # 9
    frequency:    7.1723925753
  - # 10
    frequency:    7.2139705342
  - # 11
    frequency:   10.3332151311
  - # 12
    frequency:   13.1579889646
  - # 13
    frequency:   15.3418591739
  - # 14
    frequency:   16.3659257536
  - # 15
    frequency:   16.3803232125

- q-position: [    0.0353535,    0.0000000,    0.0000000 ]
  distance:    0.0124417
  band:
  - # 1
    frequency:    0.1804588795
  - # 2
    frequency:    0.5360790337
  - # 3
    frequency:    0.8560256714
  - # 4
    frequency:    3.5145727420
  - # 5
    frequency:    3.5789200055
  - # 6
    frequency:    5.5332380330
  - # 7
    frequency:    6.4346680963
  - # 8
    frequency:    6.4905768354
  - # 9
    frequency:    7.1705586878
  - # 10
    frequency:    7.2268372113
  - # 11
    frequency:   10.3251498070
  - # 12
    frequency:   13.1416599664
  - # 13
    frequency:   15.3372292640
  - # 14
    frequency:   16.3599684056
  - # 15
    frequency:   16.3793799118

- q-position: [    0.0404040,    0.0000000,    0.0000000 ]
  distance:    0.0142191
  band:
  - # 1
    frequency:    0.2133036879
  - # 2
    frequency:    0.6109613424
  - # 3
    frequency:    0.9754934061
  - # 4
    frequency:    3.5212138256
  - # 5
    frequency:    3.6043483993
  - # 6
    frequency:    5.5210395392
  - # 7
    frequency:    6.4308034926
  - # 8
    frequency:    6.5027958787
  - # 9
    frequency:    7.1684204570
  - # 10
    frequency:    7.2414575018
  - # 11
    frequency:   10.3159089851
  - # 12
    frequency:   13.1229387083
  - # 13
    frequency:   15.3318985359
  - # 14
    frequency:   16.3532317900
  - # 15
    frequency:   16.3783097178

- q-position: [    0.0454545,    0.0000000,    0.0000000 ]
  distance:    0.0159965
  band:
  - # 1
    frequency:    0.2482122309
  - # 2
    frequency:    0.6851806926
  - # 3
    frequency:    1.0939179240
  - # 4
    frequency:    3.5286776497
  - # 5
    frequency:    3.6326239706
  - # 6
    frequency:    5.5077284493
  - # 7
    frequency:    6.4265016330
  - # 8
    frequency:    6.5162165634
  - # 9
    frequency:    7.1659694574
  - # 10
    frequency:    7.2577386241
  - # 11
    frequency:   10.3055206210
  - # 12
    frequency:   13.1018763938
  - # 13
    frequency:   15.3258723104
  - # 14
    frequency:   16.3457715611
  - # 15
    frequency:   16.3771199854

- q-position: [    0.0505051,    0.0000000,    0.0000000 ]
  distance:    0.0177739
  band:
  - # 1
    frequency:    0.2852323456
  - # 2
    frequency:    0.7586648044
  - # 3
    frequency:    1.2111877740
  - # 4
    frequency:    3.5369409327
  - # 5
    frequency:    3.6635683509
  - # 6
    frequency:    5.4934470276
  - # 7
    frequency:    6.4217897193
  - # 8
    frequency:    6.5307257142
  - # 9
    frequency:    7.1631968140
  - # 10
    frequency:    7.2755780675
  - # 11
    frequency:   10.2940163621
  - # 12
    frequency:   13.0785308902
  - # 13
    frequency:   15.3191569382
  - # 14
    frequency:   16.3376487043
  - # 15
    frequency:   16.3758187518

- q-position: [    0.0555556,    0.0000000,    0.0000000 ]
  distance:    0.0195513
  band:
  - # 1
    frequency:    0.3243688285
  - # 2
    frequency:    0.8313449987
  - # 3
    frequency:    1.3272000835
  - # 4
    frequency:    3.5459778199
  - # 5
    frequency:    3.6969945368
  - # 6
    frequency:    5.4783341820
  - # 7
    frequency:    6.4166970318
  - # 8
    frequency:    6.5462150982
  - # 9
    frequency:    7.1600934105
  - # 10
    frequency:    7.2948645165
  - # 11
    frequency:   10.2814315253
  - # 12
    frequency:   13.0529666320
  - # 13
    frequency:   15.3117599567
  - # 14
    frequency:   16.3289287769
  - # 15
    frequency:   16.3744146313

- q-position: [    0.0606061,    0.0000000,    0.0000000 ]
  distance:    0.0213287
  band:
  - # 1
    frequency:    0.3655934370
  - # 2
    frequency:    0.9031565210
  - # 3
    frequency:    1.4418606051
  - # 4
    frequency:    3.5557599542
  - # 5
    frequency:    3.7327094316
  - # 6
    frequency:    5.4625235188
  - # 7
    frequency:    6.4112546158
  - # 8
    frequency:    6.5625828750
  - # 9
    frequency:    7.1566501018
  - # 10
    frequency:    7.3154788220
  - # 11
    frequency:   10.2678050672
  - # 12
    frequency:   13.0252544967
  - # 13
    frequency:   15.3036902777
  - # 14
    frequency:   16.3196810779
  - # 15
    frequency:   16.3729167005

- q-position: [    0.0656566,    0.0000000,    0.0000000 ]
  distance:    0.0231060
  band:
  - # 1
    frequency:    0.4088529840
  - # 2
    frequency:    0.9740388388
  - # 3
    frequency:    1.5550838521
  - # 4
    frequency:    3.5662565635
  - # 5
    frequency:    3.7705161277
  - # 6
    frequency:    5.4461421725
  - # 7
    frequency:    6.4054949635
  - # 8
    frequency:    6.5797343032
  - # 9
    frequency:    7.1528579245
  - # 10
    frequency:    7.3372949968
  - # 11
    frequency:   10.2531795437
  - # 12
    frequency:   12.9954716480
  - # 13
    frequency:   15.2949584050
  - # 14
    frequency:   16.3099777583
  - # 15
    frequency:   16.3713343760

- q-position: [    0.0707071,    0.0000000,    0.0000000 ]
  distance:    0.0248834
  band:
  - # 1
    frequency:    0.4540759309
  - # 2
    frequency:    1.0439359124
  - # 3
    frequency:    1.6667932149
  - # 4
    frequency:    3.5774345659
  - # 5
    frequency:    3.8102159056
  - # 6
    frequency:    5.4293102736
  - # 7
    frequency:    6.3994516931
  - # 8
    frequency:    6.5975818706
  - # 9
    frequency:    7.1487083017
  - # 10
    frequency:    7.3601812092
  - # 11
    frequency:   10.2376010566
  - # 12
    frequency:   12.9637013446
  - # 13
    frequency:   15.2855766775
  - # 14
    frequency:   16.2998928838
  - # 15
    frequency:   16.3696772859

- q-position: [    0.0757576,    0.0000000,    0.0000000 ]
  distance:    0.0266608
  band:
  - # 1
    frequency:    0.5011777103
  - # 2
    frequency:    1.1127964348
  - # 3
    frequency:    1.7769210022
  - # 4
    frequency:    3.5892586946
  - # 5
    frequency:    3.8516099420
  - # 6
    frequency:    5.4121409139
  - # 7
    frequency:    6.3931592316
  - # 8
    frequency:    6.6160450141
  - # 9
    frequency:    7.1441932386
  - # 10
    frequency:    7.3840007554
  - # 11
    frequency:   10.2211191850
  - # 12
    frequency:   12.9300327126
  - # 13
    frequency:   15.2755595291
  - # 14
    frequency:   16.2895014650
  - # 15
    frequency:   16.3679551357

- q-position: [    0.0808081,    0.0000000,    0.0000000 ]
  distance:    0.0284382
  band:
  - # 1
    frequency:    0.5500649613
  - # 2
    frequency:    1.1805740399
  - # 3
    frequency:    1.8854083797
  - # 4
    frequency:    3.6016916448
  - # 5
    frequency:    3.8945007370
  - # 6
    frequency:    5.3947404890
  - # 7
    frequency:    6.3866525037
  - # 8
    frequency:    6.6350495742
  - # 9
    frequency:    7.1393055050
  - # 10
    frequency:    7.4086129953
  - # 11
    frequency:   10.2037868969
  - # 12
    frequency:   12.8945604788
  - # 13
    frequency:   15.2649237584
  - # 14
    frequency:   16.2788784722
  - # 15
    frequency:   16.3661775704

- q-position: [    0.0858586,    0.0000000,    0.0000000 ]
  distance:    0.0302156
  band:
  - # 1
    frequency:    0.6006388458
  - # 2
    frequency:    1.2472274753
  - # 3
    frequency:    1.9922051906
  - # 4
    frequency:    3.6146942449
  - # 5
    frequency:    3.9386932706
  - # 6
    frequency:    5.3772093156
  - # 7
    frequency:    6.3799666304
  - # 8
    frequency:    6.6545271059
  - # 9
    frequency:    7.1340388037
  - # 10
    frequency:    7.4338742427
  - # 11
    frequency:   10.1856604379
  - # 12
    frequency:   12.8573846648
  - # 13
    frequency:   15.2536887929
  - # 14
    frequency:   16.2680978558
  - # 15
    frequency:   16.3643540342

- q-position: [    0.0909091,    0.0000000,    0.0000000 ]
  distance:    0.0319930
  band:
  - # 1
    frequency:    0.6527975966
  - # 2
    frequency:    1.3127207402
  - # 3
    frequency:    2.0972696539
  - # 4
    frequency:    3.6282256529
  - # 5
    frequency:    3.9839959079
  - # 6
    frequency:    5.3596424511
  - # 7
    frequency:    6.3731366402
  - # 8
    frequency:    6.6744141356
  - # 9
    frequency:    7.1283879212
  - # 10
    frequency:    7.4596386071
  - # 11
    frequency:   10.1667991923
  - # 12
    frequency:   12.8186102423
  - # 13
    frequency:   15.2418769360
  - # 14
    frequency:   16.2572315916
  - # 15
    frequency:   16.3624936291

- q-position: [    0.0959596,    0.0000000,    0.0000000 ]
  distance:    0.0337704
  band:
  - # 1
    frequency:    0.7064384351
  - # 2
    frequency:    1.3770231846
  - # 3
    frequency:    2.2005679385
  - # 4
    frequency:    3.6422435791
  - # 5
    frequency:    4.0302210630
  - # 6
    frequency:    5.3421306655
  - # 7
    frequency:    6.3661971938
  - # 8
    frequency:    6.6946514291
  - # 9
    frequency:    7.1223488593
  - # 10
    frequency:    7.4857587902
  - # 11
    frequency:   10.1472655112
  - # 12
    frequency:   12.7783467494
  - # 13
    frequency:   15.2295135792
  - # 14
    frequency:   16.2463487746
  - # 15
    frequency:   16.3606049740

- q-position: [    0.1010101,    0.0000000,    0.0000000 ]
  distance:    0.0355478
  band:
  - # 1
    frequency:    0.7614589797
  - # 2
    frequency:    1.4401095708
  - # 3
    frequency:    2.3020736202
  - # 4
    frequency:    3.6567045364
  - # 5
    frequency:    4.0771856289
  - # 6
    frequency:    5.3247615407
  - # 7
    frequency:    6.3591823258
  - # 8
    frequency:    6.7151833111
  - # 9
    frequency:    7.1159189480
  - # 10
    frequency:    7.5120868469
  - # 11
    frequency:   10.1271245023
  - # 12
    frequency:   12.7367078688
  - # 13
    frequency:   15.2166273654
  - # 14
    frequency:   16.2355147811
  - # 15
    frequency:   16.3586960661

- q-position: [    0.1060606,    0.0000000,    0.0000000 ]
  distance:    0.0373251
  band:
  - # 1
    frequency:    0.8177582471
  - # 2
    frequency:    1.5019600969
  - # 3
    frequency:    2.4017670287
  - # 4
    frequency:    3.6715641176
  - # 5
    frequency:    4.1247111683
  - # 6
    frequency:    5.3076206915
  - # 7
    frequency:    6.3521252022
  - # 8
    frequency:    6.7359570593
  - # 9
    frequency:    7.1090969366
  - # 10
    frequency:    7.5384749239
  - # 11
    frequency:   10.1064437757
  - # 12
    frequency:   12.6938109717
  - # 13
    frequency:   15.2032502885
  - # 14
    frequency:   16.2247905215
  - # 15
    frequency:   16.3567741451

- q-position: [    0.1111111,    0.0000000,    0.0000000 ]
  distance:    0.0391025
  band:
  - # 1
    frequency:    0.8752373336
  - # 2
    frequency:    1.5625603810
  - # 3
    frequency:    2.4996344972
  - # 4
    frequency:    3.6867772989
  - # 5
    frequency:    4.1726238476
  - # 6
    frequency:    5.2907931241
  - # 7
    frequency:    6.3450578967
  - # 8
    frequency:    6.7569223824
  - # 9
    frequency:    7.1018830642
  - # 10
    frequency:    7.5647759894
  - # 11
    frequency:   10.0852931389
  - # 12
    frequency:   12.6497766267
  - # 13
    frequency:   15.1894177158
  - # 14
    frequency:   16.2142317984
  - # 15
    frequency:   16.3548455633

- q-position: [    0.1161616,    0.0000000,    0.0000000 ]
  distance:    0.0408799
  band:
  - # 1
    frequency:    0.9337998471
  - # 2
    frequency:    1.6219014098
  - # 3
    frequency:    2.5956675269
  - # 4
    frequency:    3.7022987682
  - # 5
    frequency:    4.2207540804
  - # 6
    frequency:    5.2743647684
  - # 7
    frequency:    6.3380111851
  - # 8
    frequency:    6.7780309804
  - # 9
    frequency:    7.0942791090
  - # 10
    frequency:    7.5908445739
  - # 11
    frequency:   10.0637442361
  - # 12
    frequency:   12.6047280796
  - # 13
    frequency:   15.1751683255
  - # 14
    frequency:   16.2038887865
  - # 15
    frequency:   16.3529156612

- q-position: [    0.1212121,    0.0000000,    0.0000000 ]
  distance:    0.0426573
  band:
  - # 1
    frequency:    0.9933521495
  - # 2
    frequency:    1.6799794499
  - # 3
    frequency:    2.6898618814
  - # 4
    frequency:    3.7180832759
  - # 5
    frequency:    4.2689358256
  - # 6
    frequency:    5.2584242433
  - # 7
    frequency:    6.3310143589
  - # 8
    frequency:    6.7992361815
  - # 9
    frequency:    7.0862884165
  - # 10
    frequency:    7.6165375362
  - # 11
    frequency:   10.0418701237
  - # 12
    frequency:   12.5587907046
  - # 13
    frequency:   15.1605439523
  - # 14
    frequency:   16.1938056421
  - # 15
    frequency:   16.3509886516

- q-position: [    0.1262626,    0.0000000,    0.0000000 ]
  distance:    0.0444347
  band:
  - # 1
    frequency:    1.0538034548
  - # 2
    frequency:    1.7367959272
  - # 3
    frequency:    2.7822166241
  - # 4
    frequency:    3.7340860048
  - # 5
    frequency:    4.3170054630
  - # 6
    frequency:    5.2430649379
  - # 7
    frequency:    6.3240950566
  - # 8
    frequency:    6.8204926431
  - # 9
    frequency:    7.0779159061
  - # 10
    frequency:    7.6417148726
  - # 11
    frequency:   10.0197447794
  - # 12
    frequency:   12.5120914313
  - # 13
    frequency:   15.1455893424
  - # 14
    frequency:   16.1840202471
  - # 15
    frequency:   16.3490675131

- q-position: [    0.1313131,    0.0000000,    0.0000000 ]
  distance:    0.0462121
  band:
  - # 1
    frequency:    1.1150658212
  - # 2
    frequency:    1.7923572746
  - # 3
    frequency:    2.8727331124
  - # 4
    frequency:    3.7502629543
  - # 5
    frequency:    4.3648001374
  - # 6
    frequency:    5.2283875270
  - # 7
    frequency:    6.3172791158
  - # 8
    frequency:    6.8417561053
  - # 9
    frequency:    7.0691680588
  - # 10
    frequency:    7.6662405803
  - # 11
    frequency:    9.9974425390
  - # 12
    frequency:   12.4647581520
  - # 13
    frequency:   15.1303518196
  - # 14
    frequency:   16.1745640862
  - # 15
    frequency:   16.3471538936

- q-position: [    0.1363636,    0.0000000,    0.0000000 ]
  distance:    0.0479895
  band:
  - # 1
    frequency:    1.1770540670
  - # 2
    frequency:    1.8466747519
  - # 3
    frequency:    2.9614139572
  - # 4
    frequency:    3.7665713351
  - # 5
    frequency:    4.4121554277
  - # 6
    frequency:    5.2145030730
  - # 7
    frequency:    6.3105904428
  - # 8
    frequency:    6.8629831839
  - # 9
    frequency:    7.0600528838
  - # 10
    frequency:    7.6899835862
  - # 11
    frequency:    9.9750374614
  - # 12
    frequency:   12.4169191108
  - # 13
    frequency:   15.1148808734
  - # 14
    frequency:   16.1654622516
  - # 15
    frequency:   16.3452480263

- q-position: [    0.1414141,    0.0000000,    0.0000000 ]
  distance:    0.0497669
  band:
  - # 1
    frequency:    1.2396856322
  - # 2
    frequency:    1.8997642413
  - # 3
    frequency:    3.0482619579
  - # 4
    frequency:    3.7829699674
  - # 5
    frequency:    4.4589021576
  - # 6
    frequency:    5.2015369103
  - # 7
    frequency:    6.3040509020
  - # 8
    frequency:    6.8841311899
  - # 9
    frequency:    7.0505798677
  - # 10
    frequency:    7.7128187455
  - # 11
    frequency:    9.9526026199
  - # 12
    frequency:   12.3687022807
  - # 13
    frequency:   15.0992276792
  - # 14
    frequency:   16.1567335657
  - # 15
    frequency:   16.3433486579

- q-position: [    0.1464646,    0.0000000,    0.0000000 ]
  distance:    0.0515442
  band:
  - # 1
    frequency:    1.3028804046
  - # 2
    frequency:    1.9516460219
  - # 3
    frequency:    3.1332790147
  - # 4
    frequency:    3.7994196772
  - # 5
    frequency:    4.5048621318
  - # 6
    frequency:    5.1896335433
  - # 7
    frequency:    6.2976802235
  - # 8
    frequency:    6.9051579666
  - # 9
    frequency:    7.0407599053
  - # 10
    frequency:    7.7346279101
  - # 11
    frequency:    9.9302093281
  - # 12
    frequency:   12.3202347310
  - # 13
    frequency:   15.0834445674
  - # 14
    frequency:   16.1483908056
  - # 15
    frequency:   16.3414529921

- q-position: [    0.1515152,    0.0000000,    0.0000000 ]
  distance:    0.0533216
  band:
  - # 1
    frequency:    1.3665605234
  - # 2
    frequency:    2.0023445253
  - # 3
    frequency:    3.2164650192
  - # 4
    frequency:    3.8158836834
  - # 5
    frequency:    4.5498425761
  - # 6
    frequency:    5.1789627961
  - # 7
    frequency:    6.2914959300
  - # 8
    frequency:    6.9260217324
  - # 9
    frequency:    7.0306052151
  - # 10
    frequency:    7.7553010600
  - # 11
    frequency:    9.9079263071
  - # 12
    frequency:   12.2716419899
  - # 13
    frequency:   15.0675844577
  - # 14
    frequency:   16.1404410164
  - # 15
    frequency:   16.3395566463

- q-position: [    0.1565657,    0.0000000,    0.0000000 ]
  distance:    0.0550990
  band:
  - # 1
    frequency:    1.4306501708
  - # 2
    frequency:    2.0518880772
  - # 3
    frequency:    3.2978167184
  - # 4
    frequency:    3.8323279691
  - # 5
    frequency:    4.5936291500
  - # 6
    frequency:    5.1697273668
  - # 7
    frequency:    6.2855132819
  - # 8
    frequency:    6.9466809257
  - # 9
    frequency:    7.0201292397
  - # 10
    frequency:    7.7747374849
  - # 11
    frequency:    9.8858188096
  - # 12
    frequency:   12.2230474070
  - # 13
    frequency:   15.0517002775
  - # 14
    frequency:   16.1328858930
  - # 15
    frequency:   16.3376536260

- q-position: [    0.1616162,    0.0000000,    0.0000000 ]
  distance:    0.0568764
  band:
  - # 1
    frequency:    1.4950753588
  - # 2
    frequency:    2.1003086257
  - # 3
    frequency:    3.3773265441
  - # 4
    frequency:    3.8487216296
  - # 5
    frequency:    4.6359777128
  - # 6
    frequency:    5.1621716281
  - # 7
    frequency:    6.2797452417
  - # 8
    frequency:    6.9670940443
  - # 9
    frequency:    7.0093465333
  - # 10
    frequency:    7.7928469939
  - # 11
    frequency:    9.8639477215
  - # 12
    frequency:   12.1745715182
  - # 13
    frequency:   15.0358443802
  - # 14
    frequency:   16.1257222131
  - # 15
    frequency:   16.3357363139

- q-position: [    0.1666667,    0.0000000,    0.0000000 ]
  distance:    0.0586538
  band:
  - # 1
    frequency:    1.5597637163
  - # 2
    frequency:    2.1476414597
  - # 3
    frequency:    3.4549813955
  - # 4
    frequency:    3.8650371912
  - # 5
    frequency:    4.6766058183
  - # 6
    frequency:    5.1565907251
  - # 7
    frequency:    6.2742024564
  - # 8
    frequency:    6.9872194784
  - # 9
    frequency:    6.9982726386
  - # 10
    frequency:    7.8095511269
  - # 11
    frequency:    9.8423686672
  - # 12
    frequency:   12.1263314203
  - # 13
    frequency:   15.0200679820
  - # 14
    frequency:   16.1189423054
  - # 15
    frequency:   16.3337954773

- q-position: [    0.1717172,    0.0000000,    0.0000000 ]
  distance:    0.0604312
  band:
  - # 1
    frequency:    1.6246442820
  - # 2
    frequency:    2.1939249181
  - # 3
    frequency:    3.5307613626
  - # 4
    frequency:    3.8812508930
  - # 5
    frequency:    4.7151866026
  - # 6
    frequency:    5.1533373283
  - # 7
    frequency:    6.2688932587
  - # 8
    frequency:    6.9869239548
  - # 9
    frequency:    7.0070153366
  - # 10
    frequency:    7.8247843323
  - # 11
    frequency:    9.8211311492
  - # 12
    frequency:   12.0784401571
  - # 13
    frequency:   15.0044206293
  - # 14
    frequency:   16.1125345358
  - # 15
    frequency:   16.3318202920

- q-position: [    0.1767677,    0.0000000,    0.0000000 ]
  distance:    0.0622086
  band:
  - # 1
    frequency:    1.6896473030
  - # 2
    frequency:    2.2392000902
  - # 3
    frequency:    3.6046383778
  - # 4
    frequency:    3.8973429281
  - # 5
    frequency:    4.7513507431
  - # 6
    frequency:    5.1528203901
  - # 7
    frequency:    6.2638236867
  - # 8
    frequency:    6.9753175984
  - # 9
    frequency:    7.0264392654
  - # 10
    frequency:    7.8384950706
  - # 11
    frequency:    9.8002777601
  - # 12
    frequency:   12.0310061254
  - # 13
    frequency:   14.9889497101
  - # 14
    frequency:   16.1064837989
  - # 15
    frequency:   16.3297983846

- q-position: [    0.1818182,    0.0000000,    0.0000000 ]
  distance:    0.0639860
  band:
  - # 1
    frequency:    1.7547040427
  - # 2
    frequency:    2.2835105074
  - # 3
    frequency:    3.6765747887
  - # 4
    frequency:    3.9132976375
  - # 5
    frequency:    4.7847061810
  - # 6
    frequency:    5.1554862252
  - # 7
    frequency:    6.2589975218
  - # 8
    frequency:    6.9634712600
  - # 9
    frequency:    7.0454482677
  - # 10
    frequency:    7.8506467987
  - # 11
    frequency:    9.7798435025
  - # 12
    frequency:   11.9841325029
  - # 13
    frequency:   14.9737000172
  - # 14
    frequency:   16.1007720025
  - # 15
    frequency:   16.3277158915

- q-position: [    0.1868687,    0.0000000,    0.0000000 ]
  distance:    0.0657633
  band:
  - # 1
    frequency:    1.8197465992
  - # 2
    frequency:    2.3269018251
  - # 3
    frequency:    3.7465218612
  - # 4
    frequency:    3.9291036546
  - # 5
    frequency:    4.8148874687
  - # 6
    frequency:    5.1617700543
  - # 7
    frequency:    6.2544163446
  - # 8
    frequency:    6.9514030587
  - # 9
    frequency:    7.0639985242
  - # 10
    frequency:    7.8612187915
  - # 11
    frequency:    9.7598552573
  - # 12
    frequency:   11.9379167070
  - # 13
    frequency:   14.9587133698
  - # 14
    frequency:   16.0953785372
  - # 15
    frequency:   16.3255575368

- q-position: [    0.1919192,    0.0000000,    0.0000000 ]
  distance:    0.0675407
  band:
  - # 1
    frequency:    1.8847077324
  - # 2
    frequency:    2.3694214924
  - # 3
    frequency:    3.8144182444
  - # 4
    frequency:    3.9447539969
  - # 5
    frequency:    4.8416398355
  - # 6
    frequency:    5.1720128906
  - # 7
    frequency:    6.2500796083
  - # 8
    frequency:    6.9391313976
  - # 9
    frequency:    7.0820452284
  - # 10
    frequency:    7.8702067535
  - # 11
    frequency:    9.7403314340
  - # 12
    frequency:   11.8924498887
  - # 13
    frequency:   14.9440282974
  - # 14
    frequency:   16.0902807235
  - # 15
    frequency:   16.3233067260

- q-position: [    0.1969697,    0.0000000,    0.0000000 ]
  distance:    0.0693181
  band:
  - # 1
    frequency:    1.9495207026
  - # 2
    frequency:    2.4111184077
  - # 3
    frequency:    3.8801884766
  - # 4
    frequency:    3.9602461051
  - # 5
    frequency:    4.8649206407
  - # 6
    frequency:    5.1863610269
  - # 7
    frequency:    6.2459847281
  - # 8
    frequency:    6.9266748203
  - # 9
    frequency:    7.0995424430
  - # 10
    frequency:    7.8776231825
  - # 11
    frequency:    9.7212818303
  - # 12
    frequency:   11.8478164696
  - # 13
    frequency:   14.9296797862
  - # 14
    frequency:   16.0854542332
  - # 15
    frequency:   16.3209456586

- q-position: [    0.2020202,    0.0000000,    0.0000000 ]
  distance:    0.0710955
  band:
  - # 1
    frequency:    2.0141191189
  - # 2
    frequency:    2.4520425577
  - # 3
    frequency:    3.9437416808
  - # 4
    frequency:    3.9755818291
  - # 5
    frequency:    4.8849723795
  - # 6
    frequency:    5.2046938107
  - # 7
    frequency:    6.2421271874
  - # 8
    frequency:    6.9140518743
  - # 9
    frequency:    7.1164429927
  - # 10
    frequency:    7.8834974512
  - # 11
    frequency:    9.7027077214
  - # 12
    frequency:   11.8040937294
  - # 13
    frequency:   14.9156990871
  - # 14
    frequency:   16.0808734815
  - # 15
    frequency:   16.3184554549

- q-position: [    0.2070707,    0.0000000,    0.0000000 ]
  distance:    0.0728729
  band:
  - # 1
    frequency:    2.0784367985
  - # 2
    frequency:    2.4922446343
  - # 3
    frequency:    3.9907673639
  - # 4
    frequency:    4.0049707069
  - # 5
    frequency:    4.9023197598
  - # 6
    frequency:    5.2266269353
  - # 7
    frequency:    6.2385006571
  - # 8
    frequency:    6.9012809794
  - # 9
    frequency:    7.1326984096
  - # 10
    frequency:    7.8878755845
  - # 11
    frequency:    9.6846021810
  - # 12
    frequency:   11.7613514501
  - # 13
    frequency:   14.9021135835
  - # 14
    frequency:   16.0765119892
  - # 15
    frequency:   16.3158163008

- q-position: [    0.2121212,    0.0000000,    0.0000000 ]
  distance:    0.0746503
  band:
  - # 1
    frequency:    2.1424076358