nqpoint: 300    
npath: 3      
segment_nqpoint:
- 100
- 100
- 100
labels:
- [ 'G', 'M' ]
- [ 'M', 'K' ]
- [ 'K', 'G' ]
reciprocal_lattice:
- [   0.27884468,   0.16099105,   0.00000000 ] # a*
- [   0.00000000,   0.32198210,   0.00000000 ] # b*
- [   0.00000000,   0.00000000,   0.03811030 ] # c*
natom: 7      
lattice:
- [     3.586225881839311,     0.000000000000000,     0.000000000000000 ] # a
- [    -1.793112940919656,     3.105762717385038,     0.000000000000000 ] # b
- [     0.000000000000000,     0.000000000000000,    26.239626053775648 ] # c
points:
- symbol: C # 1
  coordinates: [  0.666666984744047,  0.333332985985145,  0.388297288689351 ]
  mass: 12.010700
- symbol: Cl # 2
  coordinates: [  0.333332985432215,  0.666666983183674,  0.657007307133290 ]
  mass: 35.453000
- symbol: N # 3
  coordinates: [  0.000000000000000,  0.000000000000000,  0.537785302688255 ]
  mass: 14.006700
- symbol: N # 4
  coordinates: [  0.666666984744047,  0.333332985985145,  0.342992692866710 ]
  mass: 14.006700
- symbol: O # 5
  coordinates: [  0.666666984744047,  0.333332985985145,  0.439134875028599 ]
  mass: 15.999400
- symbol: Y # 6
  coordinates: [  0.333332985432215,  0.666666983183674,  0.489057333504535 ]
  mass: 88.905850
- symbol: Y # 7
  coordinates: [  0.666666984744047,  0.333332985985145,  0.589038920305808 ]
  mass: 88.905850

phonon:
- q-position: [    0.0000000,    0.0000000,    0.0000000 ]
  distance:    0.0000000
  band:
  - # 1
    frequency:   -1.0177582111
  - # 2
    frequency:   -1.0177582111
  - # 3
    frequency:   -0.0000066909
  - # 4
    frequency:   -0.0000001009
  - # 5
    frequency:    0.0000069575
  - # 6
    frequency:    3.3341619087
  - # 7
    frequency:    3.3341619087
  - # 8
    frequency:    4.7457026261
  - # 9
    frequency:    5.4956662495
  - # 10
    frequency:    5.4956662495
  - # 11
    frequency:    6.3843681858
  - # 12
    frequency:    6.3843681858
  - # 13
    frequency:    7.5732400565
  - # 14
    frequency:    8.7853080242
  - # 15
    frequency:   10.7061338563
  - # 16
    frequency:   12.0512816513
  - # 17
    frequency:   12.0512816513
  - # 18
    frequency:   14.2357991120
  - # 19
    frequency:   14.2357991120
  - # 20
    frequency:   32.2005471276
  - # 21
    frequency:   67.9422006332

- q-position: [    0.0050505,    0.0000000,    0.0000000 ]
  distance:    0.0016262
  band:
  - # 1
    frequency:   -1.0337392291
  - # 2
    frequency:   -1.0324965104
  - # 3
    frequency:    0.0006562724
  - # 4
    frequency:    0.1850027705
  - # 5
    frequency:    0.1947459505
  - # 6
    frequency:    3.3340210779
  - # 7
    frequency:    3.3344533466
  - # 8
    frequency:    4.7453575188
  - # 9
    frequency:    5.4955584859
  - # 10
    frequency:    5.4956876700
  - # 11
    frequency:    6.3840185376
  - # 12
    frequency:    6.3844674884
  - # 13
    frequency:    7.5726429789
  - # 14
    frequency:    8.7844177358
  - # 15
    frequency:   10.7057365749
  - # 16
    frequency:   12.0495636706
  - # 17
    frequency:   12.0511503226
  - # 18
    frequency:   14.2357820631
  - # 19
    frequency:   14.2358073096
  - # 20
    frequency:   32.2000263755
  - # 21
    frequency:   67.9419185009

- q-position: [    0.0101010,    0.0000000,    0.0000000 ]
  distance:    0.0032523
  band:
  - # 1
    frequency:   -1.0748643523
  - # 2
    frequency:   -1.0709018354
  - # 3
    frequency:    0.0026295909
  - # 4
    frequency:    0.3564453526
  - # 5
    frequency:    0.3742306767
  - # 6
    frequency:    3.3336002506
  - # 7
    frequency:    3.3353267486
  - # 8
    frequency:    4.7443241235
  - # 9
    frequency:    5.4952361653
  - # 10
    frequency:    5.4957509767
  - # 11
    frequency:    6.3829689050
  - # 12
    frequency:    6.3847643972
  - # 13
    frequency:    7.5708528855
  - # 14
    frequency:    8.7817489657
  - # 15
    frequency:   10.7045458137
  - # 16
    frequency:   12.0444105973
  - # 17
    frequency:   12.0507546222
  - # 18
    frequency:   14.2357327612
  - # 19
    frequency:   14.2358316557
  - # 20
    frequency:   32.1984654560
  - # 21
    frequency:   67.9410727795

- q-position: [    0.0151515,    0.0000000,    0.0000000 ]
  distance:    0.0048785
  band:
  - # 1
    frequency:   -1.1289006068
  - # 2
    frequency:   -1.1221726219
  - # 3
    frequency:    0.0059302799
  - # 4
    frequency:    0.5095429348
  - # 5
    frequency:    0.5336217453
  - # 6
    frequency:    3.3329044571
  - # 7
    frequency:    3.3367793190
  - # 8
    frequency:    4.7426082164
  - # 9
    frequency:    5.4947021748
  - # 10
    frequency:    5.4958531825
  - # 11
    frequency:    6.3812173211
  - # 12
    frequency:    6.3852559295
  - # 13
    frequency:    7.5678732159
  - # 14
    frequency:    8.7773080058
  - # 15
    frequency:   10.7025647787
  - # 16
    frequency:   12.0358251334
  - # 17
    frequency:   12.0500894119
  - # 18
    frequency:   14.2356566821
  - # 19
    frequency:   14.2358714139
  - # 20
    frequency:   32.1958683757
  - # 21
    frequency:   67.9396654931

- q-position: [    0.0202020,    0.0000000,    0.0000000 ]
  distance:    0.0065047
  band:
  - # 1
    frequency:   -1.1872471023
  - # 2
    frequency:   -1.1782840106
  - # 3
    frequency:    0.0105754714
  - # 4
    frequency:    0.6457908579
  - # 5
    frequency:    0.6750118652
  - # 6
    frequency:    3.3319421990
  - # 7
    frequency:    3.3388061971
  - # 8
    frequency:    4.7402194106
  - # 9
    frequency:    5.4939612455
  - # 10
    frequency:    5.4959889025
  - # 11
    frequency:    6.3787608295
  - # 12
    frequency:    6.3859371592
  - # 13
    frequency:    7.5637097754
  - # 14
    frequency:    8.7711053631
  - # 15
    frequency:   10.6997986706
  - # 16
    frequency:   12.0238120973
  - # 17
    frequency:   12.0491461451
  - # 18
    frequency:   14.2355627584
  - # 19
    frequency:   14.2359253738
  - # 20
    frequency:   32.1922417982
  - # 21
    frequency:   67.9377000072

- q-position: [    0.0252525,    0.0000000,    0.0000000 ]
  distance:    0.0081309
  band:
  - # 1
    frequency:   -1.2455137424
  - # 2
    frequency:   -1.2348901171
  - # 3
    frequency:    0.0165879702
  - # 4
    frequency:    0.7683087810
  - # 5
    frequency:    0.8019658463
  - # 6
    frequency:    3.3307256223
  - # 7
    frequency:    3.3414001612
  - # 8
    frequency:    4.7371711301
  - # 9
    frequency:    5.4930198326
  - # 10
    frequency:    5.4961497593
  - # 11
    frequency:    6.3755959624
  - # 12
    frequency:    6.3868012837
  - # 13
    frequency:    7.5583708416
  - # 14
    frequency:    8.7631557910
  - # 15
    frequency:   10.6962544699
  - # 16
    frequency:   12.0083788931
  - # 17
    frequency:   12.0479128920
  - # 18
    frequency:   14.2354630978
  - # 19
    frequency:   14.2359918748
  - # 20
    frequency:   32.1875950231
  - # 21
    frequency:   67.9351810167

- q-position: [    0.0303030,    0.0000000,    0.0000000 ]
  distance:    0.0097570
  band:
  - # 1
    frequency:   -1.3017053740
  - # 2
    frequency:   -1.2898810339
  - # 3
    frequency:    0.0239951469
  - # 4
    frequency:    0.8799315868
  - # 5
    frequency:    0.9175485612
  - # 6
    frequency:    3.3292707537
  - # 7
    frequency:    3.3445512234
  - # 8
    frequency:    4.7334805631
  - # 9
    frequency:    5.4918859506
  - # 10
    frequency:    5.4963235786
  - # 11
    frequency:    6.3717193988
  - # 12
    frequency:    6.3878397189
  - # 13
    frequency:    7.5518673119
  - # 14
    frequency:    8.7534783303
  - # 15
    frequency:   10.6919406312
  - # 16
    frequency:   11.9895361568
  - # 17
    frequency:   12.0463743745
  - # 18
    frequency:   14.2353726061
  - # 19
    frequency:   14.2360688392
  - # 20
    frequency:   32.1819399573
  - # 21
    frequency:   67.9321145292

- q-position: [    0.0353535,    0.0000000,    0.0000000 ]
  distance:    0.0113832
  band:
  - # 1
    frequency:   -1.3549748902
  - # 2
    frequency:   -1.3422687911
  - # 3
    frequency:    0.0328276099
  - # 4
    frequency:    0.9828550244
  - # 5
    frequency:    1.0240564870
  - # 6
    frequency:    3.3275977925
  - # 7
    frequency:    3.3482461268
  - # 8
    frequency:    4.7291685871
  - # 9
    frequency:    5.4905689649
  - # 10
    frequency:    5.4964934014
  - # 11
    frequency:    6.3671287944
  - # 12
    frequency:    6.3890422186
  - # 13
    frequency:    7.5442128883
  - # 14
    frequency:    8.7420963594
  - # 15
    frequency:   10.6868666860
  - # 16
    frequency:   11.9672985751
  - # 17
    frequency:   12.0445120117
  - # 18
    frequency:   14.2353085298
  - # 19
    frequency:   14.2361538148
  - # 20
    frequency:   32.1752910772
  - # 21
    frequency:   67.9285078433

- q-position: [    0.0404040,    0.0000000,    0.0000000 ]
  distance:    0.0130094
  band:
  - # 1
    frequency:   -1.4050064541
  - # 2
    frequency:   -1.3916020083
  - # 3
    frequency:    0.0431177185
  - # 4
    frequency:    1.0787159983
  - # 5
    frequency:    1.1231594556
  - # 6
    frequency:    3.3257314486
  - # 7
    frequency:    3.3524677547
  - # 8
    frequency:    4.7242596557
  - # 9
    frequency:    5.4890793451
  - # 10
    frequency:    5.4966363448
  - # 11
    frequency:    6.3618237704
  - # 12
    frequency:    6.3903970207
  - # 13
    frequency:    7.5354242954
  - # 14
    frequency:    8.7290376525
  - # 15
    frequency:   10.6810427431
  - # 16
    frequency:   11.9416858679
  - # 17
    frequency:   12.0423039747
  - # 18
    frequency:   14.2352899384
  - # 19
    frequency:   14.2362440243
  - # 20
    frequency:   32.1676653835
  - # 21
    frequency:   67.9243695234

- q-position: [    0.0454545,    0.0000000,    0.0000000 ]
  distance:    0.0146355
  band:
  - # 1
    frequency:   -1.4517293250
  - # 2
    frequency:   -1.4376829108
  - # 3
    frequency:    0.0548980009
  - # 4
    frequency:    1.1687335868
  - # 5
    frequency:    1.2160740454
  - # 6
    frequency:    3.3237013149
  - # 7
    frequency:    3.3571944685
  - # 8
    frequency:    4.7187816394
  - # 9
    frequency:    5.4874283820
  - # 10
    frequency:    5.4967223469
  - # 11
    frequency:    6.3558070489
  - # 12
    frequency:    6.3918910171
  - # 13
    frequency:    7.5255215282
  - # 14
    frequency:    8.7143344416
  - # 15
    frequency:   10.6744788807
  - # 16
    frequency:   11.9127239311
  - # 17
    frequency:   12.0397252512
  - # 18
    frequency:   14.2353371657
  - # 19
    frequency:   14.2363364223
  - # 20
    frequency:   32.1590823473
  - # 21
    frequency:   67.9197093686

- q-position: [    0.0505051,    0.0000000,    0.0000000 ]
  distance:    0.0162617
  band:
  - # 1
    frequency:   -1.4951844813
  - # 2
    frequency:   -1.4804310598
  - # 3
    frequency:    0.0681995415
  - # 4
    frequency:    1.2538257405
  - # 5
    frequency:    1.3036966980
  - # 6
    frequency:    3.3215422571
  - # 7
    frequency:    3.3623993862
  - # 8
    frequency:    4.7127656129
  - # 9
    frequency:    5.4856278768
  - # 10
    frequency:    5.4967128348
  - # 11
    frequency:    6.3490857175
  - # 12
    frequency:    6.3935099474
  - # 13
    frequency:    7.5145281239
  - # 14
    frequency:    8.6980234821
  - # 15
    frequency:   10.6671844119
  - # 16
    frequency:   11.8804461409
  - # 17
    frequency:   12.0367477197
  - # 18
    frequency:   14.2354712329
  - # 19
    frequency:   14.2364277585
  - # 20
    frequency:   32.1495638492
  - # 21
    frequency:   67.9145383784

- q-position: [    0.0555556,    0.0000000,    0.0000000 ]
  distance:    0.0178879
  band:
  - # 1
    frequency:   -1.5354611947
  - # 2
    frequency:   -1.5198165459
  - # 3
    frequency:    0.0830503940
  - # 4
    frequency:    1.3346932433
  - # 5
    frequency:    1.3866963295
  - # 6
    frequency:    3.3192948015
  - # 7
    frequency:    3.3680496213
  - # 8
    frequency:    4.7062455848
  - # 9
    frequency:    5.4836898063
  - # 10
    frequency:    5.4965593610
  - # 11
    frequency:    6.3416726050
  - # 12
    frequency:    6.3952386130
  - # 13
    frequency:    7.5024714503
  - # 14
    frequency:    8.6801461171
  - # 15
    frequency:   10.6591670030
  - # 16
    frequency:   11.8448948258
  - # 17
    frequency:   12.0333402333
  - # 18
    frequency:   14.2357132743
  - # 19
    frequency:   14.2365146456
  - # 20
    frequency:   32.1391341093
  - # 21
    frequency:   67.9088687143

- q-position: [    0.0606061,    0.0000000,    0.0000000 ]
  distance:    0.0195141
  band:
  - # 1
    frequency:   -1.5726663628
  - # 2
    frequency:   -1.5558265851
  - # 3
    frequency:    0.0994740739
  - # 4
    frequency:    1.4118779057
  - # 5
    frequency:    1.4655774557
  - # 6
    frequency:    3.3170054959
  - # 7
    frequency:    3.3741054961
  - # 8
    frequency:    4.6992581673
  - # 9
    frequency:    5.4816259732
  - # 10
    frequency:    5.4962022563
  - # 11
    frequency:    6.3335877437
  - # 12
    frequency:    6.3970611105
  - # 13
    frequency:    7.4893830032
  - # 14
    frequency:    8.6607483399
  - # 15
    frequency:   10.6504316114
  - # 16
    frequency:   11.8061229277
  - # 17
    frequency:   12.0294687120
  - # 18
    frequency:   14.2360839849
  - # 19
    frequency:   14.2365936317
  - # 20
    frequency:   32.1278196110
  - # 21
    frequency:   67.9027136566

- q-position: [    0.0656566,    0.0000000,    0.0000000 ]
  distance:    0.0211402
  band:
  - # 1
    frequency:   -1.6069096364
  - # 2
    frequency:   -1.5884485943
  - # 3
    frequency:    0.1174881711
  - # 4
    frequency:    1.4858026698
  - # 5
    frequency:    1.5407234609
  - # 6
    frequency:    3.3147272114
  - # 7
    frequency:    3.3805197485
  - # 8
    frequency:    4.6918421869
  - # 9
    frequency:    5.4794476498
  - # 10
    frequency:    5.4955693605
  - # 11
    frequency:    6.3248598855
  - # 12
    frequency:    6.3989610802
  - # 13
    frequency:    7.4752987036
  - # 14
    frequency:    8.6398808500
  - # 15
    frequency:   10.6409791964
  - # 16
    frequency:   11.7641958878
  - # 17
    frequency:   12.0250962456
  - # 18
    frequency:   14.2366031086
  - # 19
    frequency:   14.2366612748
  - # 20
    frequency:   32.1156490164
  - # 21
    frequency:   67.8960875583

- q-position: [    0.0707071,    0.0000000,    0.0000000 ]
  distance:    0.0227664
  band:
  - # 1
    frequency:   -1.6382963616
  - # 2
    frequency:   -1.6176616037
  - # 3
    frequency:    0.1371031137
  - # 4
    frequency:    1.5567993758
  - # 5
    frequency:    1.6124267415
  - # 6
    frequency:    3.3125193501
  - # 7
    frequency:    3.3872367491
  - # 8
    frequency:    4.6840382401
  - # 9
    frequency:    5.4771652247
  - # 10
    frequency:    5.4945749057
  - # 11
    frequency:    6.3155280271
  - # 12
    frequency:    6.4009219678
  - # 13
    frequency:    7.4602591809
  - # 14
    frequency:    8.6175991024
  - # 15
    frequency:   10.6308051364
  - # 16
    frequency:   11.7191938127
  - # 17
    frequency:   12.0201832042
  - # 18
    frequency:   14.2367142188
  - # 19
    frequency:   14.2372889804
  - # 20
    frequency:   32.1026530750
  - # 21
    frequency:   67.8890057951

- q-position: [    0.0757576,    0.0000000,    0.0000000 ]
  distance:    0.0243926
  band:
  - # 1
    frequency:   -1.6669244652
  - # 2
    frequency:   -1.6434319636
  - # 3
    frequency:    0.1583211040
  - # 4
    frequency:    1.6251280944
  - # 5
    frequency:    1.6809101637
  - # 6
    frequency:    3.3104479115
  - # 7
    frequency:    3.3941917475
  - # 8
    frequency:    4.6758881990
  - # 9
    frequency:    5.4747878616
  - # 10
    frequency:    5.4931186476
  - # 11
    frequency:    6.3056428807
  - # 12
    frequency:    6.4029272919
  - # 13
    frequency:    7.4443100302
  - # 14
    frequency:    8.5939633460
  - # 15
    frequency:   10.6198972575
  - # 16
    frequency:   11.6712140116
  - # 17
    frequency:   12.0146873586
  - # 18
    frequency:   14.2367492701
  - # 19
    frequency:   14.2381581350
  - # 20
    frequency:   32.0888645250
  - # 21
    frequency:   67.8814847123

- q-position: [    0.0808081,    0.0000000,    0.0000000 ]
  distance:    0.0260188
  band:
  - # 1
    frequency:   -1.6928833465
  - # 2
    frequency:   -1.6657112784
  - # 3
    frequency:    0.1811352335
  - # 4
    frequency:    1.6909905987
  - # 5
    frequency:    1.7463427397
  - # 6
    frequency:    3.3085853670
  - # 7
    frequency:    3.4013101706
  - # 8
    frequency:    4.6674346746
  - # 9
    frequency:    5.4723231830
  - # 10
    frequency:    5.4910853745
  - # 11
    frequency:    6.2952682004
  - # 12
    frequency:    6.4049609164
  - # 13
    frequency:    7.4275020244
  - # 14
    frequency:    8.5690386522
  - # 15
    frequency:   10.6082333421
  - # 16
    frequency:   11.6203740290
  - # 17
    frequency:   12.0085640097
  - # 18
    frequency:   14.2367634720
  - # 19
    frequency:   14.2392249879
  - # 20
    frequency:   32.0743179888
  - # 21
    frequency:   67.8735415683

- q-position: [    0.0858586,    0.0000000,    0.0000000 ]
  distance:    0.0276449
  band:
  - # 1
    frequency:   -1.7162537862
  - # 2
    frequency:   -1.6844354786
  - # 3
    frequency:    0.2055287761
  - # 4
    frequency:    1.7545396516
  - # 5
    frequency:    1.8088514383
  - # 6
    frequency:    3.3070102820
  - # 7
    frequency:    3.4085069949
  - # 8
    frequency:    4.6587204440
  - # 9
    frequency:    5.4697769880
  - # 10
    frequency:    5.4883449583
  - # 11
    frequency:    6.2844818448
  - # 12
    frequency:    6.4070073184
  - # 13
    frequency:    7.4098912624
  - # 14
    frequency:    8.5428949309
  - # 15
    frequency:   10.5957779320
  - # 16
    frequency:   11.5668153563
  - # 17
    frequency:   12.0017661269
  - # 18
    frequency:   14.2367541775
  - # 19
    frequency:   14.2405015946
  - # 20
    frequency:   32.0590498608
  - # 21
    frequency:   67.8651944759

- q-position: [    0.0909091,    0.0000000,    0.0000000 ]
  distance:    0.0292711
  band:
  - # 1
    frequency:   -1.7371083595
  - # 2
    frequency:   -1.6995244356
  - # 3
    frequency:    0.2314746455
  - # 4
    frequency:    1.8158851960
  - # 5
    frequency:    1.8685304214
  - # 6
    frequency:    3.3058066206
  - # 7
    frequency:    3.4156862311
  - # 8
    frequency:    4.6497878481
  - # 9
    frequency:    5.4671530159
  - # 10
    frequency:    5.4847531603
  - # 11
    frequency:    6.2733764154
  - # 12
    frequency:    6.4090518480
  - # 13
    frequency:    7.3915392304
  - # 14
    frequency:    8.5156069350
  - # 15
    frequency:   10.5824781725
  - # 16
    frequency:   11.5107080729
  - # 17
    frequency:   11.9942444952
  - # 18
    frequency:   14.2367191167
  - # 19
    frequency:   14.2419974867
  - # 20
    frequency:   32.0430981902
  - # 21
    frequency:   67.8564623404

- q-position: [    0.0959596,    0.0000000,    0.0000000 ]
  distance:    0.0308973
  band:
  - # 1
    frequency:   -1.7555120857
  - # 2
    frequency:   -1.7108817831
  - # 3
    frequency:    0.2589349920
  - # 4
    frequency:    1.8750981353
  - # 5
    frequency:    1.9254485946
  - # 6
    frequency:    3.3050626635
  - # 7
    frequency:    3.4227405638
  - # 8
    frequency:    4.6406781648
  - # 9
    frequency:    5.4644527666
  - # 10
    frequency:    5.4801534452
  - # 11
    frequency:    6.2620592770
  - # 12
    frequency:    6.4110809725
  - # 13
    frequency:    7.3725127504
  - # 14
    frequency:    8.4872542538
  - # 15
    frequency:   10.5682583529
  - # 16
    frequency:   11.4522567597
  - # 17
    frequency:   11.9859478724
  - # 18
    frequency:   14.2366564599
  - # 19
    frequency:   14.2437195838
  - # 20
    frequency:   32.0265025579
  - # 21
    frequency:   67.8473647956

- q-position: [    0.1010101,    0.0000000,    0.0000000 ]
  distance:    0.0325234
  band:
  - # 1
    frequency:   -1.7715231750
  - # 2
    frequency:   -1.7183947385
  - # 3
    frequency:    0.2878609047
  - # 4
    frequency:    1.9322121203
  - # 5
    frequency:    1.9796560928
  - # 6
    frequency:    3.3048694761
  - # 7
    frequency:    3.4295512189
  - # 8
    frequency:    4.6314309585
  - # 9
    frequency:    5.4616753881
  - # 10
    frequency:    5.4743800938
  - # 11
    frequency:    6.2506517397
  - # 12
    frequency:    6.4130824980
  - # 13
    frequency:    7.3528837895
  - # 14
    frequency:    8.4579212971
  - # 15
    frequency:   10.5530126935
  - # 16
    frequency:   11.3917081329
  - # 17
    frequency:   11.9768231555
  - # 18
    frequency:   14.2365648741
  - # 19
    frequency:   14.2456721754
  - # 20
    frequency:   32.0093039475
  - # 21
    frequency:   67.8379221385

- q-position: [    0.1060606,    0.0000000,    0.0000000 ]
  distance:    0.0341496
  band:
  - # 1
    frequency:   -1.7851938038
  - # 2
    frequency:   -1.7219337833
  - # 3
    frequency:    0.3181921731
  - # 4
    frequency:    1.9872235559
  - # 5
    frequency:    2.0311901373
  - # 6
    frequency:    3.3053188724
  - # 7
    frequency:    3.4359881575
  - # 8
    frequency:    4.6220834069
  - # 9
    frequency:    5.4588176397
  - # 10
    frequency:    5.4672629053
  - # 11
    frequency:    6.2392871805
  - # 12
    frequency:    6.4150457610
  - # 13
    frequency:    7.3327291028
  - # 14
    frequency:    8.4276972699
  - # 15
    frequency:   10.5365958230
  - # 16
    frequency:   11.3293609499
  - # 17
    frequency:   11.9668155563
  - # 18
    frequency:   14.2364435704
  - # 19
    frequency:   14.2478569664
  - # 20
    frequency:   31.9915446117
  - # 21
    frequency:   67.8281552609

- q-position: [    0.1111111,    0.0000000,    0.0000000 ]
  distance:    0.0357758
  band:
  - # 1
    frequency:   -1.7965708868
  - # 2
    frequency:   -1.7213520857
  - # 3
    frequency:    0.3498570472
  - # 4
    frequency:    2.0400898807
  - # 5
    frequency:    2.0800805595
  - # 6
    frequency:    3.3065008503
  - # 7
    frequency:    3.4419107493
  - # 8
    frequency:    4.6126696007
  - # 9
    frequency:    5.4558739391
  - # 10
    frequency:    5.4586337384
  - # 11
    frequency:    6.2281079290
  - # 12
    frequency:    6.4169617832
  - # 13
    frequency:    7.3121296847
  - # 14
    frequency:    8.3966761407
  - # 15
    frequency:   10.5188103454
  - # 16
    frequency:   11.2655787831
  - # 17
    frequency:   11.9558687879
  - # 18
    frequency:   14.2362923442
  - # 19
    frequency:   14.2502731781
  - # 20
    frequency:   31.9732679350
  - # 21
    frequency:   67.8180855812

- q-position: [    0.1161616,    0.0000000,    0.0000000 ]
  distance:    0.0374020
  band:
  - # 1
    frequency:   -1.8056968322
  - # 2
    frequency:   -1.7164845507
  - # 3
    frequency:    0.3827719223
  - # 4
    frequency:    2.0907260363
  - # 5
    frequency:    2.1263551678
  - # 6
    frequency:    3.3085005114
  - # 7
    frequency:    3.4471691434
  - # 8
    frequency:    4.6032198108
  - # 9
    frequency:    5.4483350196
  - # 10
    frequency:    5.4528365009
  - # 11
    frequency:    6.2172608468
  - # 12
    frequency:    6.4188233823
  - # 13
    frequency:    7.2911700091
  - # 14
    frequency:    8.3649566031
  - # 15
    frequency:   10.4993910551
  - # 16
    frequency:   11.2008060957
  - # 17
    frequency:   11.9439252609
  - # 18
    frequency:   14.2361116044
  - # 19
    frequency:   14.2529176959
  - # 20
    frequency:   31.9545182907
  - # 21
    frequency:   67.8077349738

- q-position: [    0.1212121,    0.0000000,    0.0000000 ]
  distance:    0.0390281
  band:
  - # 1
    frequency:   -1.8126102793
  - # 2
    frequency:   -1.7071463644
  - # 3
    frequency:    0.4168408499
  - # 4
    frequency:    2.1389989092
  - # 5
    frequency:    2.1700450195
  - # 6
    frequency:    3.3113945401
  - # 7
    frequency:    3.4516066538
  - # 8
    frequency:    4.5937597182
  - # 9
    frequency:    5.4362301526
  - # 10
    frequency:    5.4496955694
  - # 11
    frequency:    6.2068917051
  - # 12
    frequency:    6.4206252318
  - # 13
    frequency:    7.2699370474
  - # 14
    frequency:    8.3326420283
  - # 15
    frequency:   10.4779860428
  - # 16
    frequency:   11.1355873640
  - # 17
    frequency:   11.9309262907
  - # 18
    frequency:   14.2359023920
  - # 19
    frequency:   14.2557852540
  - # 20
    frequency:   31.9353408959
  - # 21
    frequency:   67.7971256981

- q-position: [    0.1262626,    0.0000000,    0.0000000 ]
  distance:    0.0406543
  band:
  - # 1
    frequency:   -1.8173468199
  - # 2
    frequency:   -1.6931308618
  - # 3
    frequency:    0.4519547480
  - # 4
    frequency:    2.1847194004
  - # 5
    frequency:    2.2111895504
  - # 6
    frequency:    3.3152473900
  - # 7
    frequency:    3.4550636009
  - # 8
    frequency:    4.5843096014
  - # 9
    frequency:    5.4222154887
  - # 10
    frequency:    5.4464397484
  - # 11
    frequency:    6.1971386945
  - # 12
    frequency:    6.4223638641
  - # 13
    frequency:    7.2485190658
  - # 14
    frequency:    8.2998404057
  - # 15
    frequency:   10.4541367604
  - # 16
    frequency:   11.0705871686
  - # 17
    frequency:   11.9168123150
  - # 18
    frequency:   14.2356663886
  - # 19
    frequency:   14.2588686500
  - # 20
    frequency:   31.9157816630
  - # 21
    frequency:   67.7862803274

- q-position: [    0.1313131,    0.0000000,    0.0000000 ]
  distance:    0.0422805
  band:
  - # 1
    frequency:   -1.8199397086
  - # 2
    frequency:   -1.6742064884
  - # 3
    frequency:    0.4879901351
  - # 4
    frequency:    2.2276316557
  - # 5
    frequency:    2.2498414061
  - # 6
    frequency:    3.3201074070
  - # 7
    frequency:    3.4573832038
  - # 8
    frequency:    4.5748834864
  - # 9
    frequency:    5.4062332133
  - # 10
    frequency:    5.4430564279
  - # 11
    frequency:    6.1881256340
  - # 12
    frequency:    6.4240376123
  - # 13
    frequency:    7.2270042201
  - # 14
    frequency:    8.2666642618
  - # 15
    frequency:   10.4272629942
  - # 16
    frequency:   11.0066052840
  - # 17
    frequency:   11.9015231231
  - # 18
    frequency:   14.2354059116
  - # 19
    frequency:   14.2621589778
  - # 20
    frequency:   31.8958870483
  - # 21
    frequency:   67.7752216764

- q-position: [    0.1363636,    0.0000000,    0.0000000 ]
  distance:    0.0439066
  band:
  - # 1
    frequency:   -1.8204205665
  - # 2
    frequency:   -1.6501125392
  - # 3
    frequency:    0.5248071473
  - # 4
    frequency:    2.2673988965
  - # 5
    frequency:    2.2860707270
  - # 6
    frequency:    3.3260031946
  - # 7
    frequency:    3.4584202863
  - # 8
    frequency:    4.5654882709
  - # 9
    frequency:    5.3882842241
  - # 10
    frequency:    5.4395323034
  - # 11
    frequency:    6.1799556259
  - # 12
    frequency:    6.4256464875
  - # 13
    frequency:    7.2054789879
  - # 14
    frequency:    8.2332305437
  - # 15
    frequency:   10.3966653176
  - # 16
    frequency:   10.9445741805
  - # 17
    frequency:   11.8849980958
  - # 18
    frequency:   14.2351238993
  - # 19
    frequency:   14.2656458751
  - # 20
    frequency:   31.8757038989
  - # 21
    frequency:   67.7639727301

- q-position: [    0.1414141,    0.0000000,    0.0000000 ]
  distance:    0.0455328
  band:
  - # 1
    frequency:   -1.8188200821
  - # 2
    frequency:   -1.6205532202
  - # 3
    frequency:    0.5622464864
  - # 4
    frequency:    2.3035852896
  - # 5
    frequency:    2.3199685759
  - # 6
    frequency:    3.3329405744
  - # 7
    frequency:    3.4580536847
  - # 8
    frequency:    4.5561228577
  - # 9
    frequency:    5.3684398879
  - # 10
    frequency:    5.4358539808
  - # 11
    frequency:    6.1727059417
  - # 12
    frequency:    6.4271919906
  - # 13
    frequency:    7.1840264989
  - # 14
    frequency:    8.1996604463
  - # 15
    frequency:   10.3615652194
  - # 16
    frequency:   10.8855187199
  - # 17
    frequency:   11.8671764573
  - # 18
    frequency:   14.2348238834
  - # 19
    frequency:   14.2693177746
  - # 20
    frequency:   31.8552792992
  - # 21
    frequency:   67.7525565719

- q-position: [    0.1464646,    0.0000000,    0.0000000 ]
  distance:    0.0471590
  band:
  - # 1
    frequency:   -1.8151687102
  - # 2
    frequency:   -1.5851893785
  - # 3
    frequency:    0.6001247746
  - # 4
    frequency:    2.3356335069
  - # 5
    frequency:    2.3516491840
  - # 6
    frequency:    3.3409005017
  - # 7
    frequency:    3.4562032353
  - # 8
    frequency:    4.5467773556
  - # 9
    frequency:    5.3468515118
  - # 10
    frequency:    5.4320086554
  - # 11
    frequency:    6.1664247952
  - # 12
    frequency:    6.4286768591
  - # 13
    frequency:    7.1627248493
  - # 14
    frequency:    8.1660791533
  - # 15
    frequency:   10.3212036756
  - # 16
    frequency:   10.8304572569
  - # 17
    frequency:   11.8479975376
  - # 18
    frequency:   14.2345099505
  - # 19
    frequency:   14.2731621554
  - # 20
    frequency:   31.8346604148
  - # 21
    frequency:   67.7409963127

- q-position: [    0.1515152,    0.0000000,    0.0000000 ]
  distance:    0.0487852
  band:
  - # 1
    frequency:   -1.8094973697
  - # 2
    frequency:   -1.5436269252
  - # 3
    frequency:    0.6382275161
  - # 4
    frequency:    2.3628382801
  - # 5
    frequency:    2.3812507397
  - # 6
    frequency:    3.3498382396
  - # 7
    frequency:    3.4528518470
  - # 8
    frequency:    4.5374324440
  - # 9
    frequency:    5.3237564326
  - # 10
    frequency:    5.4279848508
  - # 11
    frequency:    6.1611303632
  - # 12
    frequency:    6.4301047538
  - # 13
    frequency:    7.1416455066
  - # 14
    frequency:    8.1326154540
  - # 15
    frequency:   10.2749978524
  - # 16
    frequency:   10.7802444378
  - # 17
    frequency:   11.8274010462
  - # 18
    frequency:   14.2341866930
  - # 19
    frequency:   14.2771657892
  - # 20
    frequency:   31.8138943382
  - # 21
    frequency:   67.7293150209
