nqpoint: 300    
npath: 3      
segment_nqpoint:
- 100
- 100
- 100
labels:
- [ 'G', 'M' ]
- [ 'M', 'K' ]
- [ 'K', 'G' ]
reciprocal_lattice:
- [   0.29555970,   0.17064148,   0.00000000 ] # a*
- [   0.00000000,   0.34128295,   0.00000000 ] # b*
- [   0.00000000,   0.00000000,   0.04295552 ] # c*
natom: 5      
lattice:
- [     3.383411148545061,     0.000000000000000,     0.000000000000000 ] # a
- [    -1.691705574272530,     2.930120006083115,     0.000000000000000 ] # b
- [     0.000000000000000,     0.000000000000000,    23.279893620462239 ] # c
points:
- symbol: C # 1
  coordinates: [  0.000000000000000,  0.000000000000000,  0.483308580383378 ]
  mass: 12.010700
- symbol: Cl # 2
  coordinates: [  0.333332985432214,  0.666666983183674,  0.613400295262118 ]
  mass: 35.453000
- symbol: H # 3
  coordinates: [  0.666666984744047,  0.333332985985145,  0.386599704737882 ]
  mass: 1.007940
- symbol: Zr # 4
  coordinates: [  0.333332985432214,  0.666666983183674,  0.429338618208927 ]
  mass: 91.224000
- symbol: Zr # 5
  coordinates: [  0.666666984744047,  0.333332985985145,  0.535446545014360 ]
  mass: 91.224000

phonon:
- q-position: [    0.0000000,    0.0000000,    0.0000000 ]
  distance:    0.0000000
  band:
  - # 1
    frequency:   -0.0000018663
  - # 2
    frequency:    0.0000004977
  - # 3
    frequency:    0.0000018339
  - # 4
    frequency:    4.2554993399
  - # 5
    frequency:    4.2554993399
  - # 6
    frequency:    5.8074169983
  - # 7
    frequency:    5.8074169983
  - # 8
    frequency:    6.4138884673
  - # 9
    frequency:    9.4888207237
  - # 10
    frequency:   15.9041166746
  - # 11
    frequency:   16.3288079244
  - # 12
    frequency:   16.3288079244
  - # 13
    frequency:   26.4445485429
  - # 14
    frequency:   27.7438393637
  - # 15
    frequency:   27.7438393637

- q-position: [    0.0050505,    0.0000000,    0.0000000 ]
  distance:    0.0017237
  band:
  - # 1
    frequency:   -0.2890082757
  - # 2
    frequency:    0.0818865714
  - # 3
    frequency:    0.3131246256
  - # 4
    frequency:    4.2559291099
  - # 5
    frequency:    4.2569251143
  - # 6
    frequency:    5.8075488115
  - # 7
    frequency:    5.8075730452
  - # 8
    frequency:    6.4143170690
  - # 9
    frequency:    9.4883130135
  - # 10
    frequency:   15.9037758916
  - # 11
    frequency:   16.3307392233
  - # 12
    frequency:   16.3309021331
  - # 13
    frequency:   26.4444964464
  - # 14
    frequency:   27.7440858664
  - # 15
    frequency:   27.7447604678

- q-position: [    0.0101010,    0.0000000,    0.0000000 ]
  distance:    0.0034473
  band:
  - # 1
    frequency:   -0.3926115301
  - # 2
    frequency:    0.1637064878
  - # 3
    frequency:    0.4606996804
  - # 4
    frequency:    4.2572169164
  - # 5
    frequency:    4.2611933344
  - # 6
    frequency:    5.8079368922
  - # 7
    frequency:    5.8080405668
  - # 8
    frequency:    6.4156082241
  - # 9
    frequency:    9.4867904405
  - # 10
    frequency:   15.9027546247
  - # 11
    frequency:   16.3365152454
  - # 12
    frequency:   16.3371651045
  - # 13
    frequency:   26.4443382411
  - # 14
    frequency:   27.7448239793
  - # 15
    frequency:   27.7475197070

- q-position: [    0.0151515,    0.0000000,    0.0000000 ]
  distance:    0.0051710
  band:
  - # 1
    frequency:   -0.4619227449
  - # 2
    frequency:    0.2453933100
  - # 3
    frequency:    0.5866472161
  - # 4
    frequency:    4.2593582602
  - # 5
    frequency:    4.2682769088
  - # 6
    frequency:    5.8085595126
  - # 7
    frequency:    5.8088177117
  - # 8
    frequency:    6.4177776417
  - # 9
    frequency:    9.4842546683
  - # 10
    frequency:   15.9010560962
  - # 11
    frequency:   16.3460825757
  - # 12
    frequency:   16.3475381370
  - # 13
    frequency:   26.4440682035
  - # 14
    frequency:   27.7460495249
  - # 15
    frequency:   27.7521048885

- q-position: [    0.0202020,    0.0000000,    0.0000000 ]
  distance:    0.0068946
  band:
  - # 1
    frequency:   -0.5124136715
  - # 2
    frequency:    0.3268810319
  - # 3
    frequency:    0.7037085217
  - # 4
    frequency:    4.2623456784
  - # 5
    frequency:    4.2781313986
  - # 6
    frequency:    5.8093816138
  - # 7
    frequency:    5.8099014141
  - # 8
    frequency:    6.4208503780
  - # 9
    frequency:    9.4807084384
  - # 10
    frequency:   15.8986856019
  - # 11
    frequency:   16.3593528797
  - # 12
    frequency:   16.3619242616
  - # 13
    frequency:   26.4436768739
  - # 14
    frequency:   27.7477555704
  - # 15
    frequency:   27.7584957819

- q-position: [    0.0252525,    0.0000000,    0.0000000 ]
  distance:    0.0086183
  band:
  - # 1
    frequency:   -0.5503388670
  - # 2
    frequency:    0.4081043004
  - # 3
    frequency:    0.8164746037
  - # 4
    frequency:    4.2661687974
  - # 5
    frequency:    4.2906960467
  - # 6
    frequency:    5.8103564956
  - # 7
    frequency:    5.8112874241
  - # 8
    frequency:    6.4248591913
  - # 9
    frequency:    9.4761555258
  - # 10
    frequency:   15.8956504093
  - # 11
    frequency:   16.3762039261
  - # 12
    frequency:   16.3801895123
  - # 13
    frequency:   26.4431511742
  - # 14
    frequency:   27.7499324707
  - # 15
    frequency:   27.7666642532

- q-position: [    0.0303030,    0.0000000,    0.0000000 ]
  distance:    0.0103419
  band:
  - # 1
    frequency:   -0.5789582698
  - # 2
    frequency:    0.4889986394
  - # 3
    frequency:    0.9270587556
  - # 4
    frequency:    4.2708144068
  - # 5
    frequency:    4.3058951394
  - # 6
    frequency:    5.8114280947
  - # 7
    frequency:    5.8129703480
  - # 8
    frequency:    6.4298423268
  - # 9
    frequency:    9.4706006797
  - # 10
    frequency:   15.8919596307
  - # 11
    frequency:   16.3964809918
  - # 12
    frequency:   16.4021646528
  - # 13
    frequency:   26.4424745709
  - # 14
    frequency:   27.7525679281
  - # 15
    frequency:   27.7765744507

- q-position: [    0.0353535,    0.0000000,    0.0000000 ]
  distance:    0.0120656
  band:
  - # 1
    frequency:   -0.6001558921
  - # 2
    frequency:    0.5695006772
  - # 3
    frequency:    1.0365291652
  - # 4
    frequency:    4.2762665505
  - # 5
    frequency:    4.3236396319
  - # 6
    frequency:    5.8125337554
  - # 7
    frequency:    5.8149437006
  - # 8
    frequency:    6.4358408326
  - # 9
    frequency:    9.4640495532
  - # 10
    frequency:   15.8876240812
  - # 11
    frequency:   16.4199986242
  - # 12
    frequency:   16.4276473137
  - # 13
    frequency:   26.4416272815
  - # 14
    frequency:   27.7556470675
  - # 15
    frequency:   27.7881830408

- q-position: [    0.0404040,    0.0000000,    0.0000000 ]
  distance:    0.0137892
  band:
  - # 1
    frequency:   -0.6150462606
  - # 2
    frequency:    0.6495483795
  - # 3
    frequency:    1.1454338453
  - # 4
    frequency:    4.2825066371
  - # 5
    frequency:    4.3438289587
  - # 6
    frequency:    5.8136073562
  - # 7
    frequency:    5.8171999660
  - # 8
    frequency:    6.4428955428
  - # 9
    frequency:    9.4565086254
  - # 10
    frequency:   15.8826561245
  - # 11
    frequency:   16.4465427293
  - # 12
    frequency:   16.4564044952
  - # 13
    frequency:   26.4405865209
  - # 14
    frequency:   27.7591525255
  - # 15
    frequency:   27.8014394885

- q-position: [    0.0454545,    0.0000000,    0.0000000 ]
  distance:    0.0155129
  band:
  - # 1
    frequency:   -0.6242523954
  - # 2
    frequency:    0.7290812852
  - # 3
    frequency:    1.2540368795
  - # 4
    frequency:    4.2895135652
  - # 5
    frequency:    4.3663529497
  - # 6
    frequency:    5.8145826250
  - # 7
    frequency:    5.8197306683
  - # 8
    frequency:    6.4510438999
  - # 9
    frequency:    9.4479851195
  - # 10
    frequency:   15.8770695118
  - # 11
    frequency:   16.4758729501
  - # 12
    frequency:   16.4881753832
  - # 13
    frequency:   26.4393267862
  - # 14
    frequency:   27.7630645522
  - # 15
    frequency:   27.8162863827

- q-position: [    0.0505051,    0.0000000,    0.0000000 ]
  distance:    0.0172365
  band:
  - # 1
    frequency:   -0.6280489146
  - # 2
    frequency:    0.8080407456
  - # 3
    frequency:    1.3624393190
  - # 4
    frequency:    4.2972638635
  - # 5
    frequency:    4.3910937751
  - # 6
    frequency:    5.8153964421
  - # 7
    frequency:    5.8225264497
  - # 8
    frequency:    6.4603168170
  - # 9
    frequency:    9.4384869209
  - # 10
    frequency:   15.8708792124
  - # 11
    frequency:   16.5077252970
  - # 12
    frequency:   16.5226744282
  - # 13
    frequency:   26.4378201751
  - # 14
    frequency:   27.7673611242
  - # 15
    frequency:   27.8326597998

- q-position: [    0.0555556,    0.0000000,    0.0000000 ]
  distance:    0.0189602
  band:
  - # 1
    frequency:   -0.6264376571
  - # 2
    frequency:    0.8863701643
  - # 3
    frequency:    1.4706463069
  - # 4
    frequency:    4.3057318431
  - # 5
    frequency:    4.4179278498
  - # 6
    frequency:    5.8159919261
  - # 7
    frequency:    5.8255771555
  - # 8
    frequency:    6.4707357912
  - # 9
    frequency:    9.4280224989
  - # 10
    frequency:   15.8641012379
  - # 11
    frequency:   16.5418149861
  - # 12
    frequency:   16.5595946324
  - # 13
    frequency:   26.4360367347
  - # 14
    frequency:   27.7720180666
  - # 15
    frequency:   27.8504897028

- q-position: [    0.0606061,    0.0000000,    0.0000000 ]
  distance:    0.0206838
  band:
  - # 1
    frequency:   -0.6191811618
  - # 2
    frequency:    0.9640152364
  - # 3
    frequency:    1.5786062718
  - # 4
    frequency:    4.3148897616
  - # 5
    frequency:    4.4467276427
  - # 6
    frequency:    5.8163211019
  - # 7
    frequency:    5.8288719262
  - # 8
    frequency:    6.4823104658
  - # 9
    frequency:    9.4166008348
  - # 10
    frequency:   15.8567524614
  - # 11
    frequency:   16.5778394465
  - # 12
    frequency:   16.5986109920
  - # 13
    frequency:   26.4339448368
  - # 14
    frequency:   27.7770091827
  - # 15
    frequency:   27.8697003723

- q-position: [    0.0656566,    0.0000000,    0.0000000 ]
  distance:    0.0224075
  band:
  - # 1
    frequency:   -0.6058011495
  - # 2
    frequency:    1.0409241828
  - # 3
    frequency:    1.6862344854
  - # 4
    frequency:    4.3247079959
  - # 5
    frequency:    4.4773633433
  - # 6
    frequency:    5.8163469932
  - # 7
    frequency:    5.8323992930
  - # 8
    frequency:    6.4950368056
  - # 9
    frequency:    9.4042313586
  - # 10
    frequency:   15.8488504327
  - # 11
    frequency:   16.6154814499
  - # 12
    frequency:   16.6393840407
  - # 13
    frequency:   26.4315115748
  - # 14
    frequency:   27.7823063899
  - # 15
    frequency:   27.8902108641

- q-position: [    0.0707071,    0.0000000,    0.0000000 ]
  distance:    0.0241311
  band:
  - # 1
    frequency:   -0.5855366494
  - # 2
    frequency:    1.1170479786
  - # 3
    frequency:    1.7934274220
  - # 4
    frequency:    4.3351552240
  - # 5
    frequency:    4.5097043571
  - # 6
    frequency:    5.8160450331
  - # 7
    frequency:    5.8361472793
  - # 8
    frequency:    6.5088959900
  - # 9
    frequency:    9.3909238979
  - # 10
    frequency:   15.8404131937
  - # 11
    frequency:   16.6544123234
  - # 12
    frequency:   16.6815634428
  - # 13
    frequency:   26.4287031779
  - # 14
    frequency:   27.7878798584
  - # 15
    frequency:   27.9119354898

- q-position: [    0.0757576,    0.0000000,    0.0000000 ]
  distance:    0.0258548
  band:
  - # 1
    frequency:   -0.5572395959
  - # 2
    frequency:    1.1923405700
  - # 3
    frequency:    1.9000715334
  - # 4
    frequency:    4.3461986128
  - # 5
    frequency:    4.5436206092
  - # 6
    frequency:    5.8154037617
  - # 7
    frequency:    5.8401035038
  - # 8
    frequency:    6.5238540570
  - # 9
    frequency:    9.3766886372
  - # 10
    frequency:   15.8314590965
  - # 11
    frequency:   16.6942952047
  - # 12
    frequency:   16.7247915893
  - # 13
    frequency:   26.4254854368
  - # 14
    frequency:   27.7936981532
  - # 15
    frequency:   27.9347843165

- q-position: [    0.0808081,    0.0000000,    0.0000000 ]
  distance:    0.0275784
  band:
  - # 1
    frequency:   -0.5191487341
  - # 2
    frequency:    1.2667590779
  - # 3
    frequency:    2.0060485670
  - # 4
    frequency:    4.3578040129
  - # 5
    frequency:    4.5789836496
  - # 6
    frequency:    5.8144248467
  - # 7
    frequency:    5.8442552875
  - # 8
    frequency:    6.5398622636
  - # 9
    frequency:    9.3615360913
  - # 10
    frequency:   15.8220066278
  - # 11
    frequency:   16.7347883013
  - # 12
    frequency:   16.7687071507
  - # 13
    frequency:   26.4218241372
  - # 14
    frequency:   27.7997283758
  - # 15
    frequency:   27.9586636822

- q-position: [    0.0858586,    0.0000000,    0.0000000 ]
  distance:    0.0293021
  band:
  - # 1
    frequency:   -0.4683753722
  - # 2
    frequency:    1.3402639836
  - # 3
    frequency:    2.1112387222
  - # 4
    frequency:    4.3699361575
  - # 5
    frequency:    4.6156675592
  - # 6
    frequency:    5.8131225261
  - # 7
    frequency:    5.8485897614
  - # 8
    frequency:    6.5568580625
  - # 9
    frequency:    9.3454770916
  - # 10
    frequency:   15.8120742431
  - # 11
    frequency:   16.7755481196
  - # 12
    frequency:   16.8129485506
  - # 13
    frequency:   26.4176854946
  - # 14
    frequency:   27.8059363062
  - # 15
    frequency:   27.9834767217

- q-position: [    0.0909091,    0.0000000,    0.0000000 ]
  distance:    0.0310257
  band:
  - # 1
    frequency:   -0.3995319531
  - # 2
    frequency:    1.4128192937
  - # 3
    frequency:    2.2155224491
  - # 4
    frequency:    4.3825588664
  - # 5
    frequency:    4.6535496645
  - # 6
    frequency:    5.8115226095
  - # 7
    frequency:    5.8530939747
  - # 8
    frequency:    6.5747665602
  - # 9
    frequency:    9.3285227841
  - # 10
    frequency:   15.8016802137
  - # 11
    frequency:   16.8162326327
  - # 12
    frequency:   16.8571573223
  - # 13
    frequency:   26.4130365855
  - # 14
    frequency:   27.8122865421
  - # 15
    frequency:   28.0091239024

- q-position: [    0.0959596,    0.0000000,    0.0000000 ]
  distance:    0.0327494
  band:
  - # 1
    frequency:   -0.2996874317
  - # 2
    frequency:    1.4843926815
  - # 3
    frequency:    2.3187813952
  - # 4
    frequency:    4.3956352535
  - # 5
    frequency:    4.6925110749
  - # 6
    frequency:    5.8096611952
  - # 7
    frequency:    5.8577550040
  - # 8
    frequency:    6.5935022987
  - # 9
    frequency:    9.3106846403
  - # 10
    frequency:   15.7908424898
  - # 11
    frequency:   16.8565043582
  - # 12
    frequency:   16.9009813229
  - # 13
    frequency:   26.4078457701
  - # 14
    frequency:   27.8187426365
  - # 15
    frequency:   28.0355035657

- q-position: [    0.1010101,    0.0000000,    0.0000000 ]
  distance:    0.0344730
  band:
  - # 1
    frequency:   -0.0975079952
  - # 2
    frequency:    1.5549556023
  - # 3
    frequency:    2.4208988193
  - # 4
    frequency:    4.4091279381
  - # 5
    frequency:    4.7324370540
  - # 6
    frequency:    5.8075832541
  - # 7
    frequency:    5.8625600598
  - # 8
    frequency:    6.6129712100
  - # 9
    frequency:    9.2919744796
  - # 10
    frequency:   15.7795785819
  - # 11
    frequency:   16.8960333215
  - # 12
    frequency:   16.9440777780
  - # 13
    frequency:   26.4020831002
  - # 14
    frequency:   27.8252672309
  - # 15
    frequency:   28.0625124711

- q-position: [    0.1060606,    0.0000000,    0.0000000 ]
  distance:    0.0361967
  band:
  - # 1
    frequency:    0.2858033256
  - # 2
    frequency:    1.6244833797
  - # 3
    frequency:    2.5217596775
  - # 4
    frequency:    4.4229992591
  - # 5
    frequency:    4.7732172448
  - # 6
    frequency:    5.8053412135
  - # 7
    frequency:    5.8674965916
  - # 8
    frequency:    6.6330726106
  - # 9
    frequency:    9.2724045010
  - # 10
    frequency:   15.7679054616
  - # 11
    frequency:   16.9344998841
  - # 12
    frequency:   16.9861161383
  - # 13
    frequency:   26.3957207088
  - # 14
    frequency:   27.8318221868
  - # 15
    frequency:   28.0900463421

- q-position: [    0.1111111,    0.0000000,    0.0000000 ]
  distance:    0.0379203
  band:
  - # 1
    frequency:    0.4290897434
  - # 2
    frequency:    1.6929552634
  - # 3
    frequency:    2.6212505108
  - # 4
    frequency:    4.4372114918
  - # 5
    frequency:    4.8147457630
  - # 6
    frequency:    5.8029936434
  - # 7
    frequency:    5.8725523894
  - # 8
    frequency:    6.6537011326
  - # 9
    frequency:    9.2519873253
  - # 10
    frequency:   15.7558394862
  - # 11
    frequency:   16.9715974180
  - # 12
    frequency:   17.0267807326
  - # 13
    frequency:   26.3887331742
  - # 14
    frequency:   27.8383687132
  - # 15
    frequency:   28.1180004123

- q-position: [    0.1161616,    0.0000000,    0.0000000 ]
  distance:    0.0396440
  band:
  - # 1
    frequency:    0.5459938139
  - # 2
    frequency:    1.7603544570
  - # 3
    frequency:    2.7192592171
  - # 4
    frequency:    4.4517270671
  - # 5
    frequency:    4.8569211742
  - # 6
    frequency:    5.8006041174
  - # 7
    frequency:    5.8777156799
  - # 8
    frequency:    6.6747485196
  - # 9
    frequency:    9.2307360454
  - # 10
    frequency:   15.7433963446
  - # 11
    frequency:   17.0070348112
  - # 12
    frequency:   17.0657732041
  - # 13
    frequency:   26.3810978563
  - # 14
    frequency:   27.8448674917
  - # 15
    frequency:   28.1462699676

- q-position: [    0.1212121,    0.0000000,    0.0000000 ]
  distance:    0.0413676
  band:
  - # 1
    frequency:    0.6510951564
  - # 2
    frequency:    1.8266681162
  - # 3
    frequency:    2.8156747623
  - # 4
    frequency:    4.4665087915
  - # 5
    frequency:    4.8996463696
  - # 6
    frequency:    5.7982402894
  - # 7
    frequency:    5.8829752163
  - # 8
    frequency:    6.6961052455
  - # 9
    frequency:    9.2086642853
  - # 10
    frequency:   15.7305910290
  - # 11
    frequency:   17.0405387927
  - # 12
    frequency:   17.1028147212
  - # 13
    frequency:   26.3727951989
  - # 14
    frequency:   27.8512788002
  - # 15
    frequency:   28.1747508864

- q-position: [    0.1262626,    0.0000000,    0.0000000 ]
  distance:    0.0430913
  band:
  - # 1
    frequency:    0.7495228397
  - # 2
    frequency:    1.8918873189
  - # 3
    frequency:    2.9103868680
  - # 4
    frequency:    4.4815200686
  - # 5
    frequency:    4.9428283488
  - # 6
    frequency:    5.7959732032
  - # 7
    frequency:    5.8883203606
  - # 8
    frequency:    6.7176619383
  - # 9
    frequency:    9.1857862655
  - # 10
    frequency:   15.7174378297
  - # 11
    frequency:   17.0718560658
  - # 12
    frequency:   17.1376479567
  - # 13
    frequency:   26.3638089958
  - # 14
    frequency:   27.8575626360
  - # 15
    frequency:   28.2033401730

- q-position: [    0.1313131,    0.0000000,    0.0000000 ]
  distance:    0.0448149
  band:
  - # 1
    frequency:    0.8437168244
  - # 2
    frequency:    1.9560070095
  - # 3
    frequency:    3.0032856990
  - # 4
    frequency:    4.4967251191
  - # 5
    frequency:    4.9863779205
  - # 6
    frequency:    5.7938768332
  - # 7
    frequency:    5.8937411545
  - # 8
    frequency:    6.7393106101
  - # 9
    frequency:    9.1621168773
  - # 10
    frequency:   15.7039503556
  - # 11
    frequency:   17.1007552430
  - # 12
    frequency:   17.1700388296
  - # 13
    frequency:   26.3541266161
  - # 14
    frequency:   27.8636788393
  - # 15
    frequency:   28.2319364855

- q-position: [    0.1363636,    0.0000000,    0.0000000 ]
  distance:    0.0465386
  band:
  - # 1
    frequency:    0.9350218229
  - # 2
    frequency:    2.0190259191
  - # 3
    frequency:    3.0942615755
  - # 4
    frequency:    4.5120891996
  - # 5
    frequency:    5.0302093226
  - # 6
    frequency:    5.7920278420
  - # 7
    frequency:    5.8992283802
  - # 8
    frequency:    6.7609457059
  - # 9
    frequency:    9.1376717634
  - # 10
    frequency:   15.6901415783
  - # 11
    frequency:   17.1270285745
  - # 12
    frequency:   17.1997780087
  - # 13
    frequency:   26.3437391869
  - # 14
    frequency:   27.8695872199
  - # 15
    frequency:   28.2604406540

- q-position: [    0.1414141,    0.0000000,    0.0000000 ]
  distance:    0.0482622
  band:
  - # 1
    frequency:    1.0242450807
  - # 2
    frequency:    2.0809464667
  - # 3
    frequency:    3.1832047266
  - # 4
    frequency:    4.5275788167
  - # 5
    frequency:    5.0742397610
  - # 6
    frequency:    5.7905055334
  - # 7
    frequency:    5.9047736053
  - # 8
    frequency:    6.7824649915
  - # 9
    frequency:    9.1124674065
  - # 10
    frequency:   15.6760238996
  - # 11
    frequency:   17.1504934675
  - # 12
    frequency:   17.2266821738
  - # 13
    frequency:   26.3326417314
  - # 14
    frequency:   27.8752476857
  - # 15
    frequency:   28.2887561882

- q-position: [    0.1464646,    0.0000000,    0.0000000 ]
  distance:    0.0499859
  band:
  - # 1
    frequency:    1.1118973907
  - # 2
    frequency:    2.1417746441
  - # 3
    frequency:    3.2700051080
  - # 4
    frequency:    4.5431619357
  - # 5
    frequency:    5.1183888600
  - # 6
    frequency:    5.7893919780
  - # 7
    frequency:    5.9103692133
  - # 8
    frequency:    6.8037703045
  - # 9
    frequency:    9.0865212262
  - # 10
    frequency:   15.6616092427
  - # 11
    frequency:   17.1709937912
  - # 12
    frequency:   17.2505950366
  - # 13
    frequency:   26.3208332610
  - # 14
    frequency:   27.8806203781
  - # 15
    frequency:   28.3167897728

- q-position: [    0.1515152,    0.0000000,    0.0000000 ]
  distance:    0.0517095
  band:
  - # 1
    frequency:    1.1983123917
  - # 2
    frequency:    2.2015198887
  - # 3
    frequency:    3.3545523070
  - # 4
    frequency:    4.5588081799
  - # 5
    frequency:    5.1625780079
  - # 6
    frequency:    5.7887722882
  - # 7
    frequency:    5.9160084154
  - # 8
    frequency:    6.8247681900
  - # 9
    frequency:    9.0598516843
  - # 10
    frequency:   15.6469091628
  - # 11
    frequency:   17.1884009662
  - # 12
    frequency:   17.2713881203
  - # 13
    frequency:   26.3083168204
  - # 14
    frequency:   27.8856658127
  - # 15
    frequency:   28.3444517467

- q-position: [    0.1565657,    0.0000000,    0.0000000 ]
  distance:    0.0534332
  band:
  - # 1
    frequency:    1.2837115814
  - # 2
    frequency:    2.2601949501
  - # 3
    frequency:    3.4367355647
  - # 4
    frequency:    4.5744890196
  - # 5
    frequency:    5.2067295714
  - # 6
    frequency:    5.7887350274
  - # 7
    frequency:    5.9216852435
  - # 8
    frequency:    6.8453704444
  - # 9
    frequency:    9.0324783995
  - # 10
    frequency:   15.6319349797
  - # 11
    frequency:   17.2026148350
  - # 12
    frequency:   17.2889612993
  - # 13
    frequency:   26.2950994877
  - # 14
    frequency:   27.8903450271
  - # 15
    frequency:   28.3716565638

- q-position: [    0.1616162,    0.0000000,    0.0000000 ]
  distance:    0.0551568
  band:
  - # 1
    frequency:    1.3682424022
  - # 2
    frequency:    2.3178157537
  - # 3
    frequency:    3.5164439484
  - # 4
    frequency:    4.5901779448
  - # 5
    frequency:    5.2507659369
  - # 6
    frequency:    5.7893727466
  - # 7
    frequency:    5.9273945218
  - # 8
    frequency:    6.8654945851
  - # 9
    frequency:    9.0044222716
  - # 10
    frequency:   15.6166979257
  - # 11
    frequency:   17.2135643156
  - # 12
    frequency:   17.3032431007
  - # 13
    frequency:   26.2811923286
  - # 14
    frequency:   27.8946197377
  - # 15
    frequency:   28.3983232323

- q-position: [    0.1666667,    0.0000000,    0.0000000 ]
  distance:    0.0568805
  band:
  - # 1
    frequency:    1.4520018470
  - # 2
    frequency:    2.3744012657
  - # 3
    frequency:    3.5935667161
  - # 4
    frequency:    4.6058506209
  - # 5
    frequency:    5.2946083170
  - # 6
    frequency:    5.7907826586
  - # 7
    frequency:    5.9331318172
  - # 8
    frequency:    6.8850642634
  - # 9
    frequency:    8.9757056168
  - # 10
    frequency:   15.6012093108
  - # 11
    frequency:   17.2212078338
  - # 12
    frequency:   17.3141907693
  - # 13
    frequency:   26.2666103073
  - # 14
    frequency:   27.8984525036
  - # 15
    frequency:   28.4243757293

- q-position: [    0.1717172,    0.0000000,    0.0000000 ]
  distance:    0.0586041
  band:
  - # 1
    frequency:    1.5350517730
  - # 2
    frequency:    2.4299733642
  - # 3
    frequency:    3.6679939170
  - # 4
    frequency:    4.6214850210
  - # 5
    frequency:    5.3381752346
  - # 6
    frequency:    5.7930674823
  - # 7
    frequency:    5.9388933673
  - # 8
    frequency:    6.9040096320
  - # 9
    frequency:    8.9463523120
  - # 10
    frequency:   15.5854806997
  - # 11
    frequency:   17.2255335389
  - # 12
    frequency:   17.3217900993
  - # 13
    frequency:   26.2513721573
  - # 14
    frequency:   27.9018068999
  - # 15
    frequency:   28.4497433859

- q-position: [    0.1767677,    0.0000000,    0.0000000 ]
  distance:    0.0603278
  band:
  - # 1
    frequency:    1.6174292136
  - # 2
    frequency:    2.4845567181
  - # 3
    frequency:    3.7396172759
  - # 4
    frequency:    4.6370615334
  - # 5
    frequency:    5.3813805605
  - # 6
    frequency:    5.7963365258
  - # 7
    frequency:    5.9446759870
  - # 8
    frequency:    6.9222676776
  - # 9
    frequency:    8.9163879498
  - # 10
    frequency:   15.5695240995
  - # 11
    frequency:   17.2265592994
  - # 12
    frequency:   17.3260550354
  - # 13
    frequency:   26.2355002137
  - # 14
    frequency:   27.9046476980
  - # 15
    frequency:   28.4743612407

- q-position: [    0.1818182,    0.0000000,    0.0000000 ]
  distance:    0.0620514
  band:
  - # 1
    frequency:    1.6991535435
  - # 2
    frequency:    2.5381786778
  - # 3
    frequency:    3.8083314100
  - # 4
    frequency:    4.6525630389
  - # 5
    frequency:    5.4241309420
  - # 6
    frequency:    5.8007071166
  - # 7
    frequency:    5.9504769543
  - # 8
    frequency:    6.9397825257
  - # 9
    frequency:    8.8858400022
  - # 10
    frequency:   15.5533521537
  - # 11
    frequency:   17.2243324825
  - # 12
    frequency:   17.3270270478
  - # 13
    frequency:   26.2190202116
  - # 14
    frequency:   27.9069410527
  - # 15
    frequency:   28.4981703561

- q-position: [    0.1868687,    0.0000000,    0.0000000 ]
  distance:    0.0637751
  band:
  - # 1
    frequency:    1.7802315896
  - # 2
    frequency:    2.5908691763
  - # 3
    frequency:    3.8740354166
  - # 4
    frequency:    4.6679749542
  - # 5
    frequency:    5.4663224213
  - # 6
    frequency:    5.8063065362
  - # 7
    frequency:    5.9562938766
  - # 8
    frequency:    6.9565057221
  - # 9
    frequency:    8.8547379901
  - # 10
    frequency:   15.5369783398
  - # 11
    frequency:   17.2189295176
  - # 12
    frequency:   17.3247742854
  - # 13
    frequency:   26.2019610541
  - # 14
    frequency:   27.9086546947
  - # 15
    frequency:   28.5211180956

- q-position: [    0.1919192,    0.0000000,    0.0000000 ]
  distance:    0.0654987
  band:
  - # 1
    frequency:    1.8606613589
  - # 2
    frequency:    2.6426606431
  - # 3
    frequency:    3.9366348589
  - # 4
    frequency:    4.6832852388
  - # 5
    frequency:    5.5078360414
  - # 6
    frequency:    5.8132746297
  - # 7
    frequency:    5.9621245408
  - # 8
    frequency:    6.9723964936
  - # 9
    frequency:    8.8231136575
  - # 10
    frequency:   15.5204171659
  - # 11
    frequency:   17.2104552458
  - # 12
    frequency:   17.3193905143
  - # 13
    frequency:   26.1843545540
  - # 14
    frequency:   27.9097581263
  - # 15
    frequency:   28.5431583571

- q-position: [    0.1969697,    0.0000000,    0.0000000 ]
  distance:    0.0672224
  band:
  - # 1
    frequency:    1.9404348069
  - # 2
    frequency:    2.6935879281
  - # 3
    frequency:    3.9960441509
  - # 4
    frequency:    4.6984843632
  - # 5
    frequency:    5.5485323555
  - # 6
    frequency:    5.8217671713
  - # 7
    frequency:    5.9679667512
  - # 8
    frequency:    6.9874219890
  - # 9
    frequency:    8.7910011445
  - # 10
    frequency:   15.5036843631
  - # 11
    frequency:   17.1990420578
  - # 12
    frequency:   17.3109938483
  - # 13
    frequency:   26.1662351546
  - # 14
    frequency:   27.9102228182
  - # 15
    frequency:   28.5642517597

- q-position: [    0.2020202,    0.0000000,    0.0000000 ]
  distance:    0.0689461
  band:
  - # 1
    frequency:    2.0195399268
  - # 2
    frequency:    2.7436882316
  - # 3
    frequency:    4.0521893072
  - # 4
    frequency:    4.7135652338
  - # 5
    frequency:    5.5882451782
  - # 6
    frequency:    5.8319596757
  - # 7
    frequency:    5.9738181564
  - # 8
    frequency:    7.0015574988
  - # 9
    frequency:    8.7584371541
  - # 10
    frequency:   15.4867970674
  - # 11
    frequency:   17.1848488226
  - # 12
    frequency:   17.2997252814
  - # 13
    frequency:   26.1476396324
  - # 14
    frequency:   27.9100224049
  - # 15
    frequency:   28.5843657817

- q-position: [    0.2070707,    0.0000000,    0.0000000 ]
  distance:    0.0706697
  band:
  - # 1
    frequency:    2.0979623413
  - # 2
    frequency:    2.7930010382
  - # 3
    frequency:    4.1050109809
  - # 4
    frequency:    4.7285230769
  - # 5
    frequency:    5.6267760407
  - # 6
    frequency:    5.8440502677
  - # 7
    frequency:    5.9796760738
  - # 8
    frequency:    7.0147866525
  - # 9
    frequency:    8.7254611060
  - # 10
    frequency:   15.4697739879
  - # 11
    frequency:   17.1680596100
  - # 12
    frequency:   17.2857470329
  - # 13
    frequency:   26.1286067888
  - # 14
    frequency:   27.9091328760
  - # 15
    frequency:   28.6034748458

- q-position: [    0.2121212,    0.0000000,    0.0000000 ]
  distance:    0.0723934
  band:
  - # 1
    frequency:    2.1756865273
  - # 2