nqpoint: 300    
npath: 3      
segment_nqpoint:
- 100
- 100
- 100
labels:
- [ 'G', 'M' ]
- [ 'M', 'K' ]
- [ 'K', 'G' ]
reciprocal_lattice:
- [   0.29555970,   0.17064148,   0.00000000 ] # a*
- [   0.00000000,   0.34128295,   0.00000000 ] # b*
- [   0.00000000,   0.00000000,   0.04295552 ] # c*
natom: 5      
lattice:
- [     3.383411148545061,     0.000000000000000,     0.000000000000000 ] # a
- [    -1.691705574272530,     2.930120006083115,     0.000000000000000 ] # b
- [     0.000000000000000,     0.000000000000000,    23.279893620462239 ] # c
points:
- symbol: C # 1
  coordinates: [  0.000000000000000,  0.000000000000000,  0.483308580383378 ]
  mass: 12.010700
- symbol: Cl # 2
  coordinates: [  0.333332985432214,  0.666666983183674,  0.613400295262118 ]
  mass: 35.453000
- symbol: H # 3
  coordinates: [  0.666666984744047,  0.333332985985145,  0.386599704737882 ]
  mass: 1.007940
- symbol: Zr # 4
  coordinates: [  0.333332985432214,  0.666666983183674,  0.429338618208927 ]
  mass: 91.224000
- symbol: Zr # 5
  coordinates: [  0.666666984744047,  0.333332985985145,  0.535446545014360 ]
  mass: 91.224000

phonon:
- q-position: [    0.0000000,    0.0000000,    0.0000000 ]
  distance:    0.0000000
  band:
  - # 1
    frequency:   -0.0000128324
  - # 2
    frequency:    0.0000001198
  - # 3
    frequency:    0.0000120488
  - # 4
    frequency:    4.5583893353
  - # 5
    frequency:    4.5583893353
  - # 6
    frequency:    6.0523662820
  - # 7
    frequency:    6.0523662820
  - # 8
    frequency:    6.4009327378
  - # 9
    frequency:    9.5388214048
  - # 10
    frequency:   15.8852325018
  - # 11
    frequency:   17.2597719748
  - # 12
    frequency:   17.2597719749
  - # 13
    frequency:   26.6033926406
  - # 14
    frequency:   30.8812003195
  - # 15
    frequency:   30.8812003195

- q-position: [    0.0050505,    0.0000000,    0.0000000 ]
  distance:    0.0017237
  band:
  - # 1
    frequency:    0.0015585041
  - # 2
    frequency:    0.0336885178
  - # 3
    frequency:    0.1065237810
  - # 4
    frequency:    4.5584147969
  - # 5
    frequency:    4.5594785653
  - # 6
    frequency:    6.0513077256
  - # 7
    frequency:    6.0522389948
  - # 8
    frequency:    6.4021095474
  - # 9
    frequency:    9.5381753443
  - # 10
    frequency:   15.8848157806
  - # 11
    frequency:   17.2593817508
  - # 12
    frequency:   17.2597033823
  - # 13
    frequency:   26.6026099238
  - # 14
    frequency:   30.8790653129
  - # 15
    frequency:   30.8796897944

- q-position: [    0.0101010,    0.0000000,    0.0000000 ]
  distance:    0.0034473
  band:
  - # 1
    frequency:    0.0062281738
  - # 2
    frequency:    0.0675737659
  - # 3
    frequency:    0.2130396669
  - # 4
    frequency:    4.5584916681
  - # 5
    frequency:    4.5627409328
  - # 6
    frequency:    6.0481786155
  - # 7
    frequency:    6.0518583510
  - # 8
    frequency:    6.4055935638
  - # 9
    frequency:    9.5362384889
  - # 10
    frequency:   15.8835668879
  - # 11
    frequency:   17.2582118787
  - # 12
    frequency:   17.2594969179
  - # 13
    frequency:   26.6002649648
  - # 14
    frequency:   30.8726651583
  - # 15
    frequency:   30.8751624194

- q-position: [    0.0151515,    0.0000000,    0.0000000 ]
  distance:    0.0051710
  band:
  - # 1
    frequency:    0.0139981662
  - # 2
    frequency:    0.1018496622
  - # 3
    frequency:    0.3195393452
  - # 4
    frequency:    4.5586214064
  - # 5
    frequency:    4.5681605453
  - # 6
    frequency:    6.0431103256
  - # 7
    frequency:    6.0512279963
  - # 8
    frequency:    6.4112538498
  - # 9
    frequency:    9.5330148082
  - # 10
    frequency:   15.8814896269
  - # 11
    frequency:   17.2562647610
  - # 12
    frequency:   17.2591505360
  - # 13
    frequency:   26.5963673256
  - # 14
    frequency:   30.8620144439
  - # 15
    frequency:   30.8676307833

- q-position: [    0.0202020,    0.0000000,    0.0000000 ]
  distance:    0.0068946
  band:
  - # 1
    frequency:    0.0248494597
  - # 2
    frequency:    0.1367046026
  - # 3
    frequency:    0.4260136752
  - # 4
    frequency:    4.5588064361
  - # 5
    frequency:    4.5757111620
  - # 6
    frequency:    6.0362974245
  - # 7
    frequency:    6.0503539798
  - # 8
    frequency:    6.4188965505
  - # 9
    frequency:    9.5285108908
  - # 10
    frequency:   15.8785903041
  - # 11
    frequency:   17.2535444100
  - # 12
    frequency:   17.2586608782
  - # 13
    frequency:   26.5909329068
  - # 14
    frequency:   30.8471374593
  - # 15
    frequency:   30.8571158255

- q-position: [    0.0252525,    0.0000000,    0.0000000 ]
  distance:    0.0086183
  band:
  - # 1
    frequency:    0.0387557447
  - # 2
    frequency:    0.1723189718
  - # 3
    frequency:    0.5324522793
  - # 4
    frequency:    4.5590501407
  - # 5
    frequency:    4.5853565555
  - # 6
    frequency:    6.0279704500
  - # 7
    frequency:    6.0492447130
  - # 8
    frequency:    6.4282920990
  - # 9
    frequency:    9.5227359027
  - # 10
    frequency:   15.8748776824
  - # 11
    frequency:   17.2500564611
  - # 12
    frequency:   17.2580233481
  - # 13
    frequency:   26.5839838913
  - # 14
    frequency:   30.8280681590
  - # 15
    frequency:   30.8436467741

- q-position: [    0.0303030,    0.0000000,    0.0000000 ]
  distance:    0.0103419
  band:
  - # 1
    frequency:    0.0556837291
  - # 2
    frequency:    0.2088629470
  - # 3
    frequency:    0.6388431432
  - # 4
    frequency:    4.5593568528
  - # 5
    frequency:    4.5970510002
  - # 6
    frequency:    6.0183707556
  - # 7
    frequency:    6.0479109133
  - # 8
    frequency:    6.4392003463
  - # 9
    frequency:    9.5157015301
  - # 10
    frequency:   15.8703629152
  - # 11
    frequency:   17.2458081898
  - # 12
    frequency:   17.2572322140
  - # 13
    frequency:   26.5755486676
  - # 14
    frequency:   30.8048501115
  - # 15
    frequency:   30.8272610584

- q-position: [    0.0353535,    0.0000000,    0.0000000 ]
  distance:    0.0120656
  band:
  - # 1
    frequency:    0.0755935092
  - # 2
    frequency:    0.2464946556
  - # 3
    frequency:    0.7451722265
  - # 4
    frequency:    4.5597318416
  - # 5
    frequency:    4.6107398722
  - # 6
    frequency:    6.0077319142
  - # 7
    frequency:    6.0463655299
  - # 8
    frequency:    6.4513891321
  - # 9
    frequency:    9.5074219079
  - # 10
    frequency:   15.8650594646
  - # 11
    frequency:   17.2408085348
  - # 12
    frequency:   17.2562807361
  - # 13
    frequency:   26.5656617297
  - # 14
    frequency:   30.7775364331
  - # 15
    frequency:   30.8080041972

- q-position: [    0.0404040,    0.0000000,    0.0000000 ]
  distance:    0.0137892
  band:
  - # 1
    frequency:    0.0984389931
  - # 2
    frequency:    0.2853587165
  - # 3
    frequency:    0.8514230860
  - # 4
    frequency:    4.5601812977
  - # 5
    frequency:    4.6263603418
  - # 6
    frequency:    5.9962686022
  - # 7
    frequency:    6.0446236537
  - # 8
    frequency:    6.4646453772
  - # 9
    frequency:    9.4979135333
  - # 10
    frequency:   15.8589830032
  - # 11
    frequency:   17.2350681254
  - # 12
    frequency:   17.2551613171
  - # 13
    frequency:   26.5543635542
  - # 14
    frequency:   30.7461897068
  - # 15
    frequency:   30.7859296626

- q-position: [    0.0454545,    0.0000000,    0.0000000 ]
  distance:    0.0155129
  band:
  - # 1
    frequency:    0.1241683623
  - # 2
    frequency:    0.3255851724
  - # 3
    frequency:    0.9575765129
  - # 4
    frequency:    4.5607123168
  - # 5
    frequency:    4.6438421376
  - # 6
    frequency:    5.9841716673
  - # 7
    frequency:    6.0427024103
  - # 8
    frequency:    6.4787799994
  - # 9
    frequency:    9.4871951669
  - # 10
    frequency:   15.8521513013
  - # 11
    frequency:   17.2285993140
  - # 12
    frequency:   17.2538656709
  - # 13
    frequency:   26.5417004553
  - # 14
    frequency:   30.7108818863
  - # 15
    frequency:   30.7610987185

- q-position: [    0.0505051,    0.0000000,    0.0000000 ]
  distance:    0.0172365
  band:
  - # 1
    frequency:    0.1527245554
  - # 2
    frequency:    0.3672887928
  - # 3
    frequency:    1.0636101875
  - # 4
    frequency:    4.5613328810
  - # 5
    frequency:    4.6631083615
  - # 6
    frequency:    5.9716073728
  - # 7
    frequency:    6.0406208362
  - # 8
    frequency:    6.4936286651
  - # 9
    frequency:    9.4752877217
  - # 10
    frequency:   15.8445841020
  - # 11
    frequency:   17.2214162133
  - # 12
    frequency:   17.2523850061
  - # 13
    frequency:   26.5277244167
  - # 14
    frequency:   30.6716941828
  - # 15
    frequency:   30.7335802364

- q-position: [    0.0555556,    0.0000000,    0.0000000 ]
  distance:    0.0189602
  band:
  - # 1
    frequency:    0.1840457615
  - # 2
    frequency:    0.4105687161
  - # 3
    frequency:    1.1694983497
  - # 4
    frequency:    4.5620518386
  - # 5
    frequency:    4.6840763326
  - # 6
    frequency:    5.9587190131
  - # 7
    frequency:    6.0383997380
  - # 8
    frequency:    6.5090501858
  - # 9
    frequency:    9.4622141428
  - # 10
    frequency:   15.8363029848
  - # 11
    frequency:   17.2135347373
  - # 12
    frequency:   17.2507102221
  - # 13
    frequency:   26.5124928995
  - # 14
    frequency:   30.6287169377
  - # 15
    frequency:   30.7034504861

- q-position: [    0.0606061,    0.0000000,    0.0000000 ]
  distance:    0.0206838
  band:
  - # 1
    frequency:    0.2180659091
  - # 2
    frequency:    0.4555083833
  - # 3
    frequency:    1.2752114893
  - # 4
    frequency:    4.5628788827
  - # 5
    frequency:    4.7066584420
  - # 6
    frequency:    5.9456296152
  - # 7
    frequency:    6.0360615353
  - # 8
    frequency:    6.5249238528
  - # 9
    frequency:    9.4479992771
  - # 10
    frequency:   15.8273312191
  - # 11
    frequency:   17.2049726477
  - # 12
    frequency:   17.2488321099
  - # 13
    frequency:   26.4960686277
  - # 14
    frequency:   30.5820494776
  - # 15
    frequency:   30.6707929034

- q-position: [    0.0656566,    0.0000000,    0.0000000 ]
  distance:    0.0224075
  band:
  - # 1
    frequency:    0.2547151415
  - # 2
    frequency:    0.5021757140
  - # 3
    frequency:    1.3807160546
  - # 4
    frequency:    4.5638245283
  - # 5
    frequency:    4.7307629983
  - # 6
    frequency:    5.9324449421
  - # 7
    frequency:    6.0336300873
  - # 8
    frequency:    6.5411464974
  - # 9
    frequency:    9.4326697369
  - # 10
    frequency:   15.8176936118
  - # 11
    frequency:   17.1957496028
  - # 12
    frequency:   17.2467415572
  - # 13
    frequency:   26.4785193493
  - # 14
    frequency:   30.5317999524
  - # 15
    frequency:   30.6356978348

- q-position: [    0.0707071,    0.0000000,    0.0000000 ]
  distance:    0.0241311
  band:
  - # 1
    frequency:    0.2939202689
  - # 2
    frequency:    0.5506234713
  - # 3
    frequency:    1.4859741803
  - # 4
    frequency:    4.5649000874
  - # 5
    frequency:    4.7562950487
  - # 6
    frequency:    5.9192563835
  - # 7
    frequency:    6.0311305030
  - # 8
    frequency:    6.5576296990
  - # 9
    frequency:    9.4162537573
  - # 10
    frequency:   15.8074163473
  - # 11
    frequency:   17.1858872106
  - # 12
    frequency:   17.2444297505
  - # 13
    frequency:   26.4599175741
  - # 14
    frequency:   30.4780851577
  - # 15
    frequency:   30.5982622585

- q-position: [    0.0757576,    0.0000000,    0.0000000 ]
  distance:    0.0258548
  band:
  - # 1
    frequency:    0.3356051912
  - # 2
    frequency:    0.6008897691
  - # 3
    frequency:    1.5909434349
  - # 4
    frequency:    4.5661176420
  - # 5
    frequency:    4.7831571637
  - # 6
    frequency:    5.9061435514
  - # 7
    frequency:    6.0285889366
  - # 8
    frequency:    6.5742973283
  - # 9
    frequency:    9.3987810504
  - # 10
    frequency:   15.7965268256
  - # 11
    frequency:   17.1754090845
  - # 12
    frequency:   17.2418883708
  - # 13
    frequency:   26.4403402872
  - # 14
    frequency:   30.4210303379
  - # 15
    frequency:   30.5585894846

- q-position: [    0.0808081,    0.0000000,    0.0000000 ]
  distance:    0.0275784
  band:
  - # 1
    frequency:    0.3796912882
  - # 2
    frequency:    0.6529986775
  - # 3
    frequency:    1.6955765854
  - # 4
    frequency:    4.5674900148
  - # 5
    frequency:    4.8112501714
  - # 6
    frequency:    5.8931765316
  - # 7
    frequency:    6.0260323684
  - # 8
    frequency:    6.5910834797
  - # 9
    frequency:    9.3802826576
  - # 10
    frequency:   15.7850534973
  - # 11
    frequency:   17.1643409005
  - # 12
    frequency:   17.2391097800
  - # 13
    frequency:   26.4198686386
  - # 14
    frequency:   30.3607689733
  - # 15
    frequency:   30.5167888321

- q-position: [    0.0858586,    0.0000000,    0.0000000 ]
  distance:    0.0293021
  band:
  - # 1
    frequency:    0.4260977747
  - # 2
    frequency:    0.7069608910
  - # 3
    frequency:    1.7998213805
  - # 4
    frequency:    4.5690307366
  - # 5
    frequency:    4.8404738367
  - # 6
    frequency:    5.8804178085
  - # 7
    frequency:    6.0234883731
  - # 8
    frequency:    6.6079307819
  - # 9
    frequency:    9.3607908010
  - # 10
    frequency:   15.7730256991
  - # 11
    frequency:   17.1527104562
  - # 12
    frequency:   17.2360871912
  - # 13
    frequency:   26.3985876085
  - # 14
    frequency:   30.2974425476
  - # 15
    frequency:   30.4729752857

- q-position: [    0.0909091,    0.0000000,    0.0000000 ]
  distance:    0.0310257
  band:
  - # 1
    frequency:    0.4747420197
  - # 2
    frequency:    0.7627744297
  - # 3
    frequency:    1.9036203495
  - # 4
    frequency:    4.5707540090
  - # 5
    frequency:    4.8707274747
  - # 6
    frequency:    5.8679239100
  - # 7
    frequency:    6.0209848758
  - # 8
    frequency:    6.6247890440
  - # 9
    frequency:    9.3403387373
  - # 10
    frequency:   15.7604734914
  - # 11
    frequency:   17.1405477299
  - # 12
    frequency:   17.2328148226
  - # 13
    frequency:   26.3765856483
  - # 14
    frequency:   30.2312002989
  - # 15
    frequency:   30.4272691322

- q-position: [    0.0959596,    0.0000000,    0.0000000 ]
  distance:    0.0327494
  band:
  - # 1
    frequency:    0.5255398325
  - # 2
    frequency:    0.8204253517
  - # 3
    frequency:    2.0069106153
  - # 4
    frequency:    4.5726746624
  - # 5
    frequency:    4.9019104977
  - # 6
    frequency:    5.8557468270
  - # 7
    frequency:    6.0185498990
  - # 8
    frequency:    6.6416141865
  - # 9
    frequency:    9.3189606144
  - # 10
    frequency:   15.7474274994
  - # 11
    frequency:   17.1278849387
  - # 12
    frequency:   17.2292880294
  - # 13
    frequency:   26.3539542974
  - # 14
    frequency:   30.1621989514
  - # 15
    frequency:   30.3797955766

- q-position: [    0.1010101,    0.0000000,    0.0000000 ]
  distance:    0.0344730
  band:
  - # 1
    frequency:    0.5784057167
  - # 2
    frequency:    0.8798884608
  - # 3
    frequency:    2.1096237210
  - # 4
    frequency:    4.5748081078
  - # 5
    frequency:    4.9339228884
  - # 6
    frequency:    5.8439352654
  - # 7
    frequency:    6.0162113015
  - # 8
    frequency:    6.6583674062
  - # 9
    frequency:    9.2966913331
  - # 10
    frequency:   15.7339187600
  - # 11
    frequency:   17.1147565943
  - # 12
    frequency:   17.2255034114
  - # 13
    frequency:   26.3307877746
  - # 14
    frequency:   30.0906024303
  - # 15
    frequency:   30.3306843403

- q-position: [    0.1060606,    0.0000000,    0.0000000 ]
  distance:    0.0361967
  band:
  - # 1
    frequency:    0.6332530957
  - # 2
    frequency:    0.9411279984
  - # 3
    frequency:    2.2116854671
  - # 4
    frequency:    4.5771702803
  - # 5
    frequency:    4.9666655995
  - # 6
    frequency:    5.8325357757
  - # 7
    frequency:    6.0139965122
  - # 8
    frequency:    6.6750145299
  - # 9
    frequency:    9.2735664151
  - # 10
    frequency:   15.7199785753
  - # 11
    frequency:   17.1011995554
  - # 12
    frequency:   17.2214588944
  - # 13
    frequency:   26.3071825460
  - # 14
    frequency:   30.0165815585
  - # 15
    frequency:   30.2800692407

- q-position: [    0.1111111,    0.0000000,    0.0000000 ]
  distance:    0.0379203
  band:
  - # 1
    frequency:    0.6899945130
  - # 2
    frequency:    1.0040983124
  - # 3
    frequency:    2.3130157592
  - # 4
    frequency:    4.5797775748
  - # 5
    frequency:    5.0000408750
  - # 6
    frequency:    5.8215938072
  - # 7
    frequency:    6.0119322621
  - # 8
    frequency:    6.6915255176
  - # 9
    frequency:    9.2496218794
  - # 10
    frequency:   15.7056383757
  - # 11
    frequency:   17.0872530747
  - # 12
    frequency:   17.2171537840
  - # 13
    frequency:   26.2832368658
  - # 14
    frequency:   29.9403137375
  - # 15
    frequency:   30.2280877547

- q-position: [    0.1161616,    0.0000000,    0.0000000 ]
  distance:    0.0396440
  band:
  - # 1
    frequency:    0.7485418112
  - # 2
    frequency:    1.0687445019
  - # 3
    frequency:    2.4135284633
  - # 4
    frequency:    4.5826467713
  - # 5
    frequency:    5.0339524905
  - # 6
    frequency:    5.8111547219
  - # 7
    frequency:    6.0100443155
  - # 8
    frequency:    6.7078740811
  - # 9
    frequency:    9.2248941276
  - # 10
    frequency:   15.6909295926
  - # 11
    frequency:   17.0729588391
  - # 12
    frequency:   17.2125887885
  - # 13
    frequency:   26.2590502934
  - # 14
    frequency:   29.8619826121
  - # 15
    frequency:   30.1748805658

- q-position: [    0.1212121,    0.0000000,    0.0000000 ]
  distance:    0.0413676
  band:
  - # 1
    frequency:    0.8088062936
  - # 2
    frequency:    1.1350030343
  - # 3
    frequency:    2.5131312704
  - # 4
    frequency:    4.5857949493
  - # 5
    frequency:    5.0683059088
  - # 6
    frequency:    5.8012647987
  - # 7
    frequency:    6.0083572063
  - # 8
    frequency:    6.7240373926
  - # 9
    frequency:    9.1994198393
  - # 10
    frequency:   15.6758835421
  - # 11
    frequency:   17.0583610013
  - # 12
    frequency:   17.2077660135
  - # 13
    frequency:   26.2347231820
  - # 14
    frequency:   29.7817777216
  - # 15
    frequency:   30.1205910975

- q-position: [    0.1262626,    0.0000000,    0.0000000 ]
  distance:    0.0430913
  band:
  - # 1
    frequency:    0.8706988710
  - # 2
    frequency:    1.2028023392
  - # 3
    frequency:    2.6117255701
  - # 4
    frequency:    4.5892393906
  - # 5
    frequency:    5.1030083414
  - # 6
    frequency:    5.7919722580
  - # 7
    frequency:    6.0068939800
  - # 8
    frequency:    6.7399958574
  - # 9
    frequency:    9.1732358799
  - # 10
    frequency:   15.6605313225
  - # 11
    frequency:   17.0435062001
  - # 12
    frequency:   17.2026889255
  - # 13
    frequency:   26.2103561410
  - # 14
    frequency:   29.6998941386
  - # 15
    frequency:   30.0653650334

- q-position: [    0.1313131,    0.0000000,    0.0000000 ]
  distance:    0.0448149
  band:
  - # 1
    frequency:    0.9341301979
  - # 2
    frequency:    1.2720633790
  - # 3
    frequency:    2.7092063378
  - # 4
    frequency:    4.5929974691
  - # 5
    frequency:    5.1379687085
  - # 6
    frequency:    5.7833283276
  - # 7
    frequency:    6.0056759471
  - # 8
    frequency:    6.7557329346
  - # 9
    frequency:    9.1463792193
  - # 10
    frequency:   15.6449037237
  - # 11
    frequency:   17.0284435683
  - # 12
    frequency:   17.1973622867
  - # 13
    frequency:   26.1860494692
  - # 14
    frequency:   29.6165320980
  - # 15
    frequency:   30.0093498251

- q-position: [    0.1363636,    0.0000000,    0.0000000 ]
  distance:    0.0465386
  band:
  - # 1
    frequency:    0.9990107999
  - # 2
    frequency:    1.3427002008
  - # 3
    frequency:    2.8054620388
  - # 4
    frequency:    4.5970865281
  - # 5
    frequency:    5.1730974805
  - # 6
    frequency:    5.7753883752
  - # 7
    frequency:    6.0047224486
  - # 8
    frequency:    6.7712349880
  - # 9
    frequency:    9.1188868643
  - # 10
    frequency:   15.6290311506
  - # 11
    frequency:   17.0132247259
  - # 12
    frequency:   17.1917920630
  - # 13
    frequency:   26.1619025570
  - # 14
    frequency:   29.5318966206
  - # 15
    frequency:   29.9526941907

- q-position: [    0.1414141,    0.0000000,    0.0000000 ]
  distance:    0.0482622
  band:
  - # 1
    frequency:    1.0652511956
  - # 2
    frequency:    1.4146204749
  - # 3
    frequency:    2.9003745613
  - # 4
    frequency:    4.6015237446
  - # 5
    frequency:    5.2083063793
  - # 6
    frequency:    5.7682131268
  - # 7
    frequency:    6.0040506398
  - # 8
    frequency:    6.7864911560
  - # 9
    frequency:    9.0907958036
  - # 10
    frequency:   15.6129435616
  - # 11
    frequency:   16.9979037553
  - # 12
    frequency:   17.1859853063
  - # 13
    frequency:   26.1380132567
  - # 14
    frequency:   29.4461971325
  - # 15
    frequency:   29.8955476041

- q-position: [    0.1464646,    0.0000000,    0.0000000 ]
  distance:    0.0499859
  band:
  - # 1
    frequency:    1.1327620138
  - # 2
    frequency:    1.4877260207
  - # 3
    frequency:    2.9938191919
  - # 4
    frequency:    4.6063259803
  - # 5
    frequency:    5.2435079107
  - # 6
    frequency:    5.7618699955
  - # 7
    frequency:    6.0036752926
  - # 8
    frequency:    6.8014932285
  - # 9
    frequency:    9.0621429654
  - # 10
    frequency:   15.5966704190
  - # 11
    frequency:   16.9825371578
  - # 12
    frequency:   17.1799500153
  - # 13
    frequency:   26.1144772173
  - # 14
    frequency:   29.3596470873
  - # 15
    frequency:   29.8380597782

- q-position: [    0.1515152,    0.0000000,    0.0000000 ]
  distance:    0.0517095
  band:
  - # 1
    frequency:    1.2014541082
  - # 2
    frequency:    1.5619133284
  - # 3
    frequency:    3.0856646531
  - # 4
    frequency:    4.6115096213
  - # 5
    frequency:    5.2786146853
  - # 6
    frequency:    5.7564345424
  - # 7
    frequency:    6.0036086215
  - # 8
    frequency:    6.8162355236
  - # 9
    frequency:    9.0329651885
  - # 10
    frequency:   15.5802406540
  - # 11
    frequency:   16.9671837887
  - # 12
    frequency:   17.1736949782
  - # 13
    frequency:   26.0913871812
  - # 14
    frequency:   29.2724635947
  - # 15
    frequency:   29.7803801429

- q-position: [    0.1565657,    0.0000000,    0.0000000 ]
  distance:    0.0534332
  band:
  - # 1
    frequency:    1.2712386708
  - # 2
    frequency:    1.6370740775
  - # 3
    frequency:    3.1757732345
  - # 4
    frequency:    4.6170904063
  - # 5
    frequency:    5.3135384780
  - # 6
    frequency:    5.7519920956
  - # 7
    frequency:    6.0038601340
  - # 8
    frequency:    6.8307147562
  - # 9
    frequency:    9.0032992047
  - # 10
    frequency:   15.5636826437
  - # 11
    frequency:   16.9519047673
  - # 12
    frequency:   17.1672296015
  - # 13
    frequency:   26.0688322399
  - # 14
    frequency:   29.1848670620
  - # 15
    frequency:   29.7226573193

- q-position: [    0.1616162,    0.0000000,    0.0000000 ]
  distance:    0.0551568
  band:
  - # 1
    frequency:    1.3420273437
  - # 2
    frequency:    1.7130956580
  - # 3
    frequency:    3.2640010538
  - # 4
    frequency:    4.6230832450
  - # 5
    frequency:    5.3481889639
  - # 6
    frequency:    5.7486395489
  - # 7
    frequency:    6.0044365085
  - # 8
    frequency:    6.8449298947
  - # 9
    frequency:    8.9731816335
  - # 10
    frequency:   15.5470241983
  - # 11
    frequency:   16.9367633631
  - # 12
    frequency:   17.1605637311
  - # 13
    frequency:   26.0468970450
  - # 14
    frequency:   29.0970808540
  - # 15
    frequency:   29.6650385942

- q-position: [    0.1666667,    0.0000000,    0.0000000 ]
  distance:    0.0568805
  band:
  - # 1
    frequency:    1.4137323303
  - # 2
    frequency:    1.7898616977
  - # 3
    frequency:    3.3501984999
  - # 4
    frequency:    4.6295020287
  - # 5
    frequency:    5.3824720694
  - # 6
    frequency:    5.7464873477
  - # 7
    frequency:    6.0053415010
  - # 8
    frequency:    6.8588820009
  - # 9
    frequency:    8.9426489858
  - # 10
    frequency:   15.5302925589
  - # 11
    frequency:   16.9218248520
  - # 12
    frequency:   17.1537074692
  - # 13
    frequency:   26.0256609710
  - # 14
    frequency:   29.0093309798
  - # 15
    frequency:   29.6076693950

- q-position: [    0.1717172,    0.0000000,    0.0000000 ]
  distance:    0.0586041
  band:
  - # 1
    frequency:    1.4862665069
  - # 2
    frequency:    1.8672525988
  - # 3
    frequency:    3.4342109204
  - # 4
    frequency:    4.6363594347
  - # 5
    frequency:    5.4162879113
  - # 6
    frequency:    5.7456616250
  - # 7
    frequency:    6.0065758820
  - # 8
    frequency:    6.8725740523
  - # 9
    frequency:    8.9117376777
  - # 10
    frequency:   15.5135144012
  - # 11
    frequency:   16.9071563450
  - # 12
    frequency:   17.1466709953
  - # 13
    frequency:   26.0051972268
  - # 14
    frequency:   28.9218458124
  - # 15
    frequency:   29.5506927675

- q-position: [    0.1767677,    0.0000000,    0.0000000 ]
  distance:    0.0603278
  band:
  - # 1
    frequency:    1.5595435325
  - # 2
    frequency:    1.9451460873
  - # 3
    frequency:    3.5158796280
  - # 4
    frequency:    4.6436667267
  - # 5
    frequency:    5.4495283950
  - # 6
    frequency:    5.7463063336
  - # 7
    frequency:    6.0081374046
  - # 8
    frequency:    6.8860107454
  - # 9
    frequency:    8.8804840511
  - # 10
    frequency:   15.4967158451
  - # 11
    frequency:   16.8928265837
  - # 12
    frequency:   17.1394643948
  - # 13
    frequency:   25.9855719131
  - # 14
    frequency:   28.8348558477
  - # 15
    frequency:   29.4942488603

- q-position: [    0.1818182,    0.0000000,    0.0000000 ]
  distance:    0.0620514
  band:
  - # 1
    frequency:    1.6334779584
  - # 2
    frequency:    2.0234177775
  - # 3
    frequency:    3.5950433152
  - # 4
    frequency:    4.6514335535
  - # 5
    frequency:    5.4820747981
  - # 6
    frequency:    5.7485849547
  - # 7
    frequency:    6.0100208040
  - # 8
    frequency:    6.8991982796
  - # 9
    frequency:    8.8489243995
  - # 10
    frequency:   15.4799224669
  - # 11
    frequency:   16.8789057054
  - # 12
    frequency:   17.1320975030
  - # 13
    frequency:   25.9668430241
  - # 14
    frequency:   28.7485935114
  - # 15
    frequency:   29.4384744163

- q-position: [    0.1868687,    0.0000000,    0.0000000 ]
  distance:    0.0637751
  band:
  - # 1
    frequency:    1.7079853364
  - # 2
    frequency:    2.1019417541
  - # 3
    frequency:    3.6715399658
  - # 4
    frequency:    4.6596677483
  - # 5
    frequency:    5.5137962138
  - # 6
    frequency:    5.7526808102
  - # 7
    frequency:    6.0122178275
  - # 8
    frequency:    6.9121441256
  - # 9
    frequency:    8.8170949983
  - # 10
    frequency:   15.4631593109
  - # 11
    frequency:   16.8654649732
  - # 12
    frequency:   17.1245797691
  - # 13
    frequency:   25.9490593958
  - # 14
    frequency:   28.6632930156
  - # 15
    frequency:   29.3835022744

- q-position: [    0.1919192,    0.0000000,    0.0000000 ]
  distance:    0.0654987
  band:
  - # 1
    frequency:    1.7829823252
  - # 2
    frequency:    2.1805911735
  - # 3
    frequency:    3.7452093559
  - # 4
    frequency:    4.6683751309
  - # 5
    frequency:    5.5445507267
  - # 6
    frequency:    5.7587940061
  - # 7
    frequency:    6.0147172966
  - # 8
    frequency:    6.9248567780
  - # 9
    frequency:    8.7850321361
  - # 10
    frequency:   15.4464508992
  - # 11
    frequency:   16.8525764733
  - # 12
    frequency:   17.1169201446
  - # 13
    frequency:   25.9322596019
  - # 14
    frequency:   28.5791902705
  - # 15
    frequency:   29.3294608847

- q-position: [    0.1969697,    0.0000000,    0.0000000 ]
  distance:    0.0672224
  band:
  - # 1
    frequency:    1.8583867953
  - # 2
    frequency:    2.2592388841
  - # 3
    frequency:    3.8158962134
  - # 4
    frequency:    4.6775593152
  - # 5
    frequency:    5.5741926686
  - # 6
    frequency:    5.7671315777
  - # 7
    frequency:    6.0175051975
  - # 8
    frequency:    6.9373454990
  - # 9
    frequency:    8.7527721467
  - # 10
    frequency:   15.4298212366
  - # 11
    frequency:   16.8403127775
  - # 12
    frequency:   17.1091270016
  - # 13
    frequency:   25.9164708083
  - # 14
    frequency:   28.4965228484
  - # 15
    frequency:   29.2764738385

- q-position: [    0.2020202,    0.0000000,    0.0000000 ]
  distance:    0.0689461
  band:
  - # 1
    frequency:    1.9341179307
  - # 2
    frequency:    2.3377580667
  - # 3
    frequency:    3.8834540708
  - # 4
    frequency:    4.6872215246
  - # 5
    frequency:    5.6025905045
  - # 6
    frequency:    5.7778862451
  - # 7
    frequency:    6.0205648016
  - # 8
    frequency:    6.9496200549
  - # 9
    frequency:    8.7203514377
  - # 10
    frequency:   15.4132938084
  - # 11
    frequency:   16.8287465730
  - # 12
    frequency:   17.1012080839
  - # 13
    frequency:   25.9017075990
  - # 14
    frequency:   28.4155299933
  - # 15
    frequency:   29.2246594153

- q-position: [    0.2070707,    0.0000000,    0.0000000 ]
  distance:    0.0706697
  band:
  - # 1
    frequency:    2.0100963287
  - # 2
    frequency:    2.4160228934
  - # 3
    frequency:    3.9477497831
  - # 4
    frequency:    4.6973604166
  - # 5
    frequency:    5.6296584757
  - # 6
    frequency:    5.7912006661
  - # 7
    frequency:    6.0238768123
  - # 8
    frequency:    6.9616904522
  - # 9
    frequency:    8.6878065163
  - # 10
    frequency:   15.3968915701
  - # 11
    frequency:   16.8179502583
  - # 12
    frequency:   17.0931704912
  - # 13
    frequency:   25.8879707967
  - # 14
    frequency:   28.3364526629
  - # 15
    frequency:   29.1741301513

- q-position: [    0.2121212,    0.0000000,    0.0000000 ]
  distance:    0.0723934
  band:
  - # 1
    frequency:    2.0862440970
  - # 2