nqpoint: 300    
npath: 3      
segment_nqpoint:
- 100
- 100
- 100
labels:
- [ 'G', 'M' ]
- [ 'M', 'K' ]
- [ 'K', 'G' ]
reciprocal_lattice:
- [   0.32766042,   0.18917483,   0.00000000 ] # a*
- [   0.00000000,   0.37834966,   0.00000000 ] # b*
- [   0.00000000,   0.00000000,   0.03042235 ] # c*
natom: 7      
lattice:
- [     3.051940219256411,     0.000000000000000,     0.000000000000000 ] # a
- [    -1.525970109628205,     2.643057760708696,     0.000000000000000 ] # b
- [     0.000000000000000,     0.000000000000000,    32.870572475729482 ] # c
points:
- symbol: C # 1
  coordinates: [  0.000000000000000,  0.000000000000000,  0.500000030511541 ]
  mass: 12.010700
- symbol: Cl # 2
  coordinates: [  0.333332985432215,  0.666666983183674,  0.726198866580578 ]
  mass: 35.453000
- symbol: Cl # 3
  coordinates: [  0.666666984744047,  0.333332985985145,  0.273801133419422 ]
  mass: 35.453000
- symbol: O # 4
  coordinates: [  0.333332985432215,  0.666666983183674,  0.567090862814046 ]
  mass: 15.999400
- symbol: O # 5
  coordinates: [  0.666666984744047,  0.333332985985145,  0.432909137185962 ]
  mass: 15.999400
- symbol: Ti # 6
  coordinates: [  0.333332985432215,  0.666666983183674,  0.459949034222285 ]
  mass: 47.867000
- symbol: Ti # 7
  coordinates: [  0.666666984744047,  0.333332985985145,  0.540050965322319 ]
  mass: 47.867000

phonon:
- q-position: [    0.0000000,    0.0000000,    0.0000000 ]
  distance:    0.0000000
  band:
  - # 1
    frequency:   -0.5409878902
  - # 2
    frequency:   -0.4409195330
  - # 3
    frequency:   -0.0000064157
  - # 4
    frequency:    0.0000001700
  - # 5
    frequency:    0.0000091226
  - # 6
    frequency:    0.6018113031
  - # 7
    frequency:    0.6018113031
  - # 8
    frequency:    0.7260778291
  - # 9
    frequency:    0.7260778291
  - # 10
    frequency:    2.6262755182
  - # 11
    frequency:    2.6262755183
  - # 12
    frequency:    4.8680950093
  - # 13
    frequency:    4.8680950093
  - # 14
    frequency:    8.2887578159
  - # 15
    frequency:   11.2995844525
  - # 16
    frequency:   11.2995844525
  - # 17
    frequency:   14.6483260962
  - # 18
    frequency:   14.6483260962
  - # 19
    frequency:   16.4434940105
  - # 20
    frequency:   16.7406211999
  - # 21
    frequency:   21.6674643489

- q-position: [    0.0050505,    0.0000000,    0.0000000 ]
  distance:    0.0019109
  band:
  - # 1
    frequency:   -0.5398699146
  - # 2
    frequency:   -0.4401167066
  - # 3
    frequency:   -0.0084554156
  - # 4
    frequency:    0.0516235069
  - # 5
    frequency:    0.1094299818
  - # 6
    frequency:    0.5805201907
  - # 7
    frequency:    0.5914054459
  - # 8
    frequency:    0.7227379970
  - # 9
    frequency:    0.7229295107
  - # 10
    frequency:    2.6259260462
  - # 11
    frequency:    2.6288982144
  - # 12
    frequency:    4.8725612114
  - # 13
    frequency:    4.8980549528
  - # 14
    frequency:    8.2884284796
  - # 15
    frequency:   11.2989816993
  - # 16
    frequency:   11.2996915422
  - # 17
    frequency:   14.6480469531
  - # 18
    frequency:   14.6482898716
  - # 19
    frequency:   16.4433536324
  - # 20
    frequency:   16.7399611208
  - # 21
    frequency:   21.6671111857

- q-position: [    0.0101010,    0.0000000,    0.0000000 ]
  distance:    0.0038217
  band:
  - # 1
    frequency:   -0.5365421982
  - # 2
    frequency:   -0.4382429636
  - # 3
    frequency:   -0.0384449823
  - # 4
    frequency:    0.0889938436
  - # 5
    frequency:    0.1696155485
  - # 6
    frequency:    0.5127183592
  - # 7
    frequency:    0.5590744239
  - # 8
    frequency:    0.7145487239
  - # 9
    frequency:    0.7269858800
  - # 10
    frequency:    2.6249156056
  - # 11
    frequency:    2.6370764290
  - # 12
    frequency:    4.8859079006
  - # 13
    frequency:    4.9865647562
  - # 14
    frequency:    8.2874525775
  - # 15
    frequency:   11.2971743895
  - # 16
    frequency:   11.3000111037
  - # 17
    frequency:   14.6472128170
  - # 18
    frequency:   14.6481818082
  - # 19
    frequency:   16.4429328522
  - # 20
    frequency:   16.7379832467
  - # 21
    frequency:   21.6660521083

- q-position: [    0.0151515,    0.0000000,    0.0000000 ]
  distance:    0.0057326
  band:
  - # 1
    frequency:   -0.5311915563
  - # 2
    frequency:   -0.4390669834
  - # 3
    frequency:   -0.1161348961
  - # 4
    frequency:   -0.0350406932
  - # 5
    frequency:    0.0825771825
  - # 6
    frequency:    0.3867848217
  - # 7
    frequency:    0.5007469125
  - # 8
    frequency:    0.7077021206
  - # 9
    frequency:    0.7745027481
  - # 10
    frequency:    2.6233551961
  - # 11
    frequency:    2.6515909117
  - # 12
    frequency:    4.9079823350
  - # 13
    frequency:    5.1298150054
  - # 14
    frequency:    8.2858686639
  - # 15
    frequency:   11.2941654999
  - # 16
    frequency:   11.3005380322
  - # 17
    frequency:   14.6458336610
  - # 18
    frequency:   14.6480037305
  - # 19
    frequency:   16.4422327138
  - # 20
    frequency:   16.7346946830
  - # 21
    frequency:   21.6642883434

- q-position: [    0.0202020,    0.0000000,    0.0000000 ]
  distance:    0.0076434
  band:
  - # 1
    frequency:   -0.5255248043
  - # 2
    frequency:   -0.4702508857
  - # 3
    frequency:   -0.3195072553
  - # 4
    frequency:   -0.2940394034
  - # 5
    frequency:   -0.1250665753
  - # 6
    frequency:    0.2523636118
  - # 7
    frequency:    0.4056781590
  - # 8
    frequency:    0.7128629609
  - # 9
    frequency:    0.8788658906
  - # 10
    frequency:    2.6214205130
  - # 11
    frequency:    2.6733577919
  - # 12
    frequency:    4.9385395259
  - # 13
    frequency:    5.3222948084
  - # 14
    frequency:    8.2837492784
  - # 15
    frequency:   11.2899604258
  - # 16
    frequency:   11.3012638766
  - # 17
    frequency:   14.6439264269
  - # 18
    frequency:   14.6477586617
  - # 19
    frequency:   16.4412548954
  - # 20
    frequency:   16.7301073245
  - # 21
    frequency:   21.6618219013

- q-position: [    0.0252525,    0.0000000,    0.0000000 ]
  distance:    0.0095543
  band:
  - # 1
    frequency:   -0.6136397912
  - # 2
    frequency:   -0.5750364040
  - # 3
    frequency:   -0.4935379989
  - # 4
    frequency:   -0.3538006608
  - # 5
    frequency:   -0.2713332392
  - # 6
    frequency:    0.2282615206
  - # 7
    frequency:    0.2332702152
  - # 8
    frequency:    0.7394467659
  - # 9
    frequency:    1.0173491929
  - # 10
    frequency:    2.6193394586
  - # 11
    frequency:    2.7031255199
  - # 12
    frequency:    4.9772551388
  - # 13
    frequency:    5.5576241785
  - # 14
    frequency:    8.2812168334
  - # 15
    frequency:   11.2845676671
  - # 16
    frequency:   11.3021769249
  - # 17
    frequency:   14.6415155341
  - # 18
    frequency:   14.6474507949
  - # 19
    frequency:   16.4400016198
  - # 20
    frequency:   16.7242379352
  - # 21
    frequency:   21.6586555264

- q-position: [    0.0303030,    0.0000000,    0.0000000 ]
  distance:    0.0114651
  band:
  - # 1
    frequency:   -0.7951391127
  - # 2
    frequency:   -0.7728342857
  - # 3
    frequency:   -0.4889500478
  - # 4
    frequency:   -0.4136971744
  - # 5
    frequency:   -0.3455150265
  - # 6
    frequency:   -0.2815318773
  - # 7
    frequency:    0.2440490280
  - # 8
    frequency:    0.7878810408
  - # 9
    frequency:    1.1714482089
  - # 10
    frequency:    2.6173771970
  - # 11
    frequency:    2.7413308928
  - # 12
    frequency:    5.0237410122
  - # 13
    frequency:    5.8292120651
  - # 14
    frequency:    8.2784752301
  - # 15
    frequency:   11.2779998687
  - # 16
    frequency:   11.3032623221
  - # 17
    frequency:   14.6386336530
  - # 18
    frequency:   14.6470854542
  - # 19
    frequency:   16.4384755306
  - # 20
    frequency:   16.7171082641
  - # 21
    frequency:   21.6547926289

- q-position: [    0.0353535,    0.0000000,    0.0000000 ]
  distance:    0.0133760
  band:
  - # 1
    frequency:   -0.9747192485
  - # 2
    frequency:   -0.9617294115
  - # 3
    frequency:   -0.5515331117
  - # 4
    frequency:   -0.4856730579
  - # 5
    frequency:   -0.4706625119
  - # 6
    frequency:   -0.3213793704
  - # 7
    frequency:    0.2722109242
  - # 8
    frequency:    0.8521518435
  - # 9
    frequency:    1.3326210896
  - # 10
    frequency:    2.6158205354
  - # 11
    frequency:    2.7881049443
  - # 12
    frequency:    5.0775615089
  - # 13
    frequency:    6.1306351108
  - # 14
    frequency:    8.2758750047
  - # 15
    frequency:   11.2702753275
  - # 16
    frequency:   11.3045022206
  - # 17
    frequency:   14.6353228117
  - # 18
    frequency:   14.6466690429
  - # 19
    frequency:   16.4366795389
  - # 20
    frequency:   16.7087451998
  - # 21
    frequency:   21.6502371995

- q-position: [    0.0404040,    0.0000000,    0.0000000 ]
  distance:    0.0152869
  band:
  - # 1
    frequency:   -1.1490395400
  - # 2
    frequency:   -1.1409222049
  - # 3
    frequency:   -0.6837809730
  - # 4
    frequency:   -0.6440251610
  - # 5
    frequency:   -0.4461178223
  - # 6
    frequency:   -0.2863738858
  - # 7
    frequency:    0.3068808311
  - # 8
    frequency:    0.9262383077
  - # 9
    frequency:    1.4968875613
  - # 10
    frequency:    2.6149631528
  - # 11
    frequency:    2.8433582706
  - # 12
    frequency:    5.1382491763
  - # 13
    frequency:    6.4557204179
  - # 14
    frequency:    8.2740585463
  - # 15
    frequency:   11.2614201612
  - # 16
    frequency:   11.3058759606
  - # 17
    frequency:   14.6316359345
  - # 18
    frequency:   14.6462089792
  - # 19
    frequency:   16.4346166426
  - # 20
    frequency:   16.6991809698
  - # 21
    frequency:   21.6449937099

- q-position: [    0.0454545,    0.0000000,    0.0000000 ]
  distance:    0.0171977
  band:
  - # 1
    frequency:   -1.3185850509
  - # 2
    frequency:   -1.3132806219
  - # 3
    frequency:   -0.8107764030
  - # 4
    frequency:   -0.7843237690
  - # 5
    frequency:   -0.4144072784
  - # 6
    frequency:   -0.2381005281
  - # 7
    frequency:    0.3462082686
  - # 8
    frequency:    1.0061171420
  - # 9
    frequency:    1.6621072311
  - # 10
    frequency:    2.6150927474
  - # 11
    frequency:    2.9068835898
  - # 12
    frequency:    5.2053186414
  - # 13
    frequency:    6.7982608073
  - # 14
    frequency:    8.2743229428
  - # 15
    frequency:   11.2514714966
  - # 16
    frequency:   11.3073602801
  - # 17
    frequency:   14.6276389533
  - # 18
    frequency:   14.6457136191
  - # 19
    frequency:   16.4322897241
  - # 20
    frequency:   16.6884533923
  - # 21
    frequency:   21.6390669997

- q-position: [    0.0505051,    0.0000000,    0.0000000 ]
  distance:    0.0191086
  band:
  - # 1
    frequency:   -1.4839935940
  - # 2
    frequency:   -1.4804345537
  - # 3
    frequency:   -0.9332063857
  - # 4
    frequency:   -0.9144425283
  - # 5
    frequency:   -0.3733156952
  - # 6
    frequency:   -0.1663676509
  - # 7
    frequency:    0.3894668523
  - # 8
    frequency:    1.0893475920
  - # 9
    frequency:    1.8269224029
  - # 10
    frequency:    2.6164806785
  - # 11
    frequency:    2.9784424395
  - # 12
    frequency:    5.2782781649
  - # 13
    frequency:    7.1509443848
  - # 14
    frequency:    8.2796779692
  - # 15
    frequency:   11.2404823386
  - # 16
    frequency:   11.3089295523
  - # 17
    frequency:   14.6234136931
  - # 18
    frequency:   14.6451921641
  - # 19
    frequency:   16.4297013289
  - # 20
    frequency:   16.6766061938
  - # 21
    frequency:   21.6324621550

- q-position: [    0.0555556,    0.0000000,    0.0000000 ]
  distance:    0.0210194
  band:
  - # 1
    frequency:   -1.6457185994
  - # 2
    frequency:   -1.6433005799
  - # 3
    frequency:   -1.0516962435
  - # 4
    frequency:   -1.0377591896
  - # 5
    frequency:   -0.3187917268
  - # 6
    frequency:    0.0701375883
  - # 7
    frequency:    0.4363884354
  - # 8
    frequency:    1.1744386026
  - # 9
    frequency:    1.9903278654
  - # 10
    frequency:    2.6193742512
  - # 11
    frequency:    3.0578248439
  - # 12
    frequency:    5.3566386995
  - # 13
    frequency:    7.5015349895
  - # 14
    frequency:    8.2986036396
  - # 15
    frequency:   11.2285293956
  - # 16
    frequency:   11.3105560481
  - # 17
    frequency:   14.6190618163
  - # 18
    frequency:   14.6446545559
  - # 19
    frequency:   16.4268534301
  - # 20
    frequency:   16.6636894064
  - # 21
    frequency:   21.6251843790

- q-position: [    0.0606061,    0.0000000,    0.0000000 ]
  distance:    0.0229303
  band:
  - # 1
    frequency:   -1.8040436298
  - # 2
    frequency:   -1.8024011218
  - # 3
    frequency:   -1.1667233156
  - # 4
    frequency:   -1.1560048446
  - # 5
    frequency:   -0.2416672071
  - # 6
    frequency:    0.2026843554
  - # 7
    frequency:    0.4869677118
  - # 8
    frequency:    1.2604417711
  - # 9
    frequency:    2.1514842191
  - # 10
    frequency:    2.6239914884
  - # 11
    frequency:    3.1448807303
  - # 12
    frequency:    5.4399206045
  - # 13
    frequency:    7.8173525515
  - # 14
    frequency:    8.3604818956
  - # 15
    frequency:   11.2157264531
  - # 16
    frequency:   11.3122102225
  - # 17
    frequency:   14.6147102370
  - # 18
    frequency:   14.6441113546
  - # 19
    frequency:   16.4237471830
  - # 20
    frequency:   16.6497598727
  - # 21
    frequency:   21.6172388599

- q-position: [    0.0656566,    0.0000000,    0.0000000 ]
  distance:    0.0248411
  band:
  - # 1
    frequency:   -1.9591294497
  - # 2
    frequency:   -1.9580299863
  - # 3
    frequency:   -1.2786276318
  - # 4
    frequency:   -1.2701573843
  - # 5
    frequency:   -0.0991268922
  - # 6
    frequency:    0.2843066824
  - # 7
    frequency:    0.5413757970
  - # 8
    frequency:    1.3467241049
  - # 9
    frequency:    2.3096403220
  - # 10
    frequency:    2.6305180571
  - # 11
    frequency:    3.2395240557
  - # 12
    frequency:    5.5276583368
  - # 13
    frequency:    8.0178680448
  - # 14
    frequency:    8.5428967339
  - # 15
    frequency:   11.2022489036
  - # 16
    frequency:   11.3138610229
  - # 17
    frequency:   14.6105186053
  - # 18
    frequency:   14.6435736010
  - # 19
    frequency:   16.4203826723
  - # 20
    frequency:   16.6348818907
  - # 21
    frequency:   21.6086306387

- q-position: [    0.0707071,    0.0000000,    0.0000000 ]
  distance:    0.0267520
  band:
  - # 1
    frequency:   -2.1110518580
  - # 2
    frequency:   -2.1103416413
  - # 3
    frequency:   -1.3876415598
  - # 4
    frequency:   -1.3808008160
  - # 5
    frequency:    0.2089933831
  - # 6
    frequency:    0.3524399584
  - # 7
    frequency:    0.5998759979
  - # 8
    frequency:    1.4328429208
  - # 9
    frequency:    2.4641159424
  - # 10
    frequency:    2.6391059457
  - # 11
    frequency:    3.3417102148
  - # 12
    frequency:    5.6194035073
  - # 13
    frequency:    8.0887709775
  - # 14
    frequency:    8.8574386065
  - # 15
    frequency:   11.1883826101
  - # 16
    frequency:   11.3154762158
  - # 17
    frequency:   14.6066897452
  - # 18
    frequency:   14.6430526639
  - # 19
    frequency:   16.4167586526
  - # 20
    frequency:   16.6191280522
  - # 21
    frequency:   21.5993644817

- q-position: [    0.0757576,    0.0000000,    0.0000000 ]
  distance:    0.0286629
  band:
  - # 1
    frequency:   -2.2598280336
  - # 2
    frequency:   -2.2594020112
  - # 3
    frequency:   -1.4939173175
  - # 4
    frequency:   -1.4882936513
  - # 5
    frequency:    0.3185336456
  - # 6
    frequency:    0.4138746524
  - # 7
    frequency:    0.6627101721
  - # 8
    frequency:    1.5184753239
  - # 9
    frequency:    2.6143243391
  - # 10
    frequency:    2.6498734869
  - # 11
    frequency:    3.4513885191
  - # 12
    frequency:    5.7147266871
  - # 13
    frequency:    8.1077926544
  - # 14
    frequency:    9.2236976472
  - # 15
    frequency:   11.1746313951
  - # 16
    frequency:   11.3170227316
  - # 17
    frequency:   14.6034843707
  - # 18
    frequency:   14.6425600694
  - # 19
    frequency:   16.4128722835
  - # 20
    frequency:   16.6025803505
  - # 21
    frequency:   21.5894447599

- q-position: [    0.0808081,    0.0000000,    0.0000000 ]
  distance:    0.0305737
  band:
  - # 1
    frequency:   -2.4054344463
  - # 2
    frequency:   -2.4052187977
  - # 3
    frequency:   -1.5975483577
  - # 4
    frequency:   -1.5928565945
  - # 5
    frequency:    0.4035164373
  - # 6
    frequency:    0.4713113257
  - # 7
    frequency:    0.7299757435
  - # 8
    frequency:    1.6033770569
  - # 9
    frequency:    2.6629063602
  - # 10
    frequency:    2.7598200657
  - # 11
    frequency:    3.5684369646
  - # 12
    frequency:    5.8132183007
  - # 13
    frequency:    8.1095442091
  - # 14
    frequency:    9.6040837180
  - # 15
    frequency:   11.1619850465
  - # 16
    frequency:   11.3184670239
  - # 17
    frequency:   14.6012420850
  - # 18
    frequency:   14.6421073147
  - # 19
    frequency:   16.4087188557
  - # 20
    frequency:   16.5853316697
  - # 21
    frequency:   21.5788753416

- q-position: [    0.0858586,    0.0000000,    0.0000000 ]
  distance:    0.0324846
  band:
  - # 1
    frequency:   -2.5478198682
  - # 2
    frequency:   -2.5477595872
  - # 3
    frequency:   -1.6985851110
  - # 4
    frequency:   -1.6946219035
  - # 5
    frequency:    0.4766523456
  - # 6
    frequency:    0.5261324344
  - # 7
    frequency:    0.8015509662
  - # 8
    frequency:    1.6873576102
  - # 9
    frequency:    2.6782592684
  - # 10
    frequency:    2.9003526403
  - # 11
    frequency:    3.6925954066
  - # 12
    frequency:    5.9144888834
  - # 13
    frequency:    8.1039515210
  - # 14
    frequency:    9.9845276008
  - # 15
    frequency:   11.1527078779
  - # 16
    frequency:   11.3197754412
  - # 17
    frequency:   14.6004117253
  - # 18
    frequency:   14.6417056656
  - # 19
    frequency:   16.4042915066
  - # 20
    frequency:   16.5674878244
  - # 21
    frequency:   21.5676595011

- q-position: [    0.0909091,    0.0000000,    0.0000000 ]
  distance:    0.0343954
  band:
  - # 1
    frequency:   -2.6869726703
  - # 2
    frequency:   -2.6869052409
  - # 3
    frequency:   -1.7970463969
  - # 4
    frequency:   -1.7936629001
  - # 5
    frequency:    0.5424729240
  - # 6
    frequency:    0.5791493955
  - # 7
    frequency:    0.8771107941
  - # 8
    frequency:    1.7702646618
  - # 9
    frequency:    2.6959580377
  - # 10
    frequency:    3.0359018702
  - # 11
    frequency:    3.8234198184
  - # 12
    frequency:    6.0181689153
  - # 13
    frequency:    8.0944561506
  - # 14
    frequency:   10.3532961678
  - # 15
    frequency:   11.1532400576
  - # 16
    frequency:   11.3209146097
  - # 17
    frequency:   14.6015957488
  - # 18
    frequency:   14.6413659387
  - # 19
    frequency:   16.3995809299
  - # 20
    frequency:   16.5491704016
  - # 21
    frequency:   21.5557998481

- q-position: [    0.0959596,    0.0000000,    0.0000000 ]
  distance:    0.0363063
  band:
  - # 1
    frequency:   -2.8227709398
  - # 2
    frequency:   -2.8226139122
  - # 3
    frequency:   -1.8929277001
  - # 4
    frequency:   -1.8900124841
  - # 5
    frequency:    0.6033472488
  - # 6
    frequency:    0.6308817050
  - # 7
    frequency:    0.9562124861
  - # 8
    frequency:    1.8519740674
  - # 9
    frequency:    2.7160019494
  - # 10
    frequency:    3.1666751391
  - # 11
    frequency:    3.9602765073
  - # 12
    frequency:    6.1239083889
  - # 13
    frequency:    8.0825309796
  - # 14
    frequency:   10.6827906805
  - # 15
    frequency:   11.1877852600
  - # 16
    frequency:   11.3218518227
  - # 17
    frequency:   14.6056158028
  - # 18
    frequency:   14.6410982692
  - # 19
    frequency:   16.3945751077
  - # 20
    frequency:   16.5305207808
  - # 21
    frequency:   21.5432982831

- q-position: [    0.1010101,    0.0000000,    0.0000000 ]
  distance:    0.0382171
  band:
  - # 1
    frequency:   -2.9550702195
  - # 2
    frequency:   -2.9548432106
  - # 3
    frequency:   -1.9862072165
  - # 4
    frequency:   -1.9836752202
  - # 5
    frequency:    0.6607581865
  - # 6
    frequency:    0.6816824997
  - # 7
    frequency:    1.0383901040
  - # 8
    frequency:    1.9323832760
  - # 9
    frequency:    2.7383661567
  - # 10
    frequency:    3.2930631152
  - # 11
    frequency:    4.1023793291
  - # 12
    frequency:    6.2313762221
  - # 13
    frequency:    8.0689192778
  - # 14
    frequency:   10.8891883830
  - # 15
    frequency:   11.3225554370
  - # 16
    frequency:   11.3373035218
  - # 17
    frequency:   14.6136099984
  - # 18
    frequency:   14.6409118665
  - # 19
    frequency:   16.3892591693
  - # 20
    frequency:   16.5117058922
  - # 21
    frequency:   21.5301559820

- q-position: [    0.1060606,    0.0000000,    0.0000000 ]
  distance:    0.0401280
  band:
  - # 1
    frequency:   -3.0837709790
  - # 2
    frequency:   -3.0834898283
  - # 3
    frequency:   -2.0768503166
  - # 4
    frequency:   -2.0746354949
  - # 5
    frequency:    0.7157098545
  - # 6
    frequency:    0.7318024260
  - # 7
    frequency:    1.1232154694
  - # 8
    frequency:    2.0114069310
  - # 9
    frequency:    2.7630040799
  - # 10
    frequency:    3.4155688474
  - # 11
    frequency:    4.2488545861
  - # 12
    frequency:    6.3402595898
  - # 13
    frequency:    8.0540503600
  - # 14
    frequency:   10.9470946743
  - # 15
    frequency:   11.3229952704
  - # 16
    frequency:   11.6242725826
  - # 17
    frequency:   14.6271761140
  - # 18
    frequency:   14.6408147590
  - # 19
    frequency:   16.3836156739
  - # 20
    frequency:   16.4929265223
  - # 21
    frequency:   21.5163734167

- q-position: [    0.1111111,    0.0000000,    0.0000000 ]
  distance:    0.0420389
  band:
  - # 1
    frequency:   -3.2087681992
  - # 2
    frequency:   -3.2084451513
  - # 3
    frequency:   -2.1648128796
  - # 4
    frequency:   -2.1628631835
  - # 5
    frequency:    0.7689037531
  - # 6
    frequency:    0.7814251252
  - # 7
    frequency:    1.2103207750
  - # 8
    frequency:    2.0889739115
  - # 9
    frequency:    2.7898497053
  - # 10
    frequency:    3.5347336078
  - # 11
    frequency:    4.3988099749
  - # 12
    frequency:    6.4502632249
  - # 13
    frequency:    8.0382038251
  - # 14
    frequency:   10.9510248921
  - # 15
    frequency:   11.3231430005
  - # 16
    frequency:   11.9508091422
  - # 17
    frequency:   14.6408135317
  - # 18
    frequency:   14.6485755461
  - # 19
    frequency:   16.3776261078
  - # 20
    frequency:   16.4744293096
  - # 21
    frequency:   21.5019504145

- q-position: [    0.1161616,    0.0000000,    0.0000000 ]
  distance:    0.0439497
  band:
  - # 1
    frequency:   -3.3299529816
  - # 2
    frequency:   -3.3295975257
  - # 3
    frequency:   -2.2500438152
  - # 4
    frequency:   -2.2483176838
  - # 5
    frequency:    0.8208369256
  - # 6
    frequency:    0.8306883123
  - # 7
    frequency:    1.2993970455
  - # 8
    frequency:    2.1650253416
  - # 9
    frequency:    2.8188197446
  - # 10
    frequency:    3.6510779284
  - # 11
    frequency:    4.5513889033
  - # 12
    frequency:    6.5611087169
  - # 13
    frequency:    8.0215833917
  - # 14
    frequency:   10.9391918986
  - # 15
    frequency:   11.3229725592
  - # 16
    frequency:   12.2745084391
  - # 17
    frequency:   14.6409130581
  - # 18
    frequency:   14.6809982896
  - # 19
    frequency:   16.3712755155
  - # 20
    frequency:   16.4565239789
  - # 21
    frequency:   21.4868862642

- q-position: [    0.1212121,    0.0000000,    0.0000000 ]
  distance:    0.0458606
  band:
  - # 1
    frequency:   -3.4472141070
  - # 2
    frequency:   -3.4468336403
  - # 3
    frequency:   -2.3324869931
  - # 4
    frequency:   -2.3309508524
  - # 5
    frequency:    0.8718649972
  - # 6
    frequency:    0.8796969720
  - # 7
    frequency:    1.3901827091
  - # 8
    frequency:    2.2395132576
  - # 9
    frequency:    2.8498156336
  - # 10
    frequency:    3.7650650721
  - # 11
    frequency:    4.7058027160
  - # 12
    frequency:    6.6725338279
  - # 13
    frequency:    8.0043539186
  - # 14
    frequency:   10.9211291226
  - # 15
    frequency:   11.3224605228
  - # 16
    frequency:   12.5804743233
  - # 17
    frequency:   14.6411162327
  - # 18
    frequency:   14.7288265276
  - # 19
    frequency:   16.3645644218
  - # 20
    frequency:   16.4396081597
  - # 21
    frequency:   21.4711798727

- q-position: [    0.1262626,    0.0000000,    0.0000000 ]
  distance:    0.0477714
  band:
  - # 1
    frequency:   -3.5604392547
  - # 2
    frequency:   -3.5600395780
  - # 3
    frequency:   -2.4120827378
  - # 4
    frequency:   -2.4107091839
  - # 5
    frequency:    0.9222447593
  - # 6
    frequency:    0.9285319815
  - # 7
    frequency:    1.4824505470
  - # 8
    frequency:    2.3123997109
  - # 9
    frequency:    2.8827253772
  - # 10
    frequency:    3.8770849453
  - # 11
    frequency:    4.8613426008
  - # 12
    frequency:    6.7842918318
  - # 13
    frequency:    7.9866620309
  - # 14
    frequency:   10.8999484843
  - # 15
    frequency:   11.3215864906
  - # 16
    frequency:   12.8589432408
  - # 17
    frequency:   14.6414237056
  - # 18
    frequency:   14.7976604910
  - # 19
    frequency:   16.3575350910
  - # 20
    frequency:   16.4242054663
  - # 21
    frequency:   21.4548299809

- q-position: [    0.1313131,    0.0000000,    0.0000000 ]
  distance:    0.0496823
  band:
  - # 1
    frequency:   -3.6695159529
  - # 2
    frequency:   -3.6691016392
  - # 3
    frequency:   -2.4887689983
  - # 4
    frequency:   -2.4875354563
  - # 5
    frequency:    0.9721632873
  - # 6
    frequency:    0.9772559465
  - # 7
    frequency:    1.5759963857
  - # 8
    frequency:    2.3836561358
  - # 9
    frequency:    2.9174252667
  - # 10
    frequency:    3.9874523450
  - # 11
    frequency:    5.0173770344
  - # 12
    frequency:    6.8961508834
  - # 13
    frequency:    7.9686490666
  - # 14
    frequency:   10.8769707133
  - # 15
    frequency:   11.3203334522
  - # 16
    frequency:   13.1012715732
  - # 17
    frequency:   14.6418336255
  - # 18
    frequency:   14.8935646269
  - # 19
    frequency:   16.3503166891
  - # 20
    frequency:   16.4110383390
  - # 21
    frequency:   21.4378354455

- q-position: [    0.1363636,    0.0000000,    0.0000000 ]
  distance:    0.0515931
  band:
  - # 1
    frequency:   -3.7743323282
  - # 2
    frequency:   -3.7739069996
  - # 3
    frequency:   -2.5624822748
  - # 4
    frequency:   -2.5613699925
  - # 5
    frequency:    1.0217579056
  - # 6
    frequency:    1.0259172741
  - # 7
    frequency:    1.6706303226
  - # 8
    frequency:    2.4532628416
  - # 9
    frequency:    2.9537815187
  - # 10
    frequency:    4.0964133208
  - # 11
    frequency:    5.1733406942
  - # 12
    frequency:    7.0078934149
  - # 13
    frequency:    7.9504604948
  - # 14
    frequency:   10.8528818239
  - # 15
    frequency:   11.3186881372
  - # 16
    frequency:   13.3007112333
  - # 17
    frequency:   14.6423413955
  - # 18
    frequency:   15.0208953862
  - # 19
    frequency:   16.3431652198
  - # 20
    frequency:   16.4012155626
  - # 21
    frequency:   21.4201955974

- q-position: [    0.1414141,    0.0000000,    0.0000000 ]
  distance:    0.0535040
  band:
  - # 1
    frequency:   -3.8747777030
  - # 2
    frequency:   -3.8743442393
  - # 3
    frequency:   -2.6331583582
  - # 4
    frequency:   -2.6321516416
  - # 5
    frequency:    1.0711299269
  - # 6
    frequency:    1.0745530876
  - # 7
    frequency:    1.7661702518
  - # 8
    frequency:    2.5212085022
  - # 9
    frequency:    2.9916518957
  - # 10
    frequency:    4.2041550419
  - # 11
    frequency:    5.3287190678
  - # 12
    frequency:    7.1193155602
  - # 13
    frequency:    7.9322540517
  - # 14
    frequency:   10.8281010574
  - # 15
    frequency:   11.3166413441
  - # 16
    frequency:   13.4548332998
  - # 17
    frequency:   14.6429394471
  - # 18
    frequency:   15.1790406283
  - # 19
    frequency:   16.3363959725
  - # 20
    frequency:   16.3967594522
  - # 21
    frequency:   21.4019106881

- q-position: [    0.1464646,    0.0000000,    0.0000000 ]
  distance:    0.0554148
  band:
  - # 1
    frequency:   -3.9707430747
  - # 2
    frequency:   -3.9703037727
  - # 3
    frequency:   -2.7007329267
  - # 4
    frequency:   -2.6998185518
  - # 5
    frequency:    1.1203541717
  - # 6
    frequency:    1.1231913646
  - # 7
    frequency:    1.8624371917
  - # 8
    frequency:    2.5874895399
  - # 9
    frequency:    3.0308873744
  - # 10
    frequency:    4.3108163644
  - # 11
    frequency:    5.4830310605
  - # 12
    frequency:    7.2302266038
  - # 13
    frequency:    7.9142080588
  - # 14
    frequency:   10.8029209160
  - # 15
    frequency:   11.3141882448
  - # 16
    frequency:   13.5668126325
  - # 17
    frequency:   14.6436170375
  - # 18
    frequency:   15.3600347340
  - # 19
    frequency:   16.3300813773
  - # 20
    frequency:   16.4018609397
  - # 21
    frequency:   21.3829824398

- q-position: [    0.1515152,    0.0000000,    0.0000000 ]
  distance:    0.0573257
  band:
  - # 1
    frequency:   -4.0621215043
  - # 2
    frequency:   -4.0616782003
  - # 3
    frequency:   -2.7651420297
  - # 4
    frequency:   -2.7643087846
  - # 5
    frequency:    1.1694856257
  - # 6
    frequency:    1.1718525348
  - # 7
    frequency:    1.9592519378
  - # 8
    frequency:    2.6521093183
  - # 9
    frequency:    3.0713339212
  - # 10
    frequency:    4.4164976577
  - # 11
    frequency:    5.6358103413
  - # 12
    frequency:    7.3404484511
  - # 13
    frequency:    7.8965311267
  - # 14
    frequency:   10.7775678240
  - # 15
    frequency:   11.3113286601
  - # 16
    frequency:   13.6438212851
  - # 17
    frequency:   14.6443600752
  - # 18
    frequency:   15.5482381316
  - # 19
    frequency:   16.3237766435
  - # 20
    frequency:   16.4250144057
  - # 21