nqpoint: 300    
npath: 3      
segment_nqpoint:
- 100
- 100
- 100
labels:
- [ 'G', 'M' ]
- [ 'M', 'K' ]
- [ 'K', 'G' ]
reciprocal_lattice:
- [   0.32270513,   0.18631389,   0.00000000 ] # a*
- [   0.00000000,   0.37262779,   0.00000000 ] # b*
- [   0.00000000,   0.00000000,   0.03942502 ] # c*
natom: 7      
lattice:
- [     3.098804164129354,     0.000000000000000,     0.000000000000000 ] # a
- [    -1.549402082064677,     2.683643127489756,     0.000000000000000 ] # b
- [     0.000000000000000,     0.000000000000000,    25.364601136105581 ] # c
points:
- symbol: N # 1
  coordinates: [  0.000000000000000,  0.000000000000000,  0.500000038353685 ]
  mass: 14.006700
- symbol: N # 2
  coordinates: [  0.333332985432215,  0.666666983183674,  0.594063802059517 ]
  mass: 14.006700
- symbol: N # 3
  coordinates: [  0.666666984744047,  0.333332985985145,  0.405936197940483 ]
  mass: 14.006700
- symbol: O # 4
  coordinates: [  0.333332985432215,  0.666666983183674,  0.645174787030701 ]
  mass: 15.999400
- symbol: O # 5
  coordinates: [  0.666666984744047,  0.333332985985145,  0.354825212969300 ]
  mass: 15.999400
- symbol: Ti # 6
  coordinates: [  0.333332985432215,  0.666666983183674,  0.453683160949003 ]
  mass: 47.867000
- symbol: Ti # 7
  coordinates: [  0.666666984744047,  0.333332985985145,  0.546316838478544 ]
  mass: 47.867000

phonon:
- q-position: [    0.0000000,    0.0000000,    0.0000000 ]
  distance:    0.0000000
  band:
  - # 1
    frequency:   -6.8700750358
  - # 2
    frequency:   -6.8700750358
  - # 3
    frequency:   -1.7167850657
  - # 4
    frequency:   -1.7167850657
  - # 5
    frequency:   -0.0000026447
  - # 6
    frequency:    0.0000001336
  - # 7
    frequency:    0.0000062865
  - # 8
    frequency:    3.6672551747
  - # 9
    frequency:    3.6672551747
  - # 10
    frequency:    4.9042712829
  - # 11
    frequency:    4.9042712829
  - # 12
    frequency:    5.9461171467
  - # 13
    frequency:    6.1458390171
  - # 14
    frequency:    6.1458390171
  - # 15
    frequency:    7.1182022820
  - # 16
    frequency:    7.9650241615
  - # 17
    frequency:   13.9929935933
  - # 18
    frequency:   13.9929935933
  - # 19
    frequency:   17.0210585587
  - # 20
    frequency:   42.2116206985
  - # 21
    frequency:   42.3061718609

- q-position: [    0.0050505,    0.0000000,    0.0000000 ]
  distance:    0.0018820
  band:
  - # 1
    frequency:   -6.8699626250
  - # 2
    frequency:   -6.8681545002
  - # 3
    frequency:   -1.7288090726
  - # 4
    frequency:   -1.7280025000
  - # 5
    frequency:    0.0014930303
  - # 6
    frequency:    0.2199343886
  - # 7
    frequency:    0.2288581470
  - # 8
    frequency:    3.6668521602
  - # 9
    frequency:    3.6687638666
  - # 10
    frequency:    4.9039699184
  - # 11
    frequency:    4.9045923965
  - # 12
    frequency:    5.9467044314
  - # 13
    frequency:    6.1443058465
  - # 14
    frequency:    6.1448626348
  - # 15
    frequency:    7.1184355960
  - # 16
    frequency:    7.9633553501
  - # 17
    frequency:   13.9925812202
  - # 18
    frequency:   13.9928970227
  - # 19
    frequency:   17.0197166461
  - # 20
    frequency:   42.2110572046
  - # 21
    frequency:   42.3055528963

- q-position: [    0.0101010,    0.0000000,    0.0000000 ]
  distance:    0.0037639
  band:
  - # 1
    frequency:   -6.8696280084
  - # 2
    frequency:   -6.8623985566
  - # 3
    frequency:   -1.7622632284
  - # 4
    frequency:   -1.7591128956
  - # 5
    frequency:    0.0059481821
  - # 6
    frequency:    0.4311223256
  - # 7
    frequency:    0.4490193838
  - # 8
    frequency:    3.6656547193
  - # 9
    frequency:    3.6732988937
  - # 10
    frequency:    4.9030773362
  - # 11
    frequency:    4.9055576049
  - # 12
    frequency:    5.9484040246
  - # 13
    frequency:    6.1397817724
  - # 14
    frequency:    6.1419392870
  - # 15
    frequency:    7.1191375521
  - # 16
    frequency:    7.9583574091
  - # 17
    frequency:   13.9913466292
  - # 18
    frequency:   13.9926089597
  - # 19
    frequency:   17.0156932437
  - # 20
    frequency:   42.2093674111
  - # 21
    frequency:   42.3036967601

- q-position: [    0.0151515,    0.0000000,    0.0000000 ]
  distance:    0.0056459
  band:
  - # 1
    frequency:   -6.8690789961
  - # 2
    frequency:   -6.8528241860
  - # 3
    frequency:   -1.8112383538
  - # 4
    frequency:   -1.8042802236
  - # 5
    frequency:    0.0132892881
  - # 6
    frequency:    0.6281475166
  - # 7
    frequency:    0.6553104315
  - # 8
    frequency:    3.6636978784
  - # 9
    frequency:    3.6808868426
  - # 10
    frequency:    4.9016274376
  - # 11
    frequency:    4.9071725058
  - # 12
    frequency:    5.9510143970
  - # 13
    frequency:    6.1325083075
  - # 14
    frequency:    6.1370863334
  - # 15
    frequency:    7.1203140776
  - # 16
    frequency:    7.9500559630
  - # 17
    frequency:   13.9892973801
  - # 18
    frequency:   13.9921343577
  - # 19
    frequency:   17.0089953715
  - # 20
    frequency:   42.2065533819
  - # 21
    frequency:   42.3006057251

- q-position: [    0.0202020,    0.0000000,    0.0000000 ]
  distance:    0.0075278
  band:
  - # 1
    frequency:   -6.8683284825
  - # 2
    frequency:   -6.8394596613
  - # 3
    frequency:   -1.8698344880
  - # 4
    frequency:   -1.8574829761
  - # 5
    frequency:    0.0233876518
  - # 6
    frequency:    0.8093133826
  - # 7
    frequency:    0.8463862359
  - # 8
    frequency:    3.6610407202
  - # 9
    frequency:    3.6915710823
  - # 10
    frequency:    4.8996746599
  - # 11
    frequency:    4.9094464072
  - # 12
    frequency:    5.9541447815
  - # 13
    frequency:    6.1229443139
  - # 14
    frequency:    6.1303325793
  - # 15
    frequency:    7.1219746619
  - # 16
    frequency:    7.9384942081
  - # 17
    frequency:   13.9864459902
  - # 18
    frequency:   13.9914814983
  - # 19
    frequency:   16.9996347748
  - # 20
    frequency:   42.2026185532
  - # 21
    frequency:   42.2962835761

- q-position: [    0.0252525,    0.0000000,    0.0000000 ]
  distance:    0.0094098
  band:
  - # 1
    frequency:   -6.8673942638
  - # 2
    frequency:   -6.8223445066
  - # 3
    frequency:   -1.9337953509
  - # 4
    frequency:   -1.9141546253
  - # 5
    frequency:    0.0360583902
  - # 6
    frequency:    0.9751563260
  - # 7
    frequency:    1.0230850520
  - # 8
    frequency:    3.6577673631
  - # 9
    frequency:    3.7054101684
  - # 10
    frequency:    4.8972910387
  - # 11
    frequency:    4.9123922871
  - # 12
    frequency:    5.9571141643
  - # 13
    frequency:    6.1118689965
  - # 14
    frequency:    6.1217180810
  - # 15
    frequency:    7.1241317577
  - # 16
    frequency:    7.9237336659
  - # 17
    frequency:   13.9828098117
  - # 18
    frequency:   13.9906620239
  - # 19
    frequency:   16.9876279905
  - # 20
    frequency:   42.1975677281
  - # 21
    frequency:   42.2907356059

- q-position: [    0.0303030,    0.0000000,    0.0000000 ]
  distance:    0.0112918
  band:
  - # 1
    frequency:   -6.8662987897
  - # 2
    frequency:   -6.8015294479
  - # 3
    frequency:   -2.0005558455
  - # 4
    frequency:   -1.9713266569
  - # 5
    frequency:    0.0510562776
  - # 6
    frequency:    1.1270515805
  - # 7
    frequency:    1.1869750867
  - # 8
    frequency:    3.6539881648
  - # 9
    frequency:    3.7224752623
  - # 10
    frequency:    4.8945623838
  - # 11
    frequency:    4.9160267198
  - # 12
    frequency:    5.9587906704
  - # 13
    frequency:    6.1005449373
  - # 14
    frequency:    6.1112938675
  - # 15
    frequency:    7.1267999043
  - # 16
    frequency:    7.9058552860
  - # 17
    frequency:   13.9784108623
  - # 18
    frequency:   13.9896909784
  - # 19
    frequency:   16.9729964378
  - # 20
    frequency:   42.1914070692
  - # 21
    frequency:   42.2839686091

- q-position: [    0.0353535,    0.0000000,    0.0000000 ]
  distance:    0.0131737
  band:
  - # 1
    frequency:   -6.8650688513
  - # 2
    frequency:   -6.7770763594
  - # 3
    frequency:   -2.0687677632
  - # 4
    frequency:   -2.0272308743
  - # 5
    frequency:    0.0680711169
  - # 6
    frequency:    1.2664748639
  - # 7
    frequency:    1.3396283171
  - # 8
    frequency:    3.6498409579
  - # 9
    frequency:    3.7428462465
  - # 10
    frequency:    4.8915838006
  - # 11
    frequency:    4.9203697536
  - # 12
    frequency:    5.9574587913
  - # 13
    frequency:    6.0908534226
  - # 14
    frequency:    6.0991215733
  - # 15
    frequency:    7.1299945227
  - # 16
    frequency:    7.8849609553
  - # 17
    frequency:   13.9732756102
  - # 18
    frequency:   13.9885868447
  - # 19
    frequency:   16.9557665315
  - # 20
    frequency:   42.1841440888
  - # 21
    frequency:   42.2759908747

- q-position: [    0.0404040,    0.0000000,    0.0000000 ]
  distance:    0.0150557
  band:
  - # 1
    frequency:   -6.8637352141
  - # 2
    frequency:   -6.7490582162
  - # 3
    frequency:   -2.1378476117
  - # 4
    frequency:   -2.0808908302
  - # 5
    frequency:    0.0867230481
  - # 6
    frequency:    1.3947226881
  - # 7
    frequency:    1.4823712060
  - # 8
    frequency:    3.6454920437
  - # 9
    frequency:    3.7666061972
  - # 10
    frequency:    4.8884547932
  - # 11
    frequency:    4.9254447176
  - # 12
    frequency:    5.9510828868
  - # 13
    frequency:    6.0850333267
  - # 14
    frequency:    6.0852729784
  - # 15
    frequency:    7.1337302879
  - # 16
    frequency:    7.8611755104
  - # 17
    frequency:   13.9674347166
  - # 18
    frequency:   13.9873715743
  - # 19
    frequency:   16.9359698128
  - # 20
    frequency:   42.1757876368
  - # 21
    frequency:   42.2668121766

- q-position: [    0.0454545,    0.0000000,    0.0000000 ]
  distance:    0.0169376
  band:
  - # 1
    frequency:   -6.8623322025
  - # 2
    frequency:   -6.7175590611
  - # 3
    frequency:   -2.2076623285
  - # 4
    frequency:   -2.1318324413
  - # 5
    frequency:    0.1065581182
  - # 6
    frequency:    1.5128485408
  - # 7
    frequency:    1.6162484052
  - # 8
    frequency:    3.6411365680
  - # 9
    frequency:    3.7938339175
  - # 10
    frequency:    4.8852741693
  - # 11
    frequency:    4.9312779342
  - # 12
    frequency:    5.9383319510
  - # 13
    frequency:    6.0698294525
  - # 14
    frequency:    6.0846582676
  - # 15
    frequency:    7.1380189256
  - # 16
    frequency:    7.8346494099
  - # 17
    frequency:   13.9609227383
  - # 18
    frequency:   13.9860705964
  - # 19
    frequency:   16.9136430975
  - # 20
    frequency:   42.1663478864
  - # 21
    frequency:   42.2564437627

- q-position: [    0.0505051,    0.0000000,    0.0000000 ]
  distance:    0.0188196
  band:
  - # 1
    frequency:   -6.8608972438
  - # 2
    frequency:   -6.6826740000
  - # 3
    frequency:   -2.2783303000
  - # 4
    frequency:   -2.1799021111
  - # 5
    frequency:    0.1270442307
  - # 6
    frequency:    1.6216812199
  - # 7
    frequency:    1.7420621088
  - # 8
    frequency:    3.6369978018
  - # 9
    frequency:    3.8245943864
  - # 10
    frequency:    4.8821349447
  - # 11
    frequency:    4.9378983076
  - # 12
    frequency:    5.9194657688
  - # 13
    frequency:    6.0528813046
  - # 14
    frequency:    6.0897516501
  - # 15
    frequency:    7.1428661730
  - # 16
    frequency:    7.8055623177
  - # 17
    frequency:   13.9537777939
  - # 18
    frequency:   13.9847127991
  - # 19
    frequency:   16.8888286343
  - # 20
    frequency:   42.1558363178
  - # 21
    frequency:   42.2448983423

- q-position: [    0.0555556,    0.0000000,    0.0000000 ]
  distance:    0.0207015
  band:
  - # 1
    frequency:   -6.8594703819
  - # 2
    frequency:   -6.6445092392
  - # 3
    frequency:   -2.3500976667
  - # 4
    frequency:   -2.2251570821
  - # 5
    frequency:    0.1475672131
  - # 6
    frequency:    1.7218680388
  - # 7
    frequency:    1.8604305659
  - # 8
    frequency:    3.6333247572
  - # 9
    frequency:    3.8589272511
  - # 10
    frequency:    4.8791194377
  - # 11
    frequency:    4.9453367594
  - # 12
    frequency:    5.8958573280
  - # 13
    frequency:    6.0345270443
  - # 14
    frequency:    6.0992644969
  - # 15
    frequency:    7.1482674782
  - # 16
    frequency:    7.7741280165
  - # 17
    frequency:   13.9460411973
  - # 18
    frequency:   13.9833304721
  - # 19
    frequency:   16.8615742715
  - # 20
    frequency:   42.1442656991
  - # 21
    frequency:   42.2321900723

- q-position: [    0.0606061,    0.0000000,    0.0000000 ]
  distance:    0.0225835
  band:
  - # 1
    frequency:   -6.8580937690
  - # 2
    frequency:   -6.6031821811
  - # 3
    frequency:   -2.4232604390
  - # 4
    frequency:   -2.2677997890
  - # 5
    frequency:    0.1674261139
  - # 6
    frequency:    1.8139218332
  - # 7
    frequency:    1.9718454524
  - # 8
    frequency:    3.6303875350
  - # 9
    frequency:    3.8968338960
  - # 10
    frequency:    4.8762947488
  - # 11
    frequency:    4.9536254785
  - # 12
    frequency:    5.8690326302
  - # 13
    frequency:    6.0148725684
  - # 14
    frequency:    6.1120347164
  - # 15
    frequency:    7.1542017236
  - # 16
    frequency:    7.7406013426
  - # 17
    frequency:   13.9377570627
  - # 18
    frequency:   13.9819592025
  - # 19
    frequency:   16.8319336265
  - # 20
    frequency:   42.1316500647
  - # 21
    frequency:   42.2183345416

- q-position: [    0.0656566,    0.0000000,    0.0000000 ]
  distance:    0.0244655
  band:
  - # 1
    frequency:   -6.8568111454
  - # 2
    frequency:   -6.5588215979
  - # 3
    frequency:   -2.4981143782
  - # 4
    frequency:   -2.3081378558
  - # 5
    frequency:    0.1858258379
  - # 6
    frequency:    1.8982653395
  - # 7
    frequency:    2.0767216108
  - # 8
    frequency:    3.6284698698
  - # 9
    frequency:    3.9382640962
  - # 10
    frequency:    4.8737088737
  - # 11
    frequency:    4.9627969543
  - # 12
    frequency:    5.8402643795
  - # 13
    frequency:    5.9940302964
  - # 14
    frequency:    6.1271911131
  - # 15
    frequency:    7.1606217697
  - # 16
    frequency:    7.7052883198
  - # 17
    frequency:   13.9289718858
  - # 18
    frequency:   13.9806377150
  - # 19
    frequency:   16.7999662532
  - # 20
    frequency:   42.1180046916
  - # 21
    frequency:   42.2033487542

- q-position: [    0.0707071,    0.0000000,    0.0000000 ]
  distance:    0.0263474
  band:
  - # 1
    frequency:   -6.8556673150
  - # 2
    frequency:   -6.5115679067
  - # 3
    frequency:   -2.5749222875
  - # 4
    frequency:   -2.3465584678
  - # 5
    frequency:    0.2018635183
  - # 6
    frequency:    1.9752716474
  - # 7
    frequency:    2.1754372585
  - # 8
    frequency:    3.6278585800
  - # 9
    frequency:    3.9831037100
  - # 10
    frequency:    4.8713877749
  - # 11
    frequency:    4.9728827633
  - # 12
    frequency:    5.8105700035
  - # 13
    frequency:    5.9721182909
  - # 14
    frequency:    6.1441514473
  - # 15
    frequency:    7.1674397634
  - # 16
    frequency:    7.6685615034
  - # 17
    frequency:   13.9197341059
  - # 18
    frequency:   13.9794076514
  - # 19
    frequency:   16.7657378032
  - # 20
    frequency:   42.1033460732
  - # 21
    frequency:   42.1872511112

- q-position: [    0.0757576,    0.0000000,    0.0000000 ]
  distance:    0.0282294
  band:
  - # 1
    frequency:   -6.8547076250
  - # 2
    frequency:   -6.4615735709
  - # 3
    frequency:   -2.6538928641
  - # 4
    frequency:   -2.3835102209
  - # 5
    frequency:    0.2145018081
  - # 6
    frequency:    2.0453006377
  - # 7
    frequency:    2.2683640316
  - # 8
    frequency:    3.6288300881
  - # 9
    frequency:    4.0311651281
  - # 10
    frequency:    4.8693338586
  - # 11
    frequency:    4.9839120832
  - # 12
    frequency:    5.7807964784
  - # 13
    frequency:    5.9492594136
  - # 14
    frequency:    6.1625317795
  - # 15
    frequency:    7.1745036940
  - # 16
    frequency:    7.6308839869
  - # 17
    frequency:   13.9100936537
  - # 18
    frequency:   13.9783132831
  - # 19
    frequency:   16.7293201757
  - # 20
    frequency:   42.0876918893
  - # 21
    frequency:   42.1700613911

- q-position: [    0.0808081,    0.0000000,    0.0000000 ]
  distance:    0.0301113
  band:
  - # 1
    frequency:   -6.8539774564
  - # 2
    frequency:   -6.4090036608
  - # 3
    frequency:   -2.7351677524
  - # 4
    frequency:   -2.4194881464
  - # 5
    frequency:    0.2225154150
  - # 6
    frequency:    2.1087309432
  - # 7
    frequency:    2.3558866066
  - # 8
    frequency:    3.6316348551
  - # 9
    frequency:    4.0821821197
  - # 10
    frequency:    4.8675264412
  - # 11
    frequency:    4.9959099104
  - # 12
    frequency:    5.7516853313
  - # 13
    frequency:    5.9255805871
  - # 14
    frequency:    6.1820733774
  - # 15
    frequency:    7.1815593108
  - # 16
    frequency:    7.5928478745
  - # 17
    frequency:   13.9001014907
  - # 18
    frequency:   13.9774011559
  - # 19
    frequency:   16.6907916511
  - # 20
    frequency:   42.0710609748
  - # 21
    frequency:   42.1518007297

- q-position: [    0.0858586,    0.0000000,    0.0000000 ]
  distance:    0.0319933
  band:
  - # 1
    frequency:   -6.8535217286
  - # 2
    frequency:   -6.3540366131
  - # 3
    frequency:   -2.8188147470
  - # 4
    frequency:   -2.4550191804
  - # 5
    frequency:    0.2243804406
  - # 6
    frequency:    2.1659860680
  - # 7
    frequency:    2.4384120567
  - # 8
    frequency:    3.6364813474
  - # 9
    frequency:    4.1358102357
  - # 10
    frequency:    4.8659249126
  - # 11
    frequency:    5.0088949595
  - # 12
    frequency:    5.7239076120
  - # 13
    frequency:    5.9012122518
  - # 14
    frequency:    6.2025970037
  - # 15
    frequency:    7.1881883177
  - # 16
    frequency:    7.5552361806
  - # 17
    frequency:   13.8898091440
  - # 18
    frequency:   13.9767196653
  - # 19
    frequency:   16.6502370049
  - # 20
    frequency:   42.0534732844
  - # 21
    frequency:   42.1324915984

- q-position: [    0.0909091,    0.0000000,    0.0000000 ]
  distance:    0.0338753
  band:
  - # 1
    frequency:   -6.8533844220
  - # 2
    frequency:   -6.2968652372
  - # 3
    frequency:   -2.9048257495
  - # 4
    frequency:   -2.4906464043
  - # 5
    frequency:    0.2180280480
  - # 6
    frequency:    2.2175524816
  - # 7
    frequency:    2.5163697739
  - # 8
    frequency:    3.6435218211
  - # 9
    frequency:    4.1916330868
  - # 10
    frequency:    4.8644753612
  - # 11
    frequency:    5.0228772193
  - # 12
    frequency:    5.6980772140
  - # 13
    frequency:    5.8762881390
  - # 14
    frequency:    6.2239758677
  - # 15
    frequency:    7.1937124107
  - # 16
    frequency:    7.5191184395
  - # 17
    frequency:   13.8792682445
  - # 18
    frequency:   13.9763185639
  - # 19
    frequency:   16.6077475968
  - # 20
    frequency:   42.0349498548
  - # 21
    frequency:   42.1121577823

- q-position: [    0.0959596,    0.0000000,    0.0000000 ]
  distance:    0.0357572
  band:
  - # 1
    frequency:   -6.8536081197
  - # 2
    frequency:   -6.2376980337
  - # 3
    frequency:   -2.9931183979
  - # 4
    frequency:   -2.5269112162
  - # 5
    frequency:    0.2002135577
  - # 6
    frequency:    2.2639872324
  - # 7
    frequency:    2.5902036047
  - # 8
    frequency:    3.6528424458
  - # 9
    frequency:    4.2491738000
  - # 10
    frequency:    4.8631213382
  - # 11
    frequency:    5.0378551282
  - # 12
    frequency:    5.6747501915
  - # 13
    frequency:    5.8509455114
  - # 14
    frequency:    6.2461194760
  - # 15
    frequency:    7.1970662032
  - # 16
    frequency:    7.4859767781
  - # 17
    frequency:   13.8685300698
  - # 18
    frequency:   13.9762484057
  - # 19
    frequency:   16.5634214328
  - # 20
    frequency:   42.0155127630
  - # 21
    frequency:   42.0908243568

- q-position: [    0.1010101,    0.0000000,    0.0000000 ]
  distance:    0.0376392
  band:
  - # 1
    frequency:   -6.8542335640
  - # 2
    frequency:   -6.1767609104
  - # 3
    frequency:   -3.0835404156
  - # 4
    frequency:   -2.5643333556
  - # 5
    frequency:    0.1643985555
  - # 6
    frequency:    2.3059132213
  - # 7
    frequency:    2.6603585391
  - # 8
    frequency:    3.6644598630
  - # 9
    frequency:    4.3079099788
  - # 10
    frequency:    4.8618191610
  - # 11
    frequency:    5.0538122987
  - # 12
    frequency:    5.6544151906
  - # 13
    frequency:    5.8253260734
  - # 14
    frequency:    6.2689636316
  - # 15
    frequency:    7.1967101004
  - # 16
    frequency:    7.4577911493
  - # 17
    frequency:   13.8576451011
  - # 18
    frequency:   13.9765599333
  - # 19
    frequency:   16.5173631964
  - # 20
    frequency:   41.9951850815
  - # 21
    frequency:   42.0685176655

- q-position: [    0.1060606,    0.0000000,    0.0000000 ]
  distance:    0.0395211
  band:
  - # 1
    frequency:   -6.8552992281
  - # 2
    frequency:   -6.1142994101
  - # 3
    frequency:   -3.1758757713
  - # 4
    frequency:   -2.6033894507
  - # 5
    frequency:    0.0864588199
  - # 6
    frequency:    2.3440017705
  - # 7
    frequency:    2.7272646297
  - # 8
    frequency:    3.6783251673
  - # 9
    frequency:    4.3672896752
  - # 10
    frequency:    4.8605577313
  - # 11
    frequency:    5.0707136664
  - # 12
    frequency:    5.6374787928
  - # 13
    frequency:    5.7995778183
  - # 14
    frequency:    6.2924639301
  - # 15
    frequency:    7.1908210300
  - # 16
    frequency:    7.4368455366
  - # 17
    frequency:   13.8466625953
  - # 18
    frequency:   13.9773034140
  - # 19
    frequency:   16.4696842469
  - # 20
    frequency:   41.9739908296
  - # 21
    frequency:   42.0452652966

- q-position: [    0.1111111,    0.0000000,    0.0000000 ]
  distance:    0.0414031
  band:
  - # 1
    frequency:   -6.8568408951
  - # 2
    frequency:   -6.0505816124
  - # 3
    frequency:   -3.2698517436
  - # 4
    frequency:   -2.6444914452
  - # 5
    frequency:   -0.1389983393
  - # 6
    frequency:    2.3789441872
  - # 7
    frequency:    2.7913207049
  - # 8
    frequency:    3.6943347755
  - # 9
    frequency:    4.4267451131
  - # 10
    frequency:    4.8593825576
  - # 11
    frequency:    5.0885008404
  - # 12
    frequency:    5.6242493274
  - # 13
    frequency:    5.7738581750
  - # 14
    frequency:    6.3165913192
  - # 15
    frequency:    7.1780592273
  - # 16
    frequency:    7.4249566227
  - # 17
    frequency:   13.8356301797
  - # 18
    frequency:   13.9785279365
  - # 19
    frequency:   16.4205025841
  - # 20
    frequency:   41.9519549198
  - # 21
    frequency:   42.0210960605

- q-position: [    0.1161616,    0.0000000,    0.0000000 ]
  distance:    0.0432850
  band:
  - # 1
    frequency:   -6.8588912395
  - # 2
    frequency:   -5.9859019340
  - # 3
    frequency:   -3.3651459583
  - # 4
    frequency:   -2.6879667724
  - # 5
    frequency:   -0.2322201123
  - # 6
    frequency:    2.4114160474
  - # 7
    frequency:    2.8528799493
  - # 8
    frequency:    3.7123462223
  - # 9
    frequency:    4.4856996895
  - # 10
    frequency:    4.8584242286
  - # 11
    frequency:    5.1070862792
  - # 12
    frequency:    5.6149229163
  - # 13
    frequency:    5.7483389563
  - # 14
    frequency:    6.3413289549
  - # 15
    frequency:    7.1585419521
  - # 16
    frequency:    7.4224937353
  - # 17
    frequency:   13.8245934720
  - # 18
    frequency:   13.9802806770
  - # 19
    frequency:   16.3699427787
  - # 20
    frequency:   41.9291031002
  - # 21
    frequency:   41.9960399690

- q-position: [    0.1212121,    0.0000000,    0.0000000 ]
  distance:    0.0451670
  band:
  - # 1
    frequency:   -6.8614794054
  - # 2
    frequency:   -5.9205861487
  - # 3
    frequency:   -3.4613924283
  - # 4
    frequency:   -2.7340423594
  - # 5
    frequency:   -0.3109294347
  - # 6
    frequency:    2.4420392837
  - # 7
    frequency:    2.9122387160
  - # 8
    frequency:    3.7321960339
  - # 9
    frequency:    4.5435609728
  - # 10
    frequency:    4.8579344177
  - # 11
    frequency:    5.1263456926
  - # 12
    frequency:    5.6095754826
  - # 13
    frequency:    5.7232138112
  - # 14
    frequency:    6.3666699426
  - # 15
    frequency:    7.1338885949
  - # 16
    frequency:    7.4283253519
  - # 17
    frequency:   13.8135957288
  - # 18
    frequency:   13.9826061467
  - # 19
    frequency:   16.3181358685
  - # 20
    frequency:   41.9054618908
  - # 21
    frequency:   41.9701282156

- q-position: [    0.1262626,    0.0000000,    0.0000000 ]
  distance:    0.0470490
  band:
  - # 1
    frequency:   -6.8646305738
  - # 2
    frequency:   -5.8549980879
  - # 3
    frequency:   -3.5581855550
  - # 4
    frequency:   -2.7828343493
  - # 5
    frequency:   -0.3842349773
  - # 6
    frequency:    2.4713474596
  - # 7
    frequency:    2.9696292164
  - # 8
    frequency:    3.7537167170
  - # 9
    frequency:    4.5996853768
  - # 10
    frequency:    4.8583404301
  - # 11
    frequency:    5.1461077700
  - # 12
    frequency:    5.6081637032
  - # 13
    frequency:    5.6987091486
  - # 14
    frequency:    6.3926157416
  - # 15
    frequency:    7.1062842212
  - # 16
    frequency:    7.4407449595
  - # 17
    frequency:   13.8026775290
  - # 18
    frequency:   13.9855454324
  - # 19
    frequency:   16.2652192236
  - # 20
    frequency:   41.8810585129
  - # 21
    frequency:   41.9433931592

- q-position: [    0.1313131,    0.0000000,    0.0000000 ]
  distance:    0.0489309
  band:
  - # 1
    frequency:   -6.8683655166
  - # 2
    frequency:   -5.7895486871
  - # 3
    frequency:   -3.6550809412
  - # 4
    frequency:   -2.8343448245
  - # 5
    frequency:   -0.4544875838
  - # 6
    frequency:    2.4997588325
  - # 7
    frequency:    3.0252161297
  - # 8
    frequency:    3.7767504421
  - # 9
    frequency:    4.6532831240
  - # 10
    frequency:    4.8603480212
  - # 11
    frequency:    5.1661400005
  - # 12
    frequency:    5.6105363067
  - # 13
    frequency:    5.6750997930
  - # 14
    frequency:    6.4191750795
  - # 15
    frequency:    7.0776802028
  - # 16
    frequency:    7.4582576619
  - # 17
    frequency:   13.7918764907
  - # 18
    frequency:   13.9891354418
  - # 19
    frequency:   16.2113363820
  - # 20
    frequency:   41.8559208116
  - # 21
    frequency:   41.9158683124

- q-position: [    0.1363636,    0.0000000,    0.0000000 ]
  distance:    0.0508129
  band:
  - # 1
    frequency:   -6.8727001315
  - # 2
    frequency:   -5.7247083360
  - # 3
    frequency:   -3.7515916723
  - # 4
    frequency:   -2.8884659110
  - # 5
    frequency:   -0.5223588605
  - # 6
    frequency:    2.5275602506
  - # 7
    frequency:    3.0790967827
  - # 8
    frequency:    3.8011579058
  - # 9
    frequency:    4.7031984057
  - # 10
    frequency:    4.8651578967
  - # 11
    frequency:    5.1861291742
  - # 12
    frequency:    5.6164550948
  - # 13
    frequency:    5.6527307733
  - # 14
    frequency:    6.4463632307
  - # 15
    frequency:    7.0495582481
  - # 16
    frequency:    7.4798015580
  - # 17
    frequency:   13.7812270275
  - # 18
    frequency:   13.9934081634
  - # 19
    frequency:   16.1566368614
  - # 20
    frequency:   41.8300771683
  - # 21
    frequency:   41.8875883349

- q-position: [    0.1414141,    0.0000000,    0.0000000 ]
  distance:    0.0526948
  band:
  - # 1
    frequency:   -6.8776449614
  - # 2
    frequency:   -5.6610239006
  - # 3
    frequency:   -3.8471784310
  - # 4
    frequency:   -2.9449906528
  - # 5
    frequency:   -0.5878633483
  - # 6
    frequency:    2.5549030407
  - # 7
    frequency:    3.1313043556
  - # 8
    frequency:    3.8268217961
  - # 9
    frequency:    4.7475050518
  - # 10
    frequency:    4.8748575478
  - # 11
    frequency:    5.2056557244
  - # 12
    frequency:    5.6256232122
  - # 13
    frequency:    5.6320460334
  - # 14
    frequency:    6.4742014682
  - # 15
    frequency:    7.0229851504
  - # 16
    frequency:    7.5046772831
  - # 17
    frequency:   13.7707601443
  - # 18
    frequency:   13.9983899520
  - # 19
    frequency:   16.1012759518
  - # 20
    frequency:   41.8035564010
  - # 21
    frequency:   41.8585890368

- q-position: [    0.1464646,    0.0000000,    0.0000000 ]
  distance:    0.0545768
  band:
  - # 1
    frequency:   -6.8832046982
  - # 2
    frequency:   -5.5991423029
  - # 3
    frequency:   -3.9412313877
  - # 4
    frequency:   -3.0036291973
  - # 5
    frequency:   -0.6506855023
  - # 6
    frequency:    2.5818102544
  - # 7
    frequency:    3.1818135523
  - # 8
    frequency:    3.8536450503
  - # 9
    frequency:    4.7833995952
  - # 10
    frequency:    4.8925093950
  - # 11
    frequency:    5.2241639284
  - # 12
    frequency:    5.6136219750
  - # 13
    frequency:    5.6377170046
  - # 14
    frequency:    6.5027164275
  - # 15
    frequency:    6.9987184116
  - # 16
    frequency:    7.5324267078
  - # 17
    frequency:   13.7605032743
  - # 18
    frequency:   14.0041008460
  - # 19
    frequency:   16.0454144962
  - # 20
    frequency:   41.7763876511
  - # 21
    frequency:   41.8289073922

- q-position: [    0.1515152,    0.0000000,    0.0000000 ]
  distance:    0.0564588
  band:
  - # 1
    frequency:   -6.8893776814
  - # 2
    frequency:   -5.5398430802
  - # 3
    frequency:   -4.0330413698
  - # 4
    frequency:   -3.0640283170
  - # 5
    frequency:   -0.7103095969
  - # 6
    frequency:    2.6081932708
  - # 7
    frequency:    3.2305482606
  - # 8
    frequency:    3.8815446143
  - # 9
    frequency:    4.8093833113
  - # 10
    frequency:    4.9199465902
  - # 11
    frequency:    5.2409382162
  - # 12
    frequency:    5.5981954923
  - # 13
    frequency:    5.6524174442
  - # 14
    frequency:    6.5319390583
  - # 15
    frequency:    6.9772873053
  - # 16
    frequency:    7.5627377815
  - # 17
    frequency:   13.7504801571
  - # 18
    frequency:   14.0105539231
  - # 19
    frequency:   15.9892186690
  - # 20
    frequency:   41.7486002501
  - # 21
    frequency:   41.7985815693