nqpoint: 300    
npath: 3      
segment_nqpoint:
- 100
- 100
- 100
labels:
- [ 'G', 'M' ]
- [ 'M', 'K' ]
- [ 'K', 'G' ]
reciprocal_lattice:
- [   0.29896012,   0.17260471,   0.00000000 ] # a*
- [   0.00000000,   0.34520941,   0.00000000 ] # b*
- [   0.00000000,   0.00000000,   0.04364641 ] # c*
natom: 5      
lattice:
- [     3.344927747099203,     0.000000000000000,     0.000000000000000 ] # a
- [    -1.672463873549602,     2.896792402808132,     0.000000000000000 ] # b
- [     0.000000000000000,     0.000000000000000,    22.911390549552912 ] # c
points:
- symbol: C # 1
  coordinates: [  0.000000000000000,  0.000000000000000,  0.503039540987740 ]
  mass: 12.010700
- symbol: F # 2
  coordinates: [  0.666666984744047,  0.333332985985145,  0.392817711370889 ]
  mass: 18.998403
- symbol: O # 3
  coordinates: [  0.333332985432215,  0.666666983183674,  0.607182288629111 ]
  mass: 15.999400
- symbol: Zr # 4
  coordinates: [  0.333332985432215,  0.666666983183674,  0.449720138161986 ]
  mass: 91.224000
- symbol: Zr # 5
  coordinates: [  0.666666984744047,  0.333332985985145,  0.565583936168727 ]
  mass: 91.224000

phonon:
- q-position: [    0.0000000,    0.0000000,    0.0000000 ]
  distance:    0.0000000
  band:
  - # 1
    frequency:   -0.0000015534
  - # 2
    frequency:   -0.0000001076
  - # 3
    frequency:    0.0000014769
  - # 4
    frequency:    3.6047460186
  - # 5
    frequency:    3.6047460187
  - # 6
    frequency:    5.7847246099
  - # 7
    frequency:    5.7847246099
  - # 8
    frequency:    6.5816920857
  - # 9
    frequency:    9.6011383348
  - # 10
    frequency:    9.6011383348
  - # 11
    frequency:   11.8296405485
  - # 12
    frequency:   14.8676405897
  - # 13
    frequency:   15.3523455191
  - # 14
    frequency:   15.3523455191
  - # 15
    frequency:   18.2746439470

- q-position: [    0.0050505,    0.0000000,    0.0000000 ]
  distance:    0.0017435
  band:
  - # 1
    frequency:   -0.2991291124
  - # 2
    frequency:    0.0807568013
  - # 3
    frequency:    0.3242162429
  - # 4
    frequency:    3.6049152329
  - # 5
    frequency:    3.6068055742
  - # 6
    frequency:    5.7852905311
  - # 7
    frequency:    5.7856429035
  - # 8
    frequency:    6.5816859815
  - # 9
    frequency:    9.5995079610
  - # 10
    frequency:    9.6000598937
  - # 11
    frequency:   11.8285385629
  - # 12
    frequency:   14.8649597175
  - # 13
    frequency:   15.3514921341
  - # 14
    frequency:   15.3518984987
  - # 15
    frequency:   18.2737614899

- q-position: [    0.0101010,    0.0000000,    0.0000000 ]
  distance:    0.0034870
  band:
  - # 1
    frequency:   -0.4059521215
  - # 2
    frequency:    0.1614198087
  - # 3
    frequency:    0.4768150037
  - # 4
    frequency:    3.6054227818
  - # 5
    frequency:    3.6129609340
  - # 6
    frequency:    5.7869842888
  - # 7
    frequency:    5.7883858211
  - # 8
    frequency:    6.5816677825
  - # 9
    frequency:    9.5946139408
  - # 10
    frequency:    9.5968267047
  - # 11
    frequency:   11.8252365148
  - # 12
    frequency:   14.8569589971
  - # 13
    frequency:   15.3489358962
  - # 14
    frequency:   15.3505268686
  - # 15
    frequency:   18.2711190252

- q-position: [    0.0151515,    0.0000000,    0.0000000 ]
  distance:    0.0052304
  band:
  - # 1
    frequency:   -0.4767930855
  - # 2
    frequency:    0.2418948717
  - # 3
    frequency:    0.6067047157
  - # 4
    frequency:    3.6062684034
  - # 5
    frequency:    3.6231431146
  - # 6
    frequency:    5.7897939386
  - # 7
    frequency:    5.7929176047
  - # 8
    frequency:    6.5816377670
  - # 9
    frequency:    9.5864477818
  - # 10
    frequency:    9.5914451837
  - # 11
    frequency:   11.8197461089
  - # 12
    frequency:   14.8437594913
  - # 13
    frequency:   15.3446885392
  - # 14
    frequency:   15.3481435740
  - # 15
    frequency:   18.2667311970

- q-position: [    0.0202020,    0.0000000,    0.0000000 ]
  distance:    0.0069739
  band:
  - # 1
    frequency:   -0.5275139648
  - # 2
    frequency:    0.3220871448
  - # 3
    frequency:    0.7269912188
  - # 4
    frequency:    3.6074517255
  - # 5
    frequency:    3.6372401759
  - # 6
    frequency:    5.7936998142
  - # 7
    frequency:    5.7991790990
  - # 8
    frequency:    6.5815961861
  - # 9
    frequency:    9.5749960151
  - # 10
    frequency:    9.5839260675
  - # 11
    frequency:   11.8120867806
  - # 12
    frequency:   14.8255489494
  - # 13
    frequency:   15.3387695635
  - # 14
    frequency:   15.3446176285
  - # 15
    frequency:   18.2606221592

- q-position: [    0.0252525,    0.0000000,    0.0000000 ]
  distance:    0.0087174
  band:
  - # 1
    frequency:   -0.5644146280
  - # 2
    frequency:    0.4019007844
  - # 3
    frequency:    0.8423448604
  - # 4
    frequency:    3.6089723621
  - # 5
    frequency:    3.6551014707
  - # 6
    frequency:    5.7986748817
  - # 7
    frequency:    5.8070884119
  - # 8
    frequency:    6.5815429252
  - # 9
    frequency:    9.5602412411
  - # 10
    frequency:    9.5742844789
  - # 11
    frequency:   11.8022855881
  - # 12
    frequency:   14.8025649455
  - # 13
    frequency:   15.3312061513
  - # 14
    frequency:   15.3397910856
  - # 15
    frequency:   18.2528252040

- q-position: [    0.0303030,    0.0000000,    0.0000000 ]
  distance:    0.0104609
  band:
  - # 1
    frequency:   -0.5906729896
  - # 2
    frequency:    0.4812386985
  - # 3
    frequency:    0.9548673488
  - # 4
    frequency:    3.6108300469
  - # 5
    frequency:    3.6765430445
  - # 6
    frequency:    5.8046852192
  - # 7
    frequency:    5.8165418394
  - # 8
    frequency:    6.5814769914
  - # 9
    frequency:    9.5421636279
  - # 10
    frequency:    9.5625400175
  - # 11
    frequency:   11.7903770638
  - # 12
    frequency:   14.7750775865
  - # 13
    frequency:   15.3220330480
  - # 14
    frequency:   15.3334964546
  - # 15
    frequency:   18.2433822530

- q-position: [    0.0353535,    0.0000000,    0.0000000 ]
  distance:    0.0122044
  band:
  - # 1
    frequency:   -0.6080189367
  - # 2
    frequency:    0.5600023612
  - # 3
    frequency:    1.0655729437
  - # 4
    frequency:    3.6130248024
  - # 5
    frequency:    3.7013537463
  - # 6
    frequency:    5.8116906067
  - # 7
    frequency:    5.8274150578
  - # 8
    frequency:    6.5813957888
  - # 9
    frequency:    9.5207428995
  - # 10
    frequency:    9.5487168757
  - # 11
    frequency:   11.7764030246
  - # 12
    frequency:   14.7433747728
  - # 13
    frequency:   15.3112924105
  - # 14
    frequency:   15.3255715494
  - # 15
    frequency:   18.2323432250

- q-position: [    0.0404040,    0.0000000,    0.0000000 ]
  distance:    0.0139479
  band:
  - # 1
    frequency:   -0.6173577951
  - # 2
    frequency:    0.6380917059
  - # 3
    frequency:    1.1749314236
  - # 4
    frequency:    3.6155571432
  - # 5
    frequency:    3.7293016076
  - # 6
    frequency:    5.8196452102
  - # 7
    frequency:    5.8395645884
  - # 8
    frequency:    6.5812941274
  - # 9
    frequency:    9.4959608552
  - # 10
    frequency:    9.5328439799
  - # 11
    frequency:   11.7604123461
  - # 12
    frequency:   14.7077514345
  - # 13
    frequency:   15.2990336201
  - # 14
    frequency:   15.3158703126
  - # 15
    frequency:   18.2197652957

- q-position: [    0.0454545,    0.0000000,    0.0000000 ]
  distance:    0.0156913
  band:
  - # 1
    frequency:   -0.6190477885
  - # 2
    frequency:    0.7154051053
  - # 3
    frequency:    1.2831125466
  - # 4
    frequency:    3.6184283106
  - # 5
    frequency:    3.7601400997
  - # 6
    frequency:    5.8284983362
  - # 7
    frequency:    5.8528295500
  - # 8
    frequency:    6.5811629043
  - # 9
    frequency:    9.4678044747
  - # 10
    frequency:    9.5149551554
  - # 11
    frequency:   11.7424607013
  - # 12
    frequency:   14.6685028045
  - # 13
    frequency:   15.2853130625
  - # 14
    frequency:   15.3042695109
  - # 15
    frequency:   18.2057120666

- q-position: [    0.0505051,    0.0000000,    0.0000000 ]
  distance:    0.0174348
  band:
  - # 1
    frequency:   -0.6130268798
  - # 2
    frequency:    0.7918394450
  - # 3
    frequency:    1.3901109095
  - # 4
    frequency:    3.6216405357
  - # 5
    frequency:    3.7936139613
  - # 6
    frequency:    5.8381952388
  - # 7
    frequency:    5.8670337167
  - # 8
    frequency:    6.5809873809
  - # 9
    frequency:    9.4362696677
  - # 10
    frequency:    9.4950893163
  - # 11
    frequency:   11.7226102680
  - # 12
    frequency:   14.6259209943
  - # 13
    frequency:   15.2701938720
  - # 14
    frequency:   15.2906719934
  - # 15
    frequency:   18.1902526645

- q-position: [    0.0555556,    0.0000000,    0.0000000 ]
  distance:    0.0191783
  band:
  - # 1
    frequency:   -0.5988499276
  - # 2
    frequency:    0.8672902945
  - # 3
    frequency:    1.4958146976
  - # 4
    frequency:    3.6251973262
  - # 5
    frequency:    3.8294643939
  - # 6
    frequency:    5.8486779539
  - # 7
    frequency:    5.8819879109
  - # 8
    frequency:    6.5807449772
  - # 9
    frequency:    9.4013657299
  - # 10
    frequency:    9.4732906783
  - # 11
    frequency:   11.7009294088
  - # 12
    frequency:   14.5802938663
  - # 13
    frequency:   15.2537456426
  - # 14
    frequency:   15.2750074702
  - # 15
    frequency:   18.1734607938

- q-position: [    0.0606061,    0.0000000,    0.0000000 ]
  distance:    0.0209218
  band:
  - # 1
    frequency:   -0.5756441196
  - # 2
    frequency:    0.9416521758
  - # 3
    frequency:    1.6000449712
  - # 4
    frequency:    3.6291037731
  - # 5
    frequency:    3.8674335157
  - # 6
    frequency:    5.8598861399
  - # 7
    frequency:    5.8974927600
  - # 8
    frequency:    6.5804025019
  - # 9
    frequency:    9.3631205693
  - # 10
    frequency:    9.4496089959
  - # 11
    frequency:   11.6774923267
  - # 12
    frequency:   14.5319052605
  - # 13
    frequency:   15.2360441034
  - # 14
    frequency:   15.2572317076
  - # 15
    frequency:   18.1554137637

- q-position: [    0.0656566,    0.0000000,    0.0000000 ]
  distance:    0.0226653
  band:
  - # 1
    frequency:   -0.5419469635
  - # 2
    frequency:    1.0148189310
  - # 3
    frequency:    1.7025781773
  - # 4
    frequency:    3.6333668693
  - # 5
    frequency:    3.9072680492
  - # 6
    frequency:    5.8717579040
  - # 7
    frequency:    5.9133418504
  - # 8
    frequency:    6.5799127530
  - # 9
    frequency:    9.3215867567
  - # 10
    frequency:    9.4240998228
  - # 11
    frequency:   11.6523787020
  - # 12
    frequency:   14.4810358400
  - # 13
    frequency:   15.2171707597
  - # 14
    frequency:   15.2373248327
  - # 15
    frequency:   18.1361915151

- q-position: [    0.0707071,    0.0000000,    0.0000000 ]
  distance:    0.0244087
  band:
  - # 1
    frequency:   -0.4953040854
  - # 2
    frequency:    1.0866841830
  - # 3
    frequency:    1.8031585428
  - # 4
    frequency:    3.6379958340
  - # 5
    frequency:    3.9487222772
  - # 6
    frequency:    5.8842305928
  - # 7
    frequency:    5.9293252947
  - # 8
    frequency:    6.5792104582
  - # 9
    frequency:    9.2768484370
  - # 10
    frequency:    9.3968247965
  - # 11
    frequency:   11.6256733120
  - # 12
    frequency:   14.4279640423
  - # 13
    frequency:   15.1972124987
  - # 14
    frequency:   15.2152892261
  - # 15
    frequency:   18.1158756679

- q-position: [    0.0757576,    0.0000000,    0.0000000 ]
  distance:    0.0261522
  band:
  - # 1
    frequency:   -0.4312177195
  - # 2
    frequency:    1.1571418885
  - # 3
    frequency:    1.9015040799
  - # 4
    frequency:    3.6430024318
  - # 5
    frequency:    3.9915603385
  - # 6
    frequency:    5.8972415313
  - # 7
    frequency:    5.9452337086
  - # 8
    frequency:    6.5782075850
  - # 9
    frequency:    9.2290291027
  - # 10
    frequency:    9.3678519475
  - # 11
    frequency:   11.5974656387
  - # 12
    frequency:   14.3729668152
  - # 13
    frequency:   15.1762611610
  - # 14
    frequency:   15.1911472960
  - # 15
    frequency:   18.0945486118

- q-position: [    0.0808081,    0.0000000,    0.0000000 ]
  distance:    0.0278957
  band:
  - # 1
    frequency:   -0.3396432467
  - # 2
    frequency:    1.2260869770
  - # 3
    frequency:    1.9973084050
  - # 4
    frequency:    3.6484012762
  - # 5
    frequency:    4.0355579481
  - # 6
    frequency:    5.9107286940
  - # 7
    frequency:    5.9608625458
  - # 8
    frequency:    6.5767881567
  - # 9
    frequency:    9.1783001741
  - # 10
    frequency:    9.3372560335
  - # 11
    frequency:   11.5678494653
  - # 12
    frequency:   14.3163199589
  - # 13
    frequency:   15.1544130773
  - # 14
    frequency:   15.1649393020
  - # 15
    frequency:   18.0722926583

- q-position: [    0.0858586,    0.0000000,    0.0000000 ]
  distance:    0.0296392
  band:
  - # 1
    frequency:   -0.1827830805
  - # 2
    frequency:    1.2934160726
  - # 3
    frequency:    2.0902397047
  - # 4
    frequency:    3.6542101030
  - # 5
    frequency:    4.0805036260
  - # 6
    frequency:    5.9246312946
  - # 7
    frequency:    5.9760166837
  - # 8
    frequency:    6.5748028559
  - # 9
    frequency:    9.1248902354
  - # 10
    frequency:    9.3051189005
  - # 11
    frequency:   11.5369224620
  - # 12
    frequency:   14.2582979993
  - # 13
    frequency:   15.1317685713
  - # 14
    frequency:   15.1367213107
  - # 15
    frequency:   18.0491892696

- q-position: [    0.0909091,    0.0000000,    0.0000000 ]
  distance:    0.0313827
  band:
  - # 1
    frequency:    0.2448561309
  - # 2
    frequency:    1.3590282939
  - # 3
    frequency:    2.1799376804
  - # 4
    frequency:    3.6604499987
  - # 5
    frequency:    4.1261995020
  - # 6
    frequency:    5.9388902863
  - # 7
    frequency:    5.9905150748
  - # 8
    frequency:    6.5720639054
  - # 9
    frequency:    9.0690946380
  - # 10
    frequency:    9.2715298703
  - # 11
    frequency:   11.5047857621
  - # 12
    frequency:   14.1991735811
  - # 13
    frequency:   15.1065633156
  - # 14
    frequency:   15.1084314290
  - # 15
    frequency:   18.0253183775

- q-position: [    0.0959596,    0.0000000,    0.0000000 ]
  distance:    0.0331262
  band:
  - # 1
    frequency:    0.4058395195
  - # 2
    frequency:    1.4228261307
  - # 3
    frequency:    2.2660090096
  - # 4
    frequency:    3.6671455647
  - # 5
    frequency:    4.1724617430
  - # 6
    frequency:    5.9534487612
  - # 7
    frequency:    6.0041952003
  - # 8
    frequency:    6.5683409785
  - # 9
    frequency:    9.0112849847
  - # 10
    frequency:    9.2365861567
  - # 11
    frequency:   11.4715435231
  - # 12
    frequency:   14.1392164245
  - # 13
    frequency:   15.0745475273
  - # 14
    frequency:   15.0845083373
  - # 15
    frequency:   18.0007577997

- q-position: [    0.1010101,    0.0000000,    0.0000000 ]
  distance:    0.0348696
  band:
  - # 1
    frequency:    0.5298333268
  - # 2
    frequency:    1.4847163946
  - # 3
    frequency:    2.3480216912
  - # 4
    frequency:    3.6743249990
  - # 5
    frequency:    4.2191206239
  - # 6
    frequency:    5.9682522474
  - # 7
    frequency:    6.0169169919
  - # 8
    frequency:    6.5633592034
  - # 9
    frequency:    8.9519177291
  - # 10
    frequency:    9.2003933109
  - # 11
    frequency:   11.4373024723
  - # 12
    frequency:   14.0786919152
  - # 13
    frequency:   15.0407668279
  - # 14
    frequency:   15.0601082919
  - # 15
    frequency:   17.9755827590

- q-position: [    0.1060606,    0.0000000,    0.0000000 ]
  distance:    0.0366131
  band:
  - # 1
    frequency:    0.6385888505
  - # 2
    frequency:    1.5446112448
  - # 3
    frequency:    2.4254985715
  - # 4
    frequency:    3.6820200726
  - # 5
    frequency:    4.2660202431
  - # 6
    frequency:    5.9832488976
  - # 7
    frequency:    6.0285658352
  - # 8
    frequency:    6.5568006784
  - # 9
    frequency:    8.8915407847
  - # 10
    frequency:    9.1630656951
  - # 11
    frequency:   11.4021714288
  - # 12
    frequency:   14.0178594250
  - # 13
    frequency:   15.0053233767
  - # 14
    frequency:   15.0353419786
  - # 15
    frequency:   17.9498655040

- q-position: [    0.1111111,    0.0000000,    0.0000000 ]
  distance:    0.0383566
  band:
  - # 1
    frequency:    0.7386622545
  - # 2
    frequency:    1.6024292892
  - # 3
    frequency:    2.4979103325
  - # 4
    frequency:    3.6902659801
  - # 5
    frequency:    4.3130178673
  - # 6
    frequency:    5.9983895689
  - # 7
    frequency:    6.0390542461
  - # 8
    frequency:    6.5483112574
  - # 9
    frequency:    8.8307966329
  - # 10
    frequency:    9.1247269862
  - # 11
    frequency:   11.3662607988
  - # 12
    frequency:   13.9569704747
  - # 13
    frequency:   14.9683273566
  - # 14
    frequency:   15.0103211305
  - # 15
    frequency:   17.9236750297

- q-position: [    0.1161616,    0.0000000,    0.0000000 ]
  distance:    0.0401001
  band:
  - # 1
    frequency:    0.8329556974
  - # 2
    frequency:    1.6580967615
  - # 3
    frequency:    2.5646682883
  - # 4
    frequency:    3.6991010421
  - # 5
    frequency:    4.3599828874
  - # 6
    frequency:    6.0136277943
  - # 7
    frequency:    6.0483218020
  - # 8
    frequency:    6.5375146406
  - # 9
    frequency:    8.7704200414
  - # 10
    frequency:    9.0855107044
  - # 11
    frequency:   11.3296820384
  - # 12
    frequency:   13.8962668566
  - # 13
    frequency:   14.9298958514
  - # 14
    frequency:   14.9851578660
  - # 15
    frequency:   17.8970768896

- q-position: [    0.1212121,    0.0000000,    0.0000000 ]
  distance:    0.0418436
  band:
  - # 1
    frequency:    0.9229879923
  - # 2
    frequency:    1.7115487767
  - # 3
    frequency:    2.6251174598
  - # 4
    frequency:    3.7085662417
  - # 5
    frequency:    4.4067953815
  - # 6
    frequency:    6.0289196483
  - # 7
    frequency:    6.0563328827
  - # 8
    frequency:    6.5240358830
  - # 9
    frequency:    8.7112282755
  - # 10
    frequency:    9.0455607657
  - # 11
    frequency:   11.2925470811
  - # 12
    frequency:   13.8359788368
  - # 13
    frequency:   14.8901518448
  - # 14
    frequency:   14.9599640125
  - # 15
    frequency:   17.8701330919

- q-position: [    0.1262626,    0.0000000,    0.0000000 ]
  distance:    0.0435870
  band:
  - # 1
    frequency:    1.0096288104
  - # 2
    frequency:    1.7627306595
  - # 3
    frequency:    2.6785306023
  - # 4
    frequency:    3.7187045807
  - # 5
    frequency:    4.4533443141
  - # 6
    frequency:    6.0442235095
  - # 7
    frequency:    6.0630716660
  - # 8
    frequency:    6.5075361478
  - # 9
    frequency:    8.6541018333
  - # 10
    frequency:    9.0050320508
  - # 11
    frequency:   11.2549677285
  - # 12
    frequency:   13.7763235508
  - # 13
    frequency:   14.8492233357
  - # 14
    frequency:   14.9348504209
  - # 15
    frequency:   17.8429020661

- q-position: [    0.1313131,    0.0000000,    0.0000000 ]
  distance:    0.0453305
  band:
  - # 1
    frequency:    1.0934005857
  - # 2
    frequency:    1.8115993423
  - # 3
    frequency:    2.7241041678
  - # 4
    frequency:    3.7295602476
  - # 5
    frequency:    4.4995254604
  - # 6
    frequency:    6.0594997258
  - # 7
    frequency:    6.0685335296
  - # 8
    frequency:    6.4877597038
  - # 9
    frequency:    8.5999545190
  - # 10
    frequency:    8.9640909815
  - # 11
    frequency:   11.2170550059
  - # 12
    frequency:   13.7175036916
  - # 13
    frequency:   14.8072425634
  - # 14
    frequency:   14.9099262801
  - # 15
    frequency:   17.8154386908

- q-position: [    0.1363636,    0.0000000,    0.0000000 ]
  distance:    0.0470740
  band:
  - # 1
    frequency:    1.1746221043
  - # 2
    frequency:    1.8581248180
  - # 3
    frequency:    2.7609575815
  - # 4
    frequency:    3.7411776009
  - # 5
    frequency:    4.5452392231
  - # 6
    frequency:    6.0727114114
  - # 7
    frequency:    6.0747101895
  - # 8
    frequency:    6.4645927178
  - # 9
    frequency:    8.5496932903
  - # 10
    frequency:    8.9229160909
  - # 11
    frequency:   11.1789184894
  - # 12
    frequency:   13.6597065711
  - # 13
    frequency:   14.7643453375
  - # 14
    frequency:   14.8852984377
  - # 15
    frequency:   17.7877943666

- q-position: [    0.1414141,    0.0000000,    0.0000000 ]
  distance:    0.0488175
  band:
  - # 1
    frequency:    1.2534833075
  - # 2
    frequency:    1.9022916256
  - # 3
    frequency:    2.7881377178
  - # 4
    frequency:    3.7535999797
  - # 5
    frequency:    4.5903886063
  - # 6
    frequency:    6.0755746001
  - # 7
    frequency:    6.0898178304
  - # 8
    frequency:    6.4381315942
  - # 9
    frequency:    8.5041707126
  - # 10
    frequency:    8.8816985704
  - # 11
    frequency:   11.1406656121
  - # 12
    frequency:   13.6031036123
  - # 13
    frequency:   14.7206704675
  - # 14
    frequency:   14.8610707357
  - # 15
    frequency:   17.7600171237

- q-position: [    0.1464646,    0.0000000,    0.0000000 ]
  distance:    0.0505610
  band:
  - # 1
    frequency:    1.3300859002
  - # 2
    frequency:    1.9441003382
  - # 3
    frequency:    2.8046310310
  - # 4
    frequency:    3.7668683732
  - # 5
    frequency:    4.6348776975
  - # 6
    frequency:    6.0770358148
  - # 7
    frequency:    6.1047860409
  - # 8
    frequency:    6.4087571350
  - # 9
    frequency:    8.4641355049
  - # 10
    frequency:    8.8406427688
  - # 11
    frequency:   11.1024009635
  - # 12
    frequency:   13.5478503017
  - # 13
    frequency:   14.6763592846
  - # 14
    frequency:   14.8373433714
  - # 15
    frequency:   17.7321517521

- q-position: [    0.1515152,    0.0000000,    0.0000000 ]
  distance:    0.0523045
  band:
  - # 1
    frequency:    1.4044643629
  - # 2
    frequency:    1.9835690085
  - # 3
    frequency:    2.8093863691
  - # 4
    frequency:    3.7810199889
  - # 5
    frequency:    4.6786110660
  - # 6
    frequency:    6.0769007833
  - # 7
    frequency:    6.1195780461
  - # 8
    frequency:    6.3772102986
  - # 9
    frequency:    8.4301885807
  - # 10
    frequency:    8.7999666131
  - # 11
    frequency:   11.0642255948
  - # 12
    frequency:   13.4940866065
  - # 13
    frequency:   14.6315552498
  - # 14
    frequency:   14.8142122928
  - # 15
    frequency:   17.7042399431

- q-position: [    0.1565657,    0.0000000,    0.0000000 ]
  distance:    0.0540479
  band:
  - # 1
    frequency:    1.4765931194
  - # 2
    frequency:    2.0207345190
  - # 3
    frequency:    2.8013520700
  - # 4
    frequency:    3.7960867792
  - # 5
    frequency:    4.7214944627
  - # 6
    frequency:    6.0747959093
  - # 7
    frequency:    6.1341562417
  - # 8
    frequency:    6.3446641178
  - # 9
    frequency:    8.4027520993
  - # 10
    frequency:    8.7599019117
  - # 11
    frequency:   11.0262363479
  - # 12
    frequency:   13.4419378309
  - # 13
    frequency:   14.5864036410
  - # 14
    frequency:   14.7917686372
  - # 15
    frequency:   17.6763204348

- q-position: [    0.1616162,    0.0000000,    0.0000000 ]
  distance:    0.0557914
  band:
  - # 1
    frequency:    1.5463802053
  - # 2
    frequency:    2.0556537736
  - # 3
    frequency:    2.7795317033
  - # 4
    frequency:    3.8120939959
  - # 5
    frequency:    4.7634370800
  - # 6
    frequency:    6.0700851651
  - # 7
    frequency:    6.1484815244
  - # 8
    frequency:    6.3127741279
  - # 9
    frequency:    8.3820568048
  - # 10
    frequency:    8.7206944939
  - # 11
    frequency:   10.9885252253
  - # 12
    frequency:   13.3915158681
  - # 13
    frequency:   14.5410513117
  - # 14
    frequency:   14.7700982251
  - # 15
    frequency:   17.6484291533

- q-position: [    0.1666667,    0.0000000,    0.0000000 ]
  distance:    0.0575349
  band:
  - # 1
    frequency:    1.6136419454
  - # 2
    frequency:    2.0884046601
  - # 3
    frequency:    2.7430648801
  - # 4
    frequency:    3.8290588516
  - # 5
    frequency:    4.8043553675
  - # 6
    frequency:    6.0618431017
  - # 7
    frequency:    6.1625126501
  - # 8
    frequency:    6.2836400642
  - # 9
    frequency:    8.3681489090
  - # 10
    frequency:    8.6826041251
  - # 11
    frequency:   10.9511788155
  - # 12
    frequency:   13.3429207777
  - # 13
    frequency:   14.4956465174
  - # 14
    frequency:   14.7492811158
  - # 15
    frequency:   17.6205993457

- q-position: [    0.1717172,    0.0000000,    0.0000000 ]
  distance:    0.0592784
  band:
  - # 1
    frequency:    1.6780423464
  - # 2
    frequency:    2.1190867165
  - # 3
    frequency:    2.6913464865
  - # 4
    frequency:    3.8469893703
  - # 5
    frequency:    4.8441780387
  - # 6
    frequency:    6.0490540666
  - # 7
    frequency:    6.1762056602
  - # 8
    frequency:    6.2595158107
  - # 9
    frequency:    8.3609134604
  - # 10
    frequency:    8.6459041326
  - # 11
    frequency:   10.9142777898
  - # 12
    frequency:   13.2962426072
  - # 13
    frequency:   14.4503388068
  - # 14
    frequency:   14.7293912352
  - # 15
    frequency:   17.5928617025

- q-position: [    0.1767677,    0.0000000,    0.0000000 ]
  distance:    0.0610219
  band:
  - # 1
    frequency:    1.7389541458
  - # 2
    frequency:    2.1478214319
  - # 3
    frequency:    2.6242205748
  - # 4
    frequency:    3.8658835052
  - # 5
    frequency:    4.8828515013
  - # 6
    frequency:    6.0311786304
  - # 7
    frequency:    6.1895134300
  - # 8
    frequency:    6.2421400735
  - # 9
    frequency:    8.3601081319
  - # 10
    frequency:    8.6108806625
  - # 11
    frequency:   10.8778964820
  - # 12
    frequency:   13.2515633604
  - # 13
    frequency:   14.4052789804
  - # 14
    frequency:   14.7104960814
  - # 15
    frequency:   17.5652444674

- q-position: [    0.1818182,    0.0000000,    0.0000000 ]
  distance:    0.0627653
  band:
  - # 1
    frequency:    1.7951211532
  - # 2
    frequency:    2.1747521289
  - # 3
    frequency:    2.5423593151
  - # 4
    frequency:    3.8857285936
  - # 5
    frequency:    4.9203446345
  - # 6
    frequency:    6.0087412140
  - # 7
    frequency:    6.2023853993
  - # 8
    frequency:    6.2320505874
  - # 9
    frequency:    8.3654005265
  - # 10
    frequency:    8.5778314823
  - # 11
    frequency:   10.8421025596
  - # 12
    frequency:   13.2089590081
  - # 13
    frequency:   14.3606191259
  - # 14
    frequency:   14.6926565151
  - # 15
    frequency:   17.5377735355

- q-position: [    0.1868687,    0.0000000,    0.0000000 ]
  distance:    0.0645088
  band:
  - # 1
    frequency:    1.8437527332
  - # 2
    frequency:    2.2000433844
  - # 3
    frequency:    2.4481846706
  - # 4
    frequency:    3.9065012003
  - # 5
    frequency:    4.9566517418
  - # 6
    frequency:    5.9832299841
  - # 7
    frequency:    6.2147675522
  - # 8
    frequency:    6.2286067393
  - # 9
    frequency:    8.3764031839
  - # 10
    frequency:    8.5470642391
  - # 11
    frequency:   10.8069567928
  - # 12
    frequency:   13.1685014244
  - # 13
    frequency:   14.3165127475
  - # 14
    frequency:   14.6759266387
  - # 15
    frequency:   17.5104725436

- q-position: [    0.1919192,    0.0000000,    0.0000000 ]
  distance:    0.0662523
  band:
  - # 1
    frequency:    1.8778703178
  - # 2
    frequency:    2.2238799670
  - # 3
    frequency:    2.3485015197
  - # 4
    frequency:    3.9281673834
  - # 5
    frequency:    4.9917927143
  - # 6
    frequency:    5.9563867271
  - # 7
    frequency:    6.2266027207
  - # 8
    frequency:    6.2306540129
  - # 9
    frequency:    8.3927025955
  - # 10
    frequency:    8.5188940844
  - # 11
    frequency:   10.7725129229
  - # 12
    frequency:   13.1302601292
  - # 13
    frequency:   14.2731150173
  - # 14
    frequency:   14.6603537658
  - # 15
    frequency:   17.4833629547

- q-position: [    0.1969697,    0.0000000,    0.0000000 ]
  distance:    0.0679958
  band:
  - # 1
    frequency:    1.8794397304
  - # 2
    frequency:    2.2464652867
  - # 3
    frequency:    2.2612970076
  - # 4
    frequency:    3.9506833867
  - # 5
    frequency:    5.0258099248
  - # 6
    frequency:    5.9296340122
  - # 7
    frequency:    6.2370867625
  - # 8
    frequency:    6.2378312776
  - # 9
    frequency:    8.4138807254
  - # 10
    frequency:    8.4936405901
  - # 11
    frequency:   10.7388176301
  - # 12
    frequency:   13.0943037069
  - # 13
    frequency:   14.2305831870
  - # 14
    frequency:   14.6459784824
  - # 15
    frequency:   17.4564641412

- q-position: [    0.2020202,    0.0000000,    0.0000000 ]
  distance:    0.0697393
  band:
  - # 1
    frequency:    1.8179324734
  - # 2
    frequency:    2.2170467709
  - # 3
    frequency:    2.2680193749
  - # 4
    frequency:    3.9739967462
  - # 5
    frequency:    5.0587619947
  - # 6
    frequency:    5.9039168118
  - # 7
    frequency:    6.2470285559
  - # 8
    frequency:    6.2483922752
  - # 9
    frequency:    8.4395291973
  - # 10
    frequency:    8.4716239008
  - # 11
    frequency:   10.7059105962
  - # 12
    frequency:   13.0607007634
  - # 13
    frequency:   14.1890772149
  - # 14
    frequency:   14.6328347979
  - # 15
    frequency:   17.4297934737

- q-position: [    0.2070707,    0.0000000,    0.0000000 ]
  distance:    0.0714828
  band:
  - # 1
    frequency:    1.6873607348
  - # 2
    frequency:    2.2214478308
  - # 3
    frequency:    2.2887764274
  - # 4
    frequency:    3.9980477668
  - # 5
    frequency:    5.0907151284
  - # 6
    frequency:    5.8797778185
  - # 7
    frequency:    6.2582250566
  - # 8
    frequency:    6.2598019367
  - # 9
    frequency:    8.4531601105
  - # 10
    frequency:    8.4692572780
  - # 11
    frequency:   10.6738246563
  - # 12
    frequency:   13.0295202781
  - # 13
    frequency:   14.1487606714
  - # 14
    frequency:   14.6209503820
  - # 15
    frequency:   17.4033664193

- q-position: [    0.2121212,    0.0000000,    0.0000000 ]
  distance:    0.0732262
  band:
  - # 1
    frequency:    1.5095967041
  - # 2