nqpoint: 300    
npath: 3      
segment_nqpoint:
- 100
- 100
- 100
labels:
- [ 'G', 'M' ]
- [ 'M', 'K' ]
- [ 'K', 'G' ]
reciprocal_lattice:
- [   0.29896012,   0.17260471,   0.00000000 ] # a*
- [   0.00000000,   0.34520941,   0.00000000 ] # b*
- [   0.00000000,   0.00000000,   0.04364641 ] # c*
natom: 5      
lattice:
- [     3.344927747099203,     0.000000000000000,     0.000000000000000 ] # a
- [    -1.672463873549602,     2.896792402808132,     0.000000000000000 ] # b
- [     0.000000000000000,     0.000000000000000,    22.911390549552912 ] # c
points:
- symbol: C # 1
  coordinates: [  0.000000000000000,  0.000000000000000,  0.503039540987740 ]
  mass: 12.010700
- symbol: F # 2
  coordinates: [  0.666666984744047,  0.333332985985145,  0.392817711370889 ]
  mass: 18.998403
- symbol: O # 3
  coordinates: [  0.333332985432215,  0.666666983183674,  0.607182288629111 ]
  mass: 15.999400
- symbol: Zr # 4
  coordinates: [  0.333332985432215,  0.666666983183674,  0.449720138161986 ]
  mass: 91.224000
- symbol: Zr # 5
  coordinates: [  0.666666984744047,  0.333332985985145,  0.565583936168727 ]
  mass: 91.224000

phonon:
- q-position: [    0.0000000,    0.0000000,    0.0000000 ]
  distance:    0.0000000
  band:
  - # 1
    frequency:   -0.0000106646
  - # 2
    frequency:   -0.0000001818
  - # 3
    frequency:    0.0000096143
  - # 4
    frequency:    2.9962712520
  - # 5
    frequency:    2.9962712520
  - # 6
    frequency:    5.6482201662
  - # 7
    frequency:    5.6482201662
  - # 8
    frequency:    6.6778344228
  - # 9
    frequency:    9.6584718098
  - # 10
    frequency:    9.6584718098
  - # 11
    frequency:   11.8216232005
  - # 12
    frequency:   14.8325832240
  - # 13
    frequency:   14.8325832240
  - # 14
    frequency:   14.8491529849
  - # 15
    frequency:   18.1741076959

- q-position: [    0.0050505,    0.0000000,    0.0000000 ]
  distance:    0.0017435
  band:
  - # 1
    frequency:   -0.0045177182
  - # 2
    frequency:   -0.0009742214
  - # 3
    frequency:    0.0679577668
  - # 4
    frequency:    2.9971644801
  - # 5
    frequency:    2.9988914671
  - # 6
    frequency:    5.6480519311
  - # 7
    frequency:    5.6493738797
  - # 8
    frequency:    6.6775413827
  - # 9
    frequency:    9.6562778152
  - # 10
    frequency:    9.6570081999
  - # 11
    frequency:   11.8206893601
  - # 12
    frequency:   14.8147049985
  - # 13
    frequency:   14.8320016529
  - # 14
    frequency:   14.8635385193
  - # 15
    frequency:   18.1734652056

- q-position: [    0.0101010,    0.0000000,    0.0000000 ]
  distance:    0.0034870
  band:
  - # 1
    frequency:   -0.0073513358
  - # 2
    frequency:   -0.0038909167
  - # 3
    frequency:    0.1362868671
  - # 4
    frequency:    2.9998403138
  - # 5
    frequency:    3.0067158497
  - # 6
    frequency:    5.6475493961
  - # 7
    frequency:    5.6528249357
  - # 8
    frequency:    6.6766663760
  - # 9
    frequency:    9.6496983454
  - # 10
    frequency:    9.6526211805
  - # 11
    frequency:   11.8178902945
  - # 12
    frequency:   14.7871692318
  - # 13
    frequency:   14.8302594598
  - # 14
    frequency:   14.8806103802
  - # 15
    frequency:   18.1715397351

- q-position: [    0.0151515,    0.0000000,    0.0000000 ]
  distance:    0.0052304
  band:
  - # 1
    frequency:   -0.0087237356
  - # 2
    frequency:   -0.0042691411
  - # 3
    frequency:    0.2053373213
  - # 4
    frequency:    3.0042872167
  - # 5
    frequency:    3.0196375624
  - # 6
    frequency:    5.6467190792
  - # 7
    frequency:    5.6585429986
  - # 8
    frequency:    6.6752217711
  - # 9
    frequency:    9.6387411360
  - # 10
    frequency:    9.6453221905
  - # 11
    frequency:   11.8132333562
  - # 12
    frequency:   14.7556206019
  - # 13
    frequency:   14.8273641887
  - # 14
    frequency:   14.8947663437
  - # 15
    frequency:   18.1683372829

- q-position: [    0.0202020,    0.0000000,    0.0000000 ]
  distance:    0.0069739
  band:
  - # 1
    frequency:   -0.0154306310
  - # 2
    frequency:    0.0149804417
  - # 3
    frequency:    0.2754185722
  - # 4
    frequency:    3.0104860153
  - # 5
    frequency:    3.0374848106
  - # 6
    frequency:    5.6455718691
  - # 7
    frequency:    5.6664772370
  - # 8
    frequency:    6.6732282707
  - # 9
    frequency:    9.6234197313
  - # 10
    frequency:    9.6351303242
  - # 11
    frequency:   11.8067307506
  - # 12
    frequency:   14.7203968755
  - # 13
    frequency:   14.8233283572
  - # 14
    frequency:   14.9057392364
  - # 15
    frequency:   18.1638678351

- q-position: [    0.0252525,    0.0000000,    0.0000000 ]
  distance:    0.0087174
  band:
  - # 1
    frequency:   -0.0239535616
  - # 2
    frequency:    0.0294158164
  - # 3
    frequency:    0.3467839007
  - # 4
    frequency:    3.0184099869
  - # 5
    frequency:    3.0600294740
  - # 6
    frequency:    5.6441230600
  - # 7
    frequency:    5.6765559186
  - # 8
    frequency:    6.6707150321
  - # 9
    frequency:    9.6037544785
  - # 10
    frequency:    9.6220723744
  - # 11
    frequency:   11.7983994644
  - # 12
    frequency:   14.6815854211
  - # 13
    frequency:   14.8181693723
  - # 14
    frequency:   14.9135401750
  - # 15
    frequency:   18.1581453463

- q-position: [    0.0303030,    0.0000000,    0.0000000 ]
  distance:    0.0104609
  band:
  - # 1
    frequency:   -0.0342191185
  - # 2
    frequency:    0.0463557314
  - # 3
    frequency:    0.4196194707
  - # 4
    frequency:    3.0280249980
  - # 5
    frequency:    3.0869978143
  - # 6
    frequency:    5.6423923970
  - # 7
    frequency:    5.6886858508
  - # 8
    frequency:    6.6677198081
  - # 9
    frequency:    9.5797739547
  - # 10
    frequency:    9.6061828918
  - # 11
    frequency:   11.7882611680
  - # 12
    frequency:   14.6392456760
  - # 13
    frequency:   14.8119094150
  - # 14
    frequency:   14.9182357459
  - # 15
    frequency:   18.1511877102

- q-position: [    0.0353535,    0.0000000,    0.0000000 ]
  distance:    0.0122044
  band:
  - # 1
    frequency:   -0.0461391210
  - # 2
    frequency:    0.0661148065
  - # 3
    frequency:    0.4940381771
  - # 4
    frequency:    3.0392897038
  - # 5
    frequency:    3.1180822060
  - # 6
    frequency:    5.6404041286
  - # 7
    frequency:    5.7027516810
  - # 8
    frequency:    6.6642890746
  - # 9
    frequency:    9.5515168623
  - # 10
    frequency:    9.5875042604
  - # 11
    frequency:   11.7763420944
  - # 12
    frequency:   14.5934439733
  - # 13
    frequency:   14.8045752934
  - # 14
    frequency:   14.9199127150
  - # 15
    frequency:   18.1430167167

- q-position: [    0.0404040,    0.0000000,    0.0000000 ]
  distance:    0.0139479
  band:
  - # 1
    frequency:   -0.0596111114
  - # 2
    frequency:    0.0887580887
  - # 3
    frequency:    0.5700777987
  - # 4
    frequency:    3.0521558223
  - # 5
    frequency:    3.1529528974
  - # 6
    frequency:    5.6381870595
  - # 7
    frequency:    5.7186150810
  - # 8
    frequency:    6.6604780929
  - # 9
    frequency:    9.5190344375
  - # 10
    frequency:    9.5660867870
  - # 11
    frequency:   11.7626728986
  - # 12
    frequency:   14.5442628761
  - # 13
    frequency:   14.7961982652
  - # 14
    frequency:   14.9186681105
  - # 15
    frequency:   18.1336579913

- q-position: [    0.0454545,    0.0000000,    0.0000000 ]
  distance:    0.0156913
  band:
  - # 1
    frequency:   -0.0745187210
  - # 2
    frequency:    0.1142906127
  - # 3
    frequency:    0.6477025180
  - # 4
    frequency:    3.0665684927
  - # 5
    frequency:    3.1912689927
  - # 6
    frequency:    5.6357746007
  - # 7
    frequency:    5.7361138606
  - # 8
    frequency:    6.6563508266
  - # 9
    frequency:    9.4823934298
  - # 10
    frequency:    9.5419888039
  - # 11
    frequency:   11.7472884997
  - # 12
    frequency:   14.4918044921
  - # 13
    frequency:   14.7868138330
  - # 14
    frequency:   14.9146052012
  - # 15
    frequency:   18.1231409149

- q-position: [    0.0505051,    0.0000000,    0.0000000 ]
  distance:    0.0174348
  band:
  - # 1
    frequency:   -0.0907319137
  - # 2
    frequency:    0.1426931696
  - # 3
    frequency:    0.7268066782
  - # 4
    frequency:    3.0824667272
  - # 5
    frequency:    3.2326880959
  - # 6
    frequency:    5.6332048084
  - # 7
    frequency:    5.7550610835
  - # 8
    frequency:    6.6519795968
  - # 9
    frequency:    9.4416797190
  - # 10
    frequency:    9.5152767826
  - # 11
    frequency:   11.7302279112
  - # 12
    frequency:   14.4361917486
  - # 13
    frequency:   14.7764615131
  - # 14
    frequency:   14.9078313776
  - # 15
    frequency:   18.1114985191

- q-position: [    0.0555556,    0.0000000,    0.0000000 ]
  distance:    0.0191783
  band:
  - # 1
    frequency:   -0.1081071396
  - # 2
    frequency:    0.1739324521
  - # 3
    frequency:    0.8072196770
  - # 4
    frequency:    3.0997839594
  - # 5
    frequency:    3.2768743184
  - # 6
    frequency:    5.6305204062
  - # 7
    frequency:    5.7752443080
  - # 8
    frequency:    6.6474443028
  - # 9
    frequency:    9.3970026452
  - # 10
    frequency:    9.4860254577
  - # 11
    frequency:   11.7115340634
  - # 12
    frequency:   14.3775687257
  - # 13
    frequency:   14.7651845798
  - # 14
    frequency:   14.8984568318
  - # 15
    frequency:   18.0987673554

- q-position: [    0.0606061,    0.0000000,    0.0000000 ]
  distance:    0.0209218
  band:
  - # 1
    frequency:   -0.1264874480
  - # 2
    frequency:    0.2079645301
  - # 3
    frequency:    0.8887110645
  - # 4
    frequency:    3.1184486887
  - # 5
    frequency:    3.3235045736
  - # 6
    frequency:    5.6277687823
  - # 7
    frequency:    5.7964251320
  - # 8
    frequency:    6.6428309703
  - # 9
    frequency:    9.3485001374
  - # 10
    frequency:    9.4543179584
  - # 11
    frequency:   11.6912536219
  - # 12
    frequency:   14.3161004173
  - # 13
    frequency:   14.7530297890
  - # 14
    frequency:   14.8865936580
  - # 15
    frequency:   18.0849873340

- q-position: [    0.0656566,    0.0000000,    0.0000000 ]
  distance:    0.0226653
  band:
  - # 1
    frequency:   -0.1457026174
  - # 2
    frequency:    0.2447361535
  - # 3
    frequency:    0.9709951416
  - # 4
    frequency:    3.1383852158
  - # 5
    frequency:    3.3722732558
  - # 6
    frequency:    5.6250019544
  - # 7
    frequency:    5.8183393124
  - # 8
    frequency:    6.6382292961
  - # 9
    frequency:    9.2963447242
  - # 10
    frequency:    9.4202459454
  - # 11
    frequency:   11.6694368059
  - # 12
    frequency:   14.2519720706
  - # 13
    frequency:   14.7400470821
  - # 14
    frequency:   14.8723552174
  - # 15
    frequency:   18.0702015324

- q-position: [    0.0707071,    0.0000000,    0.0000000 ]
  distance:    0.0244087
  band:
  - # 1
    frequency:   -0.1655693697
  - # 2
    frequency:    0.2841852643
  - # 3
    frequency:    1.0537345911
  - # 4
    frequency:    3.1595144591
  - # 5
    frequency:    3.4228955042
  - # 6
    frequency:    5.6222764938
  - # 7
    frequency:    5.8406978246
  - # 8
    frequency:    6.6337287640
  - # 9
    frequency:    9.2407505086
  - # 10
    frequency:    9.3839097519
  - # 11
    frequency:   11.6461372110
  - # 12
    frequency:   14.1853881786
  - # 13
    frequency:   14.7262892746
  - # 14
    frequency:   14.8558556896
  - # 15
    frequency:   18.0544559718

- q-position: [    0.0757576,    0.0000000,    0.0000000 ]
  distance:    0.0261522
  band:
  - # 1
    frequency:   -0.1858917489
  - # 2
    frequency:    0.3262412147
  - # 3
    frequency:    1.1365428784
  - # 4
    frequency:    3.1817548389
  - # 5
    frequency:    3.4751093075
  - # 6
    frequency:    5.6196533998
  - # 7
    frequency:    5.8631893390
  - # 8
    frequency:    6.6294128116
  - # 9
    frequency:    9.1819811641
  - # 10
    frequency:    9.3454185255
  - # 11
    frequency:   11.6214116400
  - # 12
    frequency:   14.1165711738
  - # 13
    frequency:   14.7118117306
  - # 14
    frequency:   14.8372097637
  - # 15
    frequency:   18.0377993612

- q-position: [    0.0808081,    0.0000000,    0.0000000 ]
  distance:    0.0278957
  band:
  - # 1
    frequency:   -0.2064617692
  - # 2
    frequency:    0.3708248946
  - # 3
    frequency:    1.2189853232
  - # 4
    frequency:    3.2050232130
  - # 5
    frequency:    3.5286767168
  - # 6
    frequency:    5.6171979170
  - # 7
    frequency:    5.8854846731
  - # 8
    frequency:    6.6253504813
  - # 9
    frequency:    9.1203589637
  - # 10
    frequency:    9.3048903703
  - # 11
    frequency:   11.5953199413
  - # 12
    frequency:   14.0457598638
  - # 13
    frequency:   14.6966720287
  - # 14
    frequency:   14.8165324368
  - # 15
    frequency:   18.0202828114

- q-position: [    0.0858586,    0.0000000,    0.0000000 ]
  distance:    0.0296392
  band:
  - # 1
    frequency:   -0.2270604748
  - # 2
    frequency:    0.4178488511
  - # 3
    frequency:    1.3005788684
  - # 4
    frequency:    3.2292358451
  - # 5
    frequency:    3.5833844129
  - # 6
    frequency:    5.6149792857
  - # 7
    frequency:    5.9072437861
  - # 8
    frequency:    6.6215850540
  - # 9
    frequency:    9.0562747656
  - # 10
    frequency:    9.2624524861
  - # 11
    frequency:   11.5679248606
  - # 12
    frequency:   13.9732076484
  - # 13
    frequency:   14.6809296197
  - # 14
    frequency:   14.7939388912
  - # 15
    frequency:   18.0019595201

- q-position: [    0.0909091,    0.0000000,    0.0000000 ]
  distance:    0.0313827
  band:
  - # 1
    frequency:   -0.2474596262
  - # 2
    frequency:    0.4672174389
  - # 3
    frequency:    1.3807906737
  - # 4
    frequency:    3.2543093887
  - # 5
    frequency:    3.6390438369
  - # 6
    frequency:    5.6130704162
  - # 7
    frequency:    5.9281257424
  - # 8
    frequency:    6.6181194329
  - # 9
    frequency:    8.9901987237
  - # 10
    frequency:    9.2182413043
  - # 11
    frequency:   11.5392919031
  - # 12
    frequency:   13.8991805597
  - # 13
    frequency:   14.6646454819
  - # 14
    frequency:   14.7695444313
  - # 15
    frequency:   17.9828844318

- q-position: [    0.0959596,    0.0000000,    0.0000000 ]
  distance:    0.0331262
  band:
  - # 1
    frequency:   -0.2674243294
  - # 2
    frequency:    0.5188270130
  - # 3
    frequency:    1.4590357574
  - # 4
    frequency:    3.2801618645
  - # 5
    frequency:    3.6954910414
  - # 6
    frequency:    5.6115474794
  - # 7
    frequency:    5.9478017009
  - # 8
    frequency:    6.6148986331
  - # 9
    frequency:    8.9226912407
  - # 10
    frequency:    9.1724026183
  - # 11
    frequency:   11.5094892071
  - # 12
    frequency:   13.8239551728
  - # 13
    frequency:   14.6478817752
  - # 14
    frequency:   14.7434644603
  - # 15
    frequency:   17.9631138755

- q-position: [    0.1010101,    0.0000000,    0.0000000 ]
  distance:    0.0348696
  band:
  - # 1
    frequency:   -0.2867170953
  - # 2
    frequency:    0.5725661695
  - # 3
    frequency:    1.5346740130
  - # 4
    frequency:    3.3067136161
  - # 5
    frequency:    3.7525863608
  - # 6
    frequency:    5.6104894021
  - # 7
    frequency:    5.9659703495
  - # 8
    frequency:    6.6117907105
  - # 9
    frequency:    8.8544132926
  - # 10
    frequency:    9.1250917089
  - # 11
    frequency:   11.4785874273
  - # 12
    frequency:   13.7478164380
  - # 13
    frequency:   14.6307014984
  - # 14
    frequency:   14.7158144808
  - # 15
    frequency:   17.9427051860

- q-position: [    0.1060606,    0.0000000,    0.0000000 ]
  distance:    0.0366131
  band:
  - # 1
    frequency:   -0.3051040804
  - # 2
    frequency:    0.6283160351
  - # 3
    frequency:    1.6070070709
  - # 4
    frequency:    3.3338882226
  - # 5
    frequency:    3.8102139352
  - # 6
    frequency:    5.6099772605
  - # 7
    frequency:    5.9823743609
  - # 8
    frequency:    6.6085688041
  - # 9
    frequency:    8.7861346856
  - # 10
    frequency:    9.0764734638
  - # 11
    frequency:   11.4466596258
  - # 12
    frequency:   13.6710554897
  - # 13
    frequency:   14.6131681524
  - # 14
    frequency:   14.6867101074
  - # 15
    frequency:   17.9217163134

- q-position: [    0.1111111,    0.0000000,    0.0000000 ]
  distance:    0.0383566
  band:
  - # 1
    frequency:   -0.3223646753
  - # 2
    frequency:    0.6859506027
  - # 3
    frequency:    1.6752756684
  - # 4
    frequency:    3.3616133545
  - # 5
    frequency:    3.8682810533
  - # 6
    frequency:    5.6100935597
  - # 7
    frequency:    5.9968156170
  - # 8
    frequency:    6.6048984600
  - # 9
    frequency:    8.7187380552
  - # 10
    frequency:    9.0267224923
  - # 11
    frequency:   11.4137811668
  - # 12
    frequency:   13.5939674889
  - # 13
    frequency:   14.5953454122
  - # 14
    frequency:   14.6562670802
  - # 15
    frequency:   17.9002054267

- q-position: [    0.1161616,    0.0000000,    0.0000000 ]
  distance:    0.0401001
  band:
  - # 1
    frequency:   -0.3383062553
  - # 2
    frequency:    0.7453371161
  - # 3
    frequency:    1.7386584718
  - # 4
    frequency:    3.3898215550
  - # 5
    frequency:    3.9267172099
  - # 6
    frequency:    5.6109213910
  - # 7
    frequency:    6.0091664852
  - # 8
    frequency:    6.6003356256
  - # 9
    frequency:    8.6532155371
  - # 10
    frequency:    8.9760232365
  - # 11
    frequency:   11.3800296127
  - # 12
    frequency:   13.5168495588
  - # 13
    frequency:   14.5772968106
  - # 14
    frequency:   14.6246012710
  - # 15
    frequency:   17.8782305169

- q-position: [    0.1212121,    0.0000000,    0.0000000 ]
  distance:    0.0418436
  band:
  - # 1
    frequency:   -0.3527869195
  - # 2
    frequency:    0.8063365057
  - # 3
    frequency:    1.7962736788
  - # 4
    frequency:    3.4184509329
  - # 5
    frequency:    3.9854727086
  - # 6
    frequency:    5.6125434572
  - # 7
    frequency:    6.0193746559
  - # 8
    frequency:    6.5943411213
  - # 9
    frequency:    8.5906542519
  - # 10
    frequency:    8.9245700809
  - # 11
    frequency:   11.3454846162
  - # 12
    frequency:   13.4399988683
  - # 13
    frequency:   14.5590854364
  - # 14
    frequency:   14.5918286760
  - # 15
    frequency:   17.8558490072

- q-position: [    0.1262626,    0.0000000,    0.0000000 ]
  distance:    0.0435870
  band:
  - # 1
    frequency:   -0.3657505620
  - # 2
    frequency:    0.8688038798
  - # 3
    frequency:    1.8471852661
  - # 4
    frequency:    3.4474457536
  - # 5
    frequency:    4.0445165880
  - # 6
    frequency:    5.6150409565
  - # 7
    frequency:    6.0274600369
  - # 8
    frequency:    6.5863164619
  - # 9
    frequency:    8.5322065156
  - # 10
    frequency:    8.8725674638
  - # 11
    frequency:   11.3102278073
  - # 12
    frequency:   13.3637109160
  - # 13
    frequency:   14.5407736491
  - # 14
    frequency:   14.5580653918
  - # 15
    frequency:   17.8331173748

- q-position: [    0.1313131,    0.0000000,    0.0000000 ]
  distance:    0.0453305
  band:
  - # 1
    frequency:   -0.3772807932
  - # 2
    frequency:    0.9325890789
  - # 3
    frequency:    1.8904164833
  - # 4
    frequency:    3.4767569163
  - # 5
    frequency:    4.1038336291
  - # 6
    frequency:    5.6184923156
  - # 7
    frequency:    6.0335036468
  - # 8
    frequency:    6.5756632339
  - # 9
    frequency:    8.4790417235
  - # 10
    frequency:    8.8202299926
  - # 11
    frequency:   11.2743426699
  - # 12
    frequency:   13.2882780564
  - # 13
    frequency:   14.5224228136
  - # 14
    frequency:   14.5234275725
  - # 15
    frequency:   17.8100907908

- q-position: [    0.1363636,    0.0000000,    0.0000000 ]
  distance:    0.0470740
  band:
  - # 1
    frequency:   -0.3876829471
  - # 2
    frequency:    0.9975373021
  - # 3
    frequency:    1.9249742179
  - # 4
    frequency:    3.5063423050
  - # 5
    frequency:    4.1634202308
  - # 6
    frequency:    5.6229717649
  - # 7
    frequency:    6.0376297983
  - # 8
    frequency:    6.5618636582
  - # 9
    frequency:    8.4322799219
  - # 10
    frequency:    8.7677825667
  - # 11
    frequency:   11.2379144088
  - # 12
    frequency:   13.2139883013
  - # 13
    frequency:   14.4880313682
  - # 14
    frequency:   14.5040930547
  - # 15
    frequency:   17.7868227840

- q-position: [    0.1414141,    0.0000000,    0.0000000 ]
  distance:    0.0488175
  band:
  - # 1
    frequency:   -0.3976057195
  - # 2
    frequency:    1.0634898167
  - # 3
    frequency:    1.9498893203
  - # 4
    frequency:    3.5361670040
  - # 5
    frequency:    4.2232790293
  - # 6
    frequency:    5.6285477497
  - # 7
    frequency:    6.0399836137
  - # 8
    frequency:    6.5445738440
  - # 9
    frequency:    8.3929123604
  - # 10
    frequency:    8.7154605100
  - # 11
    frequency:   11.2010298050
  - # 12
    frequency:   13.1411244152
  - # 13
    frequency:   14.4519928472
  - # 14
    frequency:   14.4858430362
  - # 15
    frequency:   17.7633649339

- q-position: [    0.1464646,    0.0000000,    0.0000000 ]
  distance:    0.0505610
  band:
  - # 1
    frequency:   -0.4082125768
  - # 2
    frequency:    1.1302847607
  - # 3
    frequency:    1.9642801195
  - # 4
    frequency:    3.5662033710
  - # 5
    frequency:    4.2834123087
  - # 6
    frequency:    5.6352811741
  - # 7
    frequency:    6.0407059801
  - # 8
    frequency:    6.5237149366
  - # 9
    frequency:    8.3617206296
  - # 10
    frequency:    8.6635097140
  - # 11
    frequency:   11.1637770621
  - # 12
    frequency:   13.0699633092
  - # 13
    frequency:   14.4154279069
  - # 14
    frequency:   14.4677297627
  - # 15
    frequency:   17.7397665967

- q-position: [    0.1515152,    0.0000000,    0.0000000 ]
  distance:    0.0523045
  band:
  - # 1
    frequency:   -0.4213998527
  - # 2
    frequency:    1.1977580498
  - # 3
    frequency:    1.9674495084
  - # 4
    frequency:    3.5964309597
  - # 5
    frequency:    4.3438144672
  - # 6
    frequency:    5.6432234808
  - # 7
    frequency:    6.0399077679
  - # 8
    frequency:    6.4995434786
  - # 9
    frequency:    8.3392104791
  - # 10
    frequency:    8.6121867880
  - # 11
    frequency:   11.1262456465
  - # 12
    frequency:   13.0007757199
  - # 13
    frequency:   14.3784521795
  - # 14
    frequency:   14.4498084091
  - # 15
    frequency:   17.7160746691

- q-position: [    0.1565657,    0.0000000,    0.0000000 ]
  distance:    0.0540479
  band:
  - # 1
    frequency:   -0.4400194140
  - # 2
    frequency:    1.2657443962
  - # 3
    frequency:    1.9590302822
  - # 4
    frequency:    3.6268362906
  - # 5
    frequency:    4.4044640410
  - # 6
    frequency:    5.6524145751
  - # 7
    frequency:    6.0376452088
  - # 8
    frequency:    6.4726835709
  - # 9
    frequency:    8.3255757332
  - # 10
    frequency:    8.5617592104
  - # 11
    frequency:   11.0885261276
  - # 12
    frequency:   12.9338261446
  - # 13
    frequency:   14.3411809415
  - # 14
    frequency:   14.4321321754
  - # 15
    frequency:   17.6923333921

- q-position: [    0.1616162,    0.0000000,    0.0000000 ]
  distance:    0.0557914
  band:
  - # 1
    frequency:   -0.4679898435
  - # 2
    frequency:    1.3340784475
  - # 3
    frequency:    1.9391977731
  - # 4
    frequency:    3.6574124709
  - # 5
    frequency:    4.4653159674
  - # 6
    frequency:    5.6628806137
  - # 7
    frequency:    6.0338996291
  - # 8
    frequency:    6.4441102357
  - # 9
    frequency:    8.3207006423
  - # 10
    frequency:    8.5125054638
  - # 11
    frequency:   11.0507100236
  - # 12
    frequency:   12.8693729903
  - # 13
    frequency:   14.3037290382
  - # 14
    frequency:   14.4147521702
  - # 15
    frequency:   17.6685841993

- q-position: [    0.1666667,    0.0000000,    0.0000000 ]
  distance:    0.0575349
  band:
  - # 1
    frequency:   -0.5101036794
  - # 2
    frequency:    1.4025960436
  - # 3
    frequency:    1.9089675863
  - # 4
    frequency:    3.6881586658
  - # 5
    frequency:    4.5262948245
  - # 6
    frequency:    5.6746316920
  - # 7
    frequency:    6.0285680427
  - # 8
    frequency:    6.4150822508
  - # 9
    frequency:    8.3241981371
  - # 10
    frequency:    8.4647151295
  - # 11
    frequency:   11.0128896612
  - # 12
    frequency:   12.8076688729
  - # 13
    frequency:   14.2662108376
  - # 14
    frequency:   14.3977173219
  - # 15
    frequency:   17.6448656090

- q-position: [    0.1717172,    0.0000000,    0.0000000 ]
  distance:    0.0592784
  band:
  - # 1
    frequency:   -0.5713617044
  - # 2
    frequency:    1.4711355900
  - # 3
    frequency:    1.8705717642
  - # 4
    frequency:    3.7190794329
  - # 5
    frequency:    4.5872896672
  - # 6
    frequency:    5.6876594832
  - # 7
    frequency:    6.0214761876
  - # 8
    frequency:    6.3870284009
  - # 9
    frequency:    8.3354720274
  - # 10
    frequency:    8.4186888998
  - # 11
    frequency:   10.9751580562
  - # 12
    frequency:   12.7489609975
  - # 13
    frequency:   14.2287402290
  - # 14
    frequency:   14.3810743186
  - # 15
    frequency:   17.6212131629

- q-position: [    0.1767677,    0.0000000,    0.0000000 ]
  distance:    0.0610219
  band:
  - # 1
    frequency:   -0.6558584714
  - # 2
    frequency:    1.5395395345
  - # 3
    frequency:    1.8278216716
  - # 4
    frequency:    3.7501839320
  - # 5
    frequency:    4.6481507905
  - # 6
    frequency:    5.7019349086
  - # 7
    frequency:    6.0124289276
  - # 8
    frequency:    6.3613925608
  - # 9
    frequency:    8.3537873424
  - # 10
    frequency:    8.3747384468
  - # 11
    frequency:   10.9376088189
  - # 12
    frequency:   12.6934915299
  - # 13
    frequency:   14.1914306872
  - # 14
    frequency:   14.3648675766
  - # 15
    frequency:   17.5976594118

- q-position: [    0.1818182,    0.0000000,    0.0000000 ]
  distance:    0.0627653
  band:
  - # 1
    frequency:   -0.7654777194
  - # 2
    frequency:    1.6076559276
  - # 3
    frequency:    1.7861891598
  - # 4
    frequency:    3.7814850295
  - # 5
    frequency:    4.7086883590
  - # 6
    frequency:    5.7174059459
  - # 7
    frequency:    6.0013053818
  - # 8
    frequency:    6.3394485934
  - # 9
    frequency:    8.3331860640
  - # 10
    frequency:    8.3783351862
  - # 11
    frequency:   10.9003360878
  - # 12
    frequency:   12.6414978658
  - # 13
    frequency:   14.1543954241
  - # 14
    frequency:   14.3491392363
  - # 15
    frequency:   17.5742339471

- q-position: [    0.1868687,    0.0000000,    0.0000000 ]
  distance:    0.0645088
  band:
  - # 1
    frequency:   -0.8988132251
  - # 2
    frequency:    1.6753400389
  - # 3
    frequency:    1.7521795617
  - # 4
    frequency:    3.8129983203
  - # 5
    frequency:    4.7686724428
  - # 6
    frequency:    5.7339957226
  - # 7
    frequency:    5.9881785924
  - # 8
    frequency:    6.3221172272
  - # 9
    frequency:    8.2943639652
  - # 10
    frequency:    8.4082840220
  - # 11
    frequency:   10.8634344856
  - # 12
    frequency:   12.5932126862
  - # 13
    frequency:   14.1177476561
  - # 14
    frequency:   14.3339291866
  - # 15
    frequency:   17.5509634784

- q-position: [    0.1919192,    0.0000000,    0.0000000 ]
  distance:    0.0662523
  band:
  - # 1
    frequency:   -1.0509178403
  - # 2
    frequency:    1.7318276928
  - # 3
    frequency:    1.7424559916
  - # 4
    frequency:    3.8447410937
  - # 5
    frequency:    4.8278336982
  - # 6
    frequency:    5.7516010771
  - # 7
    frequency:    5.9734039662
  - # 8
    frequency:    6.3098452000
  - # 9
    frequency:    8.2586130964
  - # 10
    frequency:    8.4428149857
  - # 11
    frequency:   10.8269990852
  - # 12
    frequency:   12.5488636827
  - # 13
    frequency:   14.0816010175
  - # 14
    frequency:   14.3192751156
  - # 15
    frequency:   17.5278719550

- q-position: [    0.1969697,    0.0000000,    0.0000000 ]
  distance:    0.0679958
  band:
  - # 1
    frequency:   -1.2143779767
  - # 2
    frequency:    1.7290101066
  - # 3
    frequency:    1.8088783707
  - # 4
    frequency:    3.8767312721
  - # 5
    frequency:    4.8858638340
  - # 6
    frequency:    5.7700918093
  - # 7
    frequency:    5.9576194537
  - # 8
    frequency:    6.3026020214
  - # 9
    frequency:    8.2262812834
  - # 10
    frequency:    8.4811427628
  - # 11
    frequency:   10.7911253647
  - # 12
    frequency:   12.5086728216
  - # 13
    frequency:   14.0460701590
  - # 14
    frequency:   14.3052125858
  - # 15
    frequency:   17.5049807314

- q-position: [    0.2020202,    0.0000000,    0.0000000 ]
  distance:    0.0697393
  band:
  - # 1
    frequency:   -1.3812846806
  - # 2
    frequency:    1.7447529274
  - # 3
    frequency:    1.8744937537
  - # 4
    frequency:    3.9089863526
  - # 5
    frequency:    4.9424151479
  - # 6
    frequency:    5.7893108761
  - # 7
    frequency:    5.9416552508
  - # 8
    frequency:    6.2999908336
  - # 9
    frequency:    8.1977205146
  - # 10
    frequency:    8.5225254059
  - # 11
    frequency:   10.7559091165
  - # 12
    frequency:   12.4728550035
  - # 13
    frequency:   14.0112715755
  - # 14
    frequency:   14.2917751341
  - # 15
    frequency:   17.4823087726

- q-position: [    0.2070707,    0.0000000,    0.0000000 ]
  distance:    0.0714828
  band:
  - # 1
    frequency:   -1.5448820370
  - # 2
    frequency:    1.7778467492
  - # 3
    frequency:    1.9392021083
  - # 4
    frequency:    3.9415223808
  - # 5
    frequency:    4.9970989017
  - # 6
    frequency:    5.8090757951
  - # 7
    frequency:    5.9264109277
  - # 8
    frequency:    6.3014077298
  - # 9
    frequency:    8.1732831489
  - # 10
    frequency:    8.5662667873
  - # 11
    frequency:   10.7214462647
  - # 12
    frequency:   12.4416159654
  - # 13
    frequency:   13.9773247174
  - # 14
    frequency:   14.2789943925
  - # 15
    frequency:   17.4598728999

- q-position: [    0.2121212,    0.0000000,    0.0000000 ]
  distance:    0.0732262
  band:
  - # 1
    frequency:   -1.7001884576
  - # 2