nqpoint: 300    
npath: 3      
segment_nqpoint:
- 100
- 100
- 100
labels:
- [ 'G', 'M' ]
- [ 'M', 'K' ]
- [ 'K', 'G' ]
reciprocal_lattice:
- [   0.29819809,   0.17216474,   0.00000000 ] # a*
- [   0.00000000,   0.34432949,   0.00000000 ] # b*
- [   0.00000000,   0.00000000,   0.03599585 ] # c*
natom: 8      
lattice:
- [     3.353475592930446,     0.000000000000000,     0.000000000000000 ] # a
- [    -1.676737796465223,     2.904195054442588,     0.000000000000000 ] # b
- [     0.000000000000000,     0.000000000000000,    27.780982502515634 ] # c
points:
- symbol: C # 1
  coordinates: [  0.000000000000000,  0.000000000000000,  0.494248025613518 ]
  mass: 12.010700
- symbol: C # 2
  coordinates: [  0.333332985432215,  0.666666983183674,  0.632699707636164 ]
  mass: 12.010700
- symbol: N # 3
  coordinates: [  0.333332985432215,  0.666666983183674,  0.587830084868570 ]
  mass: 14.006700
- symbol: O # 4
  coordinates: [  0.333332985432215,  0.666666983183674,  0.676037375597316 ]
  mass: 15.999400
- symbol: O # 5
  coordinates: [  0.666666984744047,  0.333332985985145,  0.323962624402684 ]
  mass: 15.999400
- symbol: P # 6
  coordinates: [  0.666666984744047,  0.333332985985145,  0.377759493460670 ]
  mass: 30.973762
- symbol: Sc # 7
  coordinates: [  0.333332985432215,  0.666666983183674,  0.450991838409271 ]
  mass: 44.955912
- symbol: Sc # 8
  coordinates: [  0.666666984744047,  0.333332985985145,  0.539924929933249 ]
  mass: 44.955912

phonon:
- q-position: [    0.0000000,    0.0000000,    0.0000000 ]
  distance:    0.0000000
  band:
  - # 1
    frequency:   -0.9901391862
  - # 2
    frequency:   -0.9901391862
  - # 3
    frequency:   -0.0000019146
  - # 4
    frequency:    0.0000009265
  - # 5
    frequency:    0.0000020032
  - # 6
    frequency:    2.4120552267
  - # 7
    frequency:    2.4120552267
  - # 8
    frequency:    4.9651096846
  - # 9
    frequency:    5.0797653287
  - # 10
    frequency:    5.0797653287
  - # 11
    frequency:    5.4771702585
  - # 12
    frequency:    5.4771702585
  - # 13
    frequency:    6.7337616949
  - # 14
    frequency:    6.7337616949
  - # 15
    frequency:    8.0732877499
  - # 16
    frequency:   11.4464269571
  - # 17
    frequency:   12.6768467409
  - # 18
    frequency:   12.6768467409
  - # 19
    frequency:   17.6904992068
  - # 20
    frequency:   17.6904992068
  - # 21
    frequency:   17.9820176384
  - # 22
    frequency:   34.1669210324
  - # 23
    frequency:   38.8350134364
  - # 24
    frequency:   69.4341647860

- q-position: [    0.0050505,    0.0000000,    0.0000000 ]
  distance:    0.0017390
  band:
  - # 1
    frequency:   -0.9893600224
  - # 2
    frequency:   -0.9875976494
  - # 3
    frequency:   -0.0237817573
  - # 4
    frequency:    0.0731448697
  - # 5
    frequency:    0.1100187633
  - # 6
    frequency:    2.4126421166
  - # 7
    frequency:    2.4127585422
  - # 8
    frequency:    4.9641828920
  - # 9
    frequency:    5.0787806999
  - # 10
    frequency:    5.0795836906
  - # 11
    frequency:    5.4775022662
  - # 12
    frequency:    5.4790833769
  - # 13
    frequency:    6.7338675281
  - # 14
    frequency:    6.7339429444
  - # 15
    frequency:    8.0736218458
  - # 16
    frequency:   11.4454014998
  - # 17
    frequency:   12.6768803869
  - # 18
    frequency:   12.6787620851
  - # 19
    frequency:   17.6901191613
  - # 20
    frequency:   17.6905554241
  - # 21
    frequency:   17.9812012247
  - # 22
    frequency:   34.1666380799
  - # 23
    frequency:   38.8349480062
  - # 24
    frequency:   69.4325956794

- q-position: [    0.0101010,    0.0000000,    0.0000000 ]
  distance:    0.0034781
  band:
  - # 1
    frequency:   -0.9870424987
  - # 2
    frequency:   -0.9800570363
  - # 3
    frequency:   -0.0462935559
  - # 4
    frequency:    0.1463920851
  - # 5
    frequency:    0.2199627562
  - # 6
    frequency:    2.4144268927
  - # 7
    frequency:    2.4148644151
  - # 8
    frequency:    4.9614320825
  - # 9
    frequency:    5.0758572343
  - # 10
    frequency:    5.0790401448
  - # 11
    frequency:    5.4784971618
  - # 12
    frequency:    5.4847680086
  - # 13
    frequency:    6.7341871443
  - # 14
    frequency:    6.7344871443
  - # 15
    frequency:    8.0746242307
  - # 16
    frequency:   11.4423287917
  - # 17
    frequency:   12.6769816766
  - # 18
    frequency:   12.6845028272
  - # 19
    frequency:   17.6889451470
  - # 20
    frequency:   17.6907239320
  - # 21
    frequency:   17.9787893554
  - # 22
    frequency:   34.1657899355
  - # 23
    frequency:   38.8347519320
  - # 24
    frequency:   69.4278933230

- q-position: [    0.0151515,    0.0000000,    0.0000000 ]
  distance:    0.0052171
  band:
  - # 1
    frequency:   -0.9832441796
  - # 2
    frequency:   -0.9677465479
  - # 3
    frequency:   -0.0679331719
  - # 4
    frequency:    0.2198301612
  - # 5
    frequency:    0.3300202442
  - # 6
    frequency:    2.4174838658
  - # 7
    frequency:    2.4183607614
  - # 8
    frequency:    4.9569376874
  - # 9
    frequency:    5.0710862608
  - # 10
    frequency:    5.0781386859
  - # 11
    frequency:    5.4801516610
  - # 12
    frequency:    5.4940681447
  - # 13
    frequency:    6.7347268599
  - # 14
    frequency:    6.7353956343
  - # 15
    frequency:    8.0762951944
  - # 16
    frequency:   11.4372197121
  - # 17
    frequency:   12.6771516644
  - # 18
    frequency:   12.6940531907
  - # 19
    frequency:   17.6868745765
  - # 20
    frequency:   17.6910043006
  - # 21
    frequency:   17.9748950941
  - # 22
    frequency:   34.1643787353
  - # 23
    frequency:   38.8344258613
  - # 24
    frequency:   69.4200725804

- q-position: [    0.0202020,    0.0000000,    0.0000000 ]
  distance:    0.0069562
  band:
  - # 1
    frequency:   -0.9780535763
  - # 2
    frequency:   -0.9509790736
  - # 3
    frequency:   -0.0880209576
  - # 4
    frequency:    0.2935217154
  - # 5
    frequency:    0.4399770851
  - # 6
    frequency:    2.4219434975
  - # 7
    frequency:    2.4232279003
  - # 8
    frequency:    4.9508084772
  - # 9
    frequency:    5.0646208302
  - # 10
    frequency:    5.0768856093
  - # 11
    frequency:    5.4824606085
  - # 12
    frequency:    5.5067480632
  - # 13
    frequency:    6.7354970966
  - # 14
    frequency:    6.7366706000
  - # 15
    frequency:    8.0786352121
  - # 16
    frequency:   11.4300920305
  - # 17
    frequency:   12.6773921028
  - # 18
    frequency:   12.7073871818
  - # 19
    frequency:   17.6837338496
  - # 20
    frequency:   17.6913958179
  - # 21
    frequency:   17.9697094837
  - # 22
    frequency:   34.1624080265
  - # 23
    frequency:   38.8339708697
  - # 24
    frequency:   69.4091581374

- q-position: [    0.0252525,    0.0000000,    0.0000000 ]
  distance:    0.0086952
  band:
  - # 1
    frequency:   -0.9715802405
  - # 2
    frequency:   -0.9300697825
  - # 3
    frequency:   -0.1059216960
  - # 4
    frequency:    0.3674946384
  - # 5
    frequency:    0.5494263408
  - # 6
    frequency:    2.4280021551
  - # 7
    frequency:    2.4294392377
  - # 8
    frequency:    4.9431506612
  - # 9
    frequency:    5.0566783836
  - # 10
    frequency:    5.0752890022
  - # 11
    frequency:    5.4854174217
  - # 12
    frequency:    5.5225203234
  - # 13
    frequency:    6.7365122328
  - # 14
    frequency:    6.7383150029
  - # 15
    frequency:    8.0816449315
  - # 16
    frequency:   11.4209699105
  - # 17
    frequency:   12.6777054360
  - # 18
    frequency:   12.7244689967
  - # 19
    frequency:   17.6792765183
  - # 20
    frequency:   17.6918974975
  - # 21
    frequency:   17.9635033530
  - # 22
    frequency:   34.1598827488
  - # 23
    frequency:   38.8333884553
  - # 24
    frequency:   69.3951843708

- q-position: [    0.0303030,    0.0000000,    0.0000000 ]
  distance:    0.0104342
  band:
  - # 1
    frequency:   -0.9639431855
  - # 2
    frequency:   -0.9052591812
  - # 3
    frequency:   -0.1209250039
  - # 4
    frequency:    0.4417374065
  - # 5
    frequency:    0.6577515546
  - # 6
    frequency:    2.4359352652
  - # 7
    frequency:    2.4369622172
  - # 8
    frequency:    4.9340359703
  - # 9
    frequency:    5.0475452326
  - # 10
    frequency:    5.0733580954
  - # 11
    frequency:    5.4890146520
  - # 12
    frequency:    5.5410728556
  - # 13
    frequency:    6.7377904183
  - # 14
    frequency:    6.7403324847
  - # 15
    frequency:    8.0853251492
  - # 16
    frequency:   11.4098832959
  - # 17
    frequency:   12.6780947888
  - # 18
    frequency:   12.7452535103
  - # 19
    frequency:   17.6731852684
  - # 20
    frequency:   17.6925080888
  - # 21
    frequency:   17.9566252978
  - # 22
    frequency:   34.1568092076
  - # 23
    frequency:   38.8326805305
  - # 24
    frequency:   69.3781951677

- q-position: [    0.0353535,    0.0000000,    0.0000000 ]
  distance:    0.0121733
  band:
  - # 1
    frequency:   -0.9552594454
  - # 2
    frequency:   -0.8766599490
  - # 3
    frequency:   -0.1321667794
  - # 4
    frequency:    0.5161986603
  - # 5
    frequency:    0.7641525705
  - # 6
    frequency:    2.4457595332
  - # 7
    frequency:    2.4461128652
  - # 8
    frequency:    4.9234762880
  - # 9
    frequency:    5.0375800564
  - # 10
    frequency:    5.0711025279
  - # 11
    frequency:    5.4932446097
  - # 12
    frequency:    5.5620903664
  - # 13
    frequency:    6.7393533704
  - # 14
    frequency:    6.7427272489
  - # 15
    frequency:    8.0896767734
  - # 16
    frequency:   11.3968672429
  - # 17
    frequency:   12.6785639512
  - # 18
    frequency:   12.7696867902
  - # 19
    frequency:   17.6650825273
  - # 20
    frequency:   17.6932260889
  - # 21
    frequency:   17.9494910244
  - # 22
    frequency:   34.1531950409
  - # 23
    frequency:   38.8318494128
  - # 24
    frequency:   69.3582436941

- q-position: [    0.0404040,    0.0000000,    0.0000000 ]
  distance:    0.0139123
  band:
  - # 1
    frequency:   -0.9456344084
  - # 2
    frequency:   -0.8442336332
  - # 3
    frequency:   -0.1384982822
  - # 4
    frequency:    0.5907903641
  - # 5
    frequency:    0.8676818436
  - # 6
    frequency:    2.4557905999
  - # 7
    frequency:    2.4590154333
  - # 8
    frequency:    4.9114127064
  - # 9
    frequency:    5.0272100769
  - # 10
    frequency:    5.0685315837
  - # 11
    frequency:    5.4981000008
  - # 12
    frequency:    5.5852685100
  - # 13
    frequency:    6.7412261706
  - # 14
    frequency:    6.7455039212
  - # 15
    frequency:    8.0947007691
  - # 16
    frequency:   11.3819612546
  - # 17
    frequency:   12.6791173570
  - # 18
    frequency:   12.7977065789
  - # 19
    frequency:   17.6545546877
  - # 20
    frequency:   17.6940497577
  - # 21
    frequency:   17.9425590678
  - # 22
    frequency:   34.1490491785
  - # 23
    frequency:   38.8308978120
  - # 24
    frequency:   69.3353921153

- q-position: [    0.0454545,    0.0000000,    0.0000000 ]
  distance:    0.0156513
  band:
  - # 1
    frequency:   -0.9351550097
  - # 2
    frequency:   -0.8077906948
  - # 3
    frequency:   -0.1382068808
  - # 4
    frequency:    0.6653932558
  - # 5
    frequency:    0.9672768120
  - # 6
    frequency:    2.4670132739
  - # 7
    frequency:    2.4752459818
  - # 8
    frequency:    4.8977268165
  - # 9
    frequency:    5.0169113575
  - # 10
    frequency:    5.0656534539
  - # 11
    frequency:    5.5035745220
  - # 12
    frequency:    5.6103215676
  - # 13
    frequency:    6.7434370847
  - # 14
    frequency:    6.7486673927
  - # 15
    frequency:    8.1003980804
  - # 16
    frequency:   11.3652086622
  - # 17
    frequency:   12.6797600555
  - # 18
    frequency:   12.8292427054
  - # 19
    frequency:   17.6411919094
  - # 20
    frequency:   17.6949771342
  - # 21
    frequency:   17.9362909218
  - # 22
    frequency:   34.1443817948
  - # 23
    frequency:   38.8298288165
  - # 24
    frequency:   69.3097112701

- q-position: [    0.0505051,    0.0000000,    0.0000000 ]
  distance:    0.0173904
  band:
  - # 1
    frequency:   -0.9238861308
  - # 2
    frequency:   -0.7670027197
  - # 3
    frequency:   -0.1282826743
  - # 4
    frequency:    0.7398630732
  - # 5
    frequency:    1.0617873844
  - # 6
    frequency:    2.4793858269
  - # 7
    frequency:    2.4955316729
  - # 8
    frequency:    4.8822777571
  - # 9
    frequency:    5.0071679760
  - # 10
    frequency:    5.0624745738
  - # 11
    frequency:    5.5096633719
  - # 12
    frequency:    5.6369853601
  - # 13
    frequency:    6.7460174223
  - # 14
    frequency:    6.7522226492
  - # 15
    frequency:    8.1067695265
  - # 16
    frequency:   11.3466560825
  - # 17
    frequency:   12.6804976743
  - # 18
    frequency:   12.8642173999
  - # 19
    frequency:   17.6246383122
  - # 20
    frequency:   17.6960060547
  - # 21
    frequency:   17.9311007714
  - # 22
    frequency:   34.1392042554
  - # 23
    frequency:   38.8286458772
  - # 24
    frequency:   69.2812803003

- q-position: [    0.0555556,    0.0000000,    0.0000000 ]
  distance:    0.0191294
  band:
  - # 1
    frequency:   -0.9118698681
  - # 2
    frequency:   -0.7214196110
  - # 3
    frequency:   -0.1016602725
  - # 4
    frequency:    0.8140362125
  - # 5
    frequency:    1.1500090909
  - # 6
    frequency:    2.4928691681
  - # 7
    frequency:    2.5207052256
  - # 8
    frequency:    4.8649565172
  - # 9
    frequency:    4.9984168120
  - # 10
    frequency:    5.0589990747
  - # 11
    frequency:    5.5163636415
  - # 12
    frequency:    5.6650171715
  - # 13
    frequency:    6.7490014507
  - # 14
    frequency:    6.7561745900
  - # 15
    frequency:    8.1138156695
  - # 16
    frequency:   11.3263529624
  - # 17
    frequency:   12.6813363731
  - # 18
    frequency:   12.9025455026
  - # 19
    frequency:   17.6046391007
  - # 20
    frequency:   17.6971341718
  - # 21
    frequency:   17.9273082848
  - # 22
    frequency:   34.1335290579
  - # 23
    frequency:   38.8273527900
  - # 24
    frequency:   69.2501862387

- q-position: [    0.0606061,    0.0000000,    0.0000000 ]
  distance:    0.0208685
  band:
  - # 1
    frequency:   -0.8991269041
  - # 2
    frequency:   -0.6704944589
  - # 3
    frequency:    0.0197048173
  - # 4
    frequency:    0.8877339155
  - # 5
    frequency:    1.2307376125
  - # 6
    frequency:    2.5074293158
  - # 7
    frequency:    2.5516550613
  - # 8
    frequency:    4.8457350734
  - # 9
    frequency:    4.9909989885
  - # 10
    frequency:    5.0552283776
  - # 11
    frequency:    5.5236745606
  - # 12
    frequency:    5.6941940873
  - # 13
    frequency:    6.7524263716
  - # 14
    frequency:    6.7605278406
  - # 15
    frequency:    8.1215366509
  - # 16
    frequency:   11.3043512104
  - # 17
    frequency:   12.6822827853
  - # 18
    frequency:   12.9441345722
  - # 19
    frequency:   17.5810686550
  - # 20
    frequency:   17.6983589743
  - # 21
    frequency:   17.9251104358
  - # 22
    frequency:   34.1273697666
  - # 23
    frequency:   38.8259536753
  - # 24
    frequency:   69.2165235574

- q-position: [    0.0656566,    0.0000000,    0.0000000 ]
  distance:    0.0226075
  band:
  - # 1
    frequency:   -0.8856590790
  - # 2
    frequency:   -0.6136322094
  - # 3
    frequency:    0.1310198139
  - # 4
    frequency:    0.9607645820
  - # 5
    frequency:    1.3028566174
  - # 6
    frequency:    2.5230401121
  - # 7
    frequency:    2.5892370845
  - # 8
    frequency:    4.8246876160
  - # 9
    frequency:    4.9851398047
  - # 10
    frequency:    5.0511609503
  - # 11
    frequency:    5.5315975894
  - # 12
    frequency:    5.7243106983
  - # 13
    frequency:    6.7563323621
  - # 14
    frequency:    6.7652865615
  - # 15
    frequency:    8.1299319982
  - # 16
    frequency:   11.2807049044
  - # 17
    frequency:   12.6833439490
  - # 18
    frequency:   12.9888849050
  - # 19
    frequency:   17.5539311375
  - # 20
    frequency:   17.6996778077
  - # 21
    frequency:   17.9245808079
  - # 22
    frequency:   34.1207409429
  - # 23
    frequency:   38.8244529576
  - # 24
    frequency:   69.1803936797

- q-position: [    0.0707071,    0.0000000,    0.0000000 ]
  distance:    0.0243465
  band:
  - # 1
    frequency:   -0.8714523679
  - # 2
    frequency:   -0.5502856494
  - # 3
    frequency:    0.2048105839
  - # 4
    frequency:    1.0329242230
  - # 5
    frequency:    1.3654566574
  - # 6
    frequency:    2.5396861664
  - # 7
    frequency:    2.6341537823
  - # 8
    frequency:    4.8019790748
  - # 9
    frequency:    4.9809614361
  - # 10
    frequency:    5.0467922327
  - # 11
    frequency:    5.5401363486
  - # 12
    frequency:    5.7551767399
  - # 13
    frequency:    6.7607626755
  - # 14
    frequency:    6.7704542587
  - # 15
    frequency:    8.1390004021
  - # 16
    frequency:   11.2554700607
  - # 17
    frequency:   12.6845272232
  - # 18
    frequency:   13.0366894833
  - # 19
    frequency:   17.5233379046
  - # 20
    frequency:   17.7010878938
  - # 21
    frequency:   17.9256920941
  - # 22
    frequency:   34.1136580708
  - # 23
    frequency:   38.8228553422
  - # 24
    frequency:   69.1419044596

- q-position: [    0.0757576,    0.0000000,    0.0000000 ]
  distance:    0.0260856
  band:
  - # 1
    frequency:   -0.8564796830
  - # 2
    frequency:   -0.4800607429
  - # 3
    frequency:    0.2780167247
  - # 4
    frequency:    1.1039953358
  - # 5
    frequency:    1.4179613797
  - # 6
    frequency:    2.5573659918
  - # 7
    frequency:    2.6868263362
  - # 8
    frequency:    4.7778350366
  - # 9
    frequency:    4.9785140806
  - # 10
    frequency:    5.0421147331
  - # 11
    frequency:    5.5492963989
  - # 12
    frequency:    5.7866149771
  - # 13
    frequency:    6.7657637858
  - # 14
    frequency:    6.7760335968
  - # 15
    frequency:    8.1487394692
  - # 16
    frequency:   11.2287044461
  - # 17
    frequency:   12.6858401913
  - # 18
    frequency:   13.0874338698
  - # 19
    frequency:   17.4894742784
  - # 20
    frequency:   17.7025863507
  - # 21
    frequency:   17.9283492437
  - # 22
    frequency:   34.1061374784
  - # 23
    frequency:   38.8211657912
  - # 24
    frequency:   69.1011696306

- q-position: [    0.0808081,    0.0000000,    0.0000000 ]
  distance:    0.0278246
  band:
  - # 1
    frequency:   -0.8407031564
  - # 2
    frequency:   -0.4024388831
  - # 3
    frequency:    0.3550917092
  - # 4
    frequency:    1.1737446080
  - # 5
    frequency:    1.4602206046
  - # 6
    frequency:    2.5760952637
  - # 7
    frequency:    2.7473011289
  - # 8
    frequency:    4.7525106495
  - # 9
    frequency:    4.9778079101
  - # 10
    frequency:    5.0371182855
  - # 11
    frequency:    5.5590848795
  - # 12
    frequency:    5.8184594776
  - # 13
    frequency:    6.7713855556
  - # 14
    frequency:    6.7820262205
  - # 15
    frequency:    8.1591454551
  - # 16
    frequency:   11.2004674206
  - # 17
    frequency:   12.6872905499
  - # 18
    frequency:   13.1409960618
  - # 19
    frequency:   17.4525677733
  - # 20
    frequency:   17.7041702120
  - # 21
    frequency:   17.9324211643
  - # 22
    frequency:   34.0981962565
  - # 23
    frequency:   38.8193894978
  - # 24
    frequency:   69.0583082289

- q-position: [    0.0858586,    0.0000000,    0.0000000 ]
  distance:    0.0295636
  band:
  - # 1
    frequency:   -0.8240757378
  - # 2
    frequency:   -0.3147351395
  - # 3
    frequency:    0.4363515157
  - # 4
    frequency:    1.2419199074
  - # 5
    frequency:    1.4925341053
  - # 6
    frequency:    2.5959100721
  - # 7
    frequency:    2.8152272042
  - # 8
    frequency:    4.7262679285
  - # 9
    frequency:    4.9788364844
  - # 10
    frequency:    5.0317904528
  - # 11
    frequency:    5.5695100297
  - # 12
    frequency:    5.8505543275
  - # 13
    frequency:    6.7776813947
  - # 14
    frequency:    6.7884325847
  - # 15
    frequency:    8.1702129847
  - # 16
    frequency:   11.1708197931
  - # 17
    frequency:   12.6888859841
  - # 18
    frequency:   13.1972463171
  - # 19
    frequency:   17.4128642653
  - # 20
    frequency:   17.7058364441
  - # 21
    frequency:   17.9377645012
  - # 22
    frequency:   34.0898521737
  - # 23
    frequency:   38.8175318599
  - # 24
    frequency:   69.0134439943

- q-position: [    0.0909091,    0.0000000,    0.0000000 ]
  distance:    0.0313027
  band:
  - # 1
    frequency:   -0.8065420589
  - # 2
    frequency:   -0.2035928591
  - # 3
    frequency:    0.5197375474
  - # 4
    frequency:    1.3082470328
  - # 5
    frequency:    1.5155984878
  - # 6
    frequency:    2.6168699561
  - # 7
    frequency:    2.8899125075
  - # 8
    frequency:    4.6993625430
  - # 9
    frequency:    4.9815906817
  - # 10
    frequency:    5.0261170576
  - # 11
    frequency:    5.5805806167
  - # 12
    frequency:    5.8827527985
  - # 13
    frequency:    6.7847083681
  - # 14
    frequency:    6.7952517972
  - # 15
    frequency:    8.1819347694
  - # 16
    frequency:   11.1398236852
  - # 17
    frequency:   12.6906340283
  - # 18
    frequency:   13.2560469551
  - # 19
    frequency:   17.3706131738
  - # 20
    frequency:   17.7075819627
  - # 21
    frequency:   17.9442384316
  - # 22
    frequency:   34.0811235897
  - # 23
    frequency:   38.8155984526
  - # 24
    frequency:   68.9667047525

- q-position: [    0.0959596,    0.0000000,    0.0000000 ]
  distance:    0.0330417
  band:
  - # 1
    frequency:   -0.7880385691
  - # 2
    frequency:    0.1141444288
  - # 3
    frequency:    0.6026408145
  - # 4
    frequency:    1.3724267373
  - # 5
    frequency:    1.5304036009
  - # 6
    frequency:    2.6390603943
  - # 7
    frequency:    2.9704327396
  - # 8
    frequency:    4.6720375337
  - # 9
    frequency:    4.9860658778
  - # 10
    frequency:    5.0200828136
  - # 11
    frequency:    5.5923052979
  - # 12
    frequency:    5.9149169620
  - # 13
    frequency:    6.7925272068
  - # 14
    frequency:    6.8024814755
  - # 15
    frequency:    8.1943013305
  - # 16
    frequency:   11.1075423921
  - # 17
    frequency:   12.6925419150
  - # 18
    frequency:   13.3172521320
  - # 19
    frequency:   17.3260598611
  - # 20
    frequency:   17.7094036483
  - # 21
    frequency:   17.9517122808
  - # 22
    frequency:   34.0720293670
  - # 23
    frequency:   38.8135949996
  - # 24
    frequency:   68.9182217825

- q-position: [    0.1010101,    0.0000000,    0.0000000 ]
  distance:    0.0347808
  band:
  - # 1
    frequency:   -0.7684929490
  - # 2
    frequency:    0.2586514012
  - # 3
    frequency:    0.6833266581
  - # 4
    frequency:    1.4341326080
  - # 5
    frequency:    1.5381205454
  - # 6
    frequency:    2.6625942870
  - # 7
    frequency:    3.0557511890
  - # 8
    frequency:    4.6445211895
  - # 9
    frequency:    4.9922653524
  - # 10
    frequency:    5.0136720322
  - # 11
    frequency:    5.6046919509
  - # 12
    frequency:    5.9469177428
  - # 13
    frequency:    6.8012021626
  - # 14
    frequency:    6.8101176195
  - # 15
    frequency:    8.2073007395
  - # 16
    frequency:   11.0740402403
  - # 17
    frequency:   12.6946164121
  - # 18
    frequency:   13.3807075840
  - # 19
    frequency:   17.2794428045
  - # 20
    frequency:   17.7112983583
  - # 21
    frequency:   17.9600684197
  - # 22
    frequency:   34.0625887817
  - # 23
    frequency:   38.8115273446
  - # 24
    frequency:   68.8681291748

- q-position: [    0.1060606,    0.0000000,    0.0000000 ]
  distance:    0.0365198
  band:
  - # 1
    frequency:   -0.7478227812
  - # 2
    frequency:    0.3493103664
  - # 3
    frequency:    0.7610859012
  - # 4
    frequency:    1.4930104710
  - # 5
    frequency:    1.5400150531
  - # 6
    frequency:    2.6876118221
  - # 7
    frequency:    3.1448164225
  - # 8
    frequency:    4.6170272635
  - # 9
    frequency:    5.0002019866
  - # 10
    frequency:    5.0068693748
  - # 11
    frequency:    5.6177469992
  - # 12
    frequency:    5.9786354139
  - # 13
    frequency:    6.8108006508
  - # 14
    frequency:    6.8181545018
  - # 15
    frequency:    8.2209183870
  - # 16
    frequency:   11.0393824382
  - # 17
    frequency:   12.6968636503
  - # 18
    frequency:   13.4462503235
  - # 19
    frequency:   17.2309935155
  - # 20
    frequency:   17.7132629394
  - # 21
    frequency:   17.9692024883
  - # 22
    frequency:   34.0528214336
  - # 23
    frequency:   38.8094014213
  - # 24
    frequency:   68.8165631825

- q-position: [    0.1111111,    0.0000000,    0.0000000 ]
  distance:    0.0382588
  band:
  - # 1
    frequency:   -0.7259333888
  - # 2
    frequency:    0.4234991374
  - # 3
    frequency:    0.8358161779
  - # 4
    frequency:    1.5374008388
  - # 5
    frequency:    1.5486800620
  - # 6
    frequency:    2.7142780092
  - # 7
    frequency:    3.2366240362
  - # 8
    frequency:    4.5897566739
  - # 9
    frequency:    4.9996606206
  - # 10
    frequency:    5.0098994016
  - # 11
    frequency:    5.6314747657
  - # 12
    frequency:    6.0099605372
  - # 13
    frequency:    6.8213926193
  - # 14
    frequency:    6.8265845762
  - # 15
    frequency:    8.2351367906
  - # 16
    frequency:   11.0036349216
  - # 17
    frequency:   12.6992889440
  - # 18
    frequency:   13.5137082688
  - # 19
    frequency:   17.1809378526
  - # 20
    frequency:   17.7152942360
  - # 21
    frequency:   17.9790223189
  - # 22
    frequency:   34.0427471574
  - # 23
    frequency:   38.8072232245
  - # 24
    frequency:   68.7636615708

- q-position: [    0.1161616,    0.0000000,    0.0000000 ]
  distance:    0.0399979
  band:
  - # 1
    frequency:   -0.7027146654
  - # 2
    frequency:    0.4889641122
  - # 3
    frequency:    0.9076654664
  - # 4
    frequency:    1.5316316879
  - # 5
    frequency:    1.6007396691
  - # 6
    frequency:    2.7427771747
  - # 7
    frequency:    3.3302443346
  - # 8
    frequency:    4.5629005486
  - # 9
    frequency:    4.9920334231
  - # 10
    frequency:    5.0213930791
  - # 11
    frequency:    5.6458768801
  - # 12
    frequency:    6.0407953577
  - # 13
    frequency:    6.8330495984
  - # 14
    frequency:    6.8353984059
  - # 15
    frequency:    8.2499354520
  - # 16
    frequency:   10.9668641946
  - # 17
    frequency:   12.7018966073
  - # 18
    frequency:   13.5828997803
  - # 19
    frequency:   17.1294979460
  - # 20
    frequency:   17.7173890985
  - # 21
    frequency:   17.9894463701
  - # 22
    frequency:   34.0323859339
  - # 23
    frequency:   38.8049987796
  - # 24
    frequency:   68.7095629689

- q-position: [    0.1212121,    0.0000000,    0.0000000 ]
  distance:    0.0417369
  band:
  - # 1
    frequency:   -0.6780365684
  - # 2
    frequency:    0.5483724205
  - # 3
    frequency:    0.9768432313
  - # 4
    frequency:    1.5241231431
  - # 5
    frequency:    1.6487742268
  - # 6
    frequency:    2.7733039181
  - # 7
    frequency:    3.4248246330
  - # 8
    frequency:    4.5366450435
  - # 9
    frequency:    4.9839780288
  - # 10
    frequency:    5.0347316399
  - # 11
    frequency:    5.6609517630
  - # 12
    frequency:    6.0710556489
  - # 13
    frequency:    6.8445846115
  - # 14
    frequency:    6.8458433999
  - # 15
    frequency:    8.2652907727
  - # 16
    frequency:   10.9291371699
  - # 17
    frequency:   12.7046897686
  - # 18
    frequency:   13.6536330680
  - # 19
    frequency:   17.0768943437
  - # 20
    frequency:   17.7195443886
  - # 21
    frequency:   18.0004020967
  - # 22
    frequency:   34.0217578034
  - # 23
    frequency:   38.8027341130
  - # 24
    frequency:   68.6544062284

- q-position: [    0.1262626,    0.0000000,    0.0000000 ]
  distance:    0.0434759
  band:
  - # 1
    frequency:   -0.6517427265
  - # 2
    frequency:    0.6025433244
  - # 3
    frequency:    1.0435365602
  - # 4
    frequency:    1.5163914263
  - # 5
    frequency:    1.6923668328
  - # 6
    frequency:    2.8060505333
  - # 7
    frequency:    3.5195748673
  - # 8
    frequency:    4.5111790029
  - # 9
    frequency:    4.9754879356
  - # 10
    frequency:    5.0499782417
  - # 11
    frequency:    5.6766942055
  - # 12
    frequency:    6.1006729878
  - # 13
    frequency:    6.8541298394
  - # 14
    frequency:    6.8598444675
  - # 15
    frequency:    8.2811760346
  - # 16
    frequency:   10.8905210097
  - # 17
    frequency:   12.7076701881
  - # 18
    frequency:   13.7257054264
  - # 19
    frequency:   17.0233482207
  - # 20
    frequency:   17.7217569836
  - # 21
    frequency:   18.0118244551
  - # 22
    frequency:   34.0108827810
  - # 23
    frequency:   38.8004352231
  - # 24
    frequency:   68.5983297922

- q-position: [    0.1313131,    0.0000000,    0.0000000 ]
  distance:    0.0452150
  band:
  - # 1
    frequency:   -0.6236412314
  - # 2
    frequency:    0.6513657975
  - # 3
    frequency:    1.1078756200
  - # 4
    frequency:    1.5100929217
  - # 5
    frequency:    1.7311128619
  - # 6
    frequency:    2.8411916769
  - # 7
    frequency:    3.6137418644
  - # 8
    frequency:    4.4867066008
  - # 9
    frequency:    4.9665604724
  - # 10
    frequency:    5.0672118962
  - # 11
    frequency:    5.6930950555
  - # 12
    frequency:    6.1295974055
  - # 13
    frequency:    6.8640187509
  - # 14
    frequency:    6.8751199235
  - # 15
    frequency:    8.2975614515
  - # 16
    frequency:   10.8510829724
  - # 17
    frequency:   12.7108380797
  - # 18
    frequency:   13.7989022427
  - # 19
    frequency:   16.9690836341
  - # 20
    frequency:   17.7240237788
  - # 21
    frequency:   18.0236546166
  - # 22
    frequency:   33.9997807749
  - # 23
    frequency:   38.7981080508
  - # 24
    frequency:   68.5414710776

- q-position: [    0.1363636,    0.0000000,    0.0000000 ]
  distance:    0.0469540
  band:
  - # 1
    frequency:   -0.5934910153
  - # 2
    frequency:    0.6941603539
  - # 3
    frequency:    1.1699216505
  - # 4
    frequency:    1.5070372798
  - # 5
    frequency:    1.7646349205
  - # 6
    frequency:    2.8788679999
  - # 7