nqpoint: 300    
npath: 3      
segment_nqpoint:
- 100
- 100
- 100
labels:
- [ 'G', 'M' ]
- [ 'M', 'K' ]
- [ 'K', 'G' ]
reciprocal_lattice:
- [   0.29468908,   0.17013882,   0.00000000 ] # a*
- [   0.00000000,   0.34027764,   0.00000000 ] # b*
- [   0.00000000,   0.00000000,   0.04048617 ] # c*
natom: 6      
lattice:
- [     3.393407013431324,     0.000000000000000,     0.000000000000000 ] # a
- [    -1.696703506715662,     2.938776679000354,     0.000000000000000 ] # b
- [     0.000000000000000,     0.000000000000000,    24.699789938761484 ] # c
points:
- symbol: Br # 1
  coordinates: [  0.666666984744047,  0.333332985985145,  0.364375568468955 ]
  mass: 79.904000
- symbol: N # 2
  coordinates: [  0.000000000000000,  0.000000000000000,  0.482641808670507 ]
  mass: 14.006700
- symbol: N # 3
  coordinates: [  0.333332985432214,  0.666666983183674,  0.581865647496711 ]
  mass: 14.006700
- symbol: O # 4
  coordinates: [  0.333332985432214,  0.666666983183674,  0.635624431531045 ]
  mass: 15.999400
- symbol: Sc # 5
  coordinates: [  0.333332985432214,  0.666666983183674,  0.441004927962040 ]
  mass: 44.955912
- symbol: Sc # 6
  coordinates: [  0.666666984744047,  0.333332985985145,  0.544115748645755 ]
  mass: 44.955912

phonon:
- q-position: [    0.0000000,    0.0000000,    0.0000000 ]
  distance:    0.0000000
  band:
  - # 1
    frequency:   -3.9719679331
  - # 2
    frequency:   -3.9719679330
  - # 3
    frequency:   -0.0000199499
  - # 4
    frequency:    0.0000004170
  - # 5
    frequency:    0.0000186737
  - # 6
    frequency:    2.6348162355
  - # 7
    frequency:    2.6348162356
  - # 8
    frequency:    4.6043340780
  - # 9
    frequency:    4.6760578454
  - # 10
    frequency:    4.6760578455
  - # 11
    frequency:    8.1819008688
  - # 12
    frequency:    9.4754858323
  - # 13
    frequency:    9.6087308621
  - # 14
    frequency:    9.6087308622
  - # 15
    frequency:   11.3384774883
  - # 16
    frequency:   11.3384774884
  - # 17
    frequency:   15.1307480693
  - # 18
    frequency:   38.7403386900

- q-position: [    0.0050505,    0.0000000,    0.0000000 ]
  distance:    0.0017186
  band:
  - # 1
    frequency:   -3.9716775966
  - # 2
    frequency:   -3.9706718811
  - # 3
    frequency:    0.0018783015
  - # 4
    frequency:    0.0453854856
  - # 5
    frequency:    0.1026495586
  - # 6
    frequency:    2.6350065365
  - # 7
    frequency:    2.6369472659
  - # 8
    frequency:    4.5976603173
  - # 9
    frequency:    4.6764685313
  - # 10
    frequency:    4.6838729909
  - # 11
    frequency:    8.1797924206
  - # 12
    frequency:    9.4731822234
  - # 13
    frequency:    9.6089763006
  - # 14
    frequency:    9.6124572608
  - # 15
    frequency:   11.3382859394
  - # 16
    frequency:   11.3408877386
  - # 17
    frequency:   15.1299999672
  - # 18
    frequency:   38.7395937744

- q-position: [    0.0101010,    0.0000000,    0.0000000 ]
  distance:    0.0034371
  band:
  - # 1
    frequency:   -3.9708073116
  - # 2
    frequency:   -3.9667913360
  - # 3
    frequency:    0.0075009130
  - # 4
    frequency:    0.0907512409
  - # 5
    frequency:    0.2053141957
  - # 6
    frequency:    2.6355783493
  - # 7
    frequency:    2.6433176459
  - # 8
    frequency:    4.5826582603
  - # 9
    frequency:    4.6776999238
  - # 10
    frequency:    4.7022992345
  - # 11
    frequency:    8.1735151281
  - # 12
    frequency:    9.4668437545
  - # 13
    frequency:    9.6097120148
  - # 14
    frequency:    9.6230163844
  - # 15
    frequency:   11.3377119573
  - # 16
    frequency:   11.3481116020
  - # 17
    frequency:   15.1277575580
  - # 18
    frequency:   38.7373602909

- q-position: [    0.0151515,    0.0000000,    0.0000000 ]
  distance:    0.0051557
  band:
  - # 1
    frequency:   -3.9693592593
  - # 2
    frequency:   -3.9603490873
  - # 3
    frequency:    0.0168127591
  - # 4
    frequency:    0.1360778703
  - # 5
    frequency:    0.3080075193
  - # 6
    frequency:    2.6365343896
  - # 7
    frequency:    2.6538601458
  - # 8
    frequency:    4.5649623350
  - # 9
    frequency:    4.6797500326
  - # 10
    frequency:    4.7257022405
  - # 11
    frequency:    8.1632090017
  - # 12
    frequency:    9.4576623489
  - # 13
    frequency:    9.6109361994
  - # 14
    frequency:    9.6390774275
  - # 15
    frequency:   11.3367575380
  - # 16
    frequency:   11.3601284070
  - # 17
    frequency:   15.1240265265
  - # 18
    frequency:   38.7336420262

- q-position: [    0.0202020,    0.0000000,    0.0000000 ]
  distance:    0.0068743
  band:
  - # 1
    frequency:   -3.9673371039
  - # 2
    frequency:   -3.9513829698
  - # 3
    frequency:    0.0297279093
  - # 4
    frequency:    0.1813466297
  - # 5
    frequency:    0.4107402146
  - # 6
    frequency:    2.6378791333
  - # 7
    frequency:    2.6684656353
  - # 8
    frequency:    4.5467552591
  - # 9
    frequency:    4.6826155531
  - # 10
    frequency:    4.7518994236
  - # 11
    frequency:    8.1490944115
  - # 12
    frequency:    9.4466821475
  - # 13
    frequency:    9.6126458398
  - # 14
    frequency:    9.6593781490
  - # 15
    frequency:   11.3354260149
  - # 16
    frequency:   11.3769036596
  - # 17
    frequency:   15.1188163241
  - # 18
    frequency:   38.7284452808

- q-position: [    0.0252525,    0.0000000,    0.0000000 ]
  distance:    0.0085929
  band:
  - # 1
    frequency:   -3.9647460337
  - # 2
    frequency:   -3.9399456351
  - # 3
    frequency:    0.0461314067
  - # 4
    frequency:    0.2265397520
  - # 5
    frequency:    0.5135186031
  - # 6
    frequency:    2.6396187417
  - # 7
    frequency:    2.6869871538
  - # 8
    frequency:    4.5287978413
  - # 9
    frequency:    4.6862918851
  - # 10
    frequency:    4.7801301149
  - # 11
    frequency:    8.1314552736
  - # 12
    frequency:    9.4345540291
  - # 13
    frequency:    9.6148367034
  - # 14
    frequency:    9.6829877726
  - # 15
    frequency:   11.3337220688
  - # 16
    frequency:   11.3983889527
  - # 17
    frequency:   15.1121401351
  - # 18
    frequency:   38.7217788535

- q-position: [    0.0303030,    0.0000000,    0.0000000 ]
  distance:    0.0103114
  band:
  - # 1
    frequency:   -3.9615928189
  - # 2
    frequency:   -3.9261042150
  - # 3
    frequency:    0.0658839607
  - # 4
    frequency:    0.2716407596
  - # 5
    frequency:    0.6163432357
  - # 6
    frequency:    2.6417609574
  - # 7
    frequency:    2.7092450510
  - # 8
    frequency:    4.5113821484
  - # 9
    frequency:    4.6907731592
  - # 10
    frequency:    4.8101023424
  - # 11
    frequency:    8.1106199215
  - # 12
    frequency:    9.4216181411
  - # 13
    frequency:    9.6175033278
  - # 14
    frequency:    9.7092444627
  - # 15
    frequency:   11.3316517414
  - # 16
    frequency:   11.4245217964
  - # 17
    frequency:   15.1040148286
  - # 18
    frequency:   38.7136540197

- q-position: [    0.0353535,    0.0000000,    0.0000000 ]
  distance:    0.0120300
  band:
  - # 1
    frequency:   -3.9578858820
  - # 2
    frequency:   -3.9099398654
  - # 3
    frequency:    0.0888271715
  - # 4
    frequency:    0.3166347666
  - # 5
    frequency:    0.7192075354
  - # 6
    frequency:    2.6443149698
  - # 7
    frequency:    2.7350327521
  - # 8
    frequency:    4.4946270841
  - # 9
    frequency:    4.6960522696
  - # 10
    frequency:    4.8416971785
  - # 11
    frequency:    8.0869424212
  - # 12
    frequency:    9.4080319652
  - # 13
    frequency:    9.6206390051
  - # 14
    frequency:    9.7376470994
  - # 15
    frequency:   11.3292224535
  - # 16
    frequency:   11.4552253498
  - # 17
    frequency:   15.0944608977
  - # 18
    frequency:   38.7040845030

- q-position: [    0.0404040,    0.0000000,    0.0000000 ]
  distance:    0.0137486
  band:
  - # 1
    frequency:   -3.9536353808
  - # 2
    frequency:   -3.8915471739
  - # 3
    frequency:    0.1147888746
  - # 4
    frequency:    0.3615087653
  - # 5
    frequency:    0.8220965092
  - # 6
    frequency:    2.6472912524
  - # 7
    frequency:    2.7641227121
  - # 8
    frequency:    4.4785785713
  - # 9
    frequency:    4.7021209140
  - # 10
    frequency:    4.8748684534
  - # 11
    frequency:    8.0607863612
  - # 12
    frequency:    9.3938596647
  - # 13
    frequency:    9.6242357630
  - # 14
    frequency:    9.7677835511
  - # 15
    frequency:   11.3264430257
  - # 16
    frequency:   11.4904080621
  - # 17
    frequency:   15.0835023852
  - # 18
    frequency:   38.6930864414

- q-position: [    0.0454545,    0.0000000,    0.0000000 ]
  distance:    0.0154672
  band:
  - # 1
    frequency:   -3.9488532998
  - # 2
    frequency:   -3.8710334187
  - # 3
    frequency:    0.1435882467
  - # 4
    frequency:    0.4062518941
  - # 5
    frequency:    0.9249855570
  - # 6
    frequency:    2.6507013723
  - # 7
    frequency:    2.7962721791
  - # 8
    frequency:    4.4632484952
  - # 9
    frequency:    4.7089696390
  - # 10
    frequency:    4.9096036709
  - # 11
    frequency:    8.0325122109
  - # 12
    frequency:    9.3791231085
  - # 13
    frequency:    9.6282843430
  - # 14
    frequency:    9.7992939025
  - # 15
    frequency:   11.3233237035
  - # 16
    frequency:   11.5299632577
  - # 17
    frequency:   15.0711667975
  - # 18
    frequency:   38.6806783470

- q-position: [    0.0505051,    0.0000000,    0.0000000 ]
  distance:    0.0171857
  band:
  - # 1
    frequency:   -3.9435535498
  - # 2
    frequency:   -3.8485176670
  - # 3
    frequency:    0.1750404099
  - # 4
    frequency:    0.4508556797
  - # 5
    frequency:    1.0278394084
  - # 6
    frequency:    2.6545577720
  - # 7
    frequency:    2.8312284778
  - # 8
    frequency:    4.4486317661
  - # 9
    frequency:    4.7165878920
  - # 10
    frequency:    4.9459067585
  - # 11
    frequency:    8.0024684973
  - # 12
    frequency:    9.3638284512
  - # 13
    frequency:    9.6327741744
  - # 14
    frequency:    9.8318544209
  - # 15
    frequency:   11.3198761849
  - # 16
    frequency:   11.5737687313
  - # 17
    frequency:   15.0574850056
  - # 18
    frequency:   38.6668810605

- q-position: [    0.0555556,    0.0000000,    0.0000000 ]
  distance:    0.0189043
  band:
  - # 1
    frequency:   -3.9377520693
  - # 2
    frequency:   -3.8241297066
  - # 3
    frequency:    0.2089603644
  - # 4
    frequency:    0.4953142504
  - # 5
    frequency:    1.1306112241
  - # 6
    frequency:    2.6588735272
  - # 7
    frequency:    2.8687336268
  - # 8
    frequency:    4.4347145583
  - # 9
    frequency:    4.7249640770
  - # 10
    frequency:    4.9837895834
  - # 11
    frequency:    7.9709864669
  - # 12
    frequency:    9.3479789122
  - # 13
    frequency:    9.6376933462
  - # 14
    frequency:    9.8651718441
  - # 15
    frequency:   11.3161136516
  - # 16
    frequency:   11.6216864407
  - # 17
    frequency:   15.0424911348
  - # 18
    frequency:   38.6517176991

- q-position: [    0.0606061,    0.0000000,    0.0000000 ]
  distance:    0.0206229
  band:
  - # 1
    frequency:   -3.9314669272
  - # 2
    frequency:   -3.7980088135
  - # 3
    frequency:    0.2451661823
  - # 4
    frequency:    0.5396245127
  - # 5
    frequency:    1.2332419011
  - # 6
    frequency:    2.6636620808
  - # 7
    frequency:    2.9085282046
  - # 8
    frequency:    4.4214786112
  - # 9
    frequency:    4.7340856162
  - # 10
    frequency:    5.0232673375
  - # 11
    frequency:    7.9383775917
  - # 12
    frequency:    9.3315801764
  - # 13
    frequency:    9.6430285747
  - # 14
    frequency:    9.8989820857
  - # 15
    frequency:   11.3120508023
  - # 16
    frequency:   11.6735623933
  - # 17
    frequency:   15.0262224443
  - # 18
    frequency:   38.6352135994

- q-position: [    0.0656566,    0.0000000,    0.0000000 ]
  distance:    0.0223415
  band:
  - # 1
    frequency:   -3.9247184200
  - # 2
    frequency:   -3.7703023668
  - # 3
    frequency:    0.2834814618
  - # 4
    frequency:    0.5837862834
  - # 5
    frequency:    1.3356596220
  - # 6
    frequency:    2.6689369579
  - # 7
    frequency:    2.9503544563
  - # 8
    frequency:    4.4089036177
  - # 9
    frequency:    4.7439390146
  - # 10
    frequency:    5.0643557519
  - # 11
    frequency:    7.9049331965
  - # 12
    frequency:    9.3146420349
  - # 13
    frequency:    9.6487651696
  - # 14
    frequency:    9.9330503577
  - # 15
    frequency:   11.3077038886
  - # 16
    frequency:   11.7292268103
  - # 17
    frequency:   15.0087191957
  - # 18
    frequency:   38.6173962551

- q-position: [    0.0707071,    0.0000000,    0.0000000 ]
  distance:    0.0240600
  band:
  - # 1
    frequency:   -3.9175291613
  - # 2
    frequency:   -3.7411643330
  - # 3
    frequency:    0.3237371025
  - # 4
    frequency:    0.6278023728
  - # 5
    frequency:    1.4377796855
  - # 6
    frequency:    2.6747114644
  - # 7
    frequency:    2.9939586970
  - # 8
    frequency:    4.3969686129
  - # 9
    frequency:    4.7545099277
  - # 10
    frequency:    5.1070692144
  - # 11
    frequency:    7.8709255336
  - # 12
    frequency:    9.2971782448
  - # 13
    frequency:    9.6548869965
  - # 14
    frequency:    9.9671713177
  - # 15
    frequency:   11.3030907522
  - # 16
    frequency:   11.7884946325
  - # 17
    frequency:   14.9900245144
  - # 18
    frequency:   38.5982952485

- q-position: [    0.0757576,    0.0000000,    0.0000000 ]
  distance:    0.0257786
  band:
  - # 1
    frequency:   -3.9099241580
  - # 2
    frequency:   -3.7107536553
  - # 3
    frequency:    0.3657724918
  - # 4
    frequency:    0.6716786084
  - # 5
    frequency:    1.5395046501
  - # 6
    frequency:    2.6809983740
  - # 7
    frequency:    3.0390931058
  - # 8
    frequency:    4.3856528084
  - # 9
    frequency:    4.7657832326
  - # 10
    frequency:    5.1514193313
  - # 11
    frequency:    7.8366097504
  - # 12
    frequency:    9.2792056653
  - # 13
    frequency:    9.6613764375
  - # 14
    frequency:   10.0011686887
  - # 15
    frequency:   11.2982308642
  - # 16
    frequency:   11.8511663924
  - # 17
    frequency:   14.9701842424
  - # 18
    frequency:   38.5779421780

- q-position: [    0.0808081,    0.0000000,    0.0000000 ]
  distance:    0.0274972
  band:
  - # 1
    frequency:   -3.9019308676
  - # 2
    frequency:   -3.6792325909
  - # 3
    frequency:    0.4094362051
  - # 4
    frequency:    0.7154237935
  - # 5
    frequency:    1.6407248110
  - # 6
    frequency:    2.6878096089
  - # 7
    frequency:    3.0855170271
  - # 8
    frequency:    4.3749360979
  - # 9
    frequency:    4.7777430999
  - # 10
    frequency:    5.1974136923
  - # 11
    frequency:    7.8022263260
  - # 12
    frequency:    9.2607432148
  - # 13
    frequency:    9.6682143503
  - # 14
    frequency:   10.0348942210
  - # 15
    frequency:   11.2931453638
  - # 16
    frequency:   11.9170294426
  - # 17
    frequency:   14.9492467868
  - # 18
    frequency:   38.5563705804

- q-position: [    0.0858586,    0.0000000,    0.0000000 ]
  distance:    0.0292158
  band:
  - # 1
    frequency:   -3.8935792328
  - # 2
    frequency:   -3.6467650512
  - # 3
    frequency:    0.4545863267
  - # 4
    frequency:    0.7590495929
  - # 5
    frequency:    1.7413190167
  - # 6
    frequency:    2.6951559194
  - # 7
    frequency:    3.1329978999
  - # 8
    frequency:    4.3647993625
  - # 9
    frequency:    4.7903730678
  - # 10
    frequency:    5.2450547008
  - # 11
    frequency:    7.7680036770
  - # 12
    frequency:    9.2418109109
  - # 13
    frequency:    9.6753800256
  - # 14
    frequency:   10.0682260596
  - # 15
    frequency:   11.2878570973
  - # 16
    frequency:   11.9858594926
  - # 17
    frequency:   14.9272629643
  - # 18
    frequency:   38.5336158481

- q-position: [    0.0909091,    0.0000000,    0.0000000 ]
  distance:    0.0309343
  band:
  - # 1
    frequency:   -3.8849016868
  - # 2
    frequency:   -3.6135150027
  - # 3
    frequency:    0.5010904859
  - # 4
    frequency:    0.8025703396
  - # 5
    frequency:    1.8411558136
  - # 6
    frequency:    2.7030465697
  - # 7
    frequency:    3.1813119372
  - # 8
    frequency:    4.3552246444
  - # 9
    frequency:    4.8036561155
  - # 10
    frequency:    5.2943383887
  - # 11
    frequency:    7.7341607293
  - # 12
    frequency:    9.2224291023
  - # 13
    frequency:    9.6828511450
  - # 14
    frequency:   10.1010666643
  - # 15
    frequency:   11.2823906561
  - # 16
    frequency:   12.0574223820
  - # 17
    frequency:   14.9042858461
  - # 18
    frequency:   38.5097151425

- q-position: [    0.0959596,    0.0000000,    0.0000000 ]
  distance:    0.0326529
  band:
  - # 1
    frequency:   -3.8759331245
  - # 2
    frequency:   -3.5796449875
  - # 3
    frequency:    0.5488256926
  - # 4
    frequency:    0.8460027584
  - # 5
    frequency:    1.9400948870
  - # 6
    frequency:    2.7114890363
  - # 7
    frequency:    3.2302446652
  - # 8
    frequency:    4.3461952339
  - # 9
    frequency:    4.8175747380
  - # 10
    frequency:    5.3452531646
  - # 11
    frequency:    7.7009093310
  - # 12
    frequency:    9.2026179239
  - # 13
    frequency:    9.6906037382
  - # 14
    frequency:   10.1333404478
  - # 15
    frequency:   11.2767724114
  - # 16
    frequency:   12.1314759987
  - # 17
    frequency:   14.8803706057
  - # 18
    frequency:   38.4847073033

- q-position: [    0.1010101,    0.0000000,    0.0000000 ]
  distance:    0.0343715
  band:
  - # 1
    frequency:   -3.8667108348
  - # 2
    frequency:   -3.5453148189
  - # 3
    frequency:    0.5976780397
  - # 4
    frequency:    0.8893656025
  - # 5
    frequency:    2.0379887475
  - # 6
    frequency:    2.7204887251
  - # 7
    frequency:    3.2795914211
  - # 8
    frequency:    4.3376956985
  - # 9
    frequency:    4.8321110188
  - # 10
    frequency:    5.3977784673
  - # 11
    frequency:    7.6684564332
  - # 12
    frequency:    9.1823969661
  - # 13
    frequency:    9.6986121432
  - # 14
    frequency:   10.1649912892
  - # 15
    frequency:   11.2710305458
  - # 16
    frequency:   12.2077722513
  - # 17
    frequency:   14.8555743753
  - # 18
    frequency:   38.4586327536

- q-position: [    0.1060606,    0.0000000,    0.0000000 ]
  distance:    0.0360901
  band:
  - # 1
    frequency:   -3.8572743885
  - # 2
    frequency:   -3.5106804965
  - # 3
    frequency:    0.6475423230
  - # 4
    frequency:    0.9326792035
  - # 5
    frequency:    2.1346845935
  - # 6
    frequency:    2.7300487155
  - # 7
    frequency:    3.3291578912
  - # 8
    frequency:    4.3297118733
  - # 9
    frequency:    4.8472467025
  - # 10
    frequency:    5.4518833058
  - # 11
    frequency:    7.6370060058
  - # 12
    frequency:    9.1617851333
  - # 13
    frequency:    9.7068489696
  - # 14
    frequency:   10.1959800560
  - # 15
    frequency:   11.2651950791
  - # 16
    frequency:   12.2860590040
  - # 17
    frequency:   14.8299561154
  - # 18
    frequency:   38.4315334016

- q-position: [    0.1111111,    0.0000000,    0.0000000 ]
  distance:    0.0378086
  band:
  - # 1
    frequency:   -3.8476654778
  - # 2
    frequency:   -3.4758933748
  - # 3
    frequency:    0.6983216196
  - # 4
    frequency:    0.9759649365
  - # 5
    frequency:    2.2300262654
  - # 6
    frequency:    2.7401695368
  - # 7
    frequency:    3.3787607548
  - # 8
    frequency:    4.3222308307
  - # 9
    frequency:    4.8629632646
  - # 10
    frequency:    5.5075246827
  - # 11
    frequency:    7.6067606784
  - # 12
    frequency:    9.1408006606
  - # 13
    frequency:    9.7152850662
  - # 14
    frequency:   10.2262822363
  - # 15
    frequency:   11.2592978868
  - # 16
    frequency:   12.3660818996
  - # 17
    frequency:   14.8035765079
  - # 18
    frequency:   38.4034525388

- q-position: [    0.1161616,    0.0000000,    0.0000000 ]
  distance:    0.0395272
  band:
  - # 1
    frequency:   -3.8379277042
  - # 2
    frequency:   -3.4410996007
  - # 3
    frequency:    0.7499268474
  - # 4
    frequency:    1.0192446071
  - # 5
    frequency:    2.3238562025
  - # 6
    frequency:    2.7508489829
  - # 7
    frequency:    3.4282284793
  - # 8
    frequency:    4.3152408441
  - # 9
    frequency:    4.8792419801
  - # 10
    frequency:    5.5646459025
  - # 11
    frequency:    7.5779231122
  - # 12
    frequency:    9.1194612607
  - # 13
    frequency:    9.7238894967
  - # 14
    frequency:   10.2558857529
  - # 15
    frequency:   11.2533727084
  - # 16
    frequency:   12.4475860070
  - # 17
    frequency:   14.7764978811
  - # 18
    frequency:   38.3744347358

- q-position: [    0.1212121,    0.0000000,    0.0000000 ]
  distance:    0.0412458
  band:
  - # 1
    frequency:   -3.8281063115
  - # 2
    frequency:   -3.4064398177
  - # 3
    frequency:    0.8022763241
  - # 4
    frequency:    1.0625397675
  - # 5
    frequency:    2.4160173078
  - # 6
    frequency:    2.7620819714
  - # 7
    frequency:    3.4774022901
  - # 8
    frequency:    4.3087313629
  - # 9
    frequency:    4.8960639885
  - # 10
    frequency:    5.6231747765
  - # 11
    frequency:    7.5506971207
  - # 12
    frequency:    9.0977843750
  - # 13
    frequency:    9.7326295251
  - # 14
    frequency:   10.2847890029
  - # 15
    frequency:   11.2474551444
  - # 16
    frequency:   12.5303172442
  - # 17
    frequency:   14.7487841829
  - # 18
    frequency:   38.3445257346

- q-position: [    0.1262626,    0.0000000,    0.0000000 ]
  distance:    0.0429643
  band:
  - # 1
    frequency:   -3.8182478640
  - # 2
    frequency:   -3.3720491208
  - # 3
    frequency:    0.8552953328
  - # 4
    frequency:    1.1058709771
  - # 5
    frequency:    2.5063546362
  - # 6
    frequency:    2.7738604482
  - # 7
    frequency:    3.5261373128
  - # 8
    frequency:    4.3026930224
  - # 9
    frequency:    4.9134103561
  - # 10
    frequency:    5.6830217447
  - # 11
    frequency:    7.5252885607
  - # 12
    frequency:    9.0757875096
  - # 13
    frequency:    9.7414706139
  - # 14
    frequency:   10.3129991419
  - # 15
    frequency:   11.2415826364
  - # 16
    frequency:   12.6140235398
  - # 17
    frequency:   14.7205010220
  - # 18
    frequency:   38.3137723393

- q-position: [    0.1313131,    0.0000000,    0.0000000 ]
  distance:    0.0446829
  band:
  - # 1
    frequency:   -3.8083998692
  - # 2
    frequency:   -3.3380572251
  - # 3
    frequency:    0.9089156956
  - # 4
    frequency:    1.1492570217
  - # 5
    frequency:    2.5947168362
  - # 6
    frequency:    2.7861733430
  - # 7
    frequency:    3.5743038559
  - # 8
    frequency:    4.2971177143
  - # 9
    frequency:    4.9312621356
  - # 10
    frequency:    5.7440779397
  - # 11
    frequency:    7.5019060138
  - # 12
    frequency:    9.0534886411
  - # 13
    frequency:    9.7503764380
  - # 14
    frequency:   10.3405306155
  - # 15
    frequency:   11.2357944300
  - # 16
    frequency:   12.6984557014
  - # 17
    frequency:   14.6917158047
  - # 18
    frequency:   38.2822223044

- q-position: [    0.1363636,    0.0000000,    0.0000000 ]
  distance:    0.0464015
  band:
  - # 1
    frequency:   -3.7986103473
  - # 2
    frequency:   -3.3045888043
  - # 3
    frequency:    0.9630753540
  - # 4
    frequency:    1.1927141116
  - # 5
    frequency:    2.6809572979
  - # 6
    frequency:    2.7990065748
  - # 7
    frequency:    3.6217887646
  - # 8
    frequency:    4.2919987605
  - # 9
    frequency:    4.9496004208
  - # 10
    frequency:    5.8062132328
  - # 11
    frequency:    7.4807612778
  - # 12
    frequency:    9.0309066831
  - # 13
    frequency:    9.7593089194
  - # 14
    frequency:   10.3674039252
  - # 15
    frequency:   11.2301315136
  - # 16
    frequency:   12.7833679554
  - # 17
    frequency:   14.6624980095
  - # 18
    frequency:   38.2499242216

- q-position: [    0.1414141,    0.0000000,    0.0000000 ]
  distance:    0.0481201
  band:
  - # 1
    frequency:   -3.7889273526
  - # 2
    frequency:   -3.2717639420
  - # 3
    frequency:    1.0177179503
  - # 4
    frequency:    1.2362550803
  - # 5
    frequency:    2.7649349896
  - # 6
    frequency:    2.8123431068
  - # 7
    frequency:    3.6684967317
  - # 8
    frequency:    4.2873312455
  - # 9
    frequency:    4.9684063983
  - # 10
    frequency:    5.8692743136
  - # 11
    frequency:    7.4620696711
  - # 12
    frequency:    9.0080620097
  - # 13
    frequency:    9.7682282857
  - # 14
    frequency:   10.3936446092
  - # 15
    frequency:   11.2246365316
  - # 16
    frequency:   12.8685181140
  - # 17
    frequency:   14.6329196578
  - # 18
    frequency:   38.2169274048

- q-position: [    0.1464646,    0.0000000,    0.0000000 ]
  distance:    0.0498386
  band:
  - # 1
    frequency:   -3.7793984522
  - # 2
    frequency:   -3.2396986369
  - # 3
    frequency:    1.0727924037
  - # 4
    frequency:    1.2798886070
  - # 5
    frequency:    2.8261630494
  - # 6
    frequency:    2.8465150032
  - # 7
    frequency:    3.7143513920
  - # 8
    frequency:    4.2831125909
  - # 9
    frequency:    4.9876613951
  - # 10
    frequency:    5.9330828855
  - # 11
    frequency:    7.4460501286
  - # 12
    frequency:    8.9849770357
  - # 13
    frequency:    9.7770931576
  - # 14
    frequency:   10.4192824129
  - # 15
    frequency:   11.2193536658
  - # 16
    frequency:   12.9536672981
  - # 17
    frequency:   14.6030560710
  - # 18
    frequency:   38.1832817750

- q-position: [    0.1515152,    0.0000000,    0.0000000 ]
  distance:    0.0515572
  band:
  - # 1
    frequency:   -3.7700701703
  - # 2
    frequency:   -3.2085053000
  - # 3
    frequency:    1.1282524752
  - # 4
    frequency:    1.3236184867
  - # 5
    frequency:    2.8404438079
  - # 6
    frequency:    2.9255688670
  - # 7
    frequency:    3.7592959551
  - # 8
    frequency:    4.2793434971
  - # 9
    frequency:    5.0073469213
  - # 10
    frequency:    5.9974340963
  - # 11
    frequency:    7.4329250244
  - # 12
    frequency:    8.9616768620
  - # 13
    frequency:    9.7858606694
  - # 14
    frequency:   10.4443506207
  - # 15
    frequency:   11.2143284807
  - # 16
    frequency:   13.0385791005
  - # 17
    frequency:   14.5729870487
  - # 18
    frequency:   38.1490377441

- q-position: [    0.1565657,    0.0000000,    0.0000000 ]
  distance:    0.0532758
  band:
  - # 1
    frequency:   -3.7609874097
  - # 2
    frequency:   -3.1782931859
  - # 3
    frequency:    1.1840563136
  - # 4
    frequency:    1.3674429726
  - # 5
    frequency:    2.8551602691
  - # 6
    frequency:    3.0019747283
  - # 7
    frequency:    3.8032930214
  - # 8
    frequency:    4.2760294463
  - # 9
    frequency:    5.0274447092
  - # 10
    frequency:    6.0620953917
  - # 11
    frequency:    7.4229195865
  - # 12
    frequency:    8.9381899962
  - # 13
    frequency:    9.7944866288
  - # 14
    frequency:   10.4688855240
  - # 15
    frequency:   11.2096077295
  - # 16
    frequency:   13.1230179965
  - # 17
    frequency:   14.5427986827
  - # 18
    frequency:   38.1142460982

- q-position: [    0.1616162,    0.0000000,    0.0000000 ]
  distance:    0.0549944
  band:
  - # 1
    frequency:   -3.7521928612
  - # 2
    frequency:   -3.1491687042
  - # 3
    frequency:    1.2401659808
  - # 4
    frequency:    1.4113542105
  - # 5
    frequency:    2.8702850230
  - # 6
    frequency:    3.0756175477
  - # 7
    frequency:    3.8463230782
  - # 8
    frequency:    4.2731830817
  - # 9
    frequency:    5.0479367471
  - # 10
    frequency:    6.1268060781
  - # 11
    frequency:    7.4162606609
  - # 12
    frequency:    8.9145491697
  - # 13
    frequency:    9.8029257181
  - # 14
    frequency:   10.4929259981
  - # 15
    frequency:   11.2052391142
  - # 16
    frequency:   13.2067466804
  - # 17
    frequency:   14.5125861486
  - # 18
    frequency:   38.0789578816

- q-position: [    0.1666667,    0.0000000,    0.0000000 ]
  distance:    0.0567129
  band:
  - # 1
    frequency:   -3.7437264157
  - # 2
    frequency:   -3.1212355657
  - # 3
    frequency:    1.2965469517
  - # 4
    frequency:    1.4553377857
  - # 5
    frequency:    2.8857886123
  - # 6
    frequency:    3.1463894830
  - # 7
    frequency:    3.8883809233
  - # 8
    frequency:    4.2708279968
  - # 9
    frequency:    5.0688053090
  - # 10
    frequency:    6.1912780081
  - # 11
    frequency:    7.4131744436
  - # 12
    frequency:    8.8907922780
  - # 13
    frequency:    9.8111317427
  - # 14
    frequency:   10.5165131653
  - # 15
    frequency:   11.2012709988
  - # 16
    frequency:   13.2895217786
  - # 17
    frequency:   14.4824580404
  - # 18
    frequency:   38.0432242809

- q-position: [    0.1717172,    0.0000000,    0.0000000 ]
  distance:    0.0584315
  band:
  - # 1
    frequency:   -3.7356245931
  - # 2
    frequency:   -3.0945947285
  - # 3
    frequency:    1.3531675911
  - # 4
    frequency:    1.4993723971
  - # 5
    frequency:    2.9016398037
  - # 6
    frequency:    3.2141906539
  - # 7
    frequency:    3.9294688407
  - # 8
    frequency:    4.2690048880
  - # 9
    frequency:    5.0900329796
  - # 10
    frequency:    6.2551979673
  - # 11
    frequency:    7.4138826209
  - # 12
    frequency:    8.8669634833
  - # 13
    frequency:    9.8190579292
  - # 14
    frequency:   10.5396901238
  - # 15
    frequency:   11.1977520705
  - # 16
    frequency:   13.3710869965
  - # 17
    frequency:   14.4525432108
  - # 18
    frequency:   38.0070965105

- q-position: [    0.1767677,    0.0000000,    0.0000000 ]
  distance:    0.0601501
  band:
  - # 1
    frequency:   -3.7279200038
  - # 2
    frequency:   -3.0693441207
  - # 3
    frequency:    1.4099986113
  - # 4
    frequency:    1.5434296682
  - # 5
    frequency:    2.9178058746
  - # 6
    frequency:    3.2789304728
  - # 7
    frequency:    3.9695845333
  - # 8
    frequency:    4.2677818578
  - # 9
    frequency:    5.1116026737
  - # 10
    frequency:    6.3182324846
  - # 11
    frequency:    7.4185961887
  - # 12
    frequency:    8.8431145326
  - # 13
    frequency:    9.8266572745
  - # 14