nqpoint: 300    
npath: 3      
segment_nqpoint:
- 100
- 100
- 100
labels:
- [ 'G', 'M' ]
- [ 'M', 'K' ]
- [ 'K', 'G' ]
reciprocal_lattice:
- [   0.27368104,   0.15800982,   0.00000000 ] # a*
- [   0.00000000,   0.31601964,   0.00000000 ] # b*
- [   0.00000000,   0.00000000,   0.04088615 ] # c*
natom: 6      
lattice:
- [     3.653888544920518,     0.000000000000000,     0.000000000000000 ] # a
- [    -1.826944272460259,     3.164360302509632,     0.000000000000000 ] # b
- [     0.000000000000000,     0.000000000000000,    24.458158877005715 ] # c
points:
- symbol: C # 1
  coordinates: [  0.000000000000000,  0.000000000000000,  0.465998172073638 ]
  mass: 12.010700
- symbol: C # 2
  coordinates: [  0.333332985432215,  0.666666983183674,  0.582994430093731 ]
  mass: 12.010700
- symbol: H # 3
  coordinates: [  0.666666984744047,  0.333332985985144,  0.367975367453407 ]
  mass: 1.007940
- symbol: N # 4
  coordinates: [  0.333332985432215,  0.666666983183674,  0.632024632546592 ]
  mass: 14.006700
- symbol: Y # 5
  coordinates: [  0.333332985432215,  0.666666983183674,  0.410173623090539 ]
  mass: 88.905850
- symbol: Y # 6
  coordinates: [  0.666666984744047,  0.333332985985144,  0.521701108552048 ]
  mass: 88.905850

phonon:
- q-position: [    0.0000000,    0.0000000,    0.0000000 ]
  distance:    0.0000000
  band:
  - # 1
    frequency:   -2.6562122497
  - # 2
    frequency:   -2.6562122497
  - # 3
    frequency:   -0.0000151722
  - # 4
    frequency:   -0.0000004673
  - # 5
    frequency:    0.0000171337
  - # 6
    frequency:    3.5968091804
  - # 7
    frequency:    3.5968091804
  - # 8
    frequency:    5.7203414906
  - # 9
    frequency:    7.2160639749
  - # 10
    frequency:    7.2160639749
  - # 11
    frequency:    7.9246557322
  - # 12
    frequency:    8.9063866550
  - # 13
    frequency:    8.9063866551
  - # 14
    frequency:   16.2407200930
  - # 15
    frequency:   24.1944749175
  - # 16
    frequency:   24.1944749176
  - # 17
    frequency:   24.3936583880
  - # 18
    frequency:   62.6261851388

- q-position: [    0.0050505,    0.0000000,    0.0000000 ]
  distance:    0.0015961
  band:
  - # 1
    frequency:   -2.6561770384
  - # 2
    frequency:   -2.6559036916
  - # 3
    frequency:    0.0013478293
  - # 4
    frequency:    0.0609678996
  - # 5
    frequency:    0.1000942127
  - # 6
    frequency:    3.5967871914
  - # 7
    frequency:    3.5974335792
  - # 8
    frequency:    5.7203321956
  - # 9
    frequency:    7.2159369440
  - # 10
    frequency:    7.2190648187
  - # 11
    frequency:    7.9241955906
  - # 12
    frequency:    8.9060904975
  - # 13
    frequency:    8.9120687622
  - # 14
    frequency:   16.2387104425
  - # 15
    frequency:   24.1922875418
  - # 16
    frequency:   24.1942201345
  - # 17
    frequency:   24.3961796194
  - # 18
    frequency:   62.6261361581

- q-position: [    0.0101010,    0.0000000,    0.0000000 ]
  distance:    0.0031921
  band:
  - # 1
    frequency:   -2.6560714861
  - # 2
    frequency:   -2.6549827782
  - # 3
    frequency:    0.0053912221
  - # 4
    frequency:    0.1219079407
  - # 5
    frequency:    0.2001762324
  - # 6
    frequency:    3.5967213085
  - # 7
    frequency:    3.5993051968
  - # 8
    frequency:    5.7203043619
  - # 9
    frequency:    7.2155568837
  - # 10
    frequency:    7.2279093566
  - # 11
    frequency:    7.9228188169
  - # 12
    frequency:    8.9052034307
  - # 13
    frequency:    8.9291757137
  - # 14
    frequency:   16.2326871601
  - # 15
    frequency:   24.1859637223
  - # 16
    frequency:   24.1934566654
  - # 17
    frequency:   24.4035047640
  - # 18
    frequency:   62.6259893087

- q-position: [    0.0151515,    0.0000000,    0.0000000 ]
  distance:    0.0047882
  band:
  - # 1
    frequency:   -2.6558958348
  - # 2
    frequency:   -2.6534635186
  - # 3
    frequency:    0.0121182919
  - # 4
    frequency:    0.1827922519
  - # 5
    frequency:    0.3002334463
  - # 6
    frequency:    3.5966117834
  - # 7
    frequency:    3.6024193112
  - # 8
    frequency:    5.7202581318
  - # 9
    frequency:    7.2149268878
  - # 10
    frequency:    7.2421372356
  - # 11
    frequency:    7.9205361586
  - # 12
    frequency:    8.9037296656
  - # 13
    frequency:    8.9578791254
  - # 14
    frequency:   16.2226672290
  - # 15
    frequency:   24.1760849170
  - # 16
    frequency:   24.1921871465
  - # 17
    frequency:   24.4150516261
  - # 18
    frequency:   62.6257448689

- q-position: [    0.0202020,    0.0000000,    0.0000000 ]
  distance:    0.0063842
  band:
  - # 1
    frequency:   -2.6556504762
  - # 2
    frequency:   -2.6513683825
  - # 3
    frequency:    0.0215111027
  - # 4
    frequency:    0.2435929445
  - # 5
    frequency:    0.4002524040
  - # 6
    frequency:    3.5964590325
  - # 7
    frequency:    3.6067681009
  - # 8
    frequency:    5.7201937041
  - # 9
    frequency:    7.2140521043
  - # 10
    frequency:    7.2610256935
  - # 11
    frequency:    7.9173648900
  - # 12
    frequency:    8.9016761993
  - # 13
    frequency:    8.9984314038
  - # 14
    frequency:   16.2086788790
  - # 15
    frequency:   24.1633139995
  - # 16
    frequency:   24.1904159612
  - # 17
    frequency:   24.4301560591
  - # 18
    frequency:   62.6254033014

- q-position: [    0.0252525,    0.0000000,    0.0000000 ]
  distance:    0.0079803
  band:
  - # 1
    frequency:   -2.6553359353
  - # 2
    frequency:   -2.6487270824
  - # 3
    frequency:    0.0335444435
  - # 4
    frequency:    0.3042821059
  - # 5
    frequency:    0.5002184244
  - # 6
    frequency:    3.5962636326
  - # 7
    frequency:    3.6123407293
  - # 8
    frequency:    5.7201112889
  - # 9
    frequency:    7.2129397228
  - # 10
    frequency:    7.2836527063
  - # 11
    frequency:    7.9133280088
  - # 12
    frequency:    8.8990527840
  - # 13
    frequency:    9.0511179147
  - # 14
    frequency:   16.1907614744
  - # 15
    frequency:   24.1482121343
  - # 16
    frequency:   24.1881492250
  - # 17
    frequency:   24.4482550242
  - # 18
    frequency:   62.6249652520

- q-position: [    0.0303030,    0.0000000,    0.0000000 ]
  distance:    0.0095764
  band:
  - # 1
    frequency:   -2.6549528481
  - # 2
    frequency:   -2.6455750519
  - # 3
    frequency:    0.0481857801
  - # 4
    frequency:    0.3648317997
  - # 5
    frequency:    0.6001152264
  - # 6
    frequency:    3.5960263163
  - # 7
    frequency:    3.6191234786
  - # 8
    frequency:    5.7200110627
  - # 9
    frequency:    7.2115989551
  - # 10
    frequency:    7.3089772689
  - # 11
    frequency:    7.9084533756
  - # 12
    frequency:    8.8958718825
  - # 13
    frequency:    9.1161963225
  - # 14
    frequency:   16.1689653643
  - # 15
    frequency:   24.1311829963
  - # 16
    frequency:   24.1853947636
  - # 17
    frequency:   24.4689422773
  - # 18
    frequency:   62.6244315484

- q-position: [    0.0353535,    0.0000000,    0.0000000 ]
  distance:    0.0111724
  band:
  - # 1
    frequency:   -2.6545019343
  - # 2
    frequency:   -2.6419517660
  - # 3
    frequency:    0.0653952523
  - # 4
    frequency:    0.4252140720
  - # 5
    frequency:    0.6999245897
  - # 6
    frequency:    3.5957479658
  - # 7
    frequency:    3.6270999456
  - # 8
    frequency:    5.7198931337
  - # 9
    frequency:    7.2100410106
  - # 10
    frequency:    7.3359274618
  - # 11
    frequency:    7.9027729704
  - # 12
    frequency:    8.8921486129
  - # 13
    frequency:    9.1938309710
  - # 14
    frequency:   16.1433516994
  - # 15
    frequency:   24.1124896825
  - # 16
    frequency:   24.1821620855
  - # 17
    frequency:   24.4919513333
  - # 18
    frequency:   62.6238031969

- q-position: [    0.0404040,    0.0000000,    0.0000000 ]
  distance:    0.0127685
  band:
  - # 1
    frequency:   -2.6539839665
  - # 2
    frequency:   -2.6378990432
  - # 3
    frequency:    0.0851257438
  - # 4
    frequency:    0.4854009658
  - # 5
    frequency:    0.7996260489
  - # 6
    frequency:    3.5954296090
  - # 7
    frequency:    3.6362513032
  - # 8
    frequency:    5.7197575259
  - # 9
    frequency:    7.2082790642
  - # 10
    frequency:    7.3634845458
  - # 11
    frequency:    7.8963224095
  - # 12
    frequency:    8.8879006795
  - # 13
    frequency:    9.2840325565
  - # 14
    frequency:   16.1139922230
  - # 15
    frequency:   24.0922921456
  - # 16
    frequency:   24.1784623486
  - # 17
    frequency:   24.5171178770
  - # 18
    frequency:   62.6230813802

- q-position: [    0.0454545,    0.0000000,    0.0000000 ]
  distance:    0.0143645
  band:
  - # 1
    frequency:   -2.6533997368
  - # 2
    frequency:   -2.6334594530
  - # 3
    frequency:    0.1073230438
  - # 4
    frequency:    0.5453645430
  - # 5
    frequency:    0.8991966212
  - # 6
    frequency:    3.5950724153
  - # 7
    frequency:    3.6465566314
  - # 8
    frequency:    5.7196041828
  - # 9
    frequency:    7.2063282162
  - # 10
    frequency:    7.3907513312
  - # 11
    frequency:    7.8891408162
  - # 12
    frequency:    8.8831482937
  - # 13
    frequency:    9.3866134583
  - # 14
    frequency:   16.0809690458
  - # 15
    frequency:   24.0706816971
  - # 16
    frequency:   24.1743083207
  - # 17
    frequency:   24.5443450709
  - # 18
    frequency:   62.6222674541

- q-position: [    0.0505051,    0.0000000,    0.0000000 ]
  distance:    0.0159606
  band:
  - # 1
    frequency:   -2.6527500217
  - # 2
    frequency:   -2.6286749135
  - # 3
    frequency:    0.1319261092
  - # 4
    frequency:    0.6050769161
  - # 5
    frequency:    0.9986105636
  - # 6
    frequency:    3.5946776956
  - # 7
    frequency:    3.6579933082
  - # 8
    frequency:    5.7194329901
  - # 9
    frequency:    7.2042054433
  - # 10
    frequency:    7.4169962630
  - # 11
    frequency:    7.8812710988
  - # 12
    frequency:    8.8779140825
  - # 13
    frequency:    9.5011661235
  - # 14
    frequency:   16.0443744140
  - # 15
    frequency:   24.0477067420
  - # 16
    frequency:   24.1697143343
  - # 17
    frequency:   24.5735775986
  - # 18
    frequency:   62.6213629431

- q-position: [    0.0555556,    0.0000000,    0.0000000 ]
  distance:    0.0175566
  band:
  - # 1
    frequency:   -2.6520355472
  - # 2
    frequency:   -2.6235855355
  - # 3
    frequency:    0.1588674254
  - # 4
    frequency:    0.6645102881
  - # 5
    frequency:    1.0978391569
  - # 6
    frequency:    3.5942469055
  - # 7
    frequency:    3.6705374526
  - # 8
    frequency:    5.7192438135
  - # 9
    frequency:    7.2019295403
  - # 10
    frequency:    7.4416702599
  - # 11
    frequency:    7.8727606585
  - # 12
    frequency:    8.8722229862
  - # 13
    frequency:    9.6270665800
  - # 14
    frequency:   16.0043104860
  - # 15
    frequency:   24.0233903986
  - # 16
    frequency:   24.1646962362
  - # 17
    frequency:   24.6047837865
  - # 18
    frequency:   62.6203695367

- q-position: [    0.0606061,    0.0000000,    0.0000000 ]
  distance:    0.0191527
  band:
  - # 1
    frequency:   -2.6512569547
  - # 2
    frequency:   -2.6182287277
  - # 3
    frequency:    0.1880734582
  - # 4
    frequency:    0.7236370024
  - # 5
    frequency:    1.1968505089
  - # 6
    frequency:    3.5937816533
  - # 7
    frequency:    3.6841644050
  - # 8
    frequency:    5.7190365495
  - # 9
    frequency:    7.1995210492
  - # 10
    frequency:    7.4643992544
  - # 11
    frequency:    7.8636625421
  - # 12
    frequency:    8.8661021460
  - # 13
    frequency:    9.7634995185
  - # 14
    frequency:   15.9608891302
  - # 15
    frequency:   23.9977420843
  - # 16
    frequency:   24.1592713311
  - # 17
    frequency:   24.6379437256
  - # 18
    frequency:   62.6192890846

- q-position: [    0.0656566,    0.0000000,    0.0000000 ]
  distance:    0.0207488
  band:
  - # 1
    frequency:   -2.6504147691
  - # 2
    frequency:   -2.6126385564
  - # 3
    frequency:    0.2194651814
  - # 4
    frequency:    0.7824296001
  - # 5
    frequency:    1.2956093693
  - # 6
    frequency:    3.5932837153
  - # 7
    frequency:    3.6988492288
  - # 8
    frequency:    5.7188111830
  - # 9
    frequency:    7.1970021777
  - # 10
    frequency:    7.4849594360
  - # 11
    frequency:    7.8540370636
  - # 12
    frequency:    8.8595807817
  - # 13
    frequency:    9.9094975736
  - # 14
    frequency:   15.9142317648
  - # 15
    frequency:   23.9707649614
  - # 16
    frequency:   24.1534583200
  - # 17
    frequency:   24.6730415008
  - # 18
    frequency:   62.6181235909

- q-position: [    0.0707071,    0.0000000,    0.0000000 ]
  distance:    0.0223448
  band:
  - # 1
    frequency:   -2.6495093703
  - # 2
    frequency:   -2.6068453316
  - # 3
    frequency:    0.2529586625
  - # 4
    frequency:    0.8408608863
  - # 5
    frequency:    1.3940769496
  - # 6
    frequency:    3.5927550583
  - # 7
    frequency:    3.7145672216
  - # 8
    frequency:    5.7185678520
  - # 9
    frequency:    7.1943967025
  - # 10
    frequency:    7.5032434302
  - # 11
    frequency:    7.8439539247
  - # 12
    frequency:    8.8526900597
  - # 13
    frequency:   10.0639864133
  - # 14
    frequency:   15.8644692609
  - # 15
    frequency:   23.9424606313
  - # 16
    frequency:   24.1472772341
  - # 17
    frequency:   24.7100601402
  - # 18
    frequency:   62.6168752094

- q-position: [    0.0757576,    0.0000000,    0.0000000 ]
  distance:    0.0239409
  band:
  - # 1
    frequency:   -2.6485409675
  - # 2
    frequency:   -2.6008753815
  - # 3
    frequency:    0.2884656910
  - # 4
    frequency:    0.8989040028
  - # 5
    frequency:    1.4922107393
  - # 6
    frequency:    3.5921978705
  - # 7
    frequency:    3.7312944213
  - # 8
    frequency:    5.7183069155
  - # 9
    frequency:    7.1917298589
  - # 10
    frequency:    7.5192244708
  - # 11
    frequency:    7.8334948733
  - # 12
    frequency:    8.8454629538
  - # 13
    frequency:   10.2258285790
  - # 14
    frequency:   15.8117419375
  - # 15
    frequency:   23.9128320286
  - # 16
    frequency:   24.1407493627
  - # 17
    frequency:   24.7489783403
  - # 18
    frequency:   62.6155462368

- q-position: [    0.0808081,    0.0000000,    0.0000000 ]
  distance:    0.0255369
  band:
  - # 1
    frequency:   -2.6475095792
  - # 2
    frequency:   -2.5947509769
  - # 3
    frequency:    0.3258944309
  - # 4
    frequency:    0.9565325068
  - # 5
    frequency:    1.5899643131
  - # 6
    frequency:    3.5916146029
  - # 7
    frequency:    3.7490080997
  - # 8
    frequency:    5.7180290259
  - # 9
    frequency:    7.1890282139
  - # 10
    frequency:    7.5329232896
  - # 11
    frequency:    7.8227569014
  - # 12
    frequency:    8.8379340978
  - # 13
    frequency:   10.3938615024
  - # 14
    frequency:   15.7561996831
  - # 15
    frequency:   23.8818851414
  - # 16
    frequency:   24.1338971775
  - # 17
    frequency:   24.7897683442
  - # 18
    frequency:   62.6141391069

- q-position: [    0.0858586,    0.0000000,    0.0000000 ]
  distance:    0.0271330
  band:
  - # 1
    frequency:   -2.6464150176
  - # 2
    frequency:   -2.5884903666
  - # 3
    frequency:    0.3651500860
  - # 4
    frequency:    1.0137204543
  - # 5
    frequency:    1.6872871221
  - # 6
    frequency:    3.5910080206
  - # 7
    frequency:    3.7676872358
  - # 8
    frequency:    5.7177352038
  - # 9
    frequency:    7.1863195227
  - # 10
    frequency:    7.5443801383
  - # 11
    frequency:    7.8118558736
  - # 12
    frequency:    8.8301396313
  - # 13
    frequency:   10.5669276065
  - # 14
    frequency:   15.6980022532
  - # 15
    frequency:   23.8496299722
  - # 16
    frequency:   24.1267442521
  - # 17
    frequency:   24.8323945675
  - # 18
    frequency:   62.6126563833

- q-position: [    0.0909091,    0.0000000,    0.0000000 ]
  distance:    0.0287291
  band:
  - # 1
    frequency:   -2.6452568775
  - # 2
    frequency:   -2.5821078914
  - # 3
    frequency:    0.4061355651
  - # 4
    frequency:    1.0704424873
  - # 5
    frequency:    1.7841242655
  - # 6
    frequency:    3.5903812659
  - # 7
    frequency:    3.7873129660
  - # 8
    frequency:    5.7174269169
  - # 9
    frequency:    7.1836325669
  - # 10
    frequency:    7.5536327915
  - # 11
    frequency:    7.8009302189
  - # 12
    frequency:    8.8221170414
  - # 13
    frequency:   10.7438962431
  - # 14
    frequency:   15.6373198020
  - # 15
    frequency:   23.8160810086
  - # 16
    frequency:   24.1193151770
  - # 17
    frequency:   24.8768127110
  - # 18
    frequency:   62.6111007531

- q-position: [    0.0959596,    0.0000000,    0.0000000 ]
  distance:    0.0303251
  band:
  - # 1
    frequency:   -2.6440345320
  - # 2
    frequency:   -2.5756141544
  - # 3
    frequency:    0.4487521393
  - # 4
    frequency:    1.1266739224
  - # 5
    frequency:    1.8804162398
  - # 6
    frequency:    3.5897379320
  - # 7
    frequency:    3.8078690077
  - # 8
    frequency:    5.7171061629
  - # 9
    frequency:    7.1809969749
  - # 10
    frequency:    7.5607008159
  - # 11
    frequency:    7.7901438156
  - # 12
    frequency:    8.8139049984
  - # 13
    frequency:   10.9236782658
  - # 14
    frequency:   15.5743337360
  - # 15
    frequency:   23.7812573826
  - # 16
    frequency:   24.1116354710
  - # 17
    frequency:   24.9229691942
  - # 18
    frequency:   62.6094750184

- q-position: [    0.1010101,    0.0000000,    0.0000000 ]
  distance:    0.0319212
  band:
  - # 1
    frequency:   -2.6427471317
  - # 2
    frequency:   -2.5690162261
  - # 3
    frequency:    0.4929000834
  - # 4
    frequency:    1.1823908405
  - # 5
    frequency:    1.9760986652
  - # 6
    frequency:    3.5890821480
  - # 7
    frequency:    3.8293420569
  - # 8
    frequency:    5.7167755578
  - # 9
    frequency:    7.1784430234
  - # 10
    frequency:    7.5655767324
  - # 11
    frequency:    7.7796863992
  - # 12
    frequency:    8.8055431897
  - # 13
    frequency:   11.1052344522
  - # 14
    frequency:   15.5092380043
  - # 15
    frequency:   23.7451828328
  - # 16
    frequency:   24.1037314897
  - # 17
    frequency:   24.9708008037
  - # 18
    frequency:   62.6077820899

- q-position: [    0.1060606,    0.0000000,    0.0000000 ]
  distance:    0.0335172
  band:
  - # 1
    frequency:   -2.6413936103
  - # 2
    frequency:   -2.5623178750
  - # 3
    frequency:    0.5384792950
  - # 4
    frequency:    1.2375701755
  - # 5
    frequency:    2.0711019893
  - # 6
    frequency:    3.5884186739
  - # 7
    frequency:    3.8517221580
  - # 8
    frequency:    5.7164384285
  - # 9
    frequency:    7.1760014207
  - # 10
    frequency:    7.5682255950
  - # 11
    frequency:    7.7697688616
  - # 12
    frequency:    8.7970721512
  - # 13
    frequency:   11.2875789721
  - # 14
    frequency:   15.4422409902
  - # 15
    frequency:   23.7078855469
  - # 16
    frequency:   24.0956303293
  - # 17
    frequency:   25.0202344969
  - # 18
    frequency:   62.6060249777

- q-position: [    0.1111111,    0.0000000,    0.0000000 ]
  distance:    0.0351133
  band:
  - # 1
    frequency:   -2.6399726941
  - # 2
    frequency:   -2.5555198166
  - # 3
    frequency:    0.5853898874
  - # 4
    frequency:    1.2921898007
  - # 5
    frequency:    2.1653511742
  - # 6
    frequency:    3.5877530054
  - # 7
    frequency:    3.8750030448
  - # 8
    frequency:    5.7160989142
  - # 9
    frequency:    7.1737030719
  - # 10
    frequency:    7.5685951033
  - # 11
    frequency:    7.7606103531
  - # 12
    frequency:    8.7885330977
  - # 13
    frequency:   11.4697788619
  - # 14
    frequency:   15.3735682400
  - # 15
    frequency:   23.6693979330
  - # 16
    frequency:   24.0873597287
  - # 17
    frequency:   25.0711873219
  - # 18
    frequency:   62.6042067843

- q-position: [    0.1161616,    0.0000000,    0.0000000 ]
  distance:    0.0367094
  band:
  - # 1
    frequency:   -2.6384829162
  - # 2
    frequency:   -2.5486199759
  - # 3
    frequency:    0.6335327493
  - # 4
    frequency:    1.3462286127
  - # 5
    frequency:    2.2587653714
  - # 6
    frequency:    3.5870914850
  - # 7
    frequency:    3.8991824476
  - # 8
    frequency:    5.7157620738
  - # 9
    frequency:    7.1715788273
  - # 10
    frequency:    7.5666371530
  - # 11
    frequency:    7.7524155123
  - # 12
    frequency:    8.7799677542
  - # 13
    frequency:   11.6509501215
  - # 14
    frequency:   15.3034663701
  - # 15
    frequency:   23.6297563518
  - # 16
    frequency:   24.0789479687
  - # 17
    frequency:   25.1235664384
  - # 18
    frequency:   62.6023306952

- q-position: [    0.1212121,    0.0000000,    0.0000000 ]
  distance:    0.0383054
  band:
  - # 1
    frequency:   -2.6369226349
  - # 2
    frequency:   -2.5416137633
  - # 3
    frequency:    0.6828100681
  - # 4
    frequency:    1.3996666099
  - # 5
    frequency:    2.3512575998
  - # 6
    frequency:    3.5864414187
  - # 7
    frequency:    3.9242623586
  - # 8
    frequency:    5.7154340030
  - # 9
    frequency:    7.1696592158
  - # 10
    frequency:    7.5623373831
  - # 11
    frequency:    7.7453446942
  - # 12
    frequency:    8.7714181887
  - # 13
    frequency:   11.8302506505
  - # 14
    frequency:   15.2322086556
  - # 15
    frequency:   23.5890008297
  - # 16
    frequency:   24.0704237688
  - # 17
    frequency:   25.1772692308
  - # 18
    frequency:   62.6003999711

- q-position: [    0.1262626,    0.0000000,    0.0000000 ]
  distance:    0.0399015
  band:
  - # 1
    frequency:   -2.6352900549
  - # 2
    frequency:   -2.5344943633
  - # 3
    frequency:    0.7331258105
  - # 4
    frequency:    1.4524849658
  - # 5
    frequency:    2.4427344419
  - # 6
    frequency:    3.5858111944
  - # 7
    frequency:    3.9502492423
  - # 8
    frequency:    5.7151219618
  - # 9
    frequency:    7.1679741649
  - # 10
    frequency:    7.5557430368
  - # 11
    frequency:    7.7394864831
  - # 12
    frequency:    8.7629266473
  - # 13
    frequency:   12.0068697949
  - # 14
    frequency:   15.1601030523
  - # 15
    frequency:   23.5471747661
  - # 16
    frequency:   24.0618161821
  - # 17
    frequency:   25.2321835161
  - # 18
    frequency:   62.5984179387

- q-position: [    0.1313131,    0.0000000,    0.0000000 ]
  distance:    0.0414975
  band:
  - # 1
    frequency:   -2.6335832526
  - # 2
    frequency:   -2.5272530348
  - # 3
    frequency:    0.7843861573
  - # 4
    frequency:    1.5046660962
  - # 5
    frequency:    2.5330957857
  - # 6
    frequency:    3.5852103987
  - # 7
    frequency:    3.9771541667
  - # 8
    frequency:    5.7148345138
  - # 9
    frequency:    7.1665527106
  - # 10
    frequency:    7.5469766424
  - # 11
    frequency:    7.7348447111
  - # 12
    frequency:    8.7545353932
  - # 13
    frequency:   12.1800137330
  - # 14
    frequency:   15.0875037856
  - # 15
    frequency:   23.5043246408
  - # 16
    frequency:   24.0531544894
  - # 17
    frequency:   25.2881878488
  - # 18
    frequency:   62.5963879823

- q-position: [    0.1363636,    0.0000000,    0.0000000 ]
  distance:    0.0430936
  band:
  - # 1
    frequency:   -2.6318002025
  - # 2
    frequency:   -2.5198794209
  - # 3
    frequency:    0.8364998874
  - # 4
    frequency:    1.5561937187
  - # 5
    frequency:    2.6222346473
  - # 6
    frequency:    3.5846499279
  - # 7
    frequency:    4.0049928242
  - # 8
    frequency:    5.7145816785
  - # 9
    frequency:    7.1654227007
  - # 10
    frequency:    7.5362287145
  - # 11
    frequency:    7.7313466137
  - # 12
    frequency:    8.7462865498
  - # 13
    frequency:   12.3488852209
  - # 14
    frequency:   15.0148282330
  - # 15
    frequency:   23.4604997276
  - # 16
    frequency:   24.0444680913
  - # 17
    frequency:   25.3451519280
  - # 18
    frequency:   62.5943135345

- q-position: [    0.1414141,    0.0000000,    0.0000000 ]
  distance:    0.0446896
  band:
  - # 1
    frequency:   -2.6299388068
  - # 2
    frequency:   -2.5123618686
  - # 3
    frequency:    0.8893787086
  - # 4
    frequency:    1.6070529058
  - # 5
    frequency:    2.7100371250
  - # 6
    frequency:    3.5841420888
  - # 7
    frequency:    4.0337853941
  - # 8
    frequency:    5.7143750996
  - # 9
    frequency:    7.1646104946
  - # 10
    frequency:    7.5237339051
  - # 11
    frequency:    7.7288675800
  - # 12
    frequency:    8.7382219494
  - # 13
    frequency:   12.5126552284
  - # 14
    frequency:   14.9425817340
  - # 15
    frequency:   23.4157518150
  - # 16
    frequency:   24.0357864002
  - # 17
    frequency:   25.4029371140
  - # 18
    frequency:   62.5921980675

- q-position: [    0.1464646,    0.0000000,    0.0000000 ]
  distance:    0.0462857
  band:
  - # 1
    frequency:   -2.6279969264
  - # 2
    frequency:   -2.5046877517
  - # 3
    frequency:    0.9429375316
  - # 4
    frequency:    1.6572301285
  - # 5
    frequency:    2.7963825461
  - # 6
    frequency:    3.5837006845
  - # 7
    frequency:    4.0635561852
  - # 8
    frequency:    5.7142282302
  - # 9
    frequency:    7.1641406648
  - # 10
    frequency:    7.5097423674
  - # 11
    frequency:    7.7272606761
  - # 12
    frequency:    8.7303829870
  - # 13
    frequency:   12.6704225911
  - # 14
    frequency:   14.8713943053
  - # 15
    frequency:   23.3701349365
  - # 16
    frequency:   24.0271387322
  - # 17
    frequency:   25.4613970540
  - # 18
    frequency:   62.5900450840

- q-position: [    0.1515152,    0.0000000,    0.0000000 ]
  distance:    0.0478818
  band:
  - # 1
    frequency:   -2.6259724117
  - # 2
    frequency:   -2.4968437948
  - # 3
    frequency:    0.9970946883
  - # 4
    frequency:    1.7067132934
  - # 5
    frequency:    2.8811438912
  - # 6
    frequency:    3.5833410788
  - # 7
    frequency:    4.0943329773
  - # 8
    frequency:    5.7141565380
  - # 9
    frequency:    7.1640357047
  - # 10
    frequency:    7.4944966426
  - # 11
    frequency:    7.7263805960
  - # 12
    frequency:    8.7228104800
  - # 13
    frequency:   12.8211559288
  - # 14
    frequency:   14.8020750784
  - # 15
    frequency:   23.3237051081
  - # 16
    frequency:   24.0185541988
  - # 17
    frequency:   25.5203784218
  - # 18
    frequency:   62.5878581082

- q-position: [    0.1565657,    0.0000000,    0.0000000 ]
  distance:    0.0494778
  band:
  - # 1
    frequency:   -2.6238631362
  - # 2
    frequency:   -2.4888163928
  - # 3
    frequency:    1.0517720926
  - # 4
    frequency:    1.7554917709
  - # 5
    frequency:    2.9641885917
  - # 6
    frequency:    3.5830802358
  - # 7
    frequency:    4.1261459639
  - # 8
    frequency:    5.7141777313
  - # 9
    frequency:    7.1643157473
  - # 10
    frequency:    7.4782181296
  - # 11
    frequency:    7.7260979654
  - # 12
    frequency:    8.7155445338
  - # 13
    frequency:   12.9636100906
  - # 14
    frequency:   14.7356922416
  - # 15
    frequency:   23.2765200771
  - # 16
    frequency:   24.0100615988
  - # 17
    frequency:   25.5797217667
  - # 18
    frequency:   62.5856406769

- q-position: [    0.1616162,    0.0000000,    0.0000000 ]
  distance:    0.0510739
  band:
  - # 1
    frequency:   -2.6216670283
  - # 2
    frequency:   -2.4805919203
  - # 3
    frequency:    1.1068953464
  - # 4
    frequency:    1.8035564164
  - # 5
    frequency:    3.0453798136
  - # 6
    frequency:    3.5829367279
  - # 7
    frequency:    4.1590261850
  - # 8
    frequency:    5.7143120098
  - # 9
    frequency:    7.1649983016
  - # 10
    frequency:    7.4611020533
  - # 11
    frequency:    7.7263050780
  - # 12
    frequency:    8.7086244131
  - # 13
    frequency:   13.0962091612
  - # 14
    frequency:   14.6736864759
  - # 15
    frequency:   23.2286390771
  - # 16
    frequency:   24.0016893123
  - # 17
    frequency:   25.6392624689
  - # 18
    frequency:   62.5833963306

- q-position: [    0.1666667,    0.0000000,    0.0000000 ]
  distance:    0.0526699
  band:
  - # 1
    frequency:   -2.6193821044
  - # 2
    frequency:   -2.4721570263
  - # 3
    frequency:    1.1623937945
  - # 4
    frequency:    1.8508995832
  - # 5
    frequency:    3.1245783415
  - # 6
    frequency:    3.5829307076
  - # 7
    frequency:    4.1930033334
  - # 8
    frequency:    5.7145823406
  - # 9
    frequency:    7.1660980104
  - # 10
    frequency:    7.4433179007
  - # 11
    frequency:    7.7269160983
  - # 12
    frequency:    8.7020884185
  - # 13
    frequency:   13.2168959683
  - # 14
    frequency:   14.6180179629
  - # 15
    frequency:   23.1801225935
  - # 16
    frequency:   23.9934651950
  - # 17
    frequency:   25.6988317911
  - # 18
    frequency:   62.5811286045

- q-position: [    0.1717172,    0.0000000,    0.0000000 ]
  distance:    0.0542660
  band:
  - # 1
    frequency:   -2.6170065008
  - # 2
    frequency:   -2.4634989079
  - # 3
    frequency:    1.2182005305
  - # 4
    frequency:    1.8975151303
  - # 5
    frequency:    3.2016451646
  - # 6
    frequency:    3.5830838394
  - # 7
    frequency:    4.2281028352
  - # 8
    frequency:    5.7150147599
  - # 9
    frequency:    7.1676264361
  - # 10
    frequency:    7.4250125425
  - # 11
    frequency:    7.7278645177
  - # 12
    frequency:    8.6959737674
  - # 13
    frequency:   13.3229808823
  - # 14
    frequency:   14.5713141849
  - # 15
    frequency:   23.1310321358
  - # 16
    frequency:   23.9854164746
  - # 17
    frequency:   25.7582580160
  - # 18
    frequency:   62.5788410203

- q-position: [    0.1767677,    0.0000000,    0.0000000 ]
  distance:    0.0558621
  band:
  - # 1
    frequency:   -2.6145385048
  - # 2
    frequency:   -2.4546055604
  - # 3
    frequency:    1.2742523608
  - # 4
    frequency:    1.9433984228
  - # 5
    frequency:    3.2764448246
  - # 6
    frequency:    3.5834191863
  - # 7
    frequency:    4.2643421436
  - # 8
    frequency:    5.7156387024
  - # 9
    frequency:    7.1695918791
  - # 10
    frequency:    7.4063142145
  - # 11
    frequency:    7.7290996972
  - # 12
    frequency:    8.6903164797
  - # 13
    frequency:   13.4111105411
  - # 14