nqpoint: 300    
npath: 3      
segment_nqpoint:
- 100
- 100
- 100
labels:
- [ 'G', 'M' ]
- [ 'M', 'K' ]
- [ 'K', 'G' ]
reciprocal_lattice:
- [   0.29944254,   0.17288323,   0.00000000 ] # a*
- [   0.00000000,   0.34576646,   0.00000000 ] # b*
- [   0.00000000,   0.00000000,   0.03894927 ] # c*
natom: 7      
lattice:
- [     3.339538849289228,     0.000000000000000,     0.000000000000000 ] # a
- [    -1.669769424644614,     2.892125480410634,     0.000000000000000 ] # b
- [     0.000000000000000,     0.000000000000000,    25.674418911817455 ] # c
points:
- symbol: C # 1
  coordinates: [  0.000000000000000,  0.000000000000000,  0.500000032624944 ]
  mass: 12.010700
- symbol: N # 2
  coordinates: [  0.333332985432215,  0.666666983183674,  0.599369191576469 ]
  mass: 14.006700
- symbol: N # 3
  coordinates: [  0.666666984744047,  0.333332985985145,  0.400630808423531 ]
  mass: 14.006700
- symbol: O # 4
  coordinates: [  0.333332985432215,  0.666666983183674,  0.649456525932999 ]
  mass: 15.999400
- symbol: O # 5
  coordinates: [  0.666666984744047,  0.333332985985145,  0.350543474067001 ]
  mass: 15.999400
- symbol: Sc # 6
  coordinates: [  0.333332985432215,  0.666666983183674,  0.449827272584167 ]
  mass: 44.955912
- symbol: Sc # 7
  coordinates: [  0.666666984744047,  0.333332985985145,  0.550172726928885 ]
  mass: 44.955912

phonon:
- q-position: [    0.0000000,    0.0000000,    0.0000000 ]
  distance:    0.0000000
  band:
  - # 1
    frequency:   -3.1365393320
  - # 2
    frequency:   -3.1365393320
  - # 3
    frequency:   -2.6885196156
  - # 4
    frequency:   -0.0000007307
  - # 5
    frequency:   -0.0000004512
  - # 6
    frequency:    0.0000008478
  - # 7
    frequency:    2.8099760007
  - # 8
    frequency:    2.8099760007
  - # 9
    frequency:    4.6228320772
  - # 10
    frequency:    4.6228320772
  - # 11
    frequency:    5.4406002855
  - # 12
    frequency:    5.4406002855
  - # 13
    frequency:    6.3132380617
  - # 14
    frequency:    6.3132380617
  - # 15
    frequency:    7.2515594066
  - # 16
    frequency:    7.7599731527
  - # 17
    frequency:   12.0209922990
  - # 18
    frequency:   12.0209922990
  - # 19
    frequency:   15.6844248378
  - # 20
    frequency:   44.7480587166
  - # 21
    frequency:   44.8097172795

- q-position: [    0.0050505,    0.0000000,    0.0000000 ]
  distance:    0.0017463
  band:
  - # 1
    frequency:   -3.1572834739
  - # 2
    frequency:   -3.1313070288
  - # 3
    frequency:   -2.6572647280
  - # 4
    frequency:    0.0370310775
  - # 5
    frequency:    0.0671248172
  - # 6
    frequency:    0.1709947495
  - # 7
    frequency:    2.8104926393
  - # 8
    frequency:    2.8110914588
  - # 9
    frequency:    4.6222754005
  - # 10
    frequency:    4.6227356135
  - # 11
    frequency:    5.4390393165
  - # 12
    frequency:    5.4400829720
  - # 13
    frequency:    6.3108887785
  - # 14
    frequency:    6.3116367354
  - # 15
    frequency:    7.2545631523
  - # 16
    frequency:    7.7602626999
  - # 17
    frequency:   12.0216601894
  - # 18
    frequency:   12.0225119250
  - # 19
    frequency:   15.6843004767
  - # 20
    frequency:   44.7473474866
  - # 21
    frequency:   44.8088742859

- q-position: [    0.0101010,    0.0000000,    0.0000000 ]
  distance:    0.0034926
  band:
  - # 1
    frequency:   -3.2073758231
  - # 2
    frequency:   -3.1156064995
  - # 3
    frequency:   -2.5756858771
  - # 4
    frequency:    0.0742164392
  - # 5
    frequency:    0.1342626947
  - # 6
    frequency:    0.3432653100
  - # 7
    frequency:    2.8120437186
  - # 8
    frequency:    2.8144439435
  - # 9
    frequency:    4.6206132262
  - # 10
    frequency:    4.6224383761
  - # 11
    frequency:    5.4342969303
  - # 12
    frequency:    5.4384900594
  - # 13
    frequency:    6.3040473510
  - # 14
    frequency:    6.3069142390
  - # 15
    frequency:    7.2634143747
  - # 16
    frequency:    7.7611351130
  - # 17
    frequency:   12.0236546019
  - # 18
    frequency:   12.0270719165
  - # 19
    frequency:   15.6839264383
  - # 20
    frequency:   44.7452144865
  - # 21
    frequency:   44.8063467196

- q-position: [    0.0151515,    0.0000000,    0.0000000 ]
  distance:    0.0052389
  band:
  - # 1
    frequency:   -3.2688108915
  - # 2
    frequency:   -3.0894265280
  - # 3
    frequency:   -2.4619482409
  - # 4
    frequency:    0.1117239348
  - # 5
    frequency:    0.2014272706
  - # 6
    frequency:    0.5181252837
  - # 7
    frequency:    2.8146327072
  - # 8
    frequency:    2.8200535675
  - # 9
    frequency:    4.6178691010
  - # 10
    frequency:    4.6219153964
  - # 11
    frequency:    5.4261976043
  - # 12
    frequency:    5.4357010155
  - # 13
    frequency:    6.2933011973
  - # 14
    frequency:    6.2993132599
  - # 15
    frequency:    7.2776624235
  - # 16
    frequency:    7.7626017379
  - # 17
    frequency:   12.0269480066
  - # 18
    frequency:   12.0346755401
  - # 19
    frequency:   15.6832998627
  - # 20
    frequency:   44.7416617823
  - # 21
    frequency:   44.8021388215

- q-position: [    0.0202020,    0.0000000,    0.0000000 ]
  distance:    0.0069852
  band:
  - # 1
    frequency:   -3.3317519463
  - # 2
    frequency:   -3.0527471993
  - # 3
    frequency:   -2.3262281212
  - # 4
    frequency:    0.1497520697
  - # 5
    frequency:    0.2686334472
  - # 6
    frequency:    0.6969327253
  - # 7
    frequency:    2.8182653068
  - # 8
    frequency:    2.8279601758
  - # 9
    frequency:    4.6140822151
  - # 10
    frequency:    4.6211200558
  - # 11
    frequency:    5.4144595783
  - # 12
    frequency:    5.4315233783
  - # 13
    frequency:    6.2795347834
  - # 14
    frequency:    6.2892315991
  - # 15
    frequency:    7.2966421049
  - # 16
    frequency:    7.7646815929
  - # 17
    frequency:   12.0314953312
  - # 18
    frequency:   12.0453279921
  - # 19
    frequency:   15.6824160043
  - # 20
    frequency:   44.7366928064
  - # 21
    frequency:   44.7962576503

- q-position: [    0.0252525,    0.0000000,    0.0000000 ]
  distance:    0.0087315
  band:
  - # 1
    frequency:   -3.3920634924
  - # 2
    frequency:   -3.0055379478
  - # 3
    frequency:   -2.1732770221
  - # 4
    frequency:    0.1885556767
  - # 5
    frequency:    0.3358983050
  - # 6
    frequency:    0.8810209271
  - # 7
    frequency:    2.8229493174
  - # 8
    frequency:    2.8382343308
  - # 9
    frequency:    4.6093073676
  - # 10
    frequency:    4.6199756736
  - # 11
    frequency:    5.3987146346
  - # 12
    frequency:    5.4257069088
  - # 13
    frequency:    6.2638202941
  - # 14
    frequency:    6.2772094764
  - # 15
    frequency:    7.3195684327
  - # 16
    frequency:    7.7674015449
  - # 17
    frequency:   12.0372351328
  - # 18
    frequency:   12.0590360285
  - # 19
    frequency:   15.6812682625
  - # 20
    frequency:   44.7303123404
  - # 21
    frequency:   44.7887130692

- q-position: [    0.0303030,    0.0000000,    0.0000000 ]
  distance:    0.0104778
  band:
  - # 1
    frequency:   -3.4481333411
  - # 2
    frequency:   -2.9477545721
  - # 3
    frequency:   -2.0056756716
  - # 4
    frequency:    0.2284893946
  - # 5
    frequency:    0.4032423841
  - # 6
    frequency:    1.0714912516
  - # 7
    frequency:    2.8286944123
  - # 8
    frequency:    2.8509962866
  - # 9
    frequency:    4.6036150036
  - # 10
    frequency:    4.6183617064
  - # 11
    frequency:    5.3785425503
  - # 12
    frequency:    5.4179658448
  - # 13
    frequency:    6.2473085729
  - # 14
    frequency:    6.2639070795
  - # 15
    frequency:    7.3456227548
  - # 16
    frequency:    7.7707965810
  - # 17
    frequency:   12.0440911551
  - # 18
    frequency:   12.0758074465
  - # 19
    frequency:   15.6798482252
  - # 20
    frequency:   44.7225264905
  - # 21
    frequency:   44.7795177279

- q-position: [    0.0353535,    0.0000000,    0.0000000 ]
  distance:    0.0122241
  band:
  - # 1
    frequency:   -3.4994338765
  - # 2
    frequency:   -2.8793349180
  - # 3
    frequency:   -1.8251980947
  - # 4
    frequency:    0.2700883211
  - # 5
    frequency:    0.4706915115
  - # 6
    frequency:    1.2688190996
  - # 7
    frequency:    2.8355117835
  - # 8
    frequency:    2.8664482553
  - # 9
    frequency:    4.5970913897
  - # 10
    frequency:    4.6160919861
  - # 11
    frequency:    5.3535256646
  - # 12
    frequency:    5.4080101840
  - # 13
    frequency:    6.2311345913
  - # 14
    frequency:    6.2500695394
  - # 15
    frequency:    7.3740150091
  - # 16
    frequency:    7.7749101968
  - # 17
    frequency:   12.0519741959
  - # 18
    frequency:   12.0956504210
  - # 19
    frequency:   15.6781457253
  - # 20
    frequency:   44.7133426528
  - # 21
    frequency:   44.7686870428

- q-position: [    0.0404040,    0.0000000,    0.0000000 ]
  distance:    0.0139704
  band:
  - # 1
    frequency:   -3.5459308683
  - # 2
    frequency:   -2.8001927734
  - # 3
    frequency:   -1.6329617881
  - # 4
    frequency:    0.3142309342
  - # 5
    frequency:    0.5382794067
  - # 6
    frequency:    1.4723271192
  - # 7
    frequency:    2.8434135977
  - # 8
    frequency:    2.8849301861
  - # 9
    frequency:    4.5898389936
  - # 10
    frequency:    4.6128808075
  - # 11
    frequency:    5.3233284202
  - # 12
    frequency:    5.3955849683
  - # 13
    frequency:    6.2163408994
  - # 14
    frequency:    6.2364787194
  - # 15
    frequency:    7.4040196626
  - # 16
    frequency:    7.7797949168
  - # 17
    frequency:   12.0607842013
  - # 18
    frequency:   12.1185727003
  - # 19
    frequency:   15.6761489096
  - # 20
    frequency:   44.7027694688
  - # 21
    frequency:   44.7562391769

- q-position: [    0.0454545,    0.0000000,    0.0000000 ]
  distance:    0.0157167
  band:
  - # 1
    frequency:   -3.5878273498
  - # 2
    frequency:   -2.7102092852
  - # 3
    frequency:   -1.4287013936
  - # 4
    frequency:    0.3624999925
  - # 5
    frequency:    0.6060513848
  - # 6
    frequency:    1.6797674107
  - # 7
    frequency:    2.8524121749
  - # 8
    frequency:    2.9070189615
  - # 9
    frequency:    4.5819771227
  - # 10
    frequency:    4.6082903372
  - # 11
    frequency:    5.2878049458
  - # 12
    frequency:    5.3805134200
  - # 13
    frequency:    6.2038181619
  - # 14
    frequency:    6.2238953485
  - # 15
    frequency:    7.4349904222
  - # 16
    frequency:    7.7855129448
  - # 17
    frequency:   12.0704124966
  - # 18
    frequency:   12.1445806656
  - # 19
    frequency:   15.6738443208
  - # 20
    frequency:   44.6908167656
  - # 21
    frequency:   44.7421950227

- q-position: [    0.0505051,    0.0000000,    0.0000000 ]
  distance:    0.0174630
  band:
  - # 1
    frequency:   -3.6254431252
  - # 2
    frequency:   -2.6092208406
  - # 3
    frequency:   -1.2094691225
  - # 4
    frequency:    0.4180681925
  - # 5
    frequency:    0.6740695984
  - # 6
    frequency:    1.8873041619
  - # 7
    frequency:    2.8625187611
  - # 8
    frequency:    2.9337095765
  - # 9
    frequency:    4.5736428686
  - # 10
    frequency:    4.6016500057
  - # 11
    frequency:    5.2471357400
  - # 12
    frequency:    5.3627366135
  - # 13
    frequency:    6.1942630439
  - # 14
    frequency:    6.2129998544
  - # 15
    frequency:    7.4663609360
  - # 16
    frequency:    7.7921368851
  - # 17
    frequency:   12.0807440717
  - # 18
    frequency:   12.1736782653
  - # 19
    frequency:   15.6712169933
  - # 20
    frequency:   44.6774954768
  - # 21
    frequency:   44.7265781946

- q-position: [    0.0555556,    0.0000000,    0.0000000 ]
  distance:    0.0192092
  band:
  - # 1
    frequency:   -3.6591529067
  - # 2
    frequency:   -2.4970017636
  - # 3
    frequency:   -0.9684306819
  - # 4
    frequency:    0.4880799058
  - # 5
    frequency:    0.7424204380
  - # 6
    frequency:    2.0898452610
  - # 7
    frequency:    2.8737417007
  - # 8
    frequency:    2.9667479398
  - # 9
    frequency:    4.5649924048
  - # 10
    frequency:    4.5919373575
  - # 11
    frequency:    5.2019928019
  - # 12
    frequency:    5.3423410957
  - # 13
    frequency:    6.1881560553
  - # 14
    frequency:    6.2043431864
  - # 15
    frequency:    7.4976378352
  - # 16
    frequency:    7.7997503688
  - # 17
    frequency:   12.0916598401
  - # 18
    frequency:   12.2058658373
  - # 19
    frequency:   15.6682505616
  - # 20
    frequency:   44.6628175373
  - # 21
    frequency:   44.7094150381

- q-position: [    0.0606061,    0.0000000,    0.0000000 ]
  distance:    0.0209555
  band:
  - # 1
    frequency:   -3.6893515525
  - # 2
    frequency:   -2.3732391664
  - # 3
    frequency:   -0.6965366912
  - # 4
    frequency:    0.5896005053
  - # 5
    frequency:    0.8112249517
  - # 6
    frequency:    2.2812242829
  - # 7
    frequency:    2.8860837117
  - # 8
    frequency:    3.0092042631
  - # 9
    frequency:    4.5562027148
  - # 10
    frequency:    4.5776182123
  - # 11
    frequency:    5.1537256021
  - # 12
    frequency:    5.3195680996
  - # 13
    frequency:    6.1857617644
  - # 14
    frequency:    6.1983175561
  - # 15
    frequency:    7.5283907575
  - # 16
    frequency:    7.8084482211
  - # 17
    frequency:   12.1030388061
  - # 18
    frequency:   12.2411388393
  - # 19
    frequency:   15.6649273814
  - # 20
    frequency:   44.6467957380
  - # 21
    frequency:   44.6907346695

- q-position: [    0.0656566,    0.0000000,    0.0000000 ]
  distance:    0.0227018
  band:
  - # 1
    frequency:   -3.7164326188
  - # 2
    frequency:   -2.2374954643
  - # 3
    frequency:   -0.3951599319
  - # 4
    frequency:    0.7500545392
  - # 5
    frequency:    0.8806534516
  - # 6
    frequency:    2.4539142532
  - # 7
    frequency:    2.8995377914
  - # 8
    frequency:    3.0661927872
  - # 9
    frequency:    4.5474739341
  - # 10
    frequency:    4.5564831741
  - # 11
    frequency:    5.1045269495
  - # 12
    frequency:    5.2948033900
  - # 13
    frequency:    6.1871502850
  - # 14
    frequency:    6.1951513118
  - # 15
    frequency:    7.5582425656
  - # 16
    frequency:    7.8183355022
  - # 17
    frequency:   12.1147600873
  - # 18
    frequency:   12.2794865107
  - # 19
    frequency:   15.6612286645
  - # 20
    frequency:   44.6294435200
  - # 21
    frequency:   44.6705690674

- q-position: [    0.0707071,    0.0000000,    0.0000000 ]
  distance:    0.0244481
  band:
  - # 1
    frequency:   -3.7407738490
  - # 2
    frequency:   -2.0891504838
  - # 3
    frequency:    0.1592697081
  - # 4
    frequency:    0.9509457738
  - # 5
    frequency:    0.9561069482
  - # 6
    frequency:    2.5993356493
  - # 7
    frequency:    2.9140809785
  - # 8
    frequency:    3.1446113798
  - # 9
    frequency:    4.5256191414
  - # 10
    frequency:    4.5390327304
  - # 11
    frequency:    5.0574436723
  - # 12
    frequency:    5.2685528737
  - # 13
    frequency:    6.1922342858
  - # 14
    frequency:    6.1949249550
  - # 15
    frequency:    7.5868621090
  - # 16
    frequency:    7.8295244050
  - # 17
    frequency:   12.1267047502
  - # 18
    frequency:   12.3208904983
  - # 19
    frequency:   15.6571346253
  - # 20
    frequency:   44.6107746752
  - # 21
    frequency:   44.6489532505

- q-position: [    0.0757576,    0.0000000,    0.0000000 ]
  distance:    0.0261944
  band:
  - # 1
    frequency:   -3.7627265351
  - # 2
    frequency:   -1.9273074153
  - # 3
    frequency:    0.3550770402
  - # 4
    frequency:    1.0224387081
  - # 5
    frequency:    1.1580617340
  - # 6
    frequency:    2.7115773610
  - # 7
    frequency:    2.9296646456
  - # 8
    frequency:    3.2492522900
  - # 9
    frequency:    4.4817835692
  - # 10
    frequency:    4.5311376958
  - # 11
    frequency:    5.0159734808
  - # 12
    frequency:    5.2414129757
  - # 13
    frequency:    6.1976002860
  - # 14
    frequency:    6.2008129525
  - # 15
    frequency:    7.6139613210
  - # 16
    frequency:    7.8421277929
  - # 17
    frequency:   12.1387574349
  - # 18
    frequency:   12.3653234812
  - # 19
    frequency:   15.6526246400
  - # 20
    frequency:   44.5908028930
  - # 21
    frequency:   44.6259256025

- q-position: [    0.0808081,    0.0000000,    0.0000000 ]
  distance:    0.0279407
  band:
  - # 1
    frequency:   -3.7826072689
  - # 2
    frequency:   -1.7506285539
  - # 3
    frequency:    0.4444742490
  - # 4
    frequency:    1.0956011255
  - # 5
    frequency:    1.3399838768
  - # 6
    frequency:    2.7928610842
  - # 7
    frequency:    2.9461989539
  - # 8
    frequency:    3.3771176266
  - # 9
    frequency:    4.4223311523
  - # 10
    frequency:    4.5240888997
  - # 11
    frequency:    4.9831095301
  - # 12
    frequency:    5.2140452775
  - # 13
    frequency:    6.2030536410
  - # 14
    frequency:    6.2126146928
  - # 15
    frequency:    7.6392976056
  - # 16
    frequency:    7.8562485946
  - # 17
    frequency:   12.1508077521
  - # 18
    frequency:   12.4127478372
  - # 19
    frequency:   15.6476774158
  - # 20
    frequency:   44.5695410508
  - # 21
    frequency:   44.6015284467

- q-position: [    0.0858586,    0.0000000,    0.0000000 ]
  distance:    0.0296870
  band:
  - # 1
    frequency:   -3.8006913899
  - # 2
    frequency:   -1.5570174396
  - # 3
    frequency:    0.5087291038
  - # 4
    frequency:    1.1710732914
  - # 5
    frequency:    1.5035037114
  - # 6
    frequency:    2.8517700609
  - # 7
    frequency:    2.9635270171
  - # 8
    frequency:    3.5189909887
  - # 9
    frequency:    4.3462132339
  - # 10
    frequency:    4.5182463324
  - # 11
    frequency:    4.9603235234
  - # 12
    frequency:    5.1871630902
  - # 13
    frequency:    6.2111063327
  - # 14
    frequency:    6.2273330932
  - # 15
    frequency:    7.6626806937
  - # 16
    frequency:    7.8719658385
  - # 17
    frequency:   12.1627514503
  - # 18
    frequency:   12.4631143977
  - # 19
    frequency:   15.6422711716
  - # 20
    frequency:   44.5470000633
  - # 21
    frequency:   44.5758090565

- q-position: [    0.0909091,    0.0000000,    0.0000000 ]
  distance:    0.0314333
  band:
  - # 1
    frequency:   -3.8172078493
  - # 2
    frequency:   -1.3429108819
  - # 3
    frequency:    0.5628487755
  - # 4
    frequency:    1.2496951387
  - # 5
    frequency:    1.6522038030
  - # 6
    frequency:    2.8966510141
  - # 7
    frequency:    2.9813799318
  - # 8
    frequency:    3.6658587203
  - # 9
    frequency:    4.2541882396
  - # 10
    frequency:    4.5140677598
  - # 11
    frequency:    4.9473613679
  - # 12
    frequency:    5.1615355687
  - # 13
    frequency:    6.2215486986
  - # 14
    frequency:    6.2446539150
  - # 15
    frequency:    7.6839804267
  - # 16
    frequency:    7.8893207565
  - # 17
    frequency:   12.1744913554
  - # 18
    frequency:   12.5163613363
  - # 19
    frequency:   15.6363838269
  - # 20
    frequency:   44.5231869587
  - # 21
    frequency:   44.5488214350

- q-position: [    0.0959596,    0.0000000,    0.0000000 ]
  distance:    0.0331796
  band:
  - # 1
    frequency:   -3.8323354159
  - # 2
    frequency:   -1.1013723932
  - # 3
    frequency:    0.6119497620
  - # 4
    frequency:    1.3324812021
  - # 5
    frequency:    1.7888854566
  - # 6
    frequency:    2.9329330408
  - # 7
    frequency:    2.9992940587
  - # 8
    frequency:    3.8113990856
  - # 9
    frequency:    4.1481952168
  - # 10
    frequency:    4.5121899443
  - # 11
    frequency:    4.9429187310
  - # 12
    frequency:    5.1380143722
  - # 13
    frequency:    6.2341569451
  - # 14
    frequency:    6.2642734078
  - # 15
    frequency:    7.7031297375
  - # 16
    frequency:    7.9083085463
  - # 17
    frequency:   12.1859380932
  - # 18
    frequency:   12.5724132417
  - # 19
    frequency:   15.6299931985
  - # 20
    frequency:   44.4981015954
  - # 21
    frequency:   44.5206294494

- q-position: [    0.1010101,    0.0000000,    0.0000000 ]
  distance:    0.0349259
  band:
  - # 1
    frequency:   -3.8462002473
  - # 2
    frequency:   -0.8152838392
  - # 3
    frequency:    0.6582082430
  - # 4
    frequency:    1.4204551444
  - # 5
    frequency:    1.9154894401
  - # 6
    frequency:    2.9636786659
  - # 7
    frequency:    3.0164488373
  - # 8
    frequency:    3.9511474755
  - # 9
    frequency:    4.0306911752
  - # 10
    frequency:    4.5136085220
  - # 11
    frequency:    4.9454368597
  - # 12
    frequency:    5.1175895645
  - # 13
    frequency:    6.2487036436
  - # 14
    frequency:    6.2859095147
  - # 15
    frequency:    7.7201179529
  - # 16
    frequency:    7.9288805457
  - # 17
    frequency:   12.1970106091
  - # 18
    frequency:   12.6311804169
  - # 19
    frequency:   15.6230772036
  - # 20
    frequency:   44.4717310858
  - # 21
    frequency:   44.4913122579

- q-position: [    0.1060606,    0.0000000,    0.0000000 ]
  distance:    0.0366722
  band:
  - # 1
    frequency:   -3.8588748691
  - # 2
    frequency:   -0.4114052602
  - # 3
    frequency:    0.7026583022
  - # 4
    frequency:    1.5142352097
  - # 5
    frequency:    2.0333297087
  - # 6
    frequency:    2.9905594081
  - # 7
    frequency:    3.0313262093
  - # 8
    frequency:    3.9045371934
  - # 9
    frequency:    4.0810021277
  - # 10
    frequency:    4.5200767051
  - # 11
    frequency:    4.9535316630
  - # 12
    frequency:    5.1014851574
  - # 13
    frequency:    6.2649633874
  - # 14
    frequency:    6.3093078702
  - # 15
    frequency:    7.7349741883
  - # 16
    frequency:    7.9509569443
  - # 17
    frequency:   12.2076365014
  - # 18
    frequency:   12.6925584453
  - # 19
    frequency:   15.6156140675
  - # 20
    frequency:   44.4440409743
  - # 21
    frequency:   44.4609729777

- q-position: [    0.1111111,    0.0000000,    0.0000000 ]
  distance:    0.0384185
  band:
  - # 1
    frequency:   -3.8703785763
  - # 2
    frequency:    0.5153204198
  - # 3
    frequency:    0.7458062575
  - # 4
    frequency:    1.6133992862
  - # 5
    frequency:    2.1432923384
  - # 6
    frequency:    3.0144932567
  - # 7
    frequency:    3.0409507742
  - # 8
    frequency:    3.7736312087
  - # 9
    frequency:    4.1956511182
  - # 10
    frequency:    4.5348829971
  - # 11
    frequency:    4.9660986554
  - # 12
    frequency:    5.0913070087
  - # 13
    frequency:    6.2827151568
  - # 14
    frequency:    6.3342442846
  - # 15
    frequency:    7.7477460545
  - # 16
    frequency:    7.9744447367
  - # 17
    frequency:   12.2177521868
  - # 18
    frequency:   12.7564280527
  - # 19
    frequency:   15.6075825343
  - # 20
    frequency:   44.4149647224
  - # 21
    frequency:   44.4297490473

- q-position: [    0.1161616,    0.0000000,    0.0000000 ]
  distance:    0.0401648
  band:
  - # 1
    frequency:   -3.8806792209
  - # 2
    frequency:    0.7878802520
  - # 3
    frequency:    0.7985784405
  - # 4
    frequency:    1.7160338408
  - # 5
    frequency:    2.2459725443
  - # 6
    frequency:    3.0359962575
  - # 7
    frequency:    3.0391832857
  - # 8
    frequency:    3.6446349595
  - # 9
    frequency:    4.2874418877
  - # 10
    frequency:    4.5634312038
  - # 11
    frequency:    4.9822749332
  - # 12
    frequency:    5.0892405050
  - # 13
    frequency:    6.3017426912
  - # 14
    frequency:    6.3605250016
  - # 15
    frequency:    7.7584809133
  - # 16
    frequency:    7.9992536348
  - # 17
    frequency:   12.2273029157
  - # 18
    frequency:   12.8226552850
  - # 19
    frequency:   15.5989620787
  - # 20
    frequency:   44.3844041443
  - # 21
    frequency:   44.3978116368

- q-position: [    0.1212121,    0.0000000,    0.0000000 ]
  distance:    0.0419111
  band:
  - # 1
    frequency:   -3.8896962723
  - # 2
    frequency:    0.8289452892
  - # 3
    frequency:    0.9754043365
  - # 4
    frequency:    1.8190343983
  - # 5
    frequency:    2.3417656032
  - # 6
    frequency:    3.0136751402
  - # 7
    frequency:    3.0553739989
  - # 8
    frequency:    3.5300808407
  - # 9
    frequency:    4.3496538872
  - # 10
    frequency:    4.6096235493
  - # 11
    frequency:    5.0013696636
  - # 12
    frequency:    5.0982072681
  - # 13
    frequency:    6.3218338601
  - # 14
    frequency:    6.3879856188
  - # 15
    frequency:    7.7672145437
  - # 16
    frequency:    8.0253050542
  - # 17
    frequency:   12.2362426561
  - # 18
    frequency:   12.8910920086
  - # 19
    frequency:   15.5897331177
  - # 20
    frequency:   44.3522714957
  - # 21
    frequency:   44.3653234058

- q-position: [    0.1262626,    0.0000000,    0.0000000 ]
  distance:    0.0436574
  band:
  - # 1
    frequency:   -3.8973049732
  - # 2
    frequency:    0.8689618837
  - # 3
    frequency:    1.1019102920
  - # 4
    frequency:    1.9190871607
  - # 5
    frequency:    2.4309272099
  - # 6
    frequency:    2.9458934376
  - # 7
    frequency:    3.0728303319
  - # 8
    frequency:    3.4484219227
  - # 9
    frequency:    4.3851166488
  - # 10
    frequency:    4.6673782647
  - # 11
    frequency:    5.0228043637
  - # 12
    frequency:    5.1216277978
  - # 13
    frequency:    6.3427797420
  - # 14
    frequency:    6.4164892455
  - # 15
    frequency:    7.7739679956
  - # 16
    frequency:    8.0525333954
  - # 17
    frequency:   12.2445338636
  - # 18
    frequency:   12.9615767257
  - # 19
    frequency:   15.5798772199
  - # 20
    frequency:   44.3185741156
  - # 21
    frequency:   44.3323537111

- q-position: [    0.1313131,    0.0000000,    0.0000000 ]
  distance:    0.0454037
  band:
  - # 1
    frequency:   -3.9033413487
  - # 2
    frequency:    0.9078186413
  - # 3
    frequency:    1.1970891339
  - # 4
    frequency:    2.0135641601
  - # 5
    frequency:    2.5136137023
  - # 6
    frequency:    2.8259345824
  - # 7
    frequency:    3.0885330603
  - # 8
    frequency:    3.4093385514
  - # 9
    frequency:    4.4037601819
  - # 10
    frequency:    4.7242777138
  - # 11
    frequency:    5.0460716558
  - # 12
    frequency:    5.1621662554
  - # 13
    frequency:    6.3643739017
  - # 14
    frequency:    6.4459242522
  - # 15
    frequency:    7.7787505122
  - # 16
    frequency:    8.0808817586
  - # 17
    frequency:   12.2521471543
  - # 18
    frequency:   13.0339356861
  - # 19
    frequency:   15.5693773127
  - # 20
    frequency:   44.2834442065
  - # 21
    frequency:   44.2988486764

- q-position: [    0.1363636,    0.0000000,    0.0000000 ]
  distance:    0.0471500
  band:
  - # 1
    frequency:   -3.9076077917
  - # 2
    frequency:    0.9453517364
  - # 3
    frequency:    1.2690087452
  - # 4
    frequency:    2.1008400740
  - # 5
    frequency:    2.5899085750
  - # 6
    frequency:    2.6634783729
  - # 7
    frequency:    3.1026563782
  - # 8
    frequency:    3.4030712074
  - # 9
    frequency:    4.4131329600
  - # 10
    frequency:    4.7730516717
  - # 11
    frequency:    5.0707105506
  - # 12
    frequency:    5.2196972258
  - # 13
    frequency:    6.3864121859
  - # 14
    frequency:    6.4762018247
  - # 15
    frequency:    7.7815655495
  - # 16
    frequency:    8.1102950862
  - # 17
    frequency:   12.2590608963
  - # 18
    frequency:   13.1079842621
  - # 19
    frequency:   15.5582178842
  - # 20
    frequency:   44.2470667988
  - # 21
    frequency:   44.2647030813

- q-position: [    0.1414141,    0.0000000,    0.0000000 ]
  distance:    0.0488963
  band:
  - # 1
    frequency:   -3.9098789267
  - # 2
    frequency:    0.9813572645
  - # 3
    frequency:    1.3191405849
  - # 4
    frequency:    2.1801647902
  - # 5
    frequency:    2.4733650435
  - # 6
    frequency:    2.6598392267
  - # 7
    frequency:    3.1154099447
  - # 8
    frequency:    3.4156831385
  - # 9
    frequency:    4.4169465447
  - # 10
    frequency:    4.8135724326
  - # 11
    frequency:    5.0962940811
  - # 12
    frequency:    5.2907485652
  - # 13
    frequency:    6.4086932262
  - # 14
    frequency:    6.5072534500
  - # 15
    frequency:    7.7824174643
  - # 16
    frequency:    8.1407132021
  - # 17
    frequency:   12.2652607356
  - # 18
    frequency:   13.1835285448
  - # 19
    frequency:   15.5463851813
  - # 20
    frequency:   44.2096077974
  - # 21
    frequency:   44.2298321728

- q-position: [    0.1464646,    0.0000000,    0.0000000 ]
  distance:    0.0506426
  band:
  - # 1
    frequency:   -3.9099074684
  - # 2
    frequency:    1.0155994126
  - # 3
    frequency:    1.3408697532
  - # 4
    frequency:    2.2513861326
  - # 5
    frequency:    2.2687157561
  - # 6
    frequency:    2.7233868176
  - # 7
    frequency:    3.1270592969
  - # 8
    frequency:    3.4386103331
  - # 9
    frequency:    4.4168796034
  - # 10
    frequency:    4.8490998949
  - # 11
    frequency:    5.1224253663
  - # 12
    frequency:    5.3704441075
  - # 13
    frequency:    6.4310197321
  - # 14
    frequency:    6.5390284048
  - # 15
    frequency:    7.7813174205
  - # 16
    frequency:    8.1720652270
  - # 17
    frequency:   12.2707390704
  - # 18
    frequency:   13.2603671104
  - # 19
    frequency:   15.5338674032
  - # 20
    frequency:   44.1711956425
  - # 21
    frequency:   44.1941898647

- q-position: [    0.1515152,    0.0000000,    0.0000000 ]
  distance:    0.0523889
  band:
  - # 1
    frequency:   -3.9074298154
  - # 2
    frequency:    1.0478159977
  - # 3
    frequency:    1.3104243833
  - # 4
    frequency:    2.0700299501
  - # 5
    frequency:    2.3147669912
  - # 6
    frequency:    2.7804925901
  - # 7
    frequency:    3.1379386941
  - # 8
    frequency:    3.4674480536
  - # 9
    frequency:    4.4137801397
  - # 10
    frequency:    4.8830096830
  - # 11
    frequency:    5.1487389753
  - # 12
    frequency:    5.4545713103
  - # 13
    frequency:    6.4532005595
  - # 14
    frequency:    6.5714912803
  - # 15
    frequency:    7.7782879421
  - # 16
    frequency:    8.2042659744
  - # 17
    frequency:   12.2754944880
  - # 18
    frequency:   13.3382929013
  - # 19
    frequency:   15.5206548918
  - # 20
    frequency:   44.1319293687
  - # 21
    frequency:   44.1577605451