nqpoint: 300    
npath: 3      
segment_nqpoint:
- 100
- 100
- 100
labels:
- [ 'G', 'M' ]
- [ 'M', 'K' ]
- [ 'K', 'G' ]
reciprocal_lattice:
- [   0.25872895,   0.14937723,  -0.00000000 ] # a*
- [  -0.00000000,   0.29875445,  -0.00000000 ] # b*
- [  -0.00000000,  -0.00000000,   0.04285696 ] # c*
natom: 5      
lattice:
- [     3.865048780982151,     0.000000000000001,     0.000000000000000 ] # a
- [    -1.932524390491073,     3.347230431197139,     0.000000000000000 ] # b
- [     0.000000000000004,     0.000000000000005,    23.333434554443937 ] # c
points:
- symbol: C  # 1
  coordinates: [  0.000000000000000,  0.000000000000000,  0.500000026799995 ]
  mass: 12.010700
- symbol: F  # 2
  coordinates: [  0.333332985432215,  0.666666983183674,  0.613629486398136 ]
  mass: 18.998403
- symbol: F  # 3
  coordinates: [  0.666666984744048,  0.333332985985145,  0.386370513601864 ]
  mass: 18.998403
- symbol: La # 4
  coordinates: [  0.333332985432215,  0.666666983183674,  0.435691886433864 ]
  mass: 138.905470
- symbol: La # 5
  coordinates: [  0.666666984744048,  0.333332985985145,  0.564308113166129 ]
  mass: 138.905470

phonon:
- q-position: [    0.0000000,    0.0000000,    0.0000000 ]
  distance:    0.0000000
  band:
  - # 1
    frequency:   -0.0000028638
  - # 2
    frequency:    0.0000001485
  - # 3
    frequency:    0.0000023114
  - # 4
    frequency:    2.3577829256
  - # 5
    frequency:    2.3577829256
  - # 6
    frequency:    4.5186882851
  - # 7
    frequency:    4.6749456559
  - # 8
    frequency:    4.6749456559
  - # 9
    frequency:    6.2328812198
  - # 10
    frequency:    6.2328812198
  - # 11
    frequency:    7.2705168553
  - # 12
    frequency:    7.2705168553
  - # 13
    frequency:    7.8305150603
  - # 14
    frequency:    8.3793328591
  - # 15
    frequency:   14.9661147532

- q-position: [    0.0050505,    0.0000000,    0.0000000 ]
  distance:    0.0015089
  band:
  - # 1
    frequency:    0.0209797993
  - # 2
    frequency:    0.0450111207
  - # 3
    frequency:    0.0708483998
  - # 4
    frequency:    2.3574453733
  - # 5
    frequency:    2.3581257928
  - # 6
    frequency:    4.5184854831
  - # 7
    frequency:    4.6747428367
  - # 8
    frequency:    4.6881226237
  - # 9
    frequency:    6.2326169527
  - # 10
    frequency:    6.2328358516
  - # 11
    frequency:    7.2700774055
  - # 12
    frequency:    7.2707617229
  - # 13
    frequency:    7.8302171924
  - # 14
    frequency:    8.3793096863
  - # 15
    frequency:   14.9649437544

- q-position: [    0.0101010,    0.0000000,    0.0000000 ]
  distance:    0.0030177
  band:
  - # 1
    frequency:    0.0420205573
  - # 2
    frequency:    0.0899763406
  - # 3
    frequency:    0.1417187582
  - # 4
    frequency:    2.3564320910
  - # 5
    frequency:    2.3591793058
  - # 6
    frequency:    4.5179787951
  - # 7
    frequency:    4.6741370820
  - # 8
    frequency:    4.7271889222
  - # 9
    frequency:    6.2318250256
  - # 10
    frequency:    6.2326994500
  - # 11
    frequency:    7.2687607150
  - # 12
    frequency:    7.2715296540
  - # 13
    frequency:    7.8293246320
  - # 14
    frequency:    8.3792598259
  - # 15
    frequency:   14.9614321224

- q-position: [    0.0151515,    0.0000000,    0.0000000 ]
  distance:    0.0045266
  band:
  - # 1
    frequency:    0.0631856671
  - # 2
    frequency:    0.1348498801
  - # 3
    frequency:    0.2126324577
  - # 4
    frequency:    2.3547412206
  - # 5
    frequency:    2.3610122391
  - # 6
    frequency:    4.5173238451
  - # 7
    frequency:    4.6731364737
  - # 8
    frequency:    4.7909251851
  - # 9
    frequency:    6.2305082614
  - # 10
    frequency:    6.2324711286
  - # 11
    frequency:    7.2665717573
  - # 12
    frequency:    7.2729234535
  - # 13
    frequency:    7.8278404939
  - # 14
    frequency:    8.3792438316
  - # 15
    frequency:   14.9555839523

- q-position: [    0.0202020,    0.0000000,    0.0000000 ]
  distance:    0.0060354
  band:
  - # 1
    frequency:    0.0845425085
  - # 2
    frequency:    0.1795862006
  - # 3
    frequency:    0.2836097067
  - # 4
    frequency:    2.3523697266
  - # 5
    frequency:    2.3637217517
  - # 6
    frequency:    4.5165875304
  - # 7
    frequency:    4.6717543946
  - # 8
    frequency:    4.8775671327
  - # 9
    frequency:    6.2286721065
  - # 10
    frequency:    6.2321494264
  - # 11
    frequency:    7.2635188092
  - # 12
    frequency:    7.2751241862
  - # 13
    frequency:    7.8257699195
  - # 14
    frequency:    8.3793681229
  - # 15
    frequency:   14.9474060719

- q-position: [    0.0252525,    0.0000000,    0.0000000 ]
  distance:    0.0075443
  band:
  - # 1
    frequency:    0.1061625847
  - # 2
    frequency:    0.2241401238
  - # 3
    frequency:    0.3546689111
  - # 4
    frequency:    2.3493134883
  - # 5
    frequency:    2.3674141393
  - # 6
    frequency:    4.5157722836
  - # 7
    frequency:    4.6700093970
  - # 8
    frequency:    4.9848710585
  - # 9
    frequency:    6.2263260363
  - # 10
    frequency:    6.2317323315
  - # 11
    frequency:    7.2596134323
  - # 12
    frequency:    7.2784068934
  - # 13
    frequency:    7.8231200044
  - # 14
    frequency:    8.3797940735
  - # 15
    frequency:   14.9369080470

- q-position: [    0.0303030,    0.0000000,    0.0000000 ]
  distance:    0.0090532
  band:
  - # 1
    frequency:    0.1281202155
  - # 2
    frequency:    0.2684669479
  - # 3
    frequency:    0.4258260126
  - # 4
    frequency:    2.3455674321
  - # 5
    frequency:    2.3721877439
  - # 6
    frequency:    4.5148623675
  - # 7
    frequency:    4.6679250207
  - # 8
    frequency:    5.1101544807
  - # 9
    frequency:    6.2234863125
  - # 10
    frequency:    6.2312173137
  - # 11
    frequency:    7.2548704468
  - # 12
    frequency:    7.2831648268
  - # 13
    frequency:    7.8198997036
  - # 14
    frequency:    8.3807525967
  - # 15
    frequency:   14.9241021899

- q-position: [    0.0353535,    0.0000000,    0.0000000 ]
  distance:    0.0105620
  band:
  - # 1
    frequency:    0.1504901915
  - # 2
    frequency:    0.3125225607
  - # 3
    frequency:    0.4970938048
  - # 4
    frequency:    2.3411257042
  - # 5
    frequency:    2.3781216225
  - # 6
    frequency:    4.5138423838
  - # 7
    frequency:    4.6655295583
  - # 8
    frequency:    5.2503371387
  - # 9
    frequency:    6.2201815788
  - # 10
    frequency:    6.2306013647
  - # 11
    frequency:    7.2493078974
  - # 12
    frequency:    7.2899441499
  - # 13
    frequency:    7.8161197222
  - # 14
    frequency:    8.3825665265
  - # 15
    frequency:   14.9090035711

- q-position: [    0.0404040,    0.0000000,    0.0000000 ]
  distance:    0.0120709
  band:
  - # 1
    frequency:    0.1733449911
  - # 2
    frequency:    0.3562635486
  - # 3
    frequency:    0.5684812439
  - # 4
    frequency:    2.3359818875
  - # 5
    frequency:    2.3852706604
  - # 6
    frequency:    4.5127009669
  - # 7
    frequency:    4.6628557717
  - # 8
    frequency:    5.4019482131
  - # 9
    frequency:    6.2164651467
  - # 10
    frequency:    6.2298810444
  - # 11
    frequency:    7.2429470102
  - # 12
    frequency:    7.2994904275
  - # 13
    frequency:    7.8117924030
  - # 14
    frequency:    8.3856844578
  - # 15
    frequency:   14.8916300377

- q-position: [    0.0454545,    0.0000000,    0.0000000 ]
  distance:    0.0135797
  band:
  - # 1
    frequency:    0.1967521271
  - # 2
    frequency:    0.3996472990
  - # 3
    frequency:    0.6399927646
  - # 4
    frequency:    2.3301292643
  - # 5
    frequency:    2.3936658211
  - # 6
    frequency:    4.5114303303
  - # 7
    frequency:    4.6599405585
  - # 8
    frequency:    5.5610689794
  - # 9
    frequency:    6.2124453762
  - # 10
    frequency:    6.2290525337
  - # 11
    frequency:    7.2358121412
  - # 12
    frequency:    7.3128046147
  - # 13
    frequency:    7.8069316322
  - # 14
    frequency:    8.3907317057
  - # 15
    frequency:   14.8720022383

- q-position: [    0.0505051,    0.0000000,    0.0000000 ]
  distance:    0.0150886
  band:
  - # 1
    frequency:    0.2207720108
  - # 2
    frequency:    0.4426320970
  - # 3
    frequency:    0.7116276121
  - # 4
    frequency:    2.3235611276
  - # 5
    frequency:    2.4033175301
  - # 6
    frequency:    4.5100252307
  - # 7
    frequency:    4.6568245716
  - # 8
    frequency:    5.7231719978
  - # 9
    frequency:    6.2083747223
  - # 10
    frequency:    6.2281116908
  - # 11
    frequency:    7.2279307152
  - # 12
    frequency:    7.3311948854
  - # 13
    frequency:    7.8015527986
  - # 14
    frequency:    8.3985867472
  - # 15
    frequency:   14.8501436586

- q-position: [    0.0555556,    0.0000000,    0.0000000 ]
  distance:    0.0165975
  band:
  - # 1
    frequency:    0.2454565119
  - # 2
    frequency:    0.4851772113
  - # 3
    frequency:    0.7833791920
  - # 4
    frequency:    2.3162711447
  - # 5
    frequency:    2.4142204051
  - # 6
    frequency:    4.5084821523
  - # 7
    frequency:    4.6535517932
  - # 8
    frequency:    5.8827004212
  - # 9
    frequency:    6.2049870504
  - # 10
    frequency:    6.2270541111
  - # 11
    frequency:    7.2193331539
  - # 12
    frequency:    7.3562821424
  - # 13
    frequency:    7.7956728810
  - # 14
    frequency:    8.4104943367
  - # 15
    frequency:   14.8260806704

- q-position: [    0.0606061,    0.0000000,    0.0000000 ]
  distance:    0.0181063
  band:
  - # 1
    frequency:    0.2708482166
  - # 2
    frequency:    0.5272429712
  - # 3
    frequency:    0.8552344363
  - # 4
    frequency:    2.3082537739
  - # 5
    frequency:    2.4263581280
  - # 6
    frequency:    4.5067987777
  - # 7
    frequency:    4.6501690663
  - # 8
    frequency:    6.0311131479
  - # 9
    frequency:    6.2054494457
  - # 10
    frequency:    6.2258751890
  - # 11
    frequency:    7.2100527934
  - # 12
    frequency:    7.3898601639
  - # 13
    frequency:    7.7893108210
  - # 14
    frequency:    8.4282265207
  - # 15
    frequency:   14.7998425975

- q-position: [    0.0656566,    0.0000000,    0.0000000 ]
  distance:    0.0196152
  band:
  - # 1
    frequency:    0.2969802853
  - # 2
    frequency:    0.5687908285
  - # 3
    frequency:    0.9271731790
  - # 4
    frequency:    2.2995047370
  - # 5
    frequency:    2.4397078166
  - # 6
    frequency:    4.5049736715
  - # 7
    frequency:    4.6467255882
  - # 8
    frequency:    6.1389284254
  - # 9
    frequency:    6.2245701811
  - # 10
    frequency:    6.2335730580
  - # 11
    frequency:    7.2001257893
  - # 12
    frequency:    7.4334383968
  - # 13
    frequency:    7.7824885773
  - # 14
    frequency:    8.4542905048
  - # 15
    frequency:   14.7714618054

- q-position: [    0.0707071,    0.0000000,    0.0000000 ]
  distance:    0.0211241
  band:
  - # 1
    frequency:    0.3238767623
  - # 2
    frequency:    0.6097834051
  - # 3
    frequency:    0.9991675343
  - # 4
    frequency:    2.2900215487
  - # 5
    frequency:    2.4542436664
  - # 6
    frequency:    4.5030061052
  - # 7
    frequency:    4.6432723691
  - # 8
    frequency:    6.1622405005
  - # 9
    frequency:    6.2231342704
  - # 10
    frequency:    6.3280120981
  - # 11
    frequency:    7.1895910090
  - # 12
    frequency:    7.4873157226
  - # 13
    frequency:    7.7752339924
  - # 14
    frequency:    8.4921341373
  - # 15
    frequency:   14.7409738201

- q-position: [    0.0757576,    0.0000000,    0.0000000 ]
  distance:    0.0226329
  band:
  - # 1
    frequency:    0.3515531905
  - # 2
    frequency:    0.6501845212
  - # 3
    frequency:    1.0711812674
  - # 4
    frequency:    2.2798041032
  - # 5
    frequency:    2.4699398650
  - # 6
    frequency:    4.5008959720
  - # 7
    frequency:    4.6398616621
  - # 8
    frequency:    6.1602776203
  - # 9
    frequency:    6.2215626303
  - # 10
    frequency:    6.4258468440
  - # 11
    frequency:    7.1784899098
  - # 12
    frequency:    7.5493892996
  - # 13
    frequency:    7.7675893790
  - # 14
    frequency:    8.5461799502
  - # 15
    frequency:   14.7084174867

- q-position: [    0.0808081,    0.0000000,    0.0000000 ]
  distance:    0.0241418
  band:
  - # 1
    frequency:    0.3800174032
  - # 2
    frequency:    0.6899592025
  - # 3
    frequency:    1.1431691503
  - # 4
    frequency:    2.2688553167
  - # 5
    frequency:    2.4867728904
  - # 6
    frequency:    4.4986437602
  - # 7
    frequency:    4.6365463716
  - # 8
    frequency:    6.1538523814
  - # 9
    frequency:    6.2198504892
  - # 10
    frequency:    6.5051229951
  - # 11
    frequency:    7.1668664009
  - # 12
    frequency:    7.6145989865
  - # 13
    frequency:    7.7596435682
  - # 14
    frequency:    8.6213484794
  - # 15
    frequency:   14.6738351790

- q-position: [    0.0858586,    0.0000000,    0.0000000 ]
  distance:    0.0256506
  band:
  - # 1
    frequency:    0.4092703923
  - # 2
    frequency:    0.7290736612
  - # 3
    frequency:    1.2150762936
  - # 4
    frequency:    2.2571818247
  - # 5
    frequency:    2.5047233349
  - # 6
    frequency:    4.4962505666
  - # 7
    frequency:    4.6333794462
  - # 8
    frequency:    6.1457031968
  - # 9
    frequency:    6.2179931961
  - # 10
    frequency:    6.5645645507
  - # 11
    frequency:    7.1547666897
  - # 12
    frequency:    7.6759559790
  - # 13
    frequency:    7.7517156968
  - # 14
    frequency:    8.7217795997
  - # 15
    frequency:   14.6372730753

- q-position: [    0.0909091,    0.0000000,    0.0000000 ]
  distance:    0.0271595
  band:
  - # 1
    frequency:    0.4393071826
  - # 2
    frequency:    0.7674952496
  - # 3
    frequency:    1.2868374510
  - # 4
    frequency:    2.2447947305
  - # 5
    frequency:    2.5237773867
  - # 6
    frequency:    4.4937181392
  - # 7
    frequency:    4.6304132664
  - # 8
    frequency:    6.1364941678
  - # 9
    frequency:    6.2159862864
  - # 10
    frequency:    6.6066257780
  - # 11
    frequency:    7.1422391091
  - # 12
    frequency:    7.7241760582
  - # 13
    frequency:    7.7473301772
  - # 14
    frequency:    8.8491602329
  - # 15
    frequency:   14.5987815238

- q-position: [    0.0959596,    0.0000000,    0.0000000 ]
  distance:    0.0286684
  band:
  - # 1
    frequency:    0.4701176644
  - # 2
    frequency:    0.8051923804
  - # 3
    frequency:    1.3583762951
  - # 4
    frequency:    2.2317104009
  - # 5
    frequency:    2.5439280755
  - # 6
    frequency:    4.4910489404
  - # 7
    frequency:    4.6276990354
  - # 8
    frequency:    6.1264615677
  - # 9
    frequency:    6.2138255510
  - # 10
    frequency:    6.6346452195
  - # 11
    frequency:    7.1293339257
  - # 12
    frequency:    7.7294749838
  - # 13
    frequency:    7.7734085133
  - # 14
    frequency:    9.0019246971
  - # 15
    frequency:   14.5584155233

- q-position: [    0.1010101,    0.0000000,    0.0000000 ]
  distance:    0.0301772
  band:
  - # 1
    frequency:    0.5016873563
  - # 2
    frequency:    0.8421344114
  - # 3
    frequency:    1.4296046733
  - # 4
    frequency:    2.2179513025
  - # 5
    frequency:    2.5651763541
  - # 6
    frequency:    4.4882462310
  - # 7
    frequency:    4.6252861844
  - # 8
    frequency:    6.1157108794
  - # 9
    frequency:    6.2115071072
  - # 10
    frequency:    6.6517561084
  - # 11
    frequency:    7.1161031271
  - # 12
    frequency:    7.7208983411
  - # 13
    frequency:    7.8009312639
  - # 14
    frequency:    9.1760441199
  - # 15
    frequency:   14.5162353601

- q-position: [    0.1060606,    0.0000000,    0.0000000 ]
  distance:    0.0316861
  band:
  - # 1
    frequency:    0.5339980846
  - # 2
    frequency:    0.8782914894
  - # 3
    frequency:    1.5004218662
  - # 4
    frequency:    2.2035468731
  - # 5
    frequency:    2.5875320542
  - # 6
    frequency:    4.4853141700
  - # 7
    frequency:    4.6232218011
  - # 8
    frequency:    6.1042973556
  - # 9
    frequency:    6.2090274757
  - # 10
    frequency:    6.6605135523
  - # 11
    frequency:    7.1026001871
  - # 12
    frequency:    7.7111320997
  - # 13
    frequency:    7.8188548586
  - # 14
    frequency:    9.3665807434
  - # 15
    frequency:   14.4723074550

- q-position: [    0.1111111,    0.0000000,    0.0000000 ]
  distance:    0.0331949
  band:
  - # 1
    frequency:    0.5670285746
  - # 2
    frequency:    0.9136343523
  - # 3
    frequency:    1.5707138877
  - # 4
    frequency:    2.1885344192
  - # 5
    frequency:    2.6110147158
  - # 6
    frequency:    4.4822579332
  - # 7
    frequency:    4.6215500952
  - # 8
    frequency:    6.0922540415
  - # 9
    frequency:    6.2063836620
  - # 10
    frequency:    6.6628729198
  - # 11
    frequency:    7.0888798076
  - # 12
    frequency:    7.7008305108
  - # 13
    frequency:    7.8285891661
  - # 14
    frequency:    9.5688662072
  - # 15
    frequency:   14.4267054946

- q-position: [    0.1161616,    0.0000000,    0.0000000 ]
  distance:    0.0347038
  band:
  - # 1
    frequency:    0.6007549557
  - # 2
    frequency:    0.9481340836
  - # 3
    frequency:    1.6403528993
  - # 4
    frequency:    2.1729600285
  - # 5
    frequency:    2.6356542483
  - # 6
    frequency:    4.4790838507
  - # 7
    frequency:    4.6203119082
  - # 8
    frequency:    6.0796033212
  - # 9
    frequency:    6.2035732462
  - # 10
    frequency:    6.6602939793
  - # 11
    frequency:    7.0749976369
  - # 12
    frequency:    7.6901225731
  - # 13
    frequency:    7.8318773966
  - # 14
    frequency:    9.7789902547
  - # 15
    frequency:   14.3795119545

- q-position: [    0.1212121,    0.0000000,    0.0000000 ]
  distance:    0.0362127
  band:
  - # 1
    frequency:    0.6351511867
  - # 2
    frequency:    0.9817618223
  - # 3
    frequency:    1.7091968468
  - # 4
    frequency:    2.1568794891
  - # 5
    frequency:    2.6614913298
  - # 6
    frequency:    4.4757995651
  - # 7
    frequency:    4.6195442803
  - # 8
    frequency:    6.0663623187
  - # 9
    frequency:    6.2005944803
  - # 10
    frequency:    6.6538630657
  - # 11
    frequency:    7.0610099628
  - # 12
    frequency:    7.6790558989
  - # 13
    frequency:    7.8301730011
  - # 14
    frequency:    9.9938435502
  - # 15
    frequency:   14.3308201686

- q-position: [    0.1262626,    0.0000000,    0.0000000 ]
  distance:    0.0377215
  band:
  - # 1
    frequency:    0.6701894095
  - # 2
    frequency:    1.0144884251
  - # 3
    frequency:    1.7770894809
  - # 4
    frequency:    2.1403591972
  - # 5
    frequency:    2.6885773947
  - # 6
    frequency:    4.4724142148
  - # 7
    frequency:    4.6192800811
  - # 8
    frequency:    6.0525456991
  - # 9
    frequency:    6.1974463958
  - # 10
    frequency:    6.6443961097
  - # 11
    frequency:    7.0469733828
  - # 12
    frequency:    7.6676552435
  - # 13
    frequency:    7.8245968951
  - # 14
    frequency:   10.2109873222
  - # 15
    frequency:   14.2807371674

- q-position: [    0.1313131,    0.0000000,    0.0000000 ]
  distance:    0.0392304
  band:
  - # 1
    frequency:    0.7058402400
  - # 2
    frequency:    1.0462840890
  - # 3
    frequency:    1.8438609846
  - # 4
    frequency:    2.1234770390
  - # 5
    frequency:    2.7169739911
  - # 6
    frequency:    4.4689386462
  - # 7
    frequency:    4.6195477128
  - # 8
    frequency:    6.0381672628
  - # 9
    frequency:    6.1941289202
  - # 10
    frequency:    6.6325160714
  - # 11
    frequency:    7.0329444497
  - # 12
    frequency:    7.6559364237
  - # 13
    frequency:    7.8159952894
  - # 14
    frequency:   10.4284934655
  - # 15
    frequency:   14.2293876214

- q-position: [    0.1363636,    0.0000000,    0.0000000 ]
  distance:    0.0407392
  band:
  - # 1
    frequency:    0.7420730062
  - # 2
    frequency:    1.0771179440
  - # 3
    frequency:    1.9093294885
  - # 4
    frequency:    2.1063232205
  - # 5
    frequency:    2.7467512259
  - # 6
    frequency:    4.4653856601
  - # 7
    frequency:    4.6203708909
  - # 8
    frequency:    6.0232409372
  - # 9
    frequency:    6.1906430031
  - # 10
    frequency:    6.6187083922
  - # 11
    frequency:    7.0189792964
  - # 12
    frequency:    7.6439108014
  - # 13
    frequency:    7.8050077996
  - # 14
    frequency:   10.6448054378
  - # 15
    frequency:   14.1769193895

- q-position: [    0.1414141,    0.0000000,    0.0000000 ]
  distance:    0.0422481
  band:
  - # 1
    frequency:    0.7788559427
  - # 2
    frequency:    1.1069576340
  - # 3
    frequency:    1.9733038048
  - # 4
    frequency:    2.0890010155
  - # 5
    frequency:    2.7779849654
  - # 6
    frequency:    4.4617702987
  - # 7
    frequency:    4.6217685059
  - # 8
    frequency:    6.0077814529
  - # 9
    frequency:    6.1869907512
  - # 10
    frequency:    6.6033599475
  - # 11
    frequency:    7.0051332416
  - # 12
    frequency:    7.6315870259
  - # 13
    frequency:    7.7921238573
  - # 14
    frequency:   10.8586286075
  - # 15
    frequency:   14.1235114482

- q-position: [    0.1464646,    0.0000000,    0.0000000 ]
  distance:    0.0437570
  band:
  - # 1
    frequency:    0.8161563488
  - # 2
    frequency:    1.1357689194
  - # 3
    frequency:    2.0355877041
  - # 4
    frequency:    2.0716273852
  - # 5
    frequency:    2.8107524602
  - # 6
    frequency:    4.4581101823
  - # 7
    frequency:    4.6237545674
  - # 8
    frequency:    5.9918048455
  - # 9
    frequency:    6.1831755680
  - # 10
    frequency:    6.5867862657
  - # 11
    frequency:    6.9914603803
  - # 12
    frequency:    7.6189717966
  - # 13
    frequency:    7.7777247972
  - # 14
    frequency:   11.0688447154
  - # 15
    frequency:   14.0693854069

- q-position: [    0.1515152,    0.0000000,    0.0000000 ]
  distance:    0.0452658
  band:
  - # 1
    frequency:    0.8539407195
  - # 2
    frequency:    1.1635153512
  - # 3
    frequency:    2.0543334072
  - # 4
    frequency:    2.0959859723
  - # 5
    frequency:    2.8451261500
  - # 6
    frequency:    4.4544259035
  - # 7
    frequency:    4.6263382295
  - # 8
    frequency:    5.9753288601
  - # 9
    frequency:    6.1792022979
  - # 10
    frequency:    6.5692505835
  - # 11
    frequency:    6.9780131649
  - # 12
    frequency:    7.6060702191
  - # 13
    frequency:    7.7621140576
  - # 14
    frequency:   11.2744418081
  - # 15
    frequency:   14.0148225291

- q-position: [    0.1565657,    0.0000000,    0.0000000 ]
  distance:    0.0467747
  band:
  - # 1
    frequency:    0.8921748544
  - # 2
    frequency:    1.1901580916
  - # 3
    frequency:    2.0372644260
  - # 4
    frequency:    2.1543122614
  - # 5
    frequency:    2.8811656215
  - # 6
    frequency:    4.4507414922
  - # 7
    frequency:    4.6295238949
  - # 8
    frequency:    5.9583732950
  - # 9
    frequency:    6.1750773677
  - # 10
    frequency:    6.5509772495
  - # 11
    frequency:    6.9648419826
  - # 12
    frequency:    7.5928859717
  - # 13
    frequency:    7.7455385769
  - # 14
    frequency:   11.4744506328
  - # 15
    frequency:   13.9601893525

- q-position: [    0.1616162,    0.0000000,    0.0000000 ]
  distance:    0.0482835
  band:
  - # 1
    frequency:    0.9308239507
  - # 2
    frequency:    1.2156559885
  - # 3
    frequency:    2.0205798005
  - # 4
    frequency:    2.2103983850
  - # 5
    frequency:    2.9189080594
  - # 6
    frequency:    4.4470849621
  - # 7
    frequency:    4.6333113907
  - # 8
    frequency:    5.9409603074
  - # 9
    frequency:    6.1708089214
  - # 10
    frequency:    6.5321612096
  - # 11
    frequency:    6.9519947372
  - # 12
    frequency:    7.5794213780
  - # 13
    frequency:    7.7282039417
  - # 14
    frequency:   11.6678780031
  - # 15
    frequency:   13.9059769367

- q-position: [    0.1666667,    0.0000000,    0.0000000 ]
  distance:    0.0497924
  band:
  - # 1
    frequency:    0.9698526857
  - # 2
    frequency:    1.2399660552
  - # 3
    frequency:    2.0044520872
  - # 4
    frequency:    2.2641042308
  - # 5
    frequency:    2.9583579997
  - # 6
    frequency:    4.4434889557
  - # 7
    frequency:    4.6376962110
  - # 8
    frequency:    5.9231146867
  - # 9
    frequency:    6.1664069415
  - # 10
    frequency:    6.5129747562
  - # 11
    frequency:    6.9395164438
  - # 12
    frequency:    7.5656774380
  - # 13
    frequency:    7.7102851577
  - # 14
    frequency:   11.8536258125
  - # 15
    frequency:   13.8528619026

- q-position: [    0.1717172,    0.0000000,    0.0000000 ]
  distance:    0.0513013
  band:
  - # 1
    frequency:    1.0092252913
  - # 2
    frequency:    1.2630445452
  - # 3
    frequency:    1.9890654475
  - # 4
    frequency:    2.3153270138
  - # 5
    frequency:    2.9994776472
  - # 6
    frequency:    4.4399915011
  - # 7
    frequency:    4.6426698169
  - # 8
    frequency:    5.9048640981
  - # 9
    frequency:    6.1618833493
  - # 10
    frequency:    6.4935723536
  - # 11
    frequency:    6.9274488453
  - # 12
    frequency:    7.5516538578
  - # 13
    frequency:    7.6919343468
  - # 14
    frequency:   12.0303806211
  - # 15
    frequency:   13.8018021352

- q-position: [    0.1767677,    0.0000000,    0.0000000 ]
  distance:    0.0528101
  band:
  - # 1
    frequency:    1.0489056244
  - # 2
    frequency:    1.2848488572
  - # 3
    frequency:    1.9746130311
  - # 4
    frequency:    2.3640083536
  - # 5
    frequency:    3.0421792569
  - # 6
    frequency:    4.4366368991
  - # 7
    frequency:    4.6482199838
  - # 8
    frequency:    5.8862392906
  - # 9
    frequency:    6.1572520779
  - # 10
    frequency:    6.4740941015
  - # 11
    frequency:    6.9158300620
  - # 12
    frequency:    7.5373491150
  - # 13
    frequency:    7.6732862547
  - # 14
    frequency:   12.1964537826
  - # 15
    frequency:   13.7541856727

- q-position: [    0.1818182,    0.0000000,    0.0000000 ]
  distance:    0.0543190
  band:
  - # 1
    frequency:    1.0888572359
  - # 2
    frequency:    1.3053405168
  - # 3
    frequency:    1.9612930673
  - # 4
    frequency:    2.4101378140
  - # 5
    frequency:    3.0863209230
  - # 6
    frequency:    4.4334767543
  - # 7
    frequency:    4.6543311870
  - # 8
    frequency:    5.8672742632
  - # 9
    frequency:    6.1525291084
  - # 10
    frequency:    6.4546682282
  - # 11
    frequency:    6.9046942824
  - # 12
    frequency:    7.5227606086
  - # 13
    frequency:    7.6544621536
  - # 14
    frequency:   12.3495516193
  - # 15
    frequency:   13.7120522247

- q-position: [    0.1868687,    0.0000000,    0.0000000 ]
  distance:    0.0558279
  band:
  - # 1
    frequency:    1.1290434386
  - # 2
    frequency:    1.3244894481
  - # 3
    frequency:    1.9493034366
  - # 4
    frequency:    2.4537521428
  - # 5
    frequency:    3.1317065274
  - # 6
    frequency:    4.4305711618
  - # 7
    frequency:    4.6609850139
  - # 8
    frequency:    5.8480063791
  - # 9
    frequency:    6.1477324650
  - # 10
    frequency:    6.4354128920
  - # 11
    frequency:    6.8940715054
  - # 12
    frequency:    7.5078849421
  - # 13
    frequency:    7.6355725253
  - # 14
    frequency:   12.4864824458
  - # 15
    frequency:   13.6783797885

- q-position: [    0.1919192,    0.0000000,    0.0000000 ]
  distance:    0.0573367
  band:
  - # 1
    frequency:    1.1694273772
  - # 2
    frequency:    1.3422796195
  - # 3
    frequency:    1.9388346186
  - # 4
    frequency:    2.4949303301
  - # 5
    frequency:    3.1780897229
  - # 6
    frequency:    4.4279900517
  - # 7
    frequency:    4.6681605934
  - # 8
    frequency:    5.8284764198
  - # 9
    frequency:    6.1428821622
  - # 10
    frequency:    6.4164374910
  - # 11
    frequency:    6.8839873410
  - # 12
    frequency:    7.4927183986
  - # 13
    frequency:    7.6167187697
  - # 14
    frequency:   12.6029284695
  - # 15
    frequency:   13.6573078233

- q-position: [    0.1969697,    0.0000000,    0.0000000 ]
  distance:    0.0588456
  band:
  - # 1
    frequency:    1.2099720993
  - # 2
    frequency:    1.3587159016
  - # 3
    frequency:    1.9300611687
  - # 4
    frequency:    2.5337854615
  - # 5
    frequency:    3.2251809899
  - # 6
    frequency:    4.4258146754
  - # 7
    frequency:    4.6758350318
  - # 8
    frequency:    5.8087285696
  - # 9
    frequency:    6.1380000999
  - # 10
    frequency:    6.3978436242
  - # 11
    frequency:    6.8744628762
  - # 12
    frequency:    7.4772576525
  - # 13
    frequency:    7.5979941058
  - # 14
    frequency:   12.6937178632
  - # 15
    frequency:   13.6538613208

- q-position: [    0.2020202,    0.0000000,    0.0000000 ]
  distance:    0.0603544
  band:
  - # 1
    frequency:    1.2506406301
  - # 2
    frequency:    1.3738315980
  - # 3
    frequency:    1.9231322547
  - # 4
    frequency:    2.5704548657
  - # 5
    frequency:    3.2726563034
  - # 6
    frequency:    4.4241391920
  - # 7
    frequency:    4.6839838459
  - # 8
    frequency:    5.7888103236
  - # 9
    frequency:    6.1331099069
  - # 10
    frequency:    6.3797258111
  - # 11
    frequency:    6.8655146102
  - # 12
    frequency:    7.4615007376
  - # 13
    frequency:    7.5794837962
  - # 14
    frequency:   12.7543096970
  - # 15
    frequency:   13.6724628237

- q-position: [    0.2070707,    0.0000000,    0.0000000 ]
  distance:    0.0618633
  band:
  - # 1
    frequency:    1.2913960482
  - # 2
    frequency:    1.3876956649
  - # 3
    frequency:    1.9181622401
  - # 4
    frequency:    2.6050901229
  - # 5
    frequency:    3.3201659355
  - # 6
    frequency:    4.4230722628
  - # 7
    frequency:    4.6925813852
  - # 8
    frequency:    5.7687723171
  - # 9
    frequency:    6.1282367307
  - # 10
    frequency:    6.3621720448
  - # 11
    frequency:    6.8571544592
  - # 12
    frequency:    7.4454482370
  - # 13
    frequency:    7.5612648382
  - # 14
    frequency:   12.7833426251
  - # 15
    frequency:   13.7143813036

- q-position: [    0.2121212,    0.0000000,    0.0000000 ]
  distance:    0.0633722
  band:
  - # 1
    frequency:    1.3322015655