nqpoint: 300    
npath: 3      
segment_nqpoint:
- 100
- 100
- 100
labels:
- [ 'G', 'M' ]
- [ 'M', 'K' ]
- [ 'K', 'G' ]
reciprocal_lattice:
- [   0.30420871,   0.17563498,   0.00000000 ] # a*
- [   0.00000000,   0.35126997,   0.00000000 ] # b*
- [   0.00000000,   0.00000000,   0.03776932 ] # c*
natom: 8      
lattice:
- [     3.287216815267576,     0.000000000000000,     0.000000000000000 ] # a
- [    -1.643608407633788,     2.846813269745111,     0.000000000000000 ] # b
- [     0.000000000000000,     0.000000000000000,    26.476516613238495 ] # c
points:
- symbol: C # 1
  coordinates: [  0.333332985432215,  0.666666983183674,  0.614549478975187 ]
  mass: 12.010700
- symbol: H # 2
  coordinates: [  0.666666984744047,  0.333332985985145,  0.339923870328921 ]
  mass: 1.007940
- symbol: Hf # 3
  coordinates: [  0.333332985432215,  0.666666983183674,  0.426167736604522 ]
  mass: 178.490000
- symbol: Hf # 4
  coordinates: [  0.666666984744047,  0.333332985985145,  0.513902191001106 ]
  mass: 178.490000
- symbol: N # 5
  coordinates: [  0.000000000000000,  0.000000000000000,  0.469523970056398 ]
  mass: 14.006700
- symbol: N # 6
  coordinates: [  0.333332985432215,  0.666666983183674,  0.567298851277668 ]
  mass: 14.006700
- symbol: O # 7
  coordinates: [  0.333332985432215,  0.666666983183674,  0.660076129671079 ]
  mass: 15.999400
- symbol: O # 8
  coordinates: [  0.666666984744047,  0.333332985985145,  0.377526861574685 ]
  mass: 15.999400

phonon:
- q-position: [    0.0000000,    0.0000000,    0.0000000 ]
  distance:    0.0000000
  band:
  - # 1
    frequency:   -0.9145176399
  - # 2
    frequency:   -0.9145176398
  - # 3
    frequency:   -0.0000260203
  - # 4
    frequency:    0.0000001433
  - # 5
    frequency:    0.0000198863
  - # 6
    frequency:    2.9980216120
  - # 7
    frequency:    2.9980216121
  - # 8
    frequency:    4.9925301264
  - # 9
    frequency:    7.1628553013
  - # 10
    frequency:    7.1628553013
  - # 11
    frequency:    7.9345948086
  - # 12
    frequency:    8.2246993753
  - # 13
    frequency:    8.2246993754
  - # 14
    frequency:   12.1477687868
  - # 15
    frequency:   13.7104704038
  - # 16
    frequency:   15.6131666186
  - # 17
    frequency:   15.6131666187
  - # 18
    frequency:   17.1494707805
  - # 19
    frequency:   17.1494707807
  - # 20
    frequency:   17.7804246657
  - # 21
    frequency:   17.7804246658
  - # 22
    frequency:   37.4725675952
  - # 23
    frequency:   68.4657044505
  - # 24
    frequency:  105.6449179092

- q-position: [    0.0050505,    0.0000000,    0.0000000 ]
  distance:    0.0017741
  band:
  - # 1
    frequency:   -0.9147256475
  - # 2
    frequency:   -0.9126817622
  - # 3
    frequency:    0.0011969017
  - # 4
    frequency:    0.0397704094
  - # 5
    frequency:    0.0937991830
  - # 6
    frequency:    2.9975375073
  - # 7
    frequency:    2.9980679028
  - # 8
    frequency:    4.9917412398
  - # 9
    frequency:    7.1629366518
  - # 10
    frequency:    7.1632943485
  - # 11
    frequency:    7.9341718264
  - # 12
    frequency:    8.2248090975
  - # 13
    frequency:    8.2249186093
  - # 14
    frequency:   12.1475442037
  - # 15
    frequency:   13.7105543801
  - # 16
    frequency:   15.6129262561
  - # 17
    frequency:   15.6133138020
  - # 18
    frequency:   17.1471124209
  - # 19
    frequency:   17.1480031133
  - # 20
    frequency:   17.7788672645
  - # 21
    frequency:   17.7811729454
  - # 22
    frequency:   37.4725470264
  - # 23
    frequency:   68.4646045879
  - # 24
    frequency:  105.6424046449

- q-position: [    0.0101010,    0.0000000,    0.0000000 ]
  distance:    0.0035482
  band:
  - # 1
    frequency:   -0.9153484681
  - # 2
    frequency:   -0.9071337526
  - # 3
    frequency:    0.0049215298
  - # 4
    frequency:    0.0795946479
  - # 5
    frequency:    0.1873445446
  - # 6
    frequency:    2.9960872790
  - # 7
    frequency:    2.9982091549
  - # 8
    frequency:    4.9893822899
  - # 9
    frequency:    7.1631807496
  - # 10
    frequency:    7.1646082142
  - # 11
    frequency:    7.9329029770
  - # 12
    frequency:    8.2251382013
  - # 13
    frequency:    8.2255747043
  - # 14
    frequency:   12.1468705978
  - # 15
    frequency:   13.7108069201
  - # 16
    frequency:   15.6122058374
  - # 17
    frequency:   15.6137553523
  - # 18
    frequency:   17.1399743204
  - # 19
    frequency:   17.1436267786
  - # 20
    frequency:   17.7742644139
  - # 21
    frequency:   17.7833925380
  - # 22
    frequency:   37.4724854275
  - # 23
    frequency:   68.4613072220
  - # 24
    frequency:  105.6348725652

- q-position: [    0.0151515,    0.0000000,    0.0000000 ]
  distance:    0.0053223
  band:
  - # 1
    frequency:   -0.9163820656
  - # 2
    frequency:   -0.8977554273
  - # 3
    frequency:    0.0111398022
  - # 4
    frequency:    0.1195232162
  - # 5
    frequency:    0.2803982549
  - # 6
    frequency:    2.9936771724
  - # 7
    frequency:    2.9984524901
  - # 8
    frequency:    4.9854763239
  - # 9
    frequency:    7.1635877327
  - # 10
    frequency:    7.1667871562
  - # 11
    frequency:    7.9307885684
  - # 12
    frequency:    8.2256864944
  - # 13
    frequency:    8.2266628389
  - # 14
    frequency:   12.1457484028
  - # 15
    frequency:   13.7112298529
  - # 16
    frequency:   15.6110073558
  - # 17
    frequency:   15.6144912658
  - # 18
    frequency:   17.1278706875
  - # 19
    frequency:   17.1364191806
  - # 20
    frequency:   17.7668208859
  - # 21
    frequency:   17.7870103049
  - # 22
    frequency:   37.4723831197
  - # 23
    frequency:   68.4558190126
  - # 24
    frequency:  105.6223447892

- q-position: [    0.0202020,    0.0000000,    0.0000000 ]
  distance:    0.0070964
  band:
  - # 1
    frequency:   -0.9178183510
  - # 2
    frequency:   -0.8843579146
  - # 3
    frequency:    0.0198716752
  - # 4
    frequency:    0.1596003086
  - # 5
    frequency:    0.3727500300
  - # 6
    frequency:    2.9903175539
  - # 7
    frequency:    2.9988097185
  - # 8
    frequency:    4.9800614804
  - # 9
    frequency:    7.1641578265
  - # 10
    frequency:    7.1698152216
  - # 11
    frequency:    7.9278291672
  - # 12
    frequency:    8.2264536428
  - # 13
    frequency:    8.2281749759
  - # 14
    frequency:   12.1441783539
  - # 15
    frequency:   13.7118262124
  - # 16
    frequency:   15.6093340885
  - # 17
    frequency:   15.6155215241
  - # 18
    frequency:   17.1105034264
  - # 19
    frequency:   17.1265012694
  - # 20
    frequency:   17.7568663623
  - # 21
    frequency:   17.7919124113
  - # 22
    frequency:   37.4722406378
  - # 23
    frequency:   68.4481510384
  - # 24
    frequency:  105.6048597756

- q-position: [    0.0252525,    0.0000000,    0.0000000 ]
  distance:    0.0088705
  band:
  - # 1
    frequency:   -0.9196433583
  - # 2
    frequency:   -0.8666887409
  - # 3
    frequency:    0.0311499268
  - # 4
    frequency:    0.1998615193
  - # 5
    frequency:    0.4642219012
  - # 6
    frequency:    2.9860228485
  - # 7
    frequency:    2.9992972466
  - # 8
    frequency:    4.9731905938
  - # 9
    frequency:    7.1648913373
  - # 10
    frequency:    7.1736706553
  - # 11
    frequency:    7.9240256772
  - # 12
    frequency:    8.2274391514
  - # 13
    frequency:    8.2300998621
  - # 14
    frequency:   12.1421615058
  - # 15
    frequency:   13.7126002156
  - # 16
    frequency:   15.6071905267
  - # 17
    frequency:   15.6168460746
  - # 18
    frequency:   17.0874813626
  - # 19
    frequency:   17.1140273264
  - # 20
    frequency:   17.7448361432
  - # 21
    frequency:   17.7979545497
  - # 22
    frequency:   37.4720587277
  - # 23
    frequency:   68.4383187660
  - # 24
    frequency:  105.5824712145

- q-position: [    0.0303030,    0.0000000,    0.0000000 ]
  distance:    0.0106445
  band:
  - # 1
    frequency:   -0.9218350890
  - # 2
    frequency:   -0.8444342282
  - # 3
    frequency:    0.0450271978
  - # 4
    frequency:    0.2403324219
  - # 5
    frequency:    0.5546666771
  - # 6
    frequency:    2.9808114563
  - # 7
    frequency:    2.9999359415
  - # 8
    frequency:    4.9649306640
  - # 9
    frequency:    7.1657886432
  - # 10
    frequency:    7.1783264425
  - # 11
    frequency:    7.9193794454
  - # 12
    frequency:    8.2286423371
  - # 13
    frequency:    8.2324230316
  - # 14
    frequency:   12.1396992585
  - # 15
    frequency:   13.7135572316
  - # 16
    frequency:   15.6045822738
  - # 17
    frequency:   15.6184648057
  - # 18
    frequency:   17.0583496117
  - # 19
    frequency:   17.0991736857
  - # 20
    frequency:   17.7312416942
  - # 21
    frequency:   17.8049732309
  - # 22
    frequency:   37.4718383450
  - # 23
    frequency:   68.4263420069
  - # 24
    frequency:  105.5552478739

- q-position: [    0.0353535,    0.0000000,    0.0000000 ]
  distance:    0.0124186
  band:
  - # 1
    frequency:   -0.9243613336
  - # 2
    frequency:   -0.8172135983
  - # 3
    frequency:    0.0615871352
  - # 4
    frequency:    0.2810281013
  - # 5
    frequency:    0.6439623509
  - # 6
    frequency:    2.9747056492
  - # 7
    frequency:    3.0007509451
  - # 8
    frequency:    4.9553622144
  - # 9
    frequency:    7.1668501828
  - # 10
    frequency:    7.1837509561
  - # 11
    frequency:    7.9138923932
  - # 12
    frequency:    8.2300622952
  - # 13
    frequency:    8.2351268146
  - # 14
    frequency:   12.1367933885
  - # 15
    frequency:   13.7147037399
  - # 16
    frequency:   15.6015159047
  - # 17
    frequency:   15.6203775141
  - # 18
    frequency:   17.0226286859
  - # 19
    frequency:   17.0821281288
  - # 20
    frequency:   17.7166314529
  - # 21
    frequency:   17.8127964038
  - # 22
    frequency:   37.4715806515
  - # 23
    frequency:   68.4122448616
  - # 24
    frequency:  105.5232734036

- q-position: [    0.0404040,    0.0000000,    0.0000000 ]
  distance:    0.0141927
  band:
  - # 1
    frequency:   -0.9271777631
  - # 2
    frequency:   -0.7845624516
  - # 3
    frequency:    0.0809629806
  - # 4
    frequency:    0.3219535854
  - # 5
    frequency:    0.7320050345
  - # 6
    frequency:    2.9677314519
  - # 7
    frequency:    3.0017714301
  - # 8
    frequency:    4.9445785622
  - # 9
    frequency:    7.1680764408
  - # 10
    frequency:    7.1899086783
  - # 11
    frequency:    7.9075671711
  - # 12
    frequency:    8.2316978604
  - # 13
    frequency:    8.2381903547
  - # 14
    frequency:   12.1334460878
  - # 15
    frequency:   13.7160472790
  - # 16
    frequency:   15.5979987771
  - # 17
    frequency:   15.6225838676
  - # 18
    frequency:   16.9798597143
  - # 19
    frequency:   17.0630811002
  - # 20
    frequency:   17.7015455323
  - # 21
    frequency:   17.8212522556
  - # 22
    frequency:   37.4712870120
  - # 23
    frequency:   68.3960556521
  - # 24
    frequency:  105.4866460930

- q-position: [    0.0454545,    0.0000000,    0.0000000 ]
  distance:    0.0159668
  band:
  - # 1
    frequency:   -0.9302265195
  - # 2
    frequency:   -0.7459039827
  - # 3
    frequency:    0.1033694823
  - # 4
    frequency:    0.3631050157
  - # 5
    frequency:    0.8187023408
  - # 6
    frequency:    2.9599185112
  - # 7
    frequency:    3.0030302876
  - # 8
    frequency:    4.9326850229
  - # 9
    frequency:    7.1694679328
  - # 10
    frequency:    7.1967609626
  - # 11
    frequency:    7.9004073324
  - # 12
    frequency:    8.2335475634
  - # 13
    frequency:    8.2415896370
  - # 14
    frequency:   12.1296600079
  - # 15
    frequency:   13.7175963833
  - # 16
    frequency:   15.5940387800
  - # 17
    frequency:   15.6250833622
  - # 18
    frequency:   16.9296488177
  - # 19
    frequency:   17.0422192236
  - # 20
    frequency:   17.6864713061
  - # 21
    frequency:   17.8301757132
  - # 22
    frequency:   37.4709589897
  - # 23
    frequency:   68.3778068427
  - # 24
    frequency:  105.4454785859

- q-position: [    0.0505051,    0.0000000,    0.0000000 ]
  distance:    0.0177409
  band:
  - # 1
    frequency:   -0.9334354410
  - # 2
    frequency:   -0.7005069039
  - # 3
    frequency:    0.1291596195
  - # 4
    frequency:    0.4044713318
  - # 5
    frequency:    0.9039682127
  - # 6
    frequency:    2.9512999571
  - # 7
    frequency:    3.0045637341
  - # 8
    frequency:    4.9197980720
  - # 9
    frequency:    7.1710251867
  - # 10
    frequency:    7.2042668039
  - # 11
    frequency:    7.8924175257
  - # 12
    frequency:    8.2356095833
  - # 13
    frequency:    8.2452975261
  - # 14
    frequency:   12.1254383094
  - # 15
    frequency:   13.7193605071
  - # 16
    frequency:   15.5896439913
  - # 17
    frequency:   15.6278752754
  - # 18
    frequency:   16.8717022852
  - # 19
    frequency:   17.0197210723
  - # 20
    frequency:   17.6718082651
  - # 21
    frequency:   17.8394126891
  - # 22
    frequency:   37.4705983416
  - # 23
    frequency:   68.3575349487
  - # 24
    frequency:  105.3998975486

- q-position: [    0.0555556,    0.0000000,    0.0000000 ]
  distance:    0.0195150
  band:
  - # 1
    frequency:   -0.9367179602
  - # 2
    frequency:   -0.6474327247
  - # 3
    frequency:    0.1589289434
  - # 4
    frequency:    0.4460362232
  - # 5
    frequency:    0.9877194649
  - # 6
    frequency:    2.9419122600
  - # 7
    frequency:    3.0064108258
  - # 8
    frequency:    4.9060444786
  - # 9
    frequency:    7.1727487236
  - # 10
    frequency:    7.2123835857
  - # 11
    frequency:    7.8836037060
  - # 12
    frequency:    8.2378816977
  - # 13
    frequency:    8.2492838148
  - # 14
    frequency:   12.1207847161
  - # 15
    frequency:   13.7213499366
  - # 16
    frequency:   15.5848222022
  - # 17
    frequency:   15.6309586167
  - # 18
    frequency:   16.8058461824
  - # 19
    frequency:   16.9957548420
  - # 20
    frequency:   17.6578485700
  - # 21
    frequency:   17.8488224249
  - # 22
    frequency:   37.4702070132
  - # 23
    frequency:   68.3352804342
  - # 24
    frequency:  105.3500432937

- q-position: [    0.0606061,    0.0000000,    0.0000000 ]
  distance:    0.0212891
  band:
  - # 1
    frequency:   -0.9399736229
  - # 2
    frequency:   -0.5854929951
  - # 3
    frequency:    0.1937110793
  - # 4
    frequency:    0.4877801232
  - # 5
    frequency:    1.0698738918
  - # 6
    frequency:    2.9317950869
  - # 7
    frequency:    3.0086128653
  - # 8
    frequency:    4.8915604229
  - # 9
    frequency:    7.1746390366
  - # 10
    frequency:    7.2210677764
  - # 11
    frequency:    7.8739733627
  - # 12
    frequency:    8.2403612316
  - # 13
    frequency:    8.2535152822
  - # 14
    frequency:   12.1157035732
  - # 15
    frequency:   13.7235756874
  - # 16
    frequency:   15.5795802267
  - # 17
    frequency:   15.6343320750
  - # 18
    frequency:   16.7320287481
  - # 19
    frequency:   16.9704774553
  - # 20
    frequency:   17.6447750368
  - # 21
    frequency:   17.8582783999
  - # 22
    frequency:   37.4697871318
  - # 23
    frequency:   68.3110875987
  - # 24
    frequency:  105.2960693575

- q-position: [    0.0656566,    0.0000000,    0.0000000 ]
  distance:    0.0230632
  band:
  - # 1
    frequency:   -0.9430891157
  - # 2
    frequency:   -0.5133061475
  - # 3
    frequency:    0.2353281028
  - # 4
    frequency:    0.5296820681
  - # 5
    frequency:    1.1503496331
  - # 6
    frequency:    2.9209911618
  - # 7
    frequency:    3.0112126872
  - # 8
    frequency:    4.8764905996
  - # 9
    frequency:    7.1766965682
  - # 10
    frequency:    7.2302755518
  - # 11
    frequency:    7.8635357689
  - # 12
    frequency:    8.2430450067
  - # 13
    frequency:    8.2579557559
  - # 14
    frequency:   12.1101999082
  - # 15
    frequency:   13.7260493864
  - # 16
    frequency:   15.5739228532
  - # 17
    frequency:   15.6379939660
  - # 18
    frequency:   16.6503089710
  - # 19
    frequency:   16.9440346475
  - # 20
    frequency:   17.6326733210
  - # 21
    frequency:   17.8676682557
  - # 22
    frequency:   37.4693410000
  - # 23
    frequency:   68.2850044525
  - # 24
    frequency:  105.2381420316

- q-position: [    0.0707071,    0.0000000,    0.0000000 ]
  distance:    0.0248373
  band:
  - # 1
    frequency:   -0.9459396575
  - # 2
    frequency:   -0.4297399448
  - # 3
    frequency:    0.2868497059
  - # 4
    frequency:    0.5717213076
  - # 5
    frequency:    1.2290654848
  - # 6
    frequency:    2.9095461301
  - # 7
    frequency:    3.0142538093
  - # 8
    frequency:    4.8609873035
  - # 9
    frequency:    7.1789216876
  - # 10
    frequency:    7.2399633210
  - # 11
    frequency:    7.8523022541
  - # 12
    frequency:    8.2459292918
  - # 13
    frequency:    8.2625661762
  - # 14
    frequency:   12.1042794933
  - # 15
    frequency:   13.7287831402
  - # 16
    frequency:   15.5678511555
  - # 17
    frequency:   15.6419421780
  - # 18
    frequency:   16.5608377205
  - # 19
    frequency:   16.9165616527
  - # 20
    frequency:   17.6215522240
  - # 21
    frequency:   17.8768931157
  - # 22
    frequency:   37.4688710883
  - # 23
    frequency:   68.2570825827
  - # 24
    frequency:  105.1764398481

- q-position: [    0.0757576,    0.0000000,    0.0000000 ]
  distance:    0.0266114
  band:
  - # 1
    frequency:   -0.9483906069
  - # 2
    frequency:   -0.3350515062
  - # 3
    frequency:    0.3522436168
  - # 4
    frequency:    0.6138786054
  - # 5
    frequency:    1.3059418941
  - # 6
    frequency:    2.8975084320
  - # 7
    frequency:    3.0177794380
  - # 8
    frequency:    4.8452094857
  - # 9
    frequency:    7.1813146665
  - # 10
    frequency:    7.2500881397
  - # 11
    frequency:    7.8402865086
  - # 12
    frequency:    8.2490097549
  - # 13
    frequency:    8.2673046550
  - # 14
    frequency:   12.0979489096
  - # 15
    frequency:   13.7317893854
  - # 16
    frequency:   15.5613595905
  - # 17
    frequency:   15.6461741192
  - # 18
    frequency:   16.4638381294
  - # 19
    frequency:   16.8881842093
  - # 20
    frequency:   17.6113660132
  - # 21
    frequency:   17.8858665796
  - # 22
    frequency:   37.4683800271
  - # 23
    frequency:   68.2273770080
  - # 24
    frequency:  105.1111530188

- q-position: [    0.0808081,    0.0000000,    0.0000000 ]
  distance:    0.0283855
  band:
  - # 1
    frequency:   -0.9502991497
  - # 2
    frequency:   -0.2295395851
  - # 3
    frequency:    0.4326030793
  - # 4
    frequency:    0.6561372240
  - # 5
    frequency:    1.3809024548
  - # 6
    frequency:    2.8849291838
  - # 7
    frequency:    3.0218313233
  - # 8
    frequency:    4.8293217604
  - # 9
    frequency:    7.1838756550
  - # 10
    frequency:    7.2606079908
  - # 11
    frequency:    7.8275049292
  - # 12
    frequency:    8.2522814206
  - # 13
    frequency:    8.2721265227
  - # 14
    frequency:   12.0912156088
  - # 15
    frequency:   13.7350807238
  - # 16
    frequency:   15.5544306205
  - # 17
    frequency:   15.6506866655
  - # 18
    frequency:   16.3595907891
  - # 19
    frequency:   16.8590196888
  - # 20
    frequency:   17.6020344719
  - # 21
    frequency:   17.8945135877
  - # 22
    frequency:   37.4678705973
  - # 23
    frequency:   68.1959460246
  - # 24
    frequency:  105.0424828279

- q-position: [    0.0858586,    0.0000000,    0.0000000 ]
  distance:    0.0301595
  band:
  - # 1
    frequency:   -0.9515159571
  - # 2
    frequency:   -0.0828704090
  - # 3
    frequency:    0.5218191089
  - # 4
    frequency:    0.6984836121
  - # 5
    frequency:    1.4538757716
  - # 6
    frequency:    2.8718620681
  - # 7
    frequency:    3.0264484644
  - # 8
    frequency:    4.8134933367
  - # 9
    frequency:    7.1866046573
  - # 10
    frequency:    7.2714819126
  - # 11
    frequency:    7.8139770251
  - # 12
    frequency:    8.2557386312
  - # 13
    frequency:    8.2769843562
  - # 14
    frequency:   12.0840879745
  - # 15
    frequency:   13.7386697396
  - # 16
    frequency:   15.5470238381
  - # 17
    frequency:   15.6554761110
  - # 18
    frequency:   16.2484288330
  - # 19
    frequency:   16.8291782210
  - # 20
    frequency:   17.5934586463
  - # 21
    frequency:   17.9027692817
  - # 22
    frequency:   37.4673457219
  - # 23
    frequency:   68.1628510433
  - # 24
    frequency:  104.9706409787

- q-position: [    0.0909091,    0.0000000,    0.0000000 ]
  distance:    0.0319336
  band:
  - # 1
    frequency:   -0.9518867311
  - # 2
    frequency:    0.1742029803
  - # 3
    frequency:    0.6117553043
  - # 4
    frequency:    0.7409078355
  - # 5
    frequency:    1.5247976110
  - # 6
    frequency:    2.8583632320
  - # 7
    frequency:    3.0316656797
  - # 8
    frequency:    4.7978968457
  - # 9
    frequency:    7.1895015071
  - # 10
    frequency:    7.2826699488
  - # 11
    frequency:    7.7997259103
  - # 12
    frequency:    8.2593750133
  - # 13
    frequency:    8.2818279786
  - # 14
    frequency:   12.0765753779
  - # 15
    frequency:   13.7425687990
  - # 16
    frequency:   15.5390514784
  - # 17
    frequency:   15.6605381209
  - # 18
    frequency:   16.1307513496
  - # 19
    frequency:   16.7987637419
  - # 20
    frequency:   17.5855319799
  - # 21
    frequency:   17.9105779330
  - # 22
    frequency:   37.4668084553
  - # 23
    frequency:   68.1281564167
  - # 24
    frequency:  104.8958488956

- q-position: [    0.0959596,    0.0000000,    0.0000000 ]
  distance:    0.0337077
  band:
  - # 1
    frequency:   -0.9512535762
  - # 2
    frequency:    0.2534876687
  - # 3
    frequency:    0.6982241558
  - # 4
    frequency:    0.7834037965
  - # 5
    frequency:    1.5936132669
  - # 6
    frequency:    2.8444911914
  - # 7
    frequency:    3.0375120720
  - # 8
    frequency:    4.7827070277
  - # 9
    frequency:    7.1925658442
  - # 10
    frequency:    7.2941328776
  - # 11
    frequency:    7.7847789247
  - # 12
    frequency:    8.2631834525
  - # 13
    frequency:    8.2866044214
  - # 14
    frequency:   12.0686882292
  - # 15
    frequency:   13.7467898304
  - # 16
    frequency:   15.5303150696
  - # 17
    frequency:   15.6658676865
  - # 18
    frequency:   16.0070797535
  - # 19
    frequency:   16.7678749261
  - # 20
    frequency:   17.5781474772
  - # 21
    frequency:   17.9178919784
  - # 22
    frequency:   37.4662619731
  - # 23
    frequency:   68.0919292598
  - # 24
    frequency:  104.8183369803

- q-position: [    0.1010101,    0.0000000,    0.0000000 ]
  distance:    0.0354818
  band:
  - # 1
    frequency:   -0.9494561548
  - # 2
    frequency:    0.3132507982
  - # 3
    frequency:    0.7801484734
  - # 4
    frequency:    0.8259692822
  - # 5
    frequency:    1.6602800750
  - # 6
    frequency:    2.8303067396
  - # 7
    frequency:    3.0440094365
  - # 8
    frequency:    4.7680992458
  - # 9
    frequency:    7.1957970909
  - # 10
    frequency:    7.3058316589
  - # 11
    frequency:    7.7691684521
  - # 12
    frequency:    8.2671560736
  - # 13
    frequency:    8.2912578403
  - # 14
    frequency:   12.0604380202
  - # 15
    frequency:   13.7513440817
  - # 16
    frequency:   15.5203068956
  - # 17
    frequency:   15.6714590853
  - # 18
    frequency:   15.8782524922
  - # 19
    frequency:   16.7366059856
  - # 20
    frequency:   17.5712018650
  - # 21
    frequency:   17.9246711777
  - # 22
    frequency:   37.4657095606
  - # 23
    frequency:   68.0542392617
  - # 24
    frequency:  104.7383438255

- q-position: [    0.1060606,    0.0000000,    0.0000000 ]
  distance:    0.0372559
  band:
  - # 1
    frequency:   -0.9463325911
  - # 2
    frequency:    0.3657641225
  - # 3
    frequency:    0.8576151757
  - # 4
    frequency:    0.8686058787
  - # 5
    frequency:    1.7247699880
  - # 6
    frequency:    2.8158728564
  - # 7
    frequency:    3.0511706881
  - # 8
    frequency:    4.7542477941
  - # 9
    frequency:    7.1991944292
  - # 10
    frequency:    7.3177264958
  - # 11
    frequency:    7.7529330414
  - # 12
    frequency:    8.2712842304
  - # 13
    frequency:    8.2957293746
  - # 14
    frequency:   12.0518373577
  - # 15
    frequency:   13.7562418498
  - # 16
    frequency:   15.5073827135
  - # 17
    frequency:   15.6773058426
  - # 18
    frequency:   15.7462507404
  - # 19
    frequency:   16.7050473361
  - # 20
    frequency:   17.5645976861
  - # 21
    frequency:   17.9308818941
  - # 22
    frequency:   37.4651546014
  - # 23
    frequency:   68.0151584910
  - # 24
    frequency:  104.6561153854

- q-position: [    0.1111111,    0.0000000,    0.0000000 ]
  distance:    0.0390300
  band:
  - # 1
    frequency:   -0.9417200916
  - # 2
    frequency:    0.4150941535
  - # 3
    frequency:    0.9113187734
  - # 4
    frequency:    0.9309966525
  - # 5
    frequency:    1.7870720987
  - # 6
    frequency:    2.8012546144
  - # 7
    frequency:    3.0589984042
  - # 8
    frequency:    4.7413239749
  - # 9
    frequency:    7.2027567788
  - # 10
    frequency:    7.3297753391
  - # 11
    frequency:    7.7361190067
  - # 12
    frequency:    8.2755585022
  - # 13
    frequency:    8.2999569411
  - # 14
    frequency:   12.0428999847
  - # 15
    frequency:   13.7614921702
  - # 16
    frequency:   15.4835358039
  - # 17
    frequency:   15.6194242783
  - # 18
    frequency:   15.6834006976
  - # 19
    frequency:   16.6732861348
  - # 20
    frequency:   17.5582440761
  - # 21
    frequency:   17.9364964912
  - # 22
    frequency:   37.4646005649
  - # 23
    frequency:   67.9747611949
  - # 24
    frequency:  104.5719041065

- q-position: [    0.1161616,    0.0000000,    0.0000000 ]
  distance:    0.0408041
  band:
  - # 1
    frequency:   -0.9354552420
  - # 2
    frequency:    0.4630072868
  - # 3
    frequency:    0.9541164642
  - # 4
    frequency:    1.0006717455
  - # 5
    frequency:    1.8471949588
  - # 6
    frequency:    2.7865190810
  - # 7
    frequency:    3.0674836065
  - # 8
    frequency:    4.7294939312
  - # 9
    frequency:    7.2064827762
  - # 10
    frequency:    7.3419315487
  - # 11
    frequency:    7.7187827991
  - # 12
    frequency:    8.2799687006
  - # 13
    frequency:    8.3038749525
  - # 14
    frequency:   12.0336407868
  - # 15
    frequency:   13.7671024430
  - # 16
    frequency:   15.4091381157
  - # 17
    frequency:   15.5377512891
  - # 18
    frequency:   15.6897355721
  - # 19
    frequency:   16.6414067028
  - # 20
    frequency:   17.5520567717
  - # 21
    frequency:   17.9414928340
  - # 22
    frequency:   37.4640509938
  - # 23
    frequency:   67.9331235917
  - # 24
    frequency:  104.4859680190

- q-position: [    0.1212121,    0.0000000,    0.0000000 ]
  distance:    0.0425782
  band:
  - # 1
    frequency:   -0.9273739264
  - # 2
    frequency:    0.5103732261
  - # 3
    frequency:    0.9970103793
  - # 4
    frequency:    1.0669555572
  - # 5
    frequency:    1.9051685074
  - # 6
    frequency:    2.7717352099
  - # 7
    frequency:    3.0766049180
  - # 8
    frequency:    4.7189162377
  - # 9
    frequency:    7.2103707539
  - # 10
    frequency:    7.3541402159
  - # 11
    frequency:    7.7009946472
  - # 12
    frequency:    8.2845038830
  - # 13
    frequency:    8.3074139549
  - # 14
    frequency:   12.0240757821
  - # 15
    frequency:   13.7730779483
  - # 16
    frequency:   15.2753496760
  - # 17
    frequency:   15.5104306047
  - # 18
    frequency:   15.6963015420
  - # 19
    frequency:   16.6094908432
  - # 20
    frequency:   17.5459577153
  - # 21
    frequency:   17.9458538830
  - # 22
    frequency:   37.4635094900
  - # 23
    frequency:   67.8903236592
  - # 24
    frequency:  104.3985697927

- q-position: [    0.1262626,    0.0000000,    0.0000000 ]
  distance:    0.0443523
  band:
  - # 1
    frequency:   -0.9173107901
  - # 2
    frequency:    0.5576470610
  - # 3
    frequency:    1.0400144088
  - # 4
    frequency:    1.1300927736
  - # 5
    frequency:    1.9610453993
  - # 6
    frequency:    2.7569737234
  - # 7
    frequency:    3.0863282339
  - # 8
    frequency:    4.7097392753
  - # 9
    frequency:    7.2144187212
  - # 10
    frequency:    7.3663322788
  - # 11
    frequency:    7.6828443385
  - # 12
    frequency:    8.2891523764
  - # 13
    frequency:    8.3105001745
  - # 14
    frequency:   12.0142220899
  - # 15
    frequency:   13.7794211505
  - # 16
    frequency:   15.1240271842
  - # 17
    frequency:   15.4959753618
  - # 18
    frequency:   15.7030888104
  - # 19
    frequency:   16.5776180698
  - # 20
    frequency:   17.5398744912
  - # 21
    frequency:   17.9495673665
  - # 22
    frequency:   37.4629797020
  - # 23
    frequency:   67.8464409176
  - # 24
    frequency:  104.3099757604

- q-position: [    0.1313131,    0.0000000,    0.0000000 ]
  distance:    0.0461264
  band:
  - # 1
    frequency:   -0.9050981306
  - # 2
    frequency:    0.6050689418
  - # 3
    frequency:    1.0831443422
  - # 4
    frequency:    1.1902681648
  - # 5
    frequency:    2.0149015129
  - # 6
    frequency:    2.7423069825
  - # 7
    frequency:    3.0966070299
  - # 8
    frequency:    4.7020984404
  - # 9
    frequency:    7.2186243453
  - # 10
    frequency:    7.3784148712
  - # 11
    frequency:    7.6644507034
  - # 12
    frequency:    8.2939018080
  - # 13
    frequency:    8.3130549728
  - # 14
    frequency:   12.0040978766
  - # 15
    frequency:   13.7861305610
  - # 16
    frequency:   14.9655537566
  - # 17
    frequency:   15.4843862063
  - # 18
    frequency:   15.7100866817
  - # 19
    frequency:   16.5458657584
  - # 20
    frequency:   17.5337397310
  - # 21
    frequency:   17.9526255191
  - # 22
    frequency:   37.4624653094
  - # 23
    frequency:   67.8015562099
  - # 24
    frequency:  104.2204549099

- q-position: [    0.1363636,    0.0000000,    0.0000000 ]
  distance:    0.0479004
  band:
  - # 1
    frequency:   -0.8905640482
  - # 2
    frequency:    0.6527573309
  - # 3
    frequency:    1.1264172012
  - # 4
    frequency:    1.2476202536
  - # 5
    frequency:    2.0668354398
  - # 6
    frequency:    2.7278088448
  - # 7