nqpoint: 300    
npath: 3      
segment_nqpoint:
- 100
- 100
- 100
labels:
- [ 'G', 'M' ]
- [ 'M', 'K' ]
- [ 'K', 'G' ]
reciprocal_lattice:
- [   0.27849189,   0.16078736,  -0.00000000 ] # a*
- [   0.00000000,   0.32157473,  -0.00000000 ] # b*
- [   0.00000000,   0.00000000,   0.03699017 ] # c*
natom: 5      
lattice:
- [     3.590768896552573,    -0.000000000000000,     0.000000000000000 ] # a
- [    -1.795384448276286,     3.109697083538124,     0.000000000000000 ] # b
- [     0.000000000000001,     0.000000000000002,    27.034212243102342 ] # c
points:
- symbol: C # 1
  coordinates: [  0.000000000000000,  0.000000000000000,  0.500000026799995 ]
  mass: 12.010700
- symbol: H # 2
  coordinates: [  0.333332985432215,  0.666666983183674,  0.590153498178204 ]
  mass: 1.007940
- symbol: H # 3
  coordinates: [  0.666666984744048,  0.333332985985145,  0.409846501821796 ]
  mass: 1.007940
- symbol: Y # 4
  coordinates: [  0.333332985432215,  0.666666983183674,  0.449427331585621 ]
  mass: 88.905850
- symbol: Y # 5
  coordinates: [  0.666666984744048,  0.333332985985145,  0.550572668014372 ]
  mass: 88.905850

phonon:
- q-position: [    0.0000000,    0.0000000,    0.0000000 ]
  distance:    0.0000000
  band:
  - # 1
    frequency:   -0.0000121168
  - # 2
    frequency:   -0.0000001208
  - # 3
    frequency:    0.0000099248
  - # 4
    frequency:    3.7767659677
  - # 5
    frequency:    3.7767659677
  - # 6
    frequency:    6.7565226321
  - # 7
    frequency:    9.0007695973
  - # 8
    frequency:    9.0007695973
  - # 9
    frequency:   16.8486096140
  - # 10
    frequency:   24.7251350682
  - # 11
    frequency:   24.8617252124
  - # 12
    frequency:   24.8617252124
  - # 13
    frequency:   24.9749520245
  - # 14
    frequency:   24.9749520245
  - # 15
    frequency:   25.2297683735

- q-position: [    0.0050505,    0.0000000,    0.0000000 ]
  distance:    0.0016241
  band:
  - # 1
    frequency:    0.0203222961
  - # 2
    frequency:    0.0670064927
  - # 3
    frequency:    0.1067165998
  - # 4
    frequency:    3.7767540272
  - # 5
    frequency:    3.7775602522
  - # 6
    frequency:    6.7562109623
  - # 7
    frequency:    9.0004032073
  - # 8
    frequency:    9.0095912825
  - # 9
    frequency:   16.8457628881
  - # 10
    frequency:   24.7130126598
  - # 11
    frequency:   24.8614498553
  - # 12
    frequency:   24.8742234380
  - # 13
    frequency:   24.9745496395
  - # 14
    frequency:   24.9751945817
  - # 15
    frequency:   25.2293414184

- q-position: [    0.0101010,    0.0000000,    0.0000000 ]
  distance:    0.0032482
  band:
  - # 1
    frequency:    0.0408431060
  - # 2
    frequency:    0.1339692432
  - # 3
    frequency:    0.2134135371
  - # 4
    frequency:    3.7767184445
  - # 5
    frequency:    3.7799421713
  - # 6
    frequency:    6.7552767293
  - # 7
    frequency:    8.9993065693
  - # 8
    frequency:    9.0359533225
  - # 9
    frequency:   16.8372321734
  - # 10
    frequency:   24.6846303373
  - # 11
    frequency:   24.8606248210
  - # 12
    frequency:   24.9037266634
  - # 13
    frequency:   24.9733437350
  - # 14
    frequency:   24.9758635722
  - # 15
    frequency:   25.2281265810

- q-position: [    0.0151515,    0.0000000,    0.0000000 ]
  distance:    0.0048723
  band:
  - # 1
    frequency:    0.0617569280
  - # 2
    frequency:    0.2008445505
  - # 3
    frequency:    0.3200715771
  - # 4
    frequency:    3.7766599357
  - # 5
    frequency:    3.7839088240
  - # 6
    frequency:    6.7537222038
  - # 7
    frequency:    8.9974872678
  - # 8
    frequency:    9.0795501172
  - # 9
    frequency:   16.8230457593
  - # 10
    frequency:   24.6495395147
  - # 11
    frequency:   24.8592532166
  - # 12
    frequency:   24.9406632694
  - # 13
    frequency:   24.9713380593
  - # 14
    frequency:   24.9767785750
  - # 15
    frequency:   25.2263268821

- q-position: [    0.0202020,    0.0000000,    0.0000000 ]
  distance:    0.0064965
  band:
  - # 1
    frequency:    0.0832504095
  - # 2
    frequency:    0.2675888021
  - # 3
    frequency:    0.4266722745
  - # 4
    frequency:    3.7765796939
  - # 5
    frequency:    3.7894550678
  - # 6
    frequency:    6.7515509907
  - # 7
    frequency:    8.9949579082
  - # 8
    frequency:    9.1398835401
  - # 9
    frequency:   16.8032504672
  - # 10
    frequency:   24.6117593208
  - # 11
    frequency:   24.8573402059
  - # 12
    frequency:   24.9685388498
  - # 13
    frequency:   24.9775694252
  - # 14
    frequency:   24.9810352174
  - # 15
    frequency:   25.2242953802

- q-position: [    0.0252525,    0.0000000,    0.0000000 ]
  distance:    0.0081206
  band:
  - # 1
    frequency:    0.1054988616
  - # 2
    frequency:    0.3341585182
  - # 3
    frequency:    0.5331982163
  - # 4
    frequency:    3.7764793891
  - # 5
    frequency:    3.7965731254
  - # 6
    frequency:    6.7487678076
  - # 7
    frequency:    8.9917360616
  - # 8
    frequency:    9.2162788162
  - # 9
    frequency:   16.7779111700
  - # 10
    frequency:   24.5727767805
  - # 11
    frequency:   24.8548929873
  - # 12
    frequency:   24.9649548178
  - # 13
    frequency:   24.9779086899
  - # 14
    frequency:   25.0231708112
  - # 15
    frequency:   25.2225497312

- q-position: [    0.0303030,    0.0000000,    0.0000000 ]
  distance:    0.0097447
  band:
  - # 1
    frequency:    0.1286632743
  - # 2
    frequency:    0.4005104003
  - # 3
    frequency:    0.6396331085
  - # 4
    frequency:    3.7763611679
  - # 5
    frequency:    3.8052521513
  - # 6
    frequency:    6.7453782519
  - # 7
    frequency:    8.9878441891
  - # 8
    frequency:    9.3079050285
  - # 9
    frequency:   16.7471101443
  - # 10
    frequency:   24.5331930895
  - # 11
    frequency:   24.8519207630
  - # 12
    frequency:   24.9605971280
  - # 13
    frequency:   24.9770439780
  - # 14
    frequency:   25.0665443678
  - # 15
    frequency:   25.2217738812

- q-position: [    0.0353535,    0.0000000,    0.0000000 ]
  distance:    0.0113688
  band:
  - # 1
    frequency:    0.1528879483
  - # 2
    frequency:    0.4666013818
  - # 3
    frequency:    0.7459616902
  - # 4
    frequency:    3.7762276545
  - # 5
    frequency:    3.8154778437
  - # 6
    frequency:    6.7413886003
  - # 7
    frequency:    8.9833095427
  - # 8
    frequency:    9.4137988426
  - # 9
    frequency:   16.7109462745
  - # 10
    frequency:   24.4932704124
  - # 11
    frequency:   24.8484346993
  - # 12
    frequency:   24.9554793724
  - # 13
    frequency:   24.9742707231
  - # 14
    frequency:   25.1107904065
  - # 15
    frequency:   25.2227841949

- q-position: [    0.0404040,    0.0000000,    0.0000000 ]
  distance:    0.0129929
  band:
  - # 1
    frequency:    0.1782988181
  - # 2
    frequency:    0.5323886839
  - # 3
    frequency:    0.8521694832
  - # 4
    frequency:    3.7760819523
  - # 5
    frequency:    3.8272321749
  - # 6
    frequency:    6.7368056655
  - # 7
    frequency:    8.9781640429
  - # 8
    frequency:    9.5328899801
  - # 9
    frequency:   16.6695341360
  - # 10
    frequency:   24.4531238456
  - # 11
    frequency:   24.8444478771
  - # 12
    frequency:   24.9496175391
  - # 13
    frequency:   24.9688142990
  - # 14
    frequency:   25.1557187532
  - # 15
    frequency:   25.2264400997

- q-position: [    0.0454545,    0.0000000,    0.0000000 ]
  distance:    0.0146170
  band:
  - # 1
    frequency:    0.2050024885
  - # 2
    frequency:    0.5978298749
  - # 3
    frequency:    0.9582423993
  - # 4
    frequency:    3.7759276476
  - # 5
    frequency:    3.8404932890
  - # 6
    frequency:    6.7316367179
  - # 7
    frequency:    8.9724441338
  - # 8
    frequency:    9.6640270775
  - # 9
    frequency:   16.6230029852
  - # 10
    frequency:   24.4127977525
  - # 11
    frequency:   24.8399752339
  - # 12
    frequency:   24.9430299757
  - # 13
    frequency:   24.9600020380
  - # 14
    frequency:   25.2011999326
  - # 15
    frequency:   25.2335100719

- q-position: [    0.0505051,    0.0000000,    0.0000000 ]
  distance:    0.0162411
  band:
  - # 1
    frequency:    0.2330859584
  - # 2
    frequency:    0.6628829353
  - # 3
    frequency:    1.0641662403
  - # 4
    frequency:    3.7757688150
  - # 5
    frequency:    3.8552355913
  - # 6
    frequency:    6.7258894658
  - # 7
    frequency:    8.9661906128
  - # 8
    frequency:    9.8060027676
  - # 9
    frequency:   16.5714956866
  - # 10
    frequency:   24.3722998966
  - # 11
    frequency:   24.8350334952
  - # 12
    frequency:   24.9357373498
  - # 13
    frequency:   24.9473896101
  - # 14
    frequency:   25.2443818898
  - # 15
    frequency:   25.2472940183

- q-position: [    0.0555556,    0.0000000,    0.0000000 ]
  distance:    0.0178653
  band:
  - # 1
    frequency:    0.2626169592
  - # 2
    frequency:    0.7275063282
  - # 3
    frequency:    1.1699261289
  - # 4
    frequency:    3.7756100267
  - # 5
    frequency:    3.8714300225
  - # 6
    frequency:    6.7195720792
  - # 7
    frequency:    8.9594484364
  - # 8
    frequency:    9.9575770946
  - # 9
    frequency:   16.5151676051
  - # 10
    frequency:   24.3316183261
  - # 11
    frequency:   24.8296410964
  - # 12
    frequency:   24.9277626050
  - # 13
    frequency:   24.9308103834
  - # 14
    frequency:   25.2597480399
  - # 15
    frequency:   25.2934984630

- q-position: [    0.0606061,    0.0000000,    0.0000000 ]
  distance:    0.0194894
  band:
  - # 1
    frequency:    0.2936448054
  - # 2
    frequency:    0.7916590761
  - # 3
    frequency:    1.2755059099
  - # 4
    frequency:    3.7754563642
  - # 5
    frequency:    3.8890444961
  - # 6
    frequency:    6.7126932422
  - # 7
    frequency:    8.9522665004
  - # 8
    frequency:   10.1174986476
  - # 9
    frequency:   16.4541854945
  - # 10
    frequency:   24.2907304795
  - # 11
    frequency:   24.8238180926
  - # 12
    frequency:   24.9103319545
  - # 13
    frequency:   24.9191309153
  - # 14
    frequency:   25.2792626892
  - # 15
    frequency:   25.3401248237

- q-position: [    0.0656566,    0.0000000,    0.0000000 ]
  distance:    0.0211135
  band:
  - # 1
    frequency:    0.3262016371
  - # 2
    frequency:    0.8553008434
  - # 3
    frequency:    1.3808875502
  - # 4
    frequency:    3.7753134344
  - # 5
    frequency:    3.9080444613
  - # 6
    frequency:    6.7052622192
  - # 7
    frequency:    8.9446973942
  - # 8
    frequency:   10.2845230669
  - # 9
    frequency:   16.3887264070
  - # 10
    frequency:   24.2496084678
  - # 11
    frequency:   24.8175860571
  - # 12
    frequency:   24.8861647595
  - # 13
    frequency:   24.9098696385
  - # 14
    frequency:   25.3029403584
  - # 15
    frequency:   25.3869853737

- q-position: [    0.0707071,    0.0000000,    0.0000000 ]
  distance:    0.0227376
  band:
  - # 1
    frequency:    0.3603039294
  - # 2
    frequency:    0.9183920264
  - # 3
    frequency:    1.4860505659
  - # 4
    frequency:    3.7751873902
  - # 5
    frequency:    3.9283935499
  - # 6
    frequency:    6.6972889276
  - # 7
    frequency:    8.9367971296
  - # 8
    frequency:   10.4574287947
  - # 9
    frequency:   16.3189766504
  - # 10
    frequency:   24.2082223317
  - # 11
    frequency:   24.8109679651
  - # 12
    frequency:   24.8585769391
  - # 13
    frequency:   24.9000082715
  - # 14
    frequency:   25.3306243541
  - # 15
    frequency:   25.4340055738

- q-position: [    0.0757576,    0.0000000,    0.0000000 ]
  distance:    0.0243617
  band:
  - # 1
    frequency:    0.3959541553
  - # 2
    frequency:    0.9808938494
  - # 3
    frequency:    1.5909714891
  - # 4
    frequency:    3.7750849559
  - # 5
    frequency:    3.9500542680
  - # 6
    frequency:    6.6887840098
  - # 7
    frequency:    8.9286248427
  - # 8
    frequency:   10.6350301113
  - # 9
    frequency:   16.2451308151
  - # 10
    frequency:   24.1665421475
  - # 11
    frequency:   24.8039880608
  - # 12
    frequency:   24.8278400468
  - # 13
    frequency:   24.8895784097
  - # 14
    frequency:   25.3621493108
  - # 15
    frequency:   25.4811126008

- q-position: [    0.0808081,    0.0000000,    0.0000000 ]
  distance:    0.0259858
  band:
  - # 1
    frequency:    0.4331425020
  - # 2
    frequency:    1.0427684674
  - # 3
    frequency:    1.6956233857
  - # 4
    frequency:    3.7750134567
  - # 5
    frequency:    3.9729886972
  - # 6
    frequency:    6.6797589024
  - # 7
    frequency:    8.9202424704
  - # 8
    frequency:   10.8161876154
  - # 9
    frequency:   16.1673908928
  - # 10
    frequency:   24.1245394337
  - # 11
    frequency:   24.7942036975
  - # 12
    frequency:   24.7966717036
  - # 13
    frequency:   24.8786137156
  - # 14
    frequency:   25.3973655053
  - # 15
    frequency:   25.5282337357

- q-position: [    0.0858586,    0.0000000,    0.0000000 ]
  distance:    0.0276100
  band:
  - # 1
    frequency:    0.4718485620
  - # 2
    frequency:    1.1039790753
  - # 3
    frequency:    1.7999754253
  - # 4
    frequency:    3.7749808536
  - # 5
    frequency:    3.9971591771
  - # 6
    frequency:    6.6702259028
  - # 7
    frequency:    8.9117144006
  - # 8
    frequency:   10.9998163722
  - # 9
    frequency:   16.0859655095
  - # 10
    frequency:   24.0821881094
  - # 11
    frequency:   24.7578883108
  - # 12
    frequency:   24.7890451874
  - # 13
    frequency:   24.8671499035
  - # 14
    frequency:   25.4361436304
  - # 15
    frequency:   25.5752965552

- q-position: [    0.0909091,    0.0000000,    0.0000000 ]
  distance:    0.0292341
  band:
  - # 1
    frequency:    0.5120429408
  - # 2
    frequency:    1.1644900239
  - # 3
    frequency:    1.9039925014
  - # 4
    frequency:    3.7749957818
  - # 5
    frequency:    4.0225289495
  - # 6
    frequency:    6.6601982335
  - # 7
    frequency:    8.9031070986
  - # 8
    frequency:   11.1848919798
  - # 9
    frequency:   16.0010692950
  - # 10
    frequency:   24.0394651457
  - # 11
    frequency:   24.7190865742
  - # 12
    frequency:   24.7811355228
  - # 13
    frequency:   24.8552247491
  - # 14
    frequency:   25.4783704809
  - # 15
    frequency:   25.6222297384

- q-position: [    0.0959596,    0.0000000,    0.0000000 ]
  distance:    0.0308582
  band:
  - # 1
    frequency:    0.5536887426
  - # 2
    frequency:    1.2242669404
  - # 3
    frequency:    2.0076348987
  - # 4
    frequency:    3.7750675933
  - # 5
    frequency:    4.0490627497
  - # 6
    frequency:    6.6496901067
  - # 7
    frequency:    8.8944887085
  - # 8
    frequency:   11.3704547975
  - # 9
    frequency:   15.9129224188
  - # 10
    frequency:   23.9963510005
  - # 11
    frequency:   24.6779680544
  - # 12
    frequency:   24.7729701680
  - # 13
    frequency:   24.8428781416
  - # 14
    frequency:   25.5239411346
  - # 15
    frequency:   25.6689644363

- q-position: [    0.1010101,    0.0000000,    0.0000000 ]
  distance:    0.0324823
  band:
  - # 1
    frequency:    0.5967429095
  - # 2
    frequency:    1.2832768555
  - # 3
    frequency:    2.1108580002
  - # 4
    frequency:    3.7752064004
  - # 5
    frequency:    4.0767273381
  - # 6
    frequency:    6.6387167909
  - # 7
    frequency:    8.8859286334
  - # 8
    frequency:   11.5556125503
  - # 9
    frequency:   15.8217503330
  - # 10
    frequency:   23.9528298926
  - # 11
    frequency:   24.6346842786
  - # 12
    frequency:   24.7645766832
  - # 13
    frequency:   24.8301522016
  - # 14
    frequency:   25.5727500386
  - # 15
    frequency:   25.7154364639

- q-position: [    0.1060606,    0.0000000,    0.0000000 ]
  distance:    0.0341064
  band:
  - # 1
    frequency:    0.6411574073
  - # 2
    frequency:    1.3414883336
  - # 3
    frequency:    2.2136120289
  - # 4
    frequency:    3.7754231214
  - # 5
    frequency:    4.1054919672
  - # 6
    frequency:    6.6272946820
  - # 7
    frequency:    8.8774970956
  - # 8
    frequency:   11.7395414752
  - # 9
    frequency:   15.7277837771
  - # 10
    frequency:   23.9088899543
  - # 11
    frequency:   24.5893732359
  - # 12
    frequency:   24.7559822691
  - # 13
    frequency:   24.8170915059
  - # 14
    frequency:   25.6246813905
  - # 15
    frequency:   25.7615899932

- q-position: [    0.1111111,    0.0000000,    0.0000000 ]
  distance:    0.0357305
  band:
  - # 1
    frequency:    0.6868802545
  - # 2
    frequency:    1.3988716081
  - # 3
    frequency:    2.3158418193
  - # 4
    frequency:    3.7757295237
  - # 5
    frequency:    4.1353287825
  - # 6
    frequency:    6.6154413825
  - # 7
    frequency:    8.8692646796
  - # 8
    frequency:   11.9214861057
  - # 9
    frequency:   15.6312591380
  - # 10
    frequency:   23.8645232905
  - # 11
    frequency:   24.5421630164
  - # 12
    frequency:   24.7472131226
  - # 13
    frequency:   24.8037434862
  - # 14
    frequency:   25.6795975086
  - # 15
    frequency:   25.8073843629

- q-position: [    0.1161616,    0.0000000,    0.0000000 ]
  distance:    0.0373546
  band:
  - # 1
    frequency:    0.7338564037
  - # 2
    frequency:    1.4553987185
  - # 3
    frequency:    2.4174866142
  - # 4
    frequency:    3.7761382633
  - # 5
    frequency:    4.1662131569
  - # 6
    frequency:    6.6031757899
  - # 7
    frequency:    8.8613018607
  - # 8
    frequency:   12.1007577063
  - # 9
    frequency:   15.5324193065
  - # 10
    frequency:   23.8197259648
  - # 11
    frequency:   24.4931746160
  - # 12
    frequency:   24.7382934957
  - # 13
    frequency:   24.7901591171
  - # 14
    frequency:   25.7373211412
  - # 15
    frequency:   25.8528080596

- q-position: [    0.1212121,    0.0000000,    0.0000000 ]
  distance:    0.0389788
  band:
  - # 1
    frequency:    0.7820284841
  - # 2
    frequency:    1.5110436494
  - # 3
    frequency:    2.5184798872
  - # 4
    frequency:    3.7766629182
  - # 5
    frequency:    4.1981239565
  - # 6
    frequency:    6.5905181996
  - # 7
    frequency:    8.8536785238
  - # 8
    frequency:   12.2767312399
  - # 9
    frequency:   15.4315152689
  - # 10
    frequency:   23.7744979289
  - # 11
    frequency:   24.4425240405
  - # 12
    frequency:   24.7292442583
  - # 13
    frequency:   24.7763940927
  - # 14
    frequency:   25.7976003732
  - # 15
    frequency:   25.8979111166

- q-position: [    0.1262626,    0.0000000,    0.0000000 ]
  distance:    0.0406029
  band:
  - # 1
    frequency:    0.8313374203
  - # 2
    frequency:    1.5657824710
  - # 3
    frequency:    2.6187491922
  - # 4
    frequency:    3.7773180108
  - # 5
    frequency:    4.2310437346
  - # 6
    frequency:    6.5774904233
  - # 7
    frequency:    8.8464634759
  - # 8
    frequency:   12.4488405649
  - # 9
    frequency:   15.3288088375
  - # 10
    frequency:   23.7288429084
  - # 11
    frequency:   24.3903238533
  - # 12
    frequency:   24.7200806104
  - # 13
    frequency:   24.7625108471
  - # 14
    frequency:   25.8600207148
  - # 15
    frequency:   25.9428912313

- q-position: [    0.1313131,    0.0000000,    0.0000000 ]
  distance:    0.0422270
  band:
  - # 1
    frequency:    0.8817229398
  - # 2
    frequency:    1.6195934780
  - # 3
    frequency:    2.7182160461
  - # 4
    frequency:    3.7781190176
  - # 5
    frequency:    4.2649588466
  - # 6
    frequency:    6.5641159291
  - # 7
    frequency:    8.8397239579
  - # 8
    frequency:   12.6165712303
  - # 9
    frequency:   15.2245772282
  - # 10
    frequency:   23.6827682547
  - # 11
    frequency:   24.3366842922
  - # 12
    frequency:   24.7108083224
  - # 13
    frequency:   24.7485820411
  - # 14
    frequency:   25.9237391230
  - # 15
    frequency:   25.9883587474

- q-position: [    0.1363636,    0.0000000,    0.0000000 ]
  distance:    0.0438511
  band:
  - # 1
    frequency:    0.9331239857
  - # 2
    frequency:    1.6724573274
  - # 3
    frequency:    2.8167958559
  - # 4
    frequency:    3.7790823603
  - # 5
    frequency:    4.2998594730
  - # 6
    frequency:    6.5504200061
  - # 7
    frequency:    8.8335251598
  - # 8
    frequency:   12.7794496464
  - # 9
    frequency:   15.1191207735
  - # 10
    frequency:   23.6362847722
  - # 11
    frequency:   24.2817140609
  - # 12
    frequency:   24.7014174551
  - # 13
    frequency:   24.7346965639
  - # 14
    frequency:   25.9866195877
  - # 15
    frequency:   26.0362007858

- q-position: [    0.1414141,    0.0000000,    0.0000000 ]
  distance:    0.0454752
  band:
  - # 1
    frequency:    0.9854790463
  - # 2
    frequency:    1.7243571732
  - # 3
    frequency:    2.9143979071
  - # 4
    frequency:    3.7802253766
  - # 5
    frequency:    4.3357395317
  - # 6
    frequency:    6.5364299602
  - # 7
    frequency:    8.8279297460
  - # 8
    frequency:   12.9370262394
  - # 9
    frequency:   15.0127762245
  - # 10
    frequency:   23.5894065274
  - # 11
    frequency:   24.2255208698
  - # 12
    frequency:   24.6918721090
  - # 13
    frequency:   24.7209695016
  - # 14
    frequency:   26.0438341363
  - # 15
    frequency:   26.0909805911

- q-position: [    0.1464646,    0.0000000,    0.0000000 ]
  distance:    0.0470993
  band:
  - # 1
    frequency:    1.0387264170
  - # 2
    frequency:    1.7752787957
  - # 3
    frequency:    3.0109254390
  - # 4
    frequency:    3.7815662647
  - # 5
    frequency:    4.3725964519
  - # 6
    frequency:    6.5221753463
  - # 7
    frequency:    8.8229973961
  - # 8
    frequency:   13.0888477322
  - # 9
    frequency:   14.9059405513
  - # 10
    frequency:   23.5421506457
  - # 11
    frequency:   24.1682117879
  - # 12
    frequency:   24.6820956123
  - # 13
    frequency:   24.7075566633
  - # 14
    frequency:   26.0922865869
  - # 15
    frequency:   26.1555146997

- q-position: [    0.1515152,    0.0000000,    0.0000000 ]
  distance:    0.0487234
  band:
  - # 1
    frequency:    1.0928044043
  - # 2
    frequency:    1.8252107256
  - # 3
    frequency:    3.1062758386
  - # 4
    frequency:    3.7831239992
  - # 5
    frequency:    4.4104307714
  - # 6
    frequency:    6.5076882459
  - # 7
    frequency:    8.8187843661
  - # 8
    frequency:   13.2344081595
  - # 9
    frequency:   14.7991156944
  - # 10
    frequency:   23.4945371015
  - # 11
    frequency:   24.1098934496
  - # 12
    frequency:   24.6719574926
  - # 13
    frequency:   24.6946673206
  - # 14
    frequency:   26.1351447610
  - # 15
    frequency:   26.2263421485

- q-position: [    0.1565657,    0.0000000,    0.0000000 ]
  distance:    0.0503476
  band:
  - # 1
    frequency:    1.1476514834
  - # 2
    frequency:    1.8741443594
  - # 3
    frequency:    3.2003409977
  - # 4
    frequency:    3.7849182140
  - # 5
    frequency:    4.4492455072
  - # 6
    frequency:    6.4930035986
  - # 7
    frequency:    8.8153430782
  - # 8
    frequency:   13.3730548120
  - # 9
    frequency:   14.6929981293
  - # 10
    frequency:   23.4465885060
  - # 11
    frequency:   24.0506721479
  - # 12
    frequency:   24.6612894840
  - # 13
    frequency:   24.6825479111
  - # 14
    frequency:   26.1751293908
  - # 15
    frequency:   26.3004374237

- q-position: [    0.1616162,    0.0000000,    0.0000000 ]
  distance:    0.0519717
  band:
  - # 1
    frequency:    1.2032064203
  - # 2
    frequency:    1.9220740655
  - # 3
    frequency:    3.2930078843
  - # 4
    frequency:    3.7869690508
  - # 5
    frequency:    4.4890452391
  - # 6
    frequency:    6.4781595991
  - # 7
    frequency:    8.8127217428
  - # 8
    frequency:   13.5037901554
  - # 9
    frequency:   14.5886722620
  - # 10
    frequency:   23.3983298948
  - # 11
    frequency:   23.9906538398
  - # 12
    frequency:   24.6499708758
  - # 13
    frequency:   24.6713963981
  - # 14
    frequency:   26.2132451046
  - # 15
    frequency:   26.3764816952

- q-position: [    0.1666667,    0.0000000,    0.0000000 ]
  distance:    0.0535958
  band:
  - # 1
    frequency:    1.2594083643
  - # 2
    frequency:    1.9689972779
  - # 3
    frequency:    3.3841593926
  - # 4
    frequency:    3.7892969703
  - # 5
    frequency:    4.5298348310
  - # 6
    frequency:    6.4631981733
  - # 7
    frequency:    8.8109640186
  - # 8
    frequency:   13.6248112217
  - # 9
    frequency:   14.4880662236
  - # 10
    frequency:   23.3497885217
  - # 11
    frequency:   23.9299440818
  - # 12
    frequency:   24.6380401701
  - # 13
    frequency:   24.6612503236
  - # 14
    frequency:   26.2498463130
  - # 15
    frequency:   26.4537994412

- q-position: [    0.1717172,    0.0000000,    0.0000000 ]
  distance:    0.0552199
  band:
  - # 1
    frequency:    1.3161969201
  - # 2
    frequency:    2.0149145763
  - # 3
    frequency:    3.4736755361
  - # 4
    frequency:    3.7919225262
  - # 5
    frequency:    4.5716177086
  - # 6
    frequency:    6.4481655511
  - # 7
    frequency:    8.8101087166
  - # 8
    frequency:   13.7323363618
  - # 9
    frequency:   14.3951202432
  - # 10
    frequency:   23.3009936590
  - # 11
    frequency:   23.8686479079
  - # 12
    frequency:   24.6256899417
  - # 13
    frequency:   24.6519916583
  - # 14
    frequency:   26.2850677913
  - # 15
    frequency:   26.5319305920

- q-position: [    0.1767677,    0.0000000,    0.0000000 ]
  distance:    0.0568440
  band:
  - # 1
    frequency:    1.3735122057
  - # 2
    frequency:    2.0598297491
  - # 3
    frequency:    3.5614350514
  - # 4
    frequency:    3.7948661019
  - # 5
    frequency:    4.6143936098
  - # 6
    frequency:    6.4331129539
  - # 7
    frequency:    8.8101895514
  - # 8
    frequency:   13.8175943834
  - # 9
    frequency:   14.3187926422
  - # 10
    frequency:   23.2519764096
  - # 11
    frequency:   23.8068696621
  - # 12
    frequency:   24.6131539409
  - # 13
    frequency:   24.6434594125
  - # 14
    frequency:   26.3189619933
  - # 15
    frequency:   26.6104960843

- q-position: [    0.1818182,    0.0000000,    0.0000000 ]
  distance:    0.0584681
  band:
  - # 1
    frequency:    1.4312949011
  - # 2
    frequency:    2.1037498371
  - # 3
    frequency:    3.6473174655
  - # 4
    frequency:    3.7981476131
  - # 5
    frequency:    4.6581557309
  - # 6
    frequency:    6.4180974224
  - # 7
    frequency:    8.8112349427
  - # 8
    frequency:   13.8621039871
  - # 9
    frequency:   14.2777756049
  - # 10
    frequency:   23.2027695321
  - # 11
    frequency:   23.7447127913
  - # 12
    frequency:   24.6006279386
  - # 13
    frequency:   24.6355285077
  - # 14
    frequency:   26.3515476880
  - # 15
    frequency:   26.6891521585

- q-position: [    0.1868687,    0.0000000,    0.0000000 ]
  distance:    0.0600922
  band:
  - # 1
    frequency:    1.4894862925
  - # 2
    frequency:    2.1466851546
  - # 3
    frequency:    3.7312056472
  - # 4
    frequency:    3.8017861792
  - # 5
    frequency:    4.7028872198
  - # 6
    frequency:    6.4031828124
  - # 7
    frequency:    8.8132678713
  - # 8
    frequency:   13.8478571000
  - # 9
    frequency:   14.2903071882
  - # 10
    frequency:   23.1534072830
  - # 11
    frequency:   23.6822796055
  - # 12
    frequency:   24.5882564929
  - # 13
    frequency:   24.6281227315
  - # 14
    frequency:   26.3828295729
  - # 15
    frequency:   26.7675736765

- q-position: [    0.1919192,    0.0000000,    0.0000000 ]
  distance:    0.0617164
  band:
  - # 1
    frequency:    1.5480283169
  - # 2
    frequency:    2.1886492855
  - # 3
    frequency:    3.8057997684
  - # 4
    frequency:    3.8129888195
  - # 5
    frequency:    4.7485570113
  - # 6
    frequency:    6.3884409896
  - # 7
    frequency:    8.8163057897
  - # 8
    frequency:   13.7865221485
  - # 9
    frequency:   14.3449635861
  - # 10
    frequency:   23.1039252784
  - # 11
    frequency:   23.6196710092
  - # 12
    frequency:   24.5761453544
  - # 13
    frequency:   24.6212020592
  - # 14
    frequency:   26.4128071075
  - # 15
    frequency:   26.8454481533

- q-position: [    0.1969697,    0.0000000,    0.0000000 ]
  distance:    0.0633405
  band:
  - # 1
    frequency:    1.6068636083
  - # 2
    frequency:    2.2296590496
  - # 3
    frequency:    3.8102048249
  - # 4
    frequency:    3.8925659301
  - # 5
    frequency:    4.7951150683
  - # 6
    frequency:    6.3739532600
  - # 7
    frequency:    8.8203605874
  - # 8
    frequency:   13.7019837719
  - # 9
    frequency:   14.4181151980
  - # 10
    frequency:   23.0543603772
  - # 11
    frequency:   23.5569862077
  - # 12
    frequency:   24.5643749511
  - # 13
    frequency:   24.6147489035
  - # 14
    frequency:   26.4414788575
  - # 15
    frequency:   26.9224741520

- q-position: [    0.2020202,    0.0000000,    0.0000000 ]
  distance:    0.0649646
  band:
  - # 1
    frequency:    1.6659355512
  - # 2
    frequency:    2.2697344379
  - # 3
    frequency:    3.8150158851
  - # 4
    frequency:    3.9698491942
  - # 5
    frequency:    4.8424871807
  - # 6
    frequency:    6.3598120733
  - # 7
    frequency:    8.8254386122
  - # 8
    frequency:   13.6075502581
  - # 9
    frequency:   14.4967152619
  - # 10
    frequency:   23.0047505890
  - # 11
    frequency:   23.4943223923
  - # 12
    frequency:   24.5530095655
  - # 13
    frequency:   24.6087586790
  - # 14
    frequency:   26.4688447823
  - # 15
    frequency:   26.9983615622

- q-position: [    0.2070707,    0.0000000,    0.0000000 ]
  distance:    0.0665887
  band:
  - # 1
    frequency:    1.7251883395
  - # 2
    frequency:    2.3088985115
  - # 3
    frequency:    3.8202451930
  - # 4
    frequency:    4.0447675279
  - # 5
    frequency:    4.8905695688
  - # 6
    frequency:    6.3461230323
  - # 7
    frequency:    8.8315407438
  - # 8
    frequency:   13.5089233093
  - # 9
    frequency:   14.5753264785
  - # 10
    frequency:   22.9551350075
  - # 11
    frequency:   23.4317744066
  - # 12
    frequency:   24.5421028576
  - # 13
    frequency:   24.6032340315
  - # 14
    frequency:   26.4949075008
  - # 15
    frequency:   27.0728326871

- q-position: [    0.2121212,    0.0000000,    0.0000000 ]
  distance:    0.0682128
  band:
  - # 1
    frequency:    1.7845670464
  - # 2