nqpoint: 300    
npath: 3      
segment_nqpoint:
- 100
- 100
- 100
labels:
- [ 'G', 'M' ]
- [ 'M', 'K' ]
- [ 'K', 'G' ]
reciprocal_lattice:
- [   0.30291997,   0.17489093,   0.00000000 ] # a*
- [   0.00000000,   0.34978185,   0.00000000 ] # b*
- [   0.00000000,   0.00000000,   0.03594767 ] # c*
natom: 8      
lattice:
- [     3.301201967144512,     0.000000000000000,     0.000000000000000 ] # a
- [    -1.650600983572256,     2.858924766573208,     0.000000000000000 ] # b
- [     0.000000000000000,     0.000000000000000,    27.818218197896876 ] # c
points:
- symbol: C # 1
  coordinates: [  0.000000000000000,  0.000000000000000,  0.493802827198555 ]
  mass: 12.010700
- symbol: C # 2
  coordinates: [  0.333332985432215,  0.666666983183674,  0.633192954836173 ]
  mass: 12.010700
- symbol: Hf # 3
  coordinates: [  0.333332985432215,  0.666666983183674,  0.447775058154958 ]
  mass: 178.490000
- symbol: Hf # 4
  coordinates: [  0.666666984744048,  0.333332985985145,  0.536894632560308 ]
  mass: 178.490000
- symbol: N # 5
  coordinates: [  0.333332985432215,  0.666666983183674,  0.588257484778172 ]
  mass: 14.006700
- symbol: O # 6
  coordinates: [  0.333332985432215,  0.666666983183674,  0.676471011336002 ]
  mass: 15.999400
- symbol: O # 7
  coordinates: [  0.666666984744048,  0.333332985985145,  0.323528988663998 ]
  mass: 15.999400
- symbol: P # 8
  coordinates: [  0.666666984744048,  0.333332985985145,  0.377230419461239 ]
  mass: 30.973762

phonon:
- q-position: [    0.0000000,    0.0000000,    0.0000000 ]
  distance:    0.0000000
  band:
  - # 1
    frequency:   -3.6899132241
  - # 2
    frequency:   -3.6899132241
  - # 3
    frequency:   -0.7351361645
  - # 4
    frequency:   -0.7351361645
  - # 5
    frequency:   -0.0000068571
  - # 6
    frequency:   -0.0000002684
  - # 7
    frequency:    0.0000076761
  - # 8
    frequency:    2.8732052261
  - # 9
    frequency:    3.1763035260
  - # 10
    frequency:    3.1763035260
  - # 11
    frequency:    4.3150575133
  - # 12
    frequency:    4.3150575133
  - # 13
    frequency:    6.3246158320
  - # 14
    frequency:    6.3246158321
  - # 15
    frequency:    7.3617355581
  - # 16
    frequency:    8.1000490365
  - # 17
    frequency:   16.2067752857
  - # 18
    frequency:   16.8411316666
  - # 19
    frequency:   16.8411316666
  - # 20
    frequency:   18.6142207256
  - # 21
    frequency:   18.6142207257
  - # 22
    frequency:   34.1211120688
  - # 23
    frequency:   38.0069570029
  - # 24
    frequency:   68.9270334352

- q-position: [    0.0050505,    0.0000000,    0.0000000 ]
  distance:    0.0017666
  band:
  - # 1
    frequency:   -3.6899055600
  - # 2
    frequency:   -3.6894968724
  - # 3
    frequency:   -0.7349716449
  - # 4
    frequency:   -0.7329198249
  - # 5
    frequency:    0.0016134654
  - # 6
    frequency:    0.0442759464
  - # 7
    frequency:    0.0527097106
  - # 8
    frequency:    2.8741165501
  - # 9
    frequency:    3.1762662085
  - # 10
    frequency:    3.1777145699
  - # 11
    frequency:    4.3149142571
  - # 12
    frequency:    4.3151862899
  - # 13
    frequency:    6.3249693757
  - # 14
    frequency:    6.3251867711
  - # 15
    frequency:    7.3615815248
  - # 16
    frequency:    8.0995319074
  - # 17
    frequency:   16.2066481130
  - # 18
    frequency:   16.8411439594
  - # 19
    frequency:   16.8412011459
  - # 20
    frequency:   18.6134739360
  - # 21
    frequency:   18.6139179966
  - # 22
    frequency:   34.1208707856
  - # 23
    frequency:   38.0069500947
  - # 24
    frequency:   68.9258412003

- q-position: [    0.0101010,    0.0000000,    0.0000000 ]
  distance:    0.0035332
  band:
  - # 1
    frequency:   -3.6898845908
  - # 2
    frequency:   -3.6882591138
  - # 3
    frequency:   -0.7344744961
  - # 4
    frequency:   -0.7262340463
  - # 5
    frequency:    0.0064650775
  - # 6
    frequency:    0.0885585462
  - # 7
    frequency:    0.1056430524
  - # 8
    frequency:    2.8768556252
  - # 9
    frequency:    3.1761576560
  - # 10
    frequency:    3.1819222001
  - # 11
    frequency:    4.3144853835
  - # 12
    frequency:    4.3155807067
  - # 13
    frequency:    6.3260288959
  - # 14
    frequency:    6.3268988464
  - # 15
    frequency:    7.3611194692
  - # 16
    frequency:    8.0979819515
  - # 17
    frequency:   16.2062671159
  - # 18
    frequency:   16.8411808898
  - # 19
    frequency:   16.8414094254
  - # 20
    frequency:   18.6112358692
  - # 21
    frequency:   18.6130101393
  - # 22
    frequency:   34.1201473870
  - # 23
    frequency:   38.0069294398
  - # 24
    frequency:   68.9222669590

- q-position: [    0.0151515,    0.0000000,    0.0000000 ]
  distance:    0.0052997
  band:
  - # 1
    frequency:   -3.6898563545
  - # 2
    frequency:   -3.6862337059
  - # 3
    frequency:   -0.7336340544
  - # 4
    frequency:   -0.7149662195
  - # 5
    frequency:    0.0145997922
  - # 6
    frequency:    0.1328548367
  - # 7
    frequency:    0.1590168042
  - # 8
    frequency:    2.8814366904
  - # 9
    frequency:    3.1759880241
  - # 10
    frequency:    3.1888514648
  - # 11
    frequency:    4.3137735662
  - # 12
    frequency:    4.3162648826
  - # 13
    frequency:    6.3277910693
  - # 14
    frequency:    6.3297498255
  - # 15
    frequency:    7.3603495221
  - # 16
    frequency:    8.0954034702
  - # 17
    frequency:   16.2056338458
  - # 18
    frequency:   16.8412426137
  - # 19
    frequency:   16.8417560357
  - # 20
    frequency:   18.6075134288
  - # 21
    frequency:   18.6114981460
  - # 22
    frequency:   34.1189432243
  - # 23
    frequency:   38.0068952478
  - # 24
    frequency:   68.9163180941

- q-position: [    0.0202020,    0.0000000,    0.0000000 ]
  distance:    0.0070663
  band:
  - # 1
    frequency:   -3.6898308116
  - # 2
    frequency:   -3.6834764628
  - # 3
    frequency:   -0.7324328860
  - # 4
    frequency:   -0.6989207478
  - # 5
    frequency:    0.0260989347
  - # 6
    frequency:    0.1771725670
  - # 7
    frequency:    0.2130346003
  - # 8
    frequency:    2.8878801544
  - # 9
    frequency:    3.1757740909
  - # 10
    frequency:    3.1983823589
  - # 11
    frequency:    4.3127832276
  - # 12
    frequency:    4.3172785389
  - # 13
    frequency:    6.3302503851
  - # 14
    frequency:    6.3337359648
  - # 15
    frequency:    7.3592718955
  - # 16
    frequency:    8.0918036546
  - # 17
    frequency:   16.2047508534
  - # 18
    frequency:   16.8413293886
  - # 19
    frequency:   16.8422402115
  - # 20
    frequency:   18.6023181087
  - # 21
    frequency:   18.6093836790
  - # 22
    frequency:   34.1172605457
  - # 23
    frequency:   38.0068478658
  - # 24
    frequency:   68.9080068876

- q-position: [    0.0252525,    0.0000000,    0.0000000 ]
  distance:    0.0088329
  band:
  - # 1
    frequency:   -3.6898216900
  - # 2
    frequency:   -3.6800645584
  - # 3
    frequency:   -0.7308472534
  - # 4
    frequency:   -0.6778067522
  - # 5
    frequency:    0.0410958751
  - # 6
    frequency:    0.2215204200
  - # 7
    frequency:    0.2678816997
  - # 8
    frequency:    2.8962083811
  - # 9
    frequency:    3.1755390357
  - # 10
    frequency:    3.2103563640
  - # 11
    frequency:    4.3115204877
  - # 12
    frequency:    4.3186762733
  - # 13
    frequency:    6.3333991858
  - # 14
    frequency:    6.3388519741
  - # 15
    frequency:    7.3578868746
  - # 16
    frequency:    8.0871926192
  - # 17
    frequency:   16.2036216363
  - # 18
    frequency:   16.8414415706
  - # 19
    frequency:   16.8428609170
  - # 20
    frequency:   18.5956659758
  - # 21
    frequency:   18.6066690832
  - # 22
    frequency:   34.1151024899
  - # 23
    frequency:   38.0067877761
  - # 24
    frequency:   68.8973504858

- q-position: [    0.0303030,    0.0000000,    0.0000000 ]
  distance:    0.0105995
  band:
  - # 1
    frequency:   -3.6898462688
  - # 2
    frequency:   -3.6760955036
  - # 3
    frequency:   -0.7288476917
  - # 4
    frequency:   -0.6512204839
  - # 5
    frequency:    0.0598035129
  - # 6
    frequency:    0.2659081046
  - # 7
    frequency:    0.3237211779
  - # 8
    frequency:    2.9064410636
  - # 9
    frequency:    3.1753121290
  - # 10
    frequency:    3.2245842103
  - # 11
    frequency:    4.3099930970
  - # 12
    frequency:    4.3205265255
  - # 13
    frequency:    6.3372277239
  - # 14
    frequency:    6.3450909647
  - # 15
    frequency:    7.3561948062
  - # 16
    frequency:    8.0815834488
  - # 17
    frequency:   16.2022505690
  - # 18
    frequency:   16.8415796097
  - # 19
    frequency:   16.8436168795
  - # 20
    frequency:   18.5875776448
  - # 21
    frequency:   18.6033574033
  - # 22
    frequency:   34.1124730771
  - # 23
    frequency:   38.0067155919
  - # 24
    frequency:   68.8843708511

- q-position: [    0.0353535,    0.0000000,    0.0000000 ]
  distance:    0.0123660
  band:
  - # 1
    frequency:   -3.6899251016
  - # 2
    frequency:   -3.6716857576
  - # 3
    frequency:   -0.7263996414
  - # 4
    frequency:   -0.6186240018
  - # 5
    frequency:    0.0825643370
  - # 6
    frequency:    0.3103463115
  - # 7
    frequency:    0.3806917387
  - # 8
    frequency:    2.9185909648
  - # 9
    frequency:    3.1751283344
  - # 10
    frequency:    3.2408539701
  - # 11
    frequency:    4.3082103527
  - # 12
    frequency:    4.3229102157
  - # 13
    frequency:    6.3417242316
  - # 14
    frequency:    6.3524443788
  - # 15
    frequency:    7.3541960864
  - # 16
    frequency:    8.0749922596
  - # 17
    frequency:   16.2006428153
  - # 18
    frequency:   16.8417440444
  - # 19
    frequency:   16.8445066296
  - # 20
    frequency:   18.5780782474
  - # 21
    frequency:   18.5994524055
  - # 22
    frequency:   34.1093771980
  - # 23
    frequency:   38.0066320530
  - # 24
    frequency:   68.8690947004

- q-position: [    0.0404040,    0.0000000,    0.0000000 ]
  distance:    0.0141326
  band:
  - # 1
    frequency:   -3.6900816784
  - # 2
    frequency:   -3.6669689270
  - # 3
    frequency:   -0.7234640881
  - # 4
    frequency:   -0.5793282184
  - # 5
    frequency:    0.1099412286
  - # 6
    frequency:    0.3548465448
  - # 7
    frequency:    0.4389071363
  - # 8
    frequency:    2.9326605771
  - # 9
    frequency:    3.1750278242
  - # 10
    frequency:    3.2589387998
  - # 11
    frequency:    4.3061830039
  - # 12
    frequency:    4.3259190389
  - # 13
    frequency:    6.3468750027
  - # 14
    frequency:    6.3609018982
  - # 15
    frequency:    7.3518911462
  - # 16
    frequency:    8.0674382731
  - # 17
    frequency:   16.1988042270
  - # 18
    frequency:   16.8419354952
  - # 19
    frequency:   16.8455285471
  - # 20
    frequency:   18.5671973933
  - # 21
    frequency:   18.5949586038
  - # 22
    frequency:   34.1058206003
  - # 23
    frequency:   38.0065380194
  - # 24
    frequency:   68.8515534297

- q-position: [    0.0454545,    0.0000000,    0.0000000 ]
  distance:    0.0158992
  band:
  - # 1
    frequency:   -3.6903420307
  - # 2
    frequency:   -3.6620935135
  - # 3
    frequency:   -0.7199981694
  - # 4
    frequency:   -0.5325105168
  - # 5
    frequency:    0.1428793556
  - # 6
    frequency:    0.3994208532
  - # 7
    frequency:    0.4984569778
  - # 8
    frequency:    2.9486399570
  - # 9
    frequency:    3.1750554099
  - # 10
    frequency:    3.2786039277
  - # 11
    frequency:    4.3039231463
  - # 12
    frequency:    4.3296533984
  - # 13
    frequency:    6.3526644849
  - # 14
    frequency:    6.3704513285
  - # 15
    frequency:    7.3492804388
  - # 16
    frequency:    8.0589439055
  - # 17
    frequency:   16.1967412310
  - # 18
    frequency:   16.8421546563
  - # 19
    frequency:   16.8466809093
  - # 20
    frequency:   18.5549691253
  - # 21
    frequency:   18.5898812890
  - # 22
    frequency:   34.1018098721
  - # 23
    frequency:   38.0064344651
  - # 24
    frequency:   68.8317830260

- q-position: [    0.0505051,    0.0000000,    0.0000000 ]
  distance:    0.0176658
  band:
  - # 1
    frequency:   -3.6907342801
  - # 2
    frequency:   -3.6572201783
  - # 3
    frequency:   -0.7159557230
  - # 4
    frequency:   -0.4773645166
  - # 5
    frequency:    0.1829685061
  - # 6
    frequency:    0.4440814869
  - # 7
    frequency:    0.5594084488
  - # 8
    frequency:    2.9665057292
  - # 9
    frequency:    3.1752598920
  - # 10
    frequency:    3.2996127463
  - # 11
    frequency:    4.3014441120
  - # 12
    frequency:    4.3342199705
  - # 13
    frequency:    6.3590753799
  - # 14
    frequency:    6.3810784558
  - # 15
    frequency:    7.3463644275
  - # 16
    frequency:    8.0495348704
  - # 17
    frequency:   16.1944607071
  - # 18
    frequency:   16.8424022874
  - # 19
    frequency:   16.8479619408
  - # 20
    frequency:   18.5414318677
  - # 21
    frequency:   18.5842265620
  - # 22
    frequency:   34.0973524240
  - # 23
    frequency:   38.0063224700
  - # 24
    frequency:   68.8098239655

- q-position: [    0.0555556,    0.0000000,    0.0000000 ]
  distance:    0.0194323
  band:
  - # 1
    frequency:   -3.6912881357
  - # 2
    frequency:   -3.6525185145
  - # 3
    frequency:   -0.7112877545
  - # 4
    frequency:   -0.4136343340
  - # 5
    frequency:    0.2327047260
  - # 6
    frequency:    0.4888405043
  - # 7
    frequency:    0.6218083033
  - # 8
    frequency:    2.9862210671
  - # 9
    frequency:    3.1756933318
  - # 10
    frequency:    3.3217320525
  - # 11
    frequency:    4.2987603559
  - # 12
    frequency:    4.3397289019
  - # 13
    frequency:    6.3660887501
  - # 14
    frequency:    6.3927668728
  - # 15
    frequency:    7.3431435776
  - # 16
    frequency:    8.0392402984
  - # 17
    frequency:   16.1919698606
  - # 18
    frequency:   16.8426792040
  - # 19
    frequency:   16.8493698613
  - # 20
    frequency:   18.5266283679
  - # 21
    frequency:   18.5780013686
  - # 22
    frequency:   34.0924564684
  - # 23
    frequency:   38.0062032115
  - # 24
    frequency:   68.7857211002

- q-position: [    0.0606061,    0.0000000,    0.0000000 ]
  distance:    0.0211989
  band:
  - # 1
    frequency:   -3.6920343461
  - # 2
    frequency:   -3.6481633454
  - # 3
    frequency:   -0.7059428119
  - # 4
    frequency:   -0.3427641967
  - # 5
    frequency:    0.2949883709
  - # 6
    frequency:    0.5337093485
  - # 7
    frequency:    0.6856843378
  - # 8
    frequency:    3.0077363668
  - # 9
    frequency:    3.1764102546
  - # 10
    frequency:    3.3447365779
  - # 11
    frequency:    4.2958873435
  - # 12
    frequency:    4.3462906663
  - # 13
    frequency:    6.3736841296
  - # 14
    frequency:    6.4054977690
  - # 15
    frequency:    7.3396183533
  - # 16
    frequency:    8.0280928718
  - # 17
    frequency:   16.1892760918
  - # 18
    frequency:   16.8429862675
  - # 19
    frequency:   16.8509029310
  - # 20
    frequency:   18.5106056323
  - # 21
    frequency:   18.5712135376
  - # 22
    frequency:   34.0871309961
  - # 23
    frequency:   38.0060779558
  - # 24
    frequency:   68.7595235311

- q-position: [    0.0656566,    0.0000000,    0.0000000 ]
  distance:    0.0229655
  band:
  - # 1
    frequency:   -3.6930041114
  - # 2
    frequency:   -3.6443306080
  - # 3
    frequency:   -0.6998672503
  - # 4
    frequency:   -0.2679476635
  - # 5
    frequency:    0.3702574162
  - # 6
    frequency:    0.5786984073
  - # 7
    frequency:    0.7510456188
  - # 8
    frequency:    3.0309903030
  - # 9
    frequency:    3.1774667905
  - # 10
    frequency:    3.3684129829
  - # 11
    frequency:    4.2928414421
  - # 12
    frequency:    4.3540126307
  - # 13
    frequency:    6.3818396374
  - # 14
    frequency:    6.4192496822
  - # 15
    frequency:    7.3357892221
  - # 16
    frequency:    8.0161289776
  - # 17
    frequency:   16.1863868643
  - # 18
    frequency:   16.8433243738
  - # 19
    frequency:   16.8525594897
  - # 20
    frequency:   18.4934148561
  - # 21
    frequency:   18.5638718190
  - # 22
    frequency:   34.0813857520
  - # 23
    frequency:   38.0059480477
  - # 24
    frequency:   68.7312844698

- q-position: [    0.0707071,    0.0000000,    0.0000000 ]
  distance:    0.0247321
  band:
  - # 1
    frequency:   -3.6942284663
  - # 2
    frequency:   -3.6411929177
  - # 3
    frequency:   -0.6930053671
  - # 4
    frequency:   -0.1877086131
  - # 5
    frequency:    0.4536668042
  - # 6
    frequency:    0.6238165661
  - # 7
    frequency:    0.8178810318
  - # 8
    frequency:    3.0559109888
  - # 9
    frequency:    3.1789197650
  - # 10
    frequency:    3.3925634616
  - # 11
    frequency:    4.2896398185
  - # 12
    frequency:    4.3629954216
  - # 13
    frequency:    6.3905320918
  - # 14
    frequency:    6.4339982057
  - # 15
    frequency:    7.3316566692
  - # 16
    frequency:    8.0033888810
  - # 17
    frequency:   16.1833095765
  - # 18
    frequency:   16.8436944429
  - # 19
    frequency:   16.8543379898
  - # 20
    frequency:   18.4751113465
  - # 21
    frequency:   18.5559859241
  - # 22
    frequency:   34.0752312074
  - # 23
    frequency:   38.0058149003
  - # 24
    frequency:   68.7010610884

- q-position: [    0.0757576,    0.0000000,    0.0000000 ]
  distance:    0.0264986
  band:
  - # 1
    frequency:   -3.6957376443
  - # 2
    frequency:   -3.6389149604
  - # 3
    frequency:   -0.6852993838
  - # 4
    frequency:   -0.0683932413
  - # 5
    frequency:    0.5387397412
  - # 6
    frequency:    0.6690707611
  - # 7
    frequency:    0.8861562829
  - # 8
    frequency:    3.0824170047
  - # 9
    frequency:    3.1808257520
  - # 10
    frequency:    3.4170090547
  - # 11
    frequency:    4.2863003457
  - # 12
    frequency:    4.3733292183
  - # 13
    frequency:    6.3997371236
  - # 14
    frequency:    6.4497156455
  - # 15
    frequency:    7.3272212245
  - # 16
    frequency:    7.9899169198
  - # 17
    frequency:   16.1800514361
  - # 18
    frequency:   16.8440974068
  - # 19
    frequency:   16.8562370199
  - # 20
    frequency:   18.4557544411
  - # 21
    frequency:   18.5475665644
  - # 22
    frequency:   34.0686785310
  - # 23
    frequency:   38.0056799846
  - # 24
    frequency:   68.6689143582

- q-position: [    0.0808081,    0.0000000,    0.0000000 ]
  distance:    0.0282652
  band:
  - # 1
    frequency:   -3.6975604339
  - # 2
    frequency:   -3.6376488911
  - # 3
    frequency:   -0.6766892398
  - # 4
    frequency:    0.1539567262
  - # 5
    frequency:    0.6218307929
  - # 6
    frequency:    0.7144655389
  - # 7
    frequency:    0.9558101749
  - # 8
    frequency:    3.1104181278
  - # 9
    frequency:    3.1832401041
  - # 10
    frequency:    3.4415927085
  - # 11
    frequency:    4.2828415200
  - # 12
    frequency:    4.3850901453
  - # 13
    frequency:    6.4094292878
  - # 14
    frequency:    6.4663706228
  - # 15
    frequency:    7.3224835054
  - # 16
    frequency:    7.9757617251
  - # 17
    frequency:   16.1766193413
  - # 18
    frequency:   16.8445341975
  - # 19
    frequency:   16.8582553192
  - # 20
    frequency:   18.4354074203
  - # 21
    frequency:   18.5386254909
  - # 22
    frequency:   34.0617395583
  - # 23
    frequency:   38.0055448180
  - # 24
    frequency:   68.6349088778

- q-position: [    0.0858586,    0.0000000,    0.0000000 ]
  distance:    0.0300318
  band:
  - # 1
    frequency:   -3.6997235445
  - # 2
    frequency:   -3.6375299478
  - # 3
    frequency:   -0.6671121538
  - # 4
    frequency:    0.2292050635
  - # 5
    frequency:    0.7018361483
  - # 6
    frequency:    0.7600026295
  - # 7
    frequency:    1.0267515201
  - # 8
    frequency:    3.1398156408
  - # 9
    frequency:    3.1862159785
  - # 10
    frequency:    3.4661820587
  - # 11
    frequency:    4.2792823904
  - # 12
    frequency:    4.3983369655
  - # 13
    frequency:    6.4195821721
  - # 14
    frequency:    6.4839276131
  - # 15
    frequency:    7.3174442796
  - # 16
    frequency:    7.9609764713
  - # 17
    frequency:   16.1730197685
  - # 18
    frequency:   16.8450057358
  - # 19
    frequency:   16.8603917819
  - # 20
    frequency:   18.4141374143
  - # 21
    frequency:   18.5291755306
  - # 22
    frequency:   34.0544267582
  - # 23
    frequency:   38.0054109531
  - # 24
    frequency:   68.5991126903

- q-position: [    0.0909091,    0.0000000,    0.0000000 ]
  distance:    0.0317984
  band:
  - # 1
    frequency:   -3.7022509924
  - # 2
    frequency:   -3.6386725001
  - # 3
    frequency:   -0.6565018997
  - # 4
    frequency:    0.2887829723
  - # 5
    frequency:    0.7787339525
  - # 6
    frequency:    0.8056805417
  - # 7
    frequency:    1.0988581075
  - # 8
    frequency:    3.1705021500
  - # 9
    frequency:    3.1898033746
  - # 10
    frequency:    3.4906718856
  - # 11
    frequency:    4.2756425008
  - # 12
    frequency:    4.4131082934
  - # 13
    frequency:    6.4301685021
  - # 14
    frequency:    6.5023464147
  - # 15
    frequency:    7.3121045526
  - # 16
    frequency:    7.9456191607
  - # 17
    frequency:   16.1692586679
  - # 18
    frequency:   16.8455129190
  - # 19
    frequency:   16.8626454491
  - # 20
    frequency:   18.3920153050
  - # 21
    frequency:   18.5192306218
  - # 22
    frequency:   34.0467531991
  - # 23
    frequency:   38.0052799665
  - # 24
    frequency:   68.5615970913

- q-position: [    0.0959596,    0.0000000,    0.0000000 ]
  distance:    0.0335649
  band:
  - # 1
    frequency:   -3.7051635271
  - # 2
    frequency:   -3.6411667393
  - # 3
    frequency:   -0.6447877224
  - # 4
    frequency:    0.3424176492
  - # 5
    frequency:    0.8514941903
  - # 6
    frequency:    0.8528243205
  - # 7
    frequency:    1.1719786173
  - # 8
    frequency:    3.1940482057
  - # 9
    frequency:    3.2023608729
  - # 10
    frequency:    3.5149861777
  - # 11
    frequency:    4.2719418457
  - # 12
    frequency:    4.4294205390
  - # 13
    frequency:    6.4411602419
  - # 14
    frequency:    6.5215815356
  - # 15
    frequency:    7.3064656834
  - # 16
    frequency:    7.9297529493
  - # 17
    frequency:   16.1653413678
  - # 18
    frequency:   16.8460566093
  - # 19
    frequency:   16.8650154914
  - # 20
    frequency:   18.3691156217
  - # 21
    frequency:   18.5088058454
  - # 22
    frequency:   34.0387325127
  - # 23
    frequency:   38.0051534466
  - # 24
    frequency:   68.5224364276

- q-position: [    0.1010101,    0.0000000,    0.0000000 ]
  distance:    0.0353315
  band:
  - # 1
    frequency:   -3.7084781095
  - # 2
    frequency:   -3.6450761846
  - # 3
    frequency:   -0.6318928023
  - # 4
    frequency:    0.3933550615
  - # 5
    frequency:    0.8974345682
  - # 6
    frequency:    0.9244591276
  - # 7
    frequency:    1.2459374680
  - # 8
    frequency:    3.1989914222
  - # 9
    frequency:    3.2352643779
  - # 10
    frequency:    3.5390797623
  - # 11
    frequency:    4.2682008385
  - # 12
    frequency:    4.4472667543
  - # 13
    frequency:    6.4525286907
  - # 14
    frequency:    6.5415814876
  - # 15
    frequency:    7.3005295374
  - # 16
    frequency:    7.9134465210
  - # 17
    frequency:   16.1612724874
  - # 18
    frequency:   16.8466376227
  - # 19
    frequency:   16.8675011795
  - # 20
    frequency:   18.3455164321
  - # 21
    frequency:   18.4979174529
  - # 22
    frequency:   34.0303788563
  - # 23
    frequency:   38.0050329828
  - # 24
    frequency:   68.4817078870

- q-position: [    0.1060606,    0.0000000,    0.0000000 ]
  distance:    0.0370981
  band:
  - # 1
    frequency:   -3.7122074594
  - # 2
    frequency:   -3.6504361305
  - # 3
    frequency:   -0.6177321369
  - # 4
    frequency:    0.4430234915
  - # 5
    frequency:    0.9434884736
  - # 6
    frequency:    0.9939613481
  - # 7
    frequency:    1.3205417525
  - # 8
    frequency:    3.2046682068
  - # 9
    frequency:    3.2690727747
  - # 10
    frequency:    3.5629395181
  - # 11
    frequency:    4.2644402935
  - # 12
    frequency:    4.4666164845
  - # 13
    frequency:    6.4642445748
  - # 14
    frequency:    6.5622879727
  - # 15
    frequency:    7.2942986812
  - # 16
    frequency:    7.8967745204
  - # 17
    frequency:   16.1570558577
  - # 18
    frequency:   16.8472567176
  - # 19
    frequency:   16.8701018445
  - # 20
    frequency:   18.3212992262
  - # 21
    frequency:   18.4865828891
  - # 22
    frequency:   34.0217068746
  - # 23
    frequency:   38.0049201536
  - # 24
    frequency:   68.4394912807

- q-position: [    0.1111111,    0.0000000,    0.0000000 ]
  distance:    0.0388647
  band:
  - # 1
    frequency:   -3.7163596841
  - # 2
    frequency:   -3.6572530939
  - # 3
    frequency:   -0.6022096562
  - # 4
    frequency:    0.4921340366
  - # 5
    frequency:    0.9896383044
  - # 6
    frequency:    1.0616067572
  - # 7
    frequency:    1.3955890135
  - # 8
    frequency:    3.2111072604
  - # 9
    frequency:    3.3036313703
  - # 10
    frequency:    3.5865852416
  - # 11
    frequency:    4.2606814191
  - # 12
    frequency:    4.4874166410
  - # 13
    frequency:    6.4762781347
  - # 14
    frequency:    6.5836349453
  - # 15
    frequency:    7.2877766292
  - # 16
    frequency:    7.8798180529
  - # 17
    frequency:   16.1526944504
  - # 18
    frequency:   16.8479145850
  - # 19
    frequency:   16.8728168291
  - # 20
    frequency:   18.2965487939
  - # 21
    frequency:   18.4748208100
  - # 22
    frequency:   34.0127316592
  - # 23
    frequency:   38.0048165158
  - # 24
    frequency:   68.3958688174

- q-position: [    0.1161616,    0.0000000,    0.0000000 ]
  distance:    0.0406312
  band:
  - # 1
    frequency:   -3.7209379999
  - # 2
    frequency:   -3.6655052522
  - # 3
    frequency:   -0.5852142982
  - # 4
    frequency:    0.5410629374
  - # 5
    frequency:    1.0358619290
  - # 6
    frequency:    1.1276244909
  - # 7
    frequency:    1.4708746900
  - # 8
    frequency:    3.2183301941
  - # 9
    frequency:    3.3387678428
  - # 10
    frequency:    3.6100702832
  - # 11
    frequency:    4.2569458210
  - # 12
    frequency:    4.5095933141
  - # 13
    frequency:    6.4885992089
  - # 14
    frequency:    6.6055475319
  - # 15
    frequency:    7.2809681510
  - # 16
    frequency:    7.8626652661
  - # 17
    frequency:   16.1481903146
  - # 18
    frequency:   16.8486118384
  - # 19
    frequency:   16.8756454306
  - # 20
    frequency:   18.2713530945
  - # 21
    frequency:   18.4626510940
  - # 22
    frequency:   34.0034687081
  - # 23
    frequency:   38.0047235936
  - # 24
    frequency:   68.3509248718

- q-position: [    0.1212121,    0.0000000,    0.0000000 ]
  distance:    0.0423978
  band:
  - # 1
    frequency:   -3.7259405535
  - # 2
    frequency:   -3.6751437982
  - # 3
    frequency:   -0.5666146198
  - # 4
    frequency:    0.5900132920
  - # 5
    frequency:    1.0821326402
  - # 6
    frequency:    1.1922025841
  - # 7
    frequency:    1.5461984512
  - # 8
    frequency:    3.2263510415
  - # 9
    frequency:    3.3742890794
  - # 10
    frequency:    3.6334820393
  - # 11
    frequency:    4.2532555144
  - # 12
    frequency:    4.5330543615
  - # 13
    frequency:    6.5011773131
  - # 14
    frequency:    6.6279407867
  - # 15
    frequency:    7.2738796518
  - # 16
    frequency:    7.8454120222
  - # 17
    frequency:   16.1435445203
  - # 18
    frequency:   16.8493490049
  - # 19
    frequency:   16.8785868373
  - # 20
    frequency:   18.2458031168
  - # 21
    frequency:   18.4500948465
  - # 22
    frequency:   33.9939338836
  - # 23
    frequency:   38.0046428681
  - # 24
    frequency:   68.3047457468

- q-position: [    0.1262626,    0.0000000,    0.0000000 ]
  distance:    0.0441644
  band:
  - # 1
    frequency:   -3.7313603486
  - # 2
    frequency:   -3.6860950867
  - # 3
    frequency:   -0.5462512613
  - # 4
    frequency:    0.6390924761
  - # 5
    frequency:    1.1284191939
  - # 6
    frequency:    1.2554942611
  - # 7
    frequency:    1.6213690658
  - # 8
    frequency:    3.2351759022
  - # 9
    frequency:    3.4099780288
  - # 10
    frequency:    3.6569422155
  - # 11
    frequency:    4.2496329428
  - # 12
    frequency:    4.5576925449
  - # 13
    frequency:    6.5139817165
  - # 14
    frequency:    6.6507182651
  - # 15
    frequency:    7.2665196351
  - # 16
    frequency:    7.8281626743
  - # 17
    frequency:   16.1387571074
  - # 18
    frequency:   16.8501265168
  - # 19
    frequency:   16.8816400596
  - # 20
    frequency:   18.2199927275
  - # 21
    frequency:   18.4371743971
  - # 22
    frequency:   33.9841433697
  - # 23
    frequency:   38.0045757678
  - # 24
    frequency:   68.2574194299

- q-position: [    0.1313131,    0.0000000,    0.0000000 ]
  distance:    0.0459310
  band:
  - # 1
    frequency:   -3.7371852795
  - # 2
    frequency:   -3.6982634080
  - # 3
    frequency:   -0.5239261281
  - # 4
    frequency:    0.6883525384
  - # 5
    frequency:    1.1746859339
  - # 6
    frequency:    1.3176237787
  - # 7
    frequency:    1.6962077848
  - # 8
    frequency:    3.2448027244
  - # 9
    frequency:    3.4455913203
  - # 10
    frequency:    3.6806063803
  - # 11
    frequency:    4.2461009998
  - # 12
    frequency:    4.5833889648
  - # 13
    frequency:    6.5269815141
  - # 14
    frequency:    6.6737703975
  - # 15
    frequency:    7.2588992622
  - # 16
    frequency:    7.8110309531
  - # 17
    frequency:   16.1338270428
  - # 18
    frequency:   16.8509447049
  - # 19
    frequency:   16.8848038594
  - # 20
    frequency:   18.1940185056
  - # 21
    frequency:   18.4239132882
  - # 22
    frequency:   33.9741136295
  - # 23
    frequency:   38.0045236587
  - # 24
    frequency:   68.2090353465

- q-position: [    0.1363636,    0.0000000,    0.0000000 ]
  distance:    0.0476975
  band:
  - # 1
    frequency:   -3.7433982673
  - # 2
    frequency:   -3.7115342087
  - # 3
    frequency:   -0.4993863035
  - # 4
    frequency:    0.7378126399
  - # 5
    frequency:    1.2208929944
  - # 6
    frequency:    1.3786915311
  - # 7