nqpoint: 300    
npath: 3      
segment_nqpoint:
- 100
- 100
- 100
labels:
- [ 'G', 'M' ]
- [ 'M', 'K' ]
- [ 'K', 'G' ]
reciprocal_lattice:
- [   0.27631009,   0.15952770,   0.00000000 ] # a*
- [   0.00000000,   0.31905541,   0.00000000 ] # b*
- [   0.00000000,   0.00000000,   0.04137405 ] # c*
natom: 5      
lattice:
- [     3.619122289652912,     0.000000000000000,     0.000000000000000 ] # a
- [    -1.809561144826456,     3.134251842256237,     0.000000000000000 ] # b
- [     0.000000000000000,     0.000000000000000,    24.169740224686034 ] # c
points:
- symbol: Cl # 1
  coordinates: [  0.333332985432215,  0.666666983183674,  0.627633565096916 ]
  mass: 35.453000
- symbol: Cl # 2
  coordinates: [  0.666666984744047,  0.333332985985144,  0.372366434903084 ]
  mass: 35.453000
- symbol: N # 3
  coordinates: [  0.000000000000000,  0.000000000000000,  0.500000029508348 ]
  mass: 14.006700
- symbol: Y # 4
  coordinates: [  0.333332985432215,  0.666666983183674,  0.446016334575992 ]
  mass: 88.905850
- symbol: Y # 5
  coordinates: [  0.666666984744047,  0.333332985985144,  0.553983664983577 ]
  mass: 88.905850

phonon:
- q-position: [    0.0000000,    0.0000000,    0.0000000 ]
  distance:    0.0000000
  band:
  - # 1
    frequency:   -0.0000105863
  - # 2
    frequency:    0.0000001383
  - # 3
    frequency:    0.0000176366
  - # 4
    frequency:    3.0950851386
  - # 5
    frequency:    3.0950851387
  - # 6
    frequency:    4.8088839062
  - # 7
    frequency:    5.2664666231
  - # 8
    frequency:    5.2664666232
  - # 9
    frequency:    5.6796974510
  - # 10
    frequency:    5.6796974510
  - # 11
    frequency:    7.8730004163
  - # 12
    frequency:    8.8357825740
  - # 13
    frequency:   10.1206522082
  - # 14
    frequency:   11.7494064275
  - # 15
    frequency:   11.7494064275

- q-position: [    0.0050505,    0.0000000,    0.0000000 ]
  distance:    0.0016114
  band:
  - # 1
    frequency:    0.0010201528
  - # 2
    frequency:    0.0487713372
  - # 3
    frequency:    0.0823009194
  - # 4
    frequency:    3.0955758769
  - # 5
    frequency:    3.0960636651
  - # 6
    frequency:    4.8082756767
  - # 7
    frequency:    5.2664697350
  - # 8
    frequency:    5.2665027543
  - # 9
    frequency:    5.6794389333
  - # 10
    frequency:    5.6797738515
  - # 11
    frequency:    7.8725049543
  - # 12
    frequency:    8.8348593116
  - # 13
    frequency:   10.1203190566
  - # 14
    frequency:   11.7471548687
  - # 15
    frequency:   11.7493812321

- q-position: [    0.0101010,    0.0000000,    0.0000000 ]
  distance:    0.0032228
  band:
  - # 1
    frequency:    0.0040740390
  - # 2
    frequency:    0.0977376763
  - # 3
    frequency:    0.1644856403
  - # 4
    frequency:    3.0970476205
  - # 5
    frequency:    3.0989880918
  - # 6
    frequency:    4.8064583821
  - # 7
    frequency:    5.2664796866
  - # 8
    frequency:    5.2666026353
  - # 9
    frequency:    5.6786641352
  - # 10
    frequency:    5.6800056723
  - # 11
    frequency:    7.8710192938
  - # 12
    frequency:    8.8320911459
  - # 13
    frequency:   10.1193215938
  - # 14
    frequency:   11.7404031803
  - # 15
    frequency:   11.7493032987

- q-position: [    0.0151515,    0.0000000,    0.0000000 ]
  distance:    0.0048342
  band:
  - # 1
    frequency:    0.0091424276
  - # 2
    frequency:    0.1470901175
  - # 3
    frequency:    0.2464384552
  - # 4
    frequency:    3.0994989321
  - # 5
    frequency:    3.1038251596
  - # 6
    frequency:    4.8034538616
  - # 7
    frequency:    5.2664983150
  - # 8
    frequency:    5.2667411300
  - # 9
    frequency:    5.6773753259
  - # 10
    frequency:    5.6804007037
  - # 11
    frequency:    7.8685456400
  - # 12
    frequency:    8.8274829318
  - # 13
    frequency:   10.1176657732
  - # 14
    frequency:   11.7291603505
  - # 15
    frequency:   11.7491655941

- q-position: [    0.0202020,    0.0000000,    0.0000000 ]
  distance:    0.0064456
  band:
  - # 1
    frequency:    0.0161948379
  - # 2
    frequency:    0.1970120279
  - # 3
    frequency:    0.3280446454
  - # 4
    frequency:    3.1029273364
  - # 5
    frequency:    3.1105200803
  - # 6
    frequency:    4.7992974132
  - # 7
    frequency:    5.2665286478
  - # 8
    frequency:    5.2668776491
  - # 9
    frequency:    5.6755763040
  - # 10
    frequency:    5.6809716976
  - # 11
    frequency:    7.8650877610
  - # 12
    frequency:    8.8210427300
  - # 13
    frequency:   10.1153614419
  - # 14
    frequency:   11.7134414408
  - # 15
    frequency:   11.7489564269

- q-position: [    0.0252525,    0.0000000,    0.0000000 ]
  distance:    0.0080570
  band:
  - # 1
    frequency:    0.0251917327
  - # 2
    frequency:    0.2476754084
  - # 3
    frequency:    0.4091909938
  - # 4
    frequency:    3.1073291991
  - # 5
    frequency:    3.1189974502
  - # 6
    frequency:    4.7940362762
  - # 7
    frequency:    5.2665748487
  - # 8
    frequency:    5.2669579966
  - # 9
    frequency:    5.6732724233
  - # 10
    frequency:    5.6817359977
  - # 11
    frequency:    7.8606511234
  - # 12
    frequency:    8.8127817634
  - # 13
    frequency:   10.1124222275
  - # 14
    frequency:   11.6932677093
  - # 15
    frequency:   11.7486594913

- q-position: [    0.0303030,    0.0000000,    0.0000000 ]
  distance:    0.0096683
  band:
  - # 1
    frequency:    0.0360872823
  - # 2
    frequency:    0.2992375271
  - # 3
    frequency:    0.4897663179
  - # 4
    frequency:    3.1126995554
  - # 5
    frequency:    3.1291624295
  - # 6
    frequency:    4.7877277478
  - # 7
    frequency:    5.2666421403
  - # 8
    frequency:    5.2669167583
  - # 9
    frequency:    5.6704706326
  - # 10
    frequency:    5.6827149834
  - # 11
    frequency:    7.8552430743
  - # 12
    frequency:    8.8027143624
  - # 13
    frequency:   10.1088653810
  - # 14
    frequency:   11.6686667846
  - # 15
    frequency:   11.7482539305

- q-position: [    0.0353535,    0.0000000,    0.0000000 ]
  distance:    0.0112797
  band:
  - # 1
    frequency:    0.0488324422
  - # 2
    frequency:    0.3518379130
  - # 3
    frequency:    0.5696620282
  - # 4
    frequency:    3.1190318848
  - # 5
    frequency:    3.1409021007
  - # 6
    frequency:    4.7804371110
  - # 7
    frequency:    5.2666800903
  - # 8
    frequency:    5.2667366982
  - # 9
    frequency:    5.6671795311
  - # 10
    frequency:    5.6839332959
  - # 11
    frequency:    7.8488730637
  - # 12
    frequency:    8.7908579025
  - # 13
    frequency:   10.1047115753
  - # 14
    frequency:   11.6396728944
  - # 15
    frequency:   11.7477144168

- q-position: [    0.0404040,    0.0000000,    0.0000000 ]
  distance:    0.0128911
  band:
  - # 1
    frequency:    0.0633780663
  - # 2
    frequency:    0.4055957889
  - # 3
    frequency:    0.6487727182
  - # 4
    frequency:    3.1263178321
  - # 5
    frequency:    3.1540869121
  - # 6
    frequency:    4.7722355442
  - # 7
    frequency:    5.2661687669
  - # 8
    frequency:    5.2668655158
  - # 9
    frequency:    5.6634094452
  - # 10
    frequency:    5.6854178227
  - # 11
    frequency:    7.8415528973
  - # 12
    frequency:    8.7772327438
  - # 13
    frequency:   10.0999846614
  - # 14
    frequency:   11.6063271507
  - # 15
    frequency:   11.7470112489

- q-position: [    0.0454545,    0.0000000,    0.0000000 ]
  distance:    0.0145025
  band:
  - # 1
    frequency:    0.0796777999
  - # 2
    frequency:    0.4606079997
  - # 3
    frequency:    0.7269967867
  - # 4
    frequency:    3.1345468711
  - # 5
    frequency:    3.1685721108
  - # 6
    frequency:    4.7631981459
  - # 7
    frequency:    5.2653013761
  - # 8
    frequency:    5.2670362326
  - # 9
    frequency:    5.6591725289
  - # 10
    frequency:    5.6871964278
  - # 11
    frequency:    7.8332970099
  - # 12
    frequency:    8.7618621772
  - # 13
    frequency:   10.0947113815
  - # 14
    frequency:   11.5686778949
  - # 15
    frequency:   11.7461104668

- q-position: [    0.0505051,    0.0000000,    0.0000000 ]
  distance:    0.0161139
  band:
  - # 1
    frequency:    0.0976905319
  - # 2
    frequency:    0.5169474665
  - # 3
    frequency:    0.8042370928
  - # 4
    frequency:    3.1437059135
  - # 5
    frequency:    3.1841990777
  - # 6
    frequency:    4.7534021638
  - # 7
    frequency:    5.2639975683
  - # 8
    frequency:    5.2672569233
  - # 9
    frequency:    5.6544828949
  - # 10
    frequency:    5.6892964369
  - # 11
    frequency:    7.8241227473
  - # 12
    frequency:    8.7447723874
  - # 13
    frequency:   10.0889210425
  - # 14
    frequency:   11.5267811102
  - # 15
    frequency:   11.7449739835

- q-position: [    0.0555556,    0.0000000,    0.0000000 ]
  distance:    0.0177253
  band:
  - # 1
    frequency:    0.1173822508
  - # 2
    frequency:    0.5746621617
  - # 3
    frequency:    0.8804016429
  - # 4
    frequency:    3.1537788614
  - # 5
    frequency:    3.2007964915
  - # 6
    frequency:    4.7429254758
  - # 7
    frequency:    5.2621812824
  - # 8
    frequency:    5.2675358414
  - # 9
    frequency:    5.6493567817
  - # 10
    frequency:    5.6917429167
  - # 11
    frequency:    7.8140506443
  - # 12
    frequency:    8.7259924417
  - # 13
    frequency:   10.0826451495
  - # 14
    frequency:   11.4807009043
  - # 15
    frequency:   11.7435597327

- q-position: [    0.0606061,    0.0000000,    0.0000000 ]
  distance:    0.0193367
  band:
  - # 1
    frequency:    0.1387272175
  - # 2
    frequency:    0.6337745642
  - # 3
    frequency:    0.9554043020
  - # 4
    frequency:    3.1647461115
  - # 5
    frequency:    3.2181812657
  - # 6
    frequency:    4.7318453308
  - # 7
    frequency:    5.2597838761
  - # 8
    frequency:    5.2678811108
  - # 9
    frequency:    5.6438127628
  - # 10
    frequency:    5.6945568179
  - # 11
    frequency:    7.8031046858
  - # 12
    frequency:    8.7055543127
  - # 13
    frequency:   10.0759169996
  - # 14
    frequency:   11.4305100728
  - # 15
    frequency:   11.7418218325

- q-position: [    0.0656566,    0.0000000,    0.0000000 ]
  distance:    0.0209481
  band:
  - # 1
    frequency:    0.1617084336
  - # 2
    frequency:    0.6942815197
  - # 3
    frequency:    1.0291655205
  - # 4
    frequency:    3.1765840159
  - # 5
    frequency:    3.2361592222
  - # 6
    frequency:    4.7202373316
  - # 7
    frequency:    5.2567470866
  - # 8
    frequency:    5.2683003596
  - # 9
    frequency:    5.6378720066
  - # 10
    frequency:    5.6977530800
  - # 11
    frequency:    7.7913125371
  - # 12
    frequency:    8.6834929466
  - # 13
    frequency:   10.0687712361
  - # 14
    frequency:   11.3762907516
  - # 15
    frequency:   11.7397107653

- q-position: [    0.0707071,    0.0000000,    0.0000000 ]
  distance:    0.0225595
  band:
  - # 1
    frequency:    0.1863174482
  - # 2
    frequency:    0.7561544029
  - # 3
    frequency:    1.1016130639
  - # 4
    frequency:    3.1892643120
  - # 5
    frequency:    3.2545254890
  - # 6
    frequency:    4.7081746236
  - # 7
    frequency:    5.2530257428
  - # 8
    frequency:    5.2688002885
  - # 9
    frequency:    5.6315585925
  - # 10
    frequency:    5.7013388146
  - # 11
    frequency:    7.7787057304
  - # 12
    frequency:    8.6598463853
  - # 13
    frequency:   10.0612433576
  - # 14
    frequency:   11.3181351722
  - # 15
    frequency:   11.7371735712

- q-position: [    0.0757576,    0.0000000,    0.0000000 ]
  distance:    0.0241709
  band:
  - # 1
    frequency:    0.2125535881
  - # 2
    frequency:    0.8193394579
  - # 3
    frequency:    1.1726827247
  - # 4
    frequency:    3.2027535383
  - # 5
    frequency:    3.2730646282
  - # 6
    frequency:    4.6957272455
  - # 7
    frequency:    5.2485901511
  - # 8
    frequency:    5.2693861676
  - # 9
    frequency:    5.6248998939
  - # 10
    frequency:    5.7053116882
  - # 11
    frequency:    7.7653197954
  - # 12
    frequency:    8.6346559529
  - # 13
    frequency:   10.0533691757
  - # 14
    frequency:   11.2561465369
  - # 15
    frequency:   11.7341540567

- q-position: [    0.0808081,    0.0000000,    0.0000000 ]
  distance:    0.0257823
  band:
  - # 1
    frequency:    0.2404227258
  - # 2
    frequency:    0.8837581807
  - # 3
    frequency:    1.2423189959
  - # 4
    frequency:    3.2170124558
  - # 5
    frequency:    3.2915505274
  - # 6
    frequency:    4.6829615928
  - # 7
    frequency:    5.2434280879
  - # 8
    frequency:    5.2700612530
  - # 9
    frequency:    5.6179270330
  - # 10
    frequency:    5.7096586112
  - # 11
    frequency:    7.7511943231
  - # 12
    frequency:    8.6079665172
  - # 13
    frequency:   10.0451842020
  - # 14
    frequency:   11.1904400406
  - # 15
    frequency:   11.7305930164

- q-position: [    0.0858586,    0.0000000,    0.0000000 ]
  distance:    0.0273936
  band:
  - # 1
    frequency:    0.2699357157
  - # 2
    frequency:    0.9493075979
  - # 3
    frequency:    1.3104756783
  - # 4
    frequency:    3.2319955009
  - # 5
    frequency:    3.3097461089
  - # 6
    frequency:    4.6699399472
  - # 7
    frequency:    5.2375463523
  - # 8
    frequency:    5.2708261182
  - # 9
    frequency:    5.6106754170
  - # 10
    frequency:    5.7143548106
  - # 11
    frequency:    7.7363729516
  - # 12
    frequency:    8.5798268351
  - # 13
    frequency:   10.0367229337
  - # 14
    frequency:   11.1211440763
  - # 15
    frequency:   11.7264284674

- q-position: [    0.0909091,    0.0000000,    0.0000000 ]
  distance:    0.0290050
  band:
  - # 1
    frequency:    0.3011066241
  - # 2
    frequency:    1.0158602937
  - # 3
    frequency:    1.3771163909
  - # 4
    frequency:    3.2476502994
  - # 5
    frequency:    3.3274029433
  - # 6
    frequency:    4.6567200243
  - # 7
    frequency:    5.2309718571
  - # 8
    frequency:    5.2716778951
  - # 9
    frequency:    5.6031853591
  - # 10
    frequency:    5.7193633291
  - # 11
    frequency:    7.7209032681
  - # 12
    frequency:    8.5502899947
  - # 13
    frequency:   10.0280179805
  - # 14
    frequency:   11.0484016865
  - # 15
    frequency:   11.7215958957

- q-position: [    0.0959596,    0.0000000,    0.0000000 ]
  distance:    0.0306164
  band:
  - # 1
    frequency:    0.3339508732
  - # 2
    frequency:    1.0832640247
  - # 3
    frequency:    1.4422149527
  - # 4
    frequency:    3.2639172729
  - # 5
    frequency:    3.3442608846
  - # 6
    frequency:    4.6433544945
  - # 7
    frequency:    5.2237522612
  - # 8
    frequency:    5.2726094241
  - # 9
    frequency:    5.5955027865
  - # 10
    frequency:    5.7246349507
  - # 11
    frequency:    7.7048366199
  - # 12
    frequency:    8.5194139641
  - # 13
    frequency:   10.0190989312
  - # 14
    frequency:   10.9723723614
  - # 15
    frequency:   11.7160285133

- q-position: [    0.1010101,    0.0000000,    0.0000000 ]
  distance:    0.0322278
  band:
  - # 1
    frequency:    0.3684833978
  - # 2
    frequency:    1.1513407516
  - # 3
    frequency:    1.5057556027
  - # 4
    frequency:    3.2807293733
  - # 5
    frequency:    3.3600478866
  - # 6
    frequency:    4.6298904344
  - # 7
    frequency:    5.2159561573
  - # 8
    frequency:    5.2736083183
  - # 9
    frequency:    5.5876800285
  - # 10
    frequency:    5.7301085272
  - # 11
    frequency:    7.6882278323
  - # 12
    frequency:    8.4872622589
  - # 13
    frequency:   10.0099907754
  - # 14
    frequency:   10.8932343608
  - # 15
    frequency:   11.7096575257

- q-position: [    0.1060606,    0.0000000,    0.0000000 ]
  distance:    0.0338392
  band:
  - # 1
    frequency:    0.4047168959
  - # 2
    frequency:    1.2198848854
  - # 3
    frequency:    1.5677330265
  - # 4
    frequency:    3.2980119771
  - # 5
    frequency:    3.3744802145
  - # 6
    frequency:    4.6163686647
  - # 7
    frequency:    5.2076728327
  - # 8
    frequency:    5.2746559617
  - # 9
    frequency:    5.5797766672
  - # 10
    frequency:    5.7357116598
  - # 11
    frequency:    7.6711348318
  - # 12
    frequency:    8.4539047407
  - # 13
    frequency:   10.0007115415
  - # 14
    frequency:   10.8111878888
  - # 15
    frequency:   11.7024124081

- q-position: [    0.1111111,    0.0000000,    0.0000000 ]
  distance:    0.0354506
  band:
  - # 1
    frequency:    0.4426602326
  - # 2
    frequency:    1.2886605018
  - # 3
    frequency:    1.6281521637
  - # 4
    frequency:    3.3156829722
  - # 5
    frequency:    3.3872633262
  - # 6
    frequency:    4.6028229364
  - # 7
    frequency:    5.1990115978
  - # 8
    frequency:    5.2757264791
  - # 9
    frequency:    5.5718604099
  - # 10
    frequency:    5.7413616924
  - # 11
    frequency:    7.6536181776
  - # 12
    frequency:    8.4194185572
  - # 13
    frequency:    9.9912684954
  - # 14
    frequency:   10.7264597488
  - # 15
    frequency:   11.6942211899

- q-position: [    0.1161616,    0.0000000,    0.0000000 ]
  distance:    0.0370620
  band:
  - # 1
    frequency:    0.4823170367
  - # 2
    frequency:    1.3573972015
  - # 3
    frequency:    1.6870277725
  - # 4
    frequency:    3.3336530631
  - # 5
    frequency:    3.3980937840
  - # 6
    frequency:    4.5892789318
  - # 7
    frequency:    5.1901006587
  - # 8
    frequency:    5.2767857458
  - # 9
    frequency:    5.5640079142
  - # 10
    frequency:    5.7469669855
  - # 11
    frequency:    7.6357405052
  - # 12
    frequency:    8.3838892328
  - # 13
    frequency:    9.9816515798
  - # 14
    frequency:   10.6393107692
  - # 15
    frequency:   11.6850107463

- q-position: [    0.1212121,    0.0000000,    0.0000000 ]
  distance:    0.0386734
  band:
  - # 1
    frequency:    0.5236845128
  - # 2
    frequency:    1.4257841840
  - # 3
    frequency:    1.7443837414
  - # 4
    frequency:    3.3518263151
  - # 5
    frequency:    3.4066626570
  - # 6
    frequency:    4.5757530556
  - # 7
    frequency:    5.1810854694
  - # 8
    frequency:    5.2777905546
  - # 9
    frequency:    5.5563054468
  - # 10
    frequency:    5.7524284668
  - # 11
    frequency:    7.6175658916
  - # 12
    frequency:    8.3474119127
  - # 13
    frequency:    9.9718212458
  - # 14
    frequency:   10.5500487959
  - # 15
    frequency:   11.6747070956

- q-position: [    0.1262626,    0.0000000,    0.0000000 ]
  distance:    0.0402848
  band:
  - # 1
    frequency:    0.5667524769
  - # 2
    frequency:    1.4934619356
  - # 3
    frequency:    1.8002521418
  - # 4
    frequency:    3.3701009500
  - # 5
    frequency:    3.4126610004
  - # 6
    frequency:    4.5622510148
  - # 7
    frequency:    5.1721264818
  - # 8
    frequency:    5.2786881159
  - # 9
    frequency:    5.5488491969
  - # 10
    frequency:    5.7576414843
  - # 11
    frequency:    7.5991591515
  - # 12
    frequency:    8.3100927539
  - # 13
    frequency:    9.9616840522
  - # 14
    frequency:   10.4590538156
  - # 15
    frequency:   11.6632357018

- q-position: [    0.1313131,    0.0000000,    0.0000000 ]
  distance:    0.0418962
  band:
  - # 1
    frequency:    0.6115026132
  - # 2
    frequency:    1.5600106980
  - # 3
    frequency:    1.8546720304
  - # 4
    frequency:    3.3883703968
  - # 5
    frequency:    3.4157881608
  - # 6
    frequency:    4.5487662101
  - # 7
    frequency:    5.1633962006
  - # 8
    frequency:    5.2794161434
  - # 9
    frequency:    5.5417449882
  - # 10
    frequency:    5.7624980242
  - # 11
    frequency:    7.5805850814
  - # 12
    frequency:    8.2720504412
  - # 13
    frequency:    9.9510390912
  - # 14
    frequency:   10.3668320691
  - # 15
    frequency:   11.6505217813

- q-position: [    0.1363636,    0.0000000,    0.0000000 ]
  distance:    0.0435076
  band:
  - # 1
    frequency:    0.6579079413
  - # 2
    frequency:    1.6249345467
  - # 3
    frequency:    1.9076880170
  - # 4
    frequency:    3.4065245931
  - # 5
    frequency:    3.4157638596
  - # 6
    frequency:    4.5352780028
  - # 7
    frequency:    5.1550754741
  - # 8
    frequency:    5.2799038503
  - # 9
    frequency:    5.5351070605
  - # 10
    frequency:    5.7668893804
  - # 11
    frequency:    7.5619076695
  - # 12
    frequency:    8.2334177823
  - # 13
    frequency:    9.9394467793
  - # 14
    frequency:   10.2741475219
  - # 15
    frequency:   11.6364906122

- q-position: [    0.1414141,    0.0000000,    0.0000000 ]
  distance:    0.0451189
  band:
  - # 1
    frequency:    0.7059324771
  - # 2
    frequency:    1.6876394547
  - # 3
    frequency:    1.9593486232
  - # 4
    frequency:    3.4123452732
  - # 5
    frequency:    3.4244515247
  - # 6
    frequency:    4.5217499649
  - # 7
    frequency:    5.1473490139
  - # 8
    frequency:    5.2800742186
  - # 9
    frequency:    5.5290555540
  - # 10
    frequency:    5.7707093884
  - # 11
    frequency:    7.5431892996
  - # 12
    frequency:    8.1943433010
  - # 13
    frequency:    9.9258630500
  - # 14
    frequency:   10.1823875424
  - # 15
    frequency:   11.6210678462

- q-position: [    0.1464646,    0.0000000,    0.0000000 ]
  distance:    0.0467303
  band:
  - # 1
    frequency:    0.7555310681
  - # 2
    frequency:    1.7474031271
  - # 3
    frequency:    2.0097044652
  - # 4
    frequency:    3.4053506502
  - # 5
    frequency:    3.4420389853
  - # 6
    frequency:    4.5081282657
  - # 7
    frequency:    5.1404002401
  - # 8
    frequency:    5.2798478528
  - # 9
    frequency:    5.5237123793
  - # 10
    frequency:    5.7738583386
  - # 11
    frequency:    7.5244899770
  - # 12
    frequency:    8.1549927041
  - # 13
    frequency:    9.9074879735
  - # 14
    frequency:   10.0947136438
  - # 15
    frequency:   11.6041798214

- q-position: [    0.1515152,    0.0000000,    0.0000000 ]
  distance:    0.0483417
  band:
  - # 1
    frequency:    0.8066493803
  - # 2
    frequency:    1.8033337034
  - # 3
    frequency:    2.0588062953
  - # 4
    frequency:    3.3946913453
  - # 5
    frequency:    3.4591765328
  - # 6
    frequency:    4.4943403879
  - # 7
    frequency:    5.1344056869
  - # 8
    frequency:    5.2791485258
  - # 9
    frequency:    5.5191953614
  - # 10
    frequency:    5.7762476680
  - # 11
    frequency:    7.5058666198
  - # 12
    frequency:    8.1155500394
  - # 13
    frequency:    9.8765023619
  - # 14
    frequency:   10.0193236086
  - # 15
    frequency:   11.5857538753

- q-position: [    0.1565657,    0.0000000,    0.0000000 ]
  distance:    0.0499531
  band:
  - # 1
    frequency:    0.8592240148
  - # 2
    frequency:    1.8543138268
  - # 3
    frequency:    2.1067029429
  - # 4
    frequency:    3.3804142972
  - # 5
    frequency:    3.4757576195
  - # 6
    frequency:    4.4802943892
  - # 7
    frequency:    5.1295293608
  - # 8
    frequency:    5.2779101305
  - # 9
    frequency:    5.5156109393
  - # 10
    frequency:    5.7778054802
  - # 11
    frequency:    7.4873724604
  - # 12
    frequency:    8.0762183001
  - # 13
    frequency:    9.8201893650
  - # 14
    frequency:    9.9693278795
  - # 15
    frequency:   11.5657186579

- q-position: [    0.1616162,    0.0000000,    0.0000000 ]
  distance:    0.0515645
  band:
  - # 1
    frequency:    0.9131827290
  - # 2
    frequency:    1.8989265435
  - # 3
    frequency:    2.1534391890
  - # 4
    frequency:    3.3627563978
  - # 5
    frequency:    3.4916818691
  - # 6
    frequency:    4.4658789363
  - # 7
    frequency:    5.1259175796
  - # 8
    frequency:    5.2760842191
  - # 9
    frequency:    5.5130462346
  - # 10
    frequency:    5.7784828481
  - # 11
    frequency:    7.4690566131
  - # 12
    frequency:    8.0372191669
  - # 13
    frequency:    9.7409073185
  - # 14
    frequency:    9.9427738728
  - # 15
    frequency:   11.5440044429

- q-position: [    0.1666667,    0.0000000,    0.0000000 ]
  distance:    0.0531759
  band:
  - # 1
    frequency:    0.9684447342
  - # 2
    frequency:    1.9353611349
  - # 3
    frequency:    2.1990536099
  - # 4
    frequency:    3.3422096732
  - # 5
    frequency:    3.5068574800
  - # 6
    frequency:    4.4509643414
  - # 7
    frequency:    5.1236949015
  - # 8
    frequency:    5.2736468303
  - # 9
    frequency:    5.5115617891
  - # 10
    frequency:    5.7782607031
  - # 11
    frequency:    7.4509638614
  - # 12
    frequency:    7.9987915325
  - # 13
    frequency:    9.6516772596
  - # 14
    frequency:    9.9270547652
  - # 15
    frequency:   11.5205434382

- q-position: [    0.1717172,    0.0000000,    0.0000000 ]
  distance:    0.0547873
  band:
  - # 1
    frequency:    1.0249210369
  - # 2
    frequency:    1.9613021612
  - # 3
    frequency:    2.2435764171
  - # 4
    frequency:    3.3195895469
  - # 5
    frequency:    3.5212037292
  - # 6
    frequency:    4.4354048462
  - # 7
    frequency:    5.1229617316
  - # 8
    frequency:    5.2706031376
  - # 9
    frequency:    5.5111864370
  - # 10
    frequency:    5.7771569086
  - # 11
    frequency:    7.4331347174
  - # 12
    frequency:    7.9611884388
  - # 13
    frequency:    9.5592566447
  - # 14
    frequency:    9.9158312559
  - # 15
    frequency:   11.4952700923

- q-position: [    0.1767677,    0.0000000,    0.0000000 ]
  distance:    0.0563987
  band:
  - # 1
    frequency:    1.0825147665
  - # 2
    frequency:    1.9738157266
  - # 3
    frequency:    2.2870273174
  - # 4
    frequency:    3.2960850775
  - # 5
    frequency:    3.5346535592
  - # 6
    frequency:    4.4190424345
  - # 7
    frequency:    5.1237940494
  - # 8
    frequency:    5.2669888042
  - # 9
    frequency:    5.5119154297
  - # 10
    frequency:    5.7752328582
  - # 11
    frequency:    7.4156057780
  - # 12
    frequency:    7.9246721094
  - # 13
    frequency:    9.4663040122
  - # 14
    frequency:    9.9068616953
  - # 15
    frequency:   11.4681213999

- q-position: [    0.1818182,    0.0000000,    0.0000000 ]
  distance:    0.0580101
  band:
  - # 1
    frequency:    1.1411213796
  - # 2
    frequency:    1.9692615749
  - # 3
    frequency:    2.3294134142
  - # 4
    frequency:    3.2732503544
  - # 5
    frequency:    3.5471562228
  - # 6
    frequency:    4.4017125176
  - # 7
    frequency:    5.1262454358
  - # 8
    frequency:    5.2628677407
  - # 9
    frequency:    5.5137121263
  - # 10
    frequency:    5.7725986714
  - # 11
    frequency:    7.3984103637
  - # 12
    frequency:    7.8895068884
  - # 13
    frequency:    9.3740886337
  - # 14
    frequency:    9.8992867695
  - # 15
    frequency:   11.4390372022

- q-position: [    0.1868687,    0.0000000,    0.0000000 ]
  distance:    0.0596215
  band:
  - # 1
    frequency:    1.2006284448
  - # 2
    frequency:    1.9432636664
  - # 3
    frequency:    2.3707271663
  - # 4
    frequency:    3.2528817890
  - # 5
    frequency:    3.5586799585
  - # 6
    frequency:    4.3832518813
  - # 7
    frequency:    5.1303512258
  - # 8
    frequency:    5.2583268777
  - # 9
    frequency:    5.5165126472
  - # 10
    frequency:    5.7694158521
  - # 11
    frequency:    7.3815793598
  - # 12
    frequency:    7.8559501305
  - # 13
    frequency:    9.2833782722
  - # 14
    frequency:    9.8927359692
  - # 15
    frequency:   11.4079604854

- q-position: [    0.1919192,    0.0000000,    0.0000000 ]
  distance:    0.0612329
  band:
  - # 1
    frequency:    1.2609140209
  - # 2
    frequency:    1.8907293211
  - # 3
    frequency:    2.4109444284
  - # 4
    frequency:    3.2367462962
  - # 5
    frequency:    3.5692146605
  - # 6
    frequency:    4.3635092665
  - # 7
    frequency:    5.1361342370
  - # 8
    frequency:    5.2534691996
  - # 9
    frequency:    5.5202322628
  - # 10
    frequency:    5.7658962205
  - # 11
    frequency:    7.3651420937
  - # 12
    frequency:    7.8242413964
  - # 13
    frequency:    9.1947238124
  - # 14
    frequency:    9.8870375064
  - # 15
    frequency:   11.3748376735

- q-position: [    0.1969697,    0.0000000,    0.0000000 ]
  distance:    0.0628442
  band:
  - # 1
    frequency:    1.3218391344
  - # 2
    frequency:    1.8057748957
  - # 3
    frequency:    2.4500226072
  - # 4
    frequency:    3.2262065798
  - # 5
    frequency:    3.5787744853
  - # 6
    frequency:    4.3423587882
  - # 7
    frequency:    5.1436111947
  - # 8
    frequency:    5.2484064062
  - # 9
    frequency:    5.5247721713
  - # 10
    frequency:    5.7622961388
  - # 11
    frequency:    7.3491270041
  - # 12
    frequency:    7.7945906522
  - # 13
    frequency:    9.1085618012
  - # 14
    frequency:    9.8821111257
  - # 15
    frequency:   11.3396189187

- q-position: [    0.2020202,    0.0000000,    0.0000000 ]
  distance:    0.0644556
  band:
  - # 1
    frequency:    1.3832005635
  - # 2
    frequency:    1.6811961660
  - # 3
    frequency:    2.4878989870
  - # 4
    frequency:    3.2218943712
  - # 5
    frequency:    3.5874003138
  - # 6
    frequency:    4.3197160501
  - # 7
    frequency:    5.1527987640
  - # 8
    frequency:    5.2432522733
  - # 9
    frequency:    5.5300256204
  - # 10
    frequency:    5.7589055967
  - # 11
    frequency:    7.3335618092
  - # 12
    frequency:    7.7671664626
  - # 13
    frequency:    9.0252559965
  - # 14
    frequency:    9.8779231854
  - # 15
    frequency:   11.3022583859

- q-position: [    0.2070707,    0.0000000,    0.0000000 ]
  distance:    0.0660670
  band:
  - # 1
    frequency:    1.4434370204
  - # 2
    frequency:    1.5078270232
  - # 3
    frequency:    2.5244893188
  - # 4
    frequency:    3.2235968546
  - # 5
    frequency:    3.5951619466
  - # 6
    frequency:    4.2955562840
  - # 7
    frequency:    5.1637180754
  - # 8
    frequency:    5.2381173049
  - # 9
    frequency:    5.5358828067
  - # 10
    frequency:    5.7560325811
  - # 11
    frequency:    7.3184729125
  - # 12
    frequency:    7.7420853023
  - # 13
    frequency:    8.9451165866
  - # 14
    frequency:    9.8744657513
  - # 15
    frequency:   11.2627145347

- q-position: [    0.2121212,    0.0000000,    0.0000000 ]
  distance:    0.0676784
  band:
  - # 1
    frequency:    1.2599187390
  - # 2