nqpoint: 300    
npath: 3      
segment_nqpoint:
- 100
- 100
- 100
labels:
- [ 'G', 'M' ]
- [ 'M', 'K' ]
- [ 'K', 'G' ]
reciprocal_lattice:
- [   0.29260099,   0.16893326,   0.00000000 ] # a*
- [   0.00000000,   0.33786653,   0.00000000 ] # b*
- [   0.00000000,   0.00000000,   0.03729633 ] # c*
natom: 8      
lattice:
- [     3.417623377261473,     0.000000000000000,     0.000000000000000 ] # a
- [    -1.708811688630736,     2.959748665262339,     0.000000000000000 ] # b
- [     0.000000000000000,     0.000000000000000,    26.812292874342244 ] # c
points:
- symbol: C # 1
  coordinates: [  0.000000000000000,  0.000000000000000,  0.523688234538765 ]
  mass: 12.010700
- symbol: C # 2
  coordinates: [  0.666666984744047,  0.333332985985145,  0.380598606097951 ]
  mass: 12.010700
- symbol: N # 3
  coordinates: [  0.333332985432215,  0.666666983183674,  0.614813472742012 ]
  mass: 14.006700
- symbol: N # 4
  coordinates: [  0.666666984744047,  0.333332985985145,  0.427146064489235 ]
  mass: 14.006700
- symbol: O # 5
  coordinates: [  0.333332985432215,  0.666666983183674,  0.664333071319967 ]
  mass: 15.999400
- symbol: O # 6
  coordinates: [  0.666666984744047,  0.333332985985145,  0.335666928680033 ]
  mass: 15.999400
- symbol: Zr # 7
  coordinates: [  0.333332985432215,  0.666666983183674,  0.481196457225346 ]
  mass: 91.224000
- symbol: Zr # 8
  coordinates: [  0.666666984744047,  0.333332985985145,  0.578068193694133 ]
  mass: 91.224000

phonon:
- q-position: [    0.0000000,    0.0000000,    0.0000000 ]
  distance:    0.0000000
  band:
  - # 1
    frequency:   -4.7311571034
  - # 2
    frequency:   -4.7311571034
  - # 3
    frequency:   -0.7409407527
  - # 4
    frequency:   -0.7409407527
  - # 5
    frequency:   -0.0000028232
  - # 6
    frequency:    0.0000011481
  - # 7
    frequency:    0.0000030300
  - # 8
    frequency:    3.6695068746
  - # 9
    frequency:    3.6695068746
  - # 10
    frequency:    5.2250663461
  - # 11
    frequency:    5.7440661683
  - # 12
    frequency:    5.7440661683
  - # 13
    frequency:    8.4625629594
  - # 14
    frequency:    8.6880645746
  - # 15
    frequency:   11.1202133208
  - # 16
    frequency:   11.1202133208
  - # 17
    frequency:   15.0541666482
  - # 18
    frequency:   15.0541666482
  - # 19
    frequency:   15.7951140433
  - # 20
    frequency:   17.1426281708
  - # 21
    frequency:   17.1426281708
  - # 22
    frequency:   38.3551851607
  - # 23
    frequency:   39.0758917953
  - # 24
    frequency:   69.0580653913

- q-position: [    0.0050505,    0.0000000,    0.0000000 ]
  distance:    0.0017064
  band:
  - # 1
    frequency:   -4.7318151894
  - # 2
    frequency:   -4.7306828902
  - # 3
    frequency:   -0.7402988538
  - # 4
    frequency:   -0.7384376475
  - # 5
    frequency:   -0.0399541577
  - # 6
    frequency:    0.0628513045
  - # 7
    frequency:    0.1151768427
  - # 8
    frequency:    3.6699807727
  - # 9
    frequency:    3.6707831782
  - # 10
    frequency:    5.2246796343
  - # 11
    frequency:    5.7441904042
  - # 12
    frequency:    5.7453486592
  - # 13
    frequency:    8.4619105033
  - # 14
    frequency:    8.6873574065
  - # 15
    frequency:   11.1194304061
  - # 16
    frequency:   11.1196968206
  - # 17
    frequency:   15.0538543714
  - # 18
    frequency:   15.0541872373
  - # 19
    frequency:   15.7956362102
  - # 20
    frequency:   17.1426681164
  - # 21
    frequency:   17.1428925794
  - # 22
    frequency:   38.3551636781
  - # 23
    frequency:   39.0752396431
  - # 24
    frequency:   69.0565621041

- q-position: [    0.0101010,    0.0000000,    0.0000000 ]
  distance:    0.0034128
  band:
  - # 1
    frequency:   -4.7337881921
  - # 2
    frequency:   -4.7292606166
  - # 3
    frequency:   -0.7383859382
  - # 4
    frequency:   -0.7310310830
  - # 5
    frequency:   -0.0482644189
  - # 6
    frequency:    0.1258072762
  - # 7
    frequency:    0.2219202205
  - # 8
    frequency:    3.6714012488
  - # 9
    frequency:    3.6746035191
  - # 10
    frequency:    5.2235360955
  - # 11
    frequency:    5.7445629862
  - # 12
    frequency:    5.7491767681
  - # 13
    frequency:    8.4599516054
  - # 14
    frequency:    8.6852420977
  - # 15
    frequency:   11.1170881190
  - # 16
    frequency:   11.1181494055
  - # 17
    frequency:   15.0529177771
  - # 18
    frequency:   15.0542545134
  - # 19
    frequency:   15.7971932337
  - # 20
    frequency:   17.1427878122
  - # 21
    frequency:   17.1436851189
  - # 22
    frequency:   38.3550992770
  - # 23
    frequency:   39.0732844500
  - # 24
    frequency:   69.0520569604

- q-position: [    0.0151515,    0.0000000,    0.0000000 ]
  distance:    0.0051192
  band:
  - # 1
    frequency:   -4.7370723510
  - # 2
    frequency:   -4.7268913376
  - # 3
    frequency:   -0.7352382583
  - # 4
    frequency:   -0.7189779457
  - # 5
    frequency:   -0.0568235052
  - # 6
    frequency:    0.1889625945
  - # 7
    frequency:    0.3310782941
  - # 8
    frequency:    3.6737646567
  - # 9
    frequency:    3.6809424177
  - # 10
    frequency:    5.2216838880
  - # 11
    frequency:    5.7451835395
  - # 12
    frequency:    5.7554940669
  - # 13
    frequency:    8.4566817931
  - # 14
    frequency:    8.6817371184
  - # 15
    frequency:   11.1132057668
  - # 16
    frequency:   11.1155773239
  - # 17
    frequency:   15.0513575778
  - # 18
    frequency:   15.0543846688
  - # 19
    frequency:   15.7997570606
  - # 20
    frequency:   17.1429868369
  - # 21
    frequency:   17.1450037300
  - # 22
    frequency:   38.3549920969
  - # 23
    frequency:   39.0700300016
  - # 24
    frequency:   69.0445640890

- q-position: [    0.0202020,    0.0000000,    0.0000000 ]
  distance:    0.0068256
  band:
  - # 1
    frequency:   -4.7416614206
  - # 2
    frequency:   -4.7235766713
  - # 3
    frequency:   -0.7309097520
  - # 4
    frequency:   -0.7025645696
  - # 5
    frequency:   -0.0642071508
  - # 6
    frequency:    0.2523938288
  - # 7
    frequency:    0.4415872542
  - # 8
    frequency:    3.6770649466
  - # 9
    frequency:    3.6897581595
  - # 10
    frequency:    5.2191981903
  - # 11
    frequency:    5.7460514507
  - # 12
    frequency:    5.7642117045
  - # 13
    frequency:    8.4520940070
  - # 14
    frequency:    8.6768728547
  - # 15
    frequency:   11.1078153201
  - # 16
    frequency:   11.1119909620
  - # 17
    frequency:   15.0491749763
  - # 18
    frequency:   15.0546036127
  - # 19
    frequency:   15.8032821621
  - # 20
    frequency:   17.1432644919
  - # 21
    frequency:   17.1468449804
  - # 22
    frequency:   38.3548423701
  - # 23
    frequency:   39.0654825897
  - # 24
    frequency:   69.0341069572

- q-position: [    0.0252525,    0.0000000,    0.0000000 ]
  distance:    0.0085320
  band:
  - # 1
    frequency:   -4.7475467016
  - # 2
    frequency:   -4.7193185918
  - # 3
    frequency:   -0.7254638844
  - # 4
    frequency:   -0.6819743710
  - # 5
    frequency:   -0.0684606261
  - # 6
    frequency:    0.3161545335
  - # 7
    frequency:    0.5530458305
  - # 8
    frequency:    3.6812937066
  - # 9
    frequency:    3.7009938744
  - # 10
    frequency:    5.2161746754
  - # 11
    frequency:    5.7471658828
  - # 12
    frequency:    5.7752150951
  - # 13
    frequency:    8.4461792172
  - # 14
    frequency:    8.6706909878
  - # 15
    frequency:   11.1009610997
  - # 16
    frequency:   11.1074048028
  - # 17
    frequency:   15.0463716884
  - # 18
    frequency:   15.0549454598
  - # 19
    frequency:   15.8077072666
  - # 20
    frequency:   17.1436198085
  - # 21
    frequency:   17.1492040646
  - # 22
    frequency:   38.3546504201
  - # 23
    frequency:   39.0596509864
  - # 24
    frequency:   69.0207182498

- q-position: [    0.0303030,    0.0000000,    0.0000000 ]
  distance:    0.0102384
  band:
  - # 1
    frequency:   -4.7547170832
  - # 2
    frequency:   -4.7141191490
  - # 3
    frequency:   -0.7189648595
  - # 4
    frequency:   -0.6572001937
  - # 5
    frequency:   -0.0670939333
  - # 6
    frequency:    0.3802740579
  - # 7
    frequency:    0.6651231204
  - # 8
    frequency:    3.6864402185
  - # 9
    frequency:    3.7145789579
  - # 10
    frequency:    5.2127221858
  - # 11
    frequency:    5.7485257964
  - # 12
    frequency:    5.7883714722
  - # 13
    frequency:    8.4389273309
  - # 14
    frequency:    8.6632435773
  - # 15
    frequency:   11.0926993435
  - # 16
    frequency:   11.1018373683
  - # 17
    frequency:   15.0429499742
  - # 18
    frequency:   15.0554506136
  - # 19
    frequency:   15.8129575861
  - # 20
    frequency:   17.1440515556
  - # 21
    frequency:   17.1520748048
  - # 22
    frequency:   38.3544166607
  - # 23
    frequency:   39.0525464080
  - # 24
    frequency:   69.0044397015

- q-position: [    0.0353535,    0.0000000,    0.0000000 ]
  distance:    0.0119448
  band:
  - # 1
    frequency:   -4.7631590958
  - # 2
    frequency:   -4.7079801210
  - # 3
    frequency:   -0.7114698455
  - # 4
    frequency:   -0.6280081965
  - # 5
    frequency:   -0.0553005666
  - # 6
    frequency:    0.4447596522
  - # 7
    frequency:    0.7775069393
  - # 8
    frequency:    3.6924915287
  - # 9
    frequency:    3.7304307534
  - # 10
    frequency:    5.2089557001
  - # 11
    frequency:    5.7501299753
  - # 12
    frequency:    5.8035372114
  - # 13
    frequency:    8.4303284186
  - # 14
    frequency:    8.6545918190
  - # 15
    frequency:   11.0830976527
  - # 16
    frequency:   11.0953111456
  - # 17
    frequency:   15.0389126771
  - # 18
    frequency:   15.0561636022
  - # 19
    frequency:   15.8189473741
  - # 20
    frequency:   17.1445582511
  - # 21
    frequency:   17.1554496544
  - # 22
    frequency:   38.3541415935
  - # 23
    frequency:   39.0441824691
  - # 24
    frequency:   68.9853218823

- q-position: [    0.0404040,    0.0000000,    0.0000000 ]
  distance:    0.0136512
  band:
  - # 1
    frequency:   -4.7728569704
  - # 2
    frequency:   -4.7009026119
  - # 3
    frequency:   -0.7030233094
  - # 4
    frequency:   -0.5939238796
  - # 5
    frequency:    0.0155191614
  - # 6
    frequency:    0.5096007873
  - # 7
    frequency:    0.8899209400
  - # 8
    frequency:    3.6994325321
  - # 9
    frequency:    3.7484564091
  - # 10
    frequency:    5.2049903624
  - # 11
    frequency:    5.7519770558
  - # 12
    frequency:    5.8205641521
  - # 13
    frequency:    8.4203742787
  - # 14
    frequency:    8.6448044562
  - # 15
    frequency:   11.0722343264
  - # 16
    frequency:   11.0878524973
  - # 17
    frequency:   15.0342632703
  - # 18
    frequency:   15.0571308333
  - # 19
    frequency:   15.8255826486
  - # 20
    frequency:   17.1451381744
  - # 21
    frequency:   17.1593197039
  - # 22
    frequency:   38.3538258060
  - # 23
    frequency:   39.0345751272
  - # 24
    frequency:   68.9634239385

- q-position: [    0.0454545,    0.0000000,    0.0000000 ]
  distance:    0.0153576
  band:
  - # 1
    frequency:   -4.7837927040
  - # 2
    frequency:   -4.6928866040
  - # 3
    frequency:   -0.6936538206
  - # 4
    frequency:   -0.5542012430
  - # 5
    frequency:    0.0780438044
  - # 6
    frequency:    0.5747743760
  - # 7
    frequency:    1.0021348845
  - # 8
    frequency:    3.7072460683
  - # 9
    frequency:    3.7685548203
  - # 10
    frequency:    5.2009369477
  - # 11
    frequency:    5.7540655580
  - # 12
    frequency:    5.8393045412
  - # 13
    frequency:    8.4090603285
  - # 14
    frequency:    8.6339558485
  - # 15
    frequency:   11.0601975886
  - # 16
    frequency:   11.0794915558
  - # 17
    frequency:   15.0290059093
  - # 18
    frequency:   15.0583984165
  - # 19
    frequency:   15.8327639242
  - # 20
    frequency:   17.1457893811
  - # 21
    frequency:   17.1636746918
  - # 22
    frequency:   38.3534699680
  - # 23
    frequency:   39.0237426185
  - # 24
    frequency:   68.9388132901

- q-position: [    0.0505051,    0.0000000,    0.0000000 ]
  distance:    0.0170640
  band:
  - # 1
    frequency:   -4.7959461295
  - # 2
    frequency:   -4.6839304801
  - # 3
    frequency:   -0.6833730258
  - # 4
    frequency:   -0.5077357925
  - # 5
    frequency:    0.1237371685
  - # 6
    frequency:    0.6402497628
  - # 7
    frequency:    1.1139621335
  - # 8
    frequency:    3.7159130279
  - # 9
    frequency:    3.7906185745
  - # 10
    frequency:    5.1968988095
  - # 11
    frequency:    5.7563939187
  - # 12
    frequency:    5.8596145501
  - # 13
    frequency:    8.3963877726
  - # 14
    frequency:    8.6221237459
  - # 15
    frequency:   11.0470847193
  - # 16
    frequency:   11.0702621020
  - # 17
    frequency:   15.0231454903
  - # 18
    frequency:   15.0600101753
  - # 19
    frequency:   15.8403888273
  - # 20
    frequency:   17.1465097197
  - # 21
    frequency:   17.1685030216
  - # 22
    frequency:   38.3530748278
  - # 23
    frequency:   39.0117053855
  - # 24
    frequency:   68.9115652868

- q-position: [    0.0555556,    0.0000000,    0.0000000 ]
  distance:    0.0187704
  band:
  - # 1
    frequency:   -4.8092949851
  - # 2
    frequency:   -4.6740305279
  - # 3
    frequency:   -0.6721761259
  - # 4
    frequency:   -0.4528590637
  - # 5
    frequency:    0.1699989077
  - # 6
    frequency:    0.7059927673
  - # 7
    frequency:    1.2252507933
  - # 8
    frequency:    3.7254124689
  - # 9
    frequency:    3.8145358264
  - # 10
    frequency:    5.1929701324
  - # 11
    frequency:    5.7589605236
  - # 12
    frequency:    5.8813565399
  - # 13
    frequency:    8.3823659452
  - # 14
    frequency:    8.6093868645
  - # 15
    frequency:   11.0330011014
  - # 16
    frequency:   11.0602014297
  - # 17
    frequency:   15.0166877125
  - # 18
    frequency:   15.0620059361
  - # 19
    frequency:   15.8483544979
  - # 20
    frequency:   17.1472968490
  - # 21
    frequency:   17.1737917859
  - # 22
    frequency:   38.3526412072
  - # 23
    frequency:   38.9984859962
  - # 24
    frequency:   68.8817628245

- q-position: [    0.0606061,    0.0000000,    0.0000000 ]
  distance:    0.0204768
  band:
  - # 1
    frequency:   -4.8238149849
  - # 2
    frequency:   -4.6631804432
  - # 3
    frequency:   -0.6600430896
  - # 4
    frequency:   -0.3868344689
  - # 5
    frequency:    0.2194147872
  - # 6
    frequency:    0.7719685138
  - # 7
    frequency:    1.3358738480
  - # 8
    frequency:    3.7357217396
  - # 9
    frequency:    3.8401920436
  - # 10
    frequency:    5.1892352198
  - # 11
    frequency:    5.7617637381
  - # 12
    frequency:    5.9044003395
  - # 13
    frequency:    8.3670146679
  - # 14
    frequency:    8.5958224149
  - # 15
    frequency:   11.0180591984
  - # 16
    frequency:   11.0493501942
  - # 17
    frequency:   15.0096391440
  - # 18
    frequency:   15.0644201480
  - # 19
    frequency:   15.8565597160
  - # 20
    frequency:   17.1481482573
  - # 21
    frequency:   17.1795267987
  - # 22
    frequency:   38.3521699951
  - # 23
    frequency:   38.9841090574
  - # 24
    frequency:   68.8494959249

- q-position: [    0.0656566,    0.0000000,    0.0000000 ]
  distance:    0.0221832
  band:
  - # 1
    frequency:   -4.8394798852
  - # 2
    frequency:   -4.6513708452
  - # 3
    frequency:   -0.6469399537
  - # 4
    frequency:   -0.3042670002
  - # 5
    frequency:    0.2734537796
  - # 6
    frequency:    0.8381431054
  - # 7
    frequency:    1.4457207269
  - # 8
    frequency:    3.7468166091
  - # 9
    frequency:    3.8674715794
  - # 10
    frequency:    5.1857685294
  - # 11
    frequency:    5.7648019349
  - # 12
    frequency:    5.9286238241
  - # 13
    frequency:    8.3503664284
  - # 14
    frequency:    8.5815037717
  - # 15
    frequency:   11.0023774802
  - # 16
    frequency:   11.0377522476
  - # 17
    frequency:   15.0020072896
  - # 18
    frequency:   15.0672808519
  - # 19
    frequency:   15.8649067217
  - # 20
    frequency:   17.1490612822
  - # 21
    frequency:   17.1856926387
  - # 22
    frequency:   38.3516621404
  - # 23
    frequency:   38.9686011208
  - # 24
    frequency:   68.8148612805

- q-position: [    0.0707071,    0.0000000,    0.0000000 ]
  distance:    0.0238896
  band:
  - # 1
    frequency:   -4.8562615471
  - # 2
    frequency:   -4.6385888197
  - # 3
    frequency:   -0.6328197388
  - # 4
    frequency:   -0.1885206894
  - # 5
    frequency:    0.3332576929
  - # 6
    frequency:    0.9044843795
  - # 7
    frequency:    1.5546909080
  - # 8
    frequency:    3.7586714016
  - # 9
    frequency:    3.8962590415
  - # 10
    frequency:    5.1826352025
  - # 11
    frequency:    5.7680735164
  - # 12
    frequency:    5.9539130392
  - # 13
    frequency:    8.3324681676
  - # 14
    frequency:    8.5664984874
  - # 15
    frequency:   10.9860793164
  - # 16
    frequency:   11.0254544596
  - # 17
    frequency:   14.9938006595
  - # 18
    frequency:   15.0706089973
  - # 19
    frequency:   15.8733027188
  - # 20
    frequency:   17.1500331314
  - # 21
    frequency:   17.1922727020
  - # 22
    frequency:   38.3511186419
  - # 23
    frequency:   38.9519905853
  - # 24
    frequency:   68.7779617680

- q-position: [    0.0757576,    0.0000000,    0.0000000 ]
  distance:    0.0255959
  band:
  - # 1
    frequency:   -4.8741299927
  - # 2
    frequency:   -4.6248175047
  - # 3
    frequency:   -0.6176226762
  - # 4
    frequency:    0.1409013455
  - # 5
    frequency:    0.3989981175
  - # 6
    frequency:    0.9709620277
  - # 7
    frequency:    1.6626893587
  - # 8
    frequency:    3.7712591349
  - # 9
    frequency:    3.9264404399
  - # 10
    frequency:    5.1798918892
  - # 11
    frequency:    5.7715769320
  - # 12
    frequency:    5.9801620681
  - # 13
    frequency:    8.3133824912
  - # 14
    frequency:    8.5508668273
  - # 15
    frequency:   10.9692918581
  - # 16
    frequency:   11.0125065253
  - # 17
    frequency:   14.9850288377
  - # 18
    frequency:   15.0744180814
  - # 19
    frequency:   15.8816610750
  - # 20
    frequency:   17.1510609034
  - # 21
    frequency:   17.1992492665
  - # 22
    frequency:   38.3505405372
  - # 23
    frequency:   38.9343075942
  - # 24
    frequency:   68.7389059333

- q-position: [    0.0808081,    0.0000000,    0.0000000 ]
  distance:    0.0273023
  band:
  - # 1
    frequency:   -4.8930534547
  - # 2
    frequency:   -4.6100357301
  - # 3
    frequency:   -0.6012755389
  - # 4
    frequency:    0.2711103814
  - # 5
    frequency:    0.4688754630
  - # 6
    frequency:    1.0375473311
  - # 7
    frequency:    1.7696233933
  - # 8
    frequency:    3.7845516616
  - # 9
    frequency:    3.9579041053
  - # 10
    frequency:    5.1775877242
  - # 11
    frequency:    5.7753106873
  - # 12
    frequency:    6.0072727806
  - # 13
    frequency:    8.2931881789
  - # 14
    frequency:    8.5346609426
  - # 15
    frequency:   10.9521449296
  - # 16
    frequency:   10.9989607606
  - # 17
    frequency:   14.9757025485
  - # 18
    frequency:   15.0787140752
  - # 19
    frequency:   15.8899022389
  - # 20
    frequency:   17.1521416092
  - # 21
    frequency:   17.2066035676
  - # 22
    frequency:   38.3499288871
  - # 23
    frequency:   38.9155839306
  - # 24
    frequency:   68.6978074511

- q-position: [    0.0858586,    0.0000000,    0.0000000 ]
  distance:    0.0290087
  band:
  - # 1
    frequency:   -4.9129984178
  - # 2
    frequency:   -4.5942177254
  - # 3
    frequency:   -0.5836898911
  - # 4
    frequency:    0.3569318272
  - # 5
    frequency:    0.5399152986
  - # 6
    frequency:    1.1042127062
  - # 7
    frequency:    1.8754005525
  - # 8
    frequency:    3.7985198112
  - # 9
    frequency:    3.9905413777
  - # 10
    frequency:    5.1757653549
  - # 11
    frequency:    5.7792733462
  - # 12
    frequency:    6.0351545587
  - # 13
    frequency:    8.2719799501
  - # 14
    frequency:    8.5179247164
  - # 15
    frequency:   10.9347699522
  - # 16
    frequency:   10.9848718857
  - # 17
    frequency:   14.9658337209
  - # 18
    frequency:   15.0834955954
  - # 19
    frequency:   15.8979544022
  - # 20
    frequency:   17.1532721932
  - # 21
    frequency:   17.2143158847
  - # 22
    frequency:   38.3492847577
  - # 23
    frequency:   38.8958529124
  - # 24
    frequency:   68.6547845616

- q-position: [    0.0909091,    0.0000000,    0.0000000 ]
  distance:    0.0307151
  band:
  - # 1
    frequency:   -4.9339296528
  - # 2
    frequency:   -4.5773329026
  - # 3
    frequency:   -0.5647590007
  - # 4
    frequency:    0.4292151813
  - # 5
    frequency:    0.6099068611
  - # 6
    frequency:    1.1709311893
  - # 7
    frequency:    1.9799271956
  - # 8
    frequency:    3.8131335329
  - # 9
    frequency:    4.0242470687
  - # 10
    frequency:    5.1744619611
  - # 11
    frequency:    5.7834635224
  - # 12
    frequency:    6.0637240508
  - # 13
    frequency:    8.2498675300
  - # 14
    frequency:    8.5006942278
  - # 15
    frequency:   10.9172989188
  - # 16
    frequency:   10.9702967966
  - # 17
    frequency:   14.9554355480
  - # 18
    frequency:   15.0887542765
  - # 19
    frequency:   15.9057539417
  - # 20
    frequency:   17.1544495544
  - # 21
    frequency:   17.2223656378
  - # 22
    frequency:   38.3486091958
  - # 23
    frequency:   38.8751492876
  - # 24
    frequency:   68.6099594905

- q-position: [    0.0959596,    0.0000000,    0.0000000 ]
  distance:    0.0324215
  band:
  - # 1
    frequency:   -4.9558102433
  - # 2
    frequency:   -4.5593457249
  - # 3
    frequency:   -0.5443529985
  - # 4
    frequency:    0.4960864628
  - # 5
    frequency:    0.6779189900
  - # 6
    frequency:    1.2376759380
  - # 7
    frequency:    2.0831075941
  - # 8
    frequency:    3.8283620389
  - # 9
    frequency:    4.0589197037
  - # 10
    frequency:    5.1737102318
  - # 11
    frequency:    5.7878798619
  - # 12
    frequency:    6.0929049853
  - # 13
    frequency:    8.2269741321
  - # 14
    frequency:    8.4829987150
  - # 15
    frequency:   10.8998634418
  - # 16
    frequency:   10.9552943281
  - # 17
    frequency:   14.9445225423
  - # 18
    frequency:   15.0944752993
  - # 19
    frequency:   15.9132456694
  - # 20
    frequency:   17.1556705668
  - # 21
    frequency:   17.2307314936
  - # 22
    frequency:   38.3479031985
  - # 23
    frequency:   38.8535091342
  - # 24
    frequency:   68.5634578524

- q-position: [    0.1010101,    0.0000000,    0.0000000 ]
  distance:    0.0341279
  band:
  - # 1
    frequency:   -4.9786016053
  - # 2
    frequency:   -4.5402156643
  - # 3
    frequency:   -0.5223115622
  - # 4
    frequency:    0.5607559435
  - # 5
    frequency:    0.7437912385
  - # 6
    frequency:    1.3044197925
  - # 7
    frequency:    2.1848433872
  - # 8
    frequency:    3.8441739459
  - # 9
    frequency:    4.0944615493
  - # 10
    frequency:    5.1735392839
  - # 11
    frequency:    5.7925210154
  - # 12
    frequency:    6.1226280492
  - # 13
    frequency:    8.2034345087
  - # 14
    frequency:    8.4648618778
  - # 15
    frequency:   10.8825938873
  - # 16
    frequency:   10.9399250055
  - # 17
    frequency:   14.9331105839
  - # 18
    frequency:   15.1006380355
  - # 19
    frequency:   15.9203829239
  - # 20
    frequency:   17.1569320998
  - # 21
    frequency:   17.2393914786
  - # 22
    frequency:   38.3471676721
  - # 23
    frequency:   38.8309697671
  - # 24
    frequency:   68.5154080441

- q-position: [    0.1060606,    0.0000000,    0.0000000 ]
  distance:    0.0358343
  band:
  - # 1
    frequency:   -5.0022635025
  - # 2
    frequency:   -4.5198972525
  - # 3
    frequency:   -0.4984328536
  - # 4
    frequency:    0.6246454748
  - # 5
    frequency:    0.8076764019
  - # 6
    frequency:    1.3711349127
  - # 7
    frequency:    2.2850333174
  - # 8
    frequency:    3.8605374154
  - # 9
    frequency:    4.1307784300
  - # 10
    frequency:    5.1739755189
  - # 11
    frequency:    5.7973855994
  - # 12
    frequency:    6.1528308257
  - # 13
    frequency:    8.1793927275
  - # 14
    frequency:    8.4463033587
  - # 15
    frequency:   10.8656186134
  - # 16
    frequency:   10.9242507901
  - # 17
    frequency:   14.9212169621
  - # 18
    frequency:   15.1072167715
  - # 19
    frequency:   15.9271275295
  - # 20
    frequency:   17.1582310372
  - # 21
    frequency:   17.2483230987
  - # 22
    frequency:   38.3464033787
  - # 23
    frequency:   38.8075696576
  - # 24
    frequency:   68.4659406302

- q-position: [    0.1111111,    0.0000000,    0.0000000 ]
  distance:    0.0375407
  band:
  - # 1
    frequency:   -5.0267540570
  - # 2
    frequency:   -4.4983402238
  - # 3
    frequency:   -0.4724564156
  - # 4
    frequency:    0.6884074049
  - # 5
    frequency:    0.8698225590
  - # 6
    frequency:    1.4377924942
  - # 7
    frequency:    2.3835732019
  - # 8
    frequency:    3.8774202925
  - # 9
    frequency:    4.1677793362
  - # 10
    frequency:    5.1750434235
  - # 11
    frequency:    5.8024721480
  - # 12
    frequency:    6.1834577741
  - # 13
    frequency:    8.1549998116
  - # 14
    frequency:    8.4273402640
  - # 15
    frequency:   10.8490633203
  - # 16
    frequency:   10.9083348161
  - # 17
    frequency:   14.9088604091
  - # 18
    frequency:   15.1141814785
  - # 19
    frequency:   15.9334496489
  - # 20
    frequency:   17.1595642958
  - # 21
    frequency:   17.2575034615
  - # 22
    frequency:   38.3456108617
  - # 23
    frequency:   38.7833483706
  - # 24
    frequency:   68.4151877262

- q-position: [    0.1161616,    0.0000000,    0.0000000 ]
  distance:    0.0392471
  band:
  - # 1
    frequency:   -5.0520297594
  - # 2
    frequency:   -4.4754897490
  - # 3
    frequency:   -0.4440356850
  - # 4
    frequency:    0.7523240543
  - # 5
    frequency:    0.9304920285
  - # 6
    frequency:    1.5043625583
  - # 7
    frequency:    2.4803561234
  - # 8
    frequency:    3.8947902413
  - # 9
    frequency:    4.2053758252
  - # 10
    frequency:    5.1767663224
  - # 11
    frequency:    5.8077790542
  - # 12
    frequency:    6.2144602279
  - # 13
    frequency:    8.1304113431
  - # 14
    frequency:    8.4079886282
  - # 15
    frequency:   10.8330505220
  - # 16
    frequency:   10.8922411229
  - # 17
    frequency:   14.8960611236
  - # 18
    frequency:   15.1214986014
  - # 19
    frequency:   15.9393275510
  - # 20
    frequency:   17.1609288425
  - # 21
    frequency:   17.2669094016
  - # 22
    frequency:   38.3447903447
  - # 23
    frequency:   38.7583465318
  - # 24
    frequency:   68.3632823810

- q-position: [    0.1212121,    0.0000000,    0.0000000 ]
  distance:    0.0409535
  band:
  - # 1
    frequency:   -5.0780454791
  - # 2
    frequency:   -4.4512867534
  - # 3
    frequency:   -0.4126913806
  - # 4
    frequency:    0.8164801375
  - # 5
    frequency:    0.9899386007
  - # 6
    frequency:    1.5708138082
  - # 7
    frequency:    2.5752728421
  - # 8
    frequency:    3.9126148785
  - # 9
    frequency:    4.2434812128
  - # 10
    frequency:    5.1791670975
  - # 11
    frequency:    5.8133045020
  - # 12
    frequency:    6.2457963791
  - # 13
    frequency:    8.1057850887
  - # 14
    frequency:    8.3882647638
  - # 15
    frequency:   10.8176991419
  - # 16
    frequency:   10.8760343826
  - # 17
    frequency:   14.8828407862
  - # 18
    frequency:   15.1291318433
  - # 19
    frequency:   15.9447473128
  - # 20
    frequency:   17.1623217112
  - # 21
    frequency:   17.2765176039
  - # 22
    frequency:   38.3439415860
  - # 23
    frequency:   38.7326058378
  - # 24
    frequency:   68.3103579644

- q-position: [    0.1262626,    0.0000000,    0.0000000 ]
  distance:    0.0426599
  band:
  - # 1
    frequency:   -5.1047544789
  - # 2
    frequency:   -4.4256683113
  - # 3
    frequency:   -0.3777265486
  - # 4
    frequency:    0.8808414331
  - # 5
    frequency:    1.0484076242
  - # 6
    frequency:    1.6371135409
  - # 7
    frequency:    2.6682124404
  - # 8
    frequency:    3.9308619027
  - # 9
    frequency:    4.2820095574
  - # 10
    frequency:    5.1822688853
  - # 11
    frequency:    5.8190463907
  - # 12
    frequency:    6.2774312145
  - # 13
    frequency:    8.0812786755
  - # 14
    frequency:    8.3681864828
  - # 15
    frequency:   10.8031242339
  - # 16
    frequency:   10.8597796248
  - # 17
    frequency:   14.8692225633
  - # 18
    frequency:   15.1370429265
  - # 19
    frequency:   15.9497024732
  - # 20
    frequency:   17.1637400178
  - # 21
    frequency:   17.2863047260
  - # 22
    frequency:   38.3430636671
  - # 23
    frequency:   38.7061691347
  - # 24
    frequency:   68.2565475635

- q-position: [    0.1313131,    0.0000000,    0.0000000 ]
  distance:    0.0443663
  band:
  - # 1
    frequency:   -5.1321084353
  - # 2
    frequency:   -4.3985681077
  - # 3
    frequency:   -0.3380558109
  - # 4
    frequency:    0.9452907356
  - # 5
    frequency:    1.1061450569
  - # 6
    frequency:    1.7032276066
  - # 7
    frequency:    2.7590632162
  - # 8
    frequency:    3.9494992197
  - # 9
    frequency:    4.3208744419
  - # 10
    frequency:    5.1860957674
  - # 11
    frequency:    5.8250022524
  - # 12
    frequency:    6.3093363597
  - # 13
    frequency:    8.0570473113
  - # 14
    frequency:    8.3477742044
  - # 15
    frequency:   10.7894368251
  - # 16
    frequency:   10.8435419603
  - # 17
    frequency:   14.8552311007
  - # 18
    frequency:   15.1451923134
  - # 19
    frequency:   15.9541936522
  - # 20
    frequency:   17.1651809739
  - # 21
    frequency:   17.2962475153
  - # 22
    frequency:   38.3421546754
  - # 23
    frequency:   38.6790806054
  - # 24
    frequency:   68.2019833905

- q-position: [    0.1363636,    0.0000000,    0.0000000 ]
  distance:    0.0460727
  band:
  - # 1
    frequency:   -5.1600574680
  - # 2
    frequency:   -4.3699169535
  - # 3
    frequency:   -0.2918106296
  - # 4
    frequency:    1.0096426809
  - # 5
    frequency:    1.1634100183
  - # 6
    frequency:    1.7691204066
  - # 7