nqpoint: 300    
npath: 3      
segment_nqpoint:
- 100
- 100
- 100
labels:
- [ 'G', 'M' ]
- [ 'M', 'K' ]
- [ 'K', 'G' ]
reciprocal_lattice:
- [   0.27986004,   0.16157727,   0.00000000 ] # a*
- [   0.00000000,   0.32315454,   0.00000000 ] # b*
- [   0.00000000,   0.00000000,   0.03928766 ] # c*
natom: 7      
lattice:
- [     3.573214702548112,     0.000000000000000,     0.000000000000000 ] # a
- [    -1.786607351274056,     3.094494705577871,     0.000000000000000 ] # b
- [     0.000000000000000,     0.000000000000000,    25.453282908698419 ] # c
points:
- symbol: C # 1
  coordinates: [  0.333332985432215,  0.666666983183674,  0.599035422645272 ]
  mass: 12.010700
- symbol: N # 2
  coordinates: [  0.000000000000000,  0.000000000000000,  0.449521819562964 ]
  mass: 14.006700
- symbol: N # 3
  coordinates: [  0.333332985432215,  0.666666983183674,  0.550137640700486 ]
  mass: 14.006700
- symbol: O # 4
  coordinates: [  0.333332985432215,  0.666666983183674,  0.646411033410376 ]
  mass: 15.999400
- symbol: O # 5
  coordinates: [  0.666666984744047,  0.333332985985145,  0.353588966589624 ]
  mass: 15.999400
- symbol: Y # 6
  coordinates: [  0.333332985432215,  0.666666983183674,  0.381074385113537 ]
  mass: 88.905850
- symbol: Y # 7
  coordinates: [  0.666666984744047,  0.333332985985145,  0.492507219399865 ]
  mass: 88.905850

phonon:
- q-position: [    0.0000000,    0.0000000,    0.0000000 ]
  distance:    0.0000000
  band:
  - # 1
    frequency:   -0.0000136792
  - # 2
    frequency:   -0.0000004284
  - # 3
    frequency:    0.0000117129
  - # 4
    frequency:    0.8365260876
  - # 5
    frequency:    0.8365260877
  - # 6
    frequency:    2.5938701413
  - # 7
    frequency:    2.5938701413
  - # 8
    frequency:    4.4753791462
  - # 9
    frequency:    5.7121121461
  - # 10
    frequency:    5.7121121461
  - # 11
    frequency:    7.9641622555
  - # 12
    frequency:   11.0002440327
  - # 13
    frequency:   11.0002440327
  - # 14
    frequency:   12.4163189408
  - # 15
    frequency:   13.2302881855
  - # 16
    frequency:   13.2302881855
  - # 17
    frequency:   15.4936286177
  - # 18
    frequency:   17.8223684482
  - # 19
    frequency:   17.8223684482
  - # 20
    frequency:   38.9360143652
  - # 21
    frequency:   69.2078945855

- q-position: [    0.0050505,    0.0000000,    0.0000000 ]
  distance:    0.0016321
  band:
  - # 1
    frequency:    0.0017791678
  - # 2
    frequency:    0.0491501184
  - # 3
    frequency:    0.0962340956
  - # 4
    frequency:    0.8367943324
  - # 5
    frequency:    0.8380610974
  - # 6
    frequency:    2.5942042219
  - # 7
    frequency:    2.5960970950
  - # 8
    frequency:    4.4750423551
  - # 9
    frequency:    5.7121268636
  - # 10
    frequency:    5.7142257293
  - # 11
    frequency:    7.9635067174
  - # 12
    frequency:   10.9998177510
  - # 13
    frequency:   11.0039350643
  - # 14
    frequency:   12.4152810304
  - # 15
    frequency:   13.2299456543
  - # 16
    frequency:   13.2299965594
  - # 17
    frequency:   15.4943420502
  - # 18
    frequency:   17.8223796157
  - # 19
    frequency:   17.8227077374
  - # 20
    frequency:   38.9359756155
  - # 21
    frequency:   69.2067946083

- q-position: [    0.0101010,    0.0000000,    0.0000000 ]
  distance:    0.0032642
  band:
  - # 1
    frequency:    0.0070796249
  - # 2
    frequency:    0.0982267938
  - # 3
    frequency:    0.1921373822
  - # 4
    frequency:    0.8376055151
  - # 5
    frequency:    0.8427219284
  - # 6
    frequency:    2.5952074980
  - # 7
    frequency:    2.6027558997
  - # 8
    frequency:    4.4740417855
  - # 9
    frequency:    5.7121710788
  - # 10
    frequency:    5.7205335502
  - # 11
    frequency:    7.9615422077
  - # 12
    frequency:   10.9985402545
  - # 13
    frequency:   11.0149356656
  - # 14
    frequency:   12.4122235279
  - # 15
    frequency:   13.2289186486
  - # 16
    frequency:   13.2291183062
  - # 17
    frequency:   15.4964823656
  - # 18
    frequency:   17.8224131534
  - # 19
    frequency:   17.8237245994
  - # 20
    frequency:   38.9358594426
  - # 21
    frequency:   69.2034969383

- q-position: [    0.0151515,    0.0000000,    0.0000000 ]
  distance:    0.0048963
  band:
  - # 1
    frequency:    0.0158563391
  - # 2
    frequency:    0.1471532800
  - # 3
    frequency:    0.2873076297
  - # 4
    frequency:    0.8389794683
  - # 5
    frequency:    0.8506961392
  - # 6
    frequency:    2.5968830534
  - # 7
    frequency:    2.6137815664
  - # 8
    frequency:    4.4724060950
  - # 9
    frequency:    5.7122449801
  - # 10
    frequency:    5.7309384811
  - # 11
    frequency:    7.9582749721
  - # 12
    frequency:   10.9964155875
  - # 13
    frequency:   11.0330249215
  - # 14
    frequency:   12.4073180167
  - # 15
    frequency:   13.2272089308
  - # 16
    frequency:   13.2276437852
  - # 17
    frequency:   15.5000497365
  - # 18
    frequency:   17.8224691675
  - # 19
    frequency:   17.8254160243
  - # 20
    frequency:   38.9356660747
  - # 21
    frequency:   69.1980083541

- q-position: [    0.0202020,    0.0000000,    0.0000000 ]
  distance:    0.0065284
  band:
  - # 1
    frequency:    0.0280266737
  - # 2
    frequency:    0.1958458954
  - # 3
    frequency:    0.3811733555
  - # 4
    frequency:    0.8409509249
  - # 5
    frequency:    0.8623718942
  - # 6
    frequency:    2.5992359662
  - # 7
    frequency:    2.6290695863
  - # 8
    frequency:    4.4701806628
  - # 9
    frequency:    5.7123488784
  - # 10
    frequency:    5.7452839869
  - # 11
    frequency:    7.9537152017
  - # 12
    frequency:   10.9934504831
  - # 13
    frequency:   11.0578229280
  - # 14
    frequency:   12.4008604398
  - # 15
    frequency:   13.2248194337
  - # 16
    frequency:   13.2255585069
  - # 17
    frequency:   15.5050448439
  - # 18
    frequency:   17.8225478334
  - # 19
    frequency:   17.8277770180
  - # 20
    frequency:   38.9353958915
  - # 21
    frequency:   69.1903401317

- q-position: [    0.0252525,    0.0000000,    0.0000000 ]
  distance:    0.0081605
  band:
  - # 1
    frequency:    0.0434812071
  - # 2
    frequency:    0.2442097105
  - # 3
    frequency:    0.4728325904
  - # 4
    frequency:    0.8435722323
  - # 5
    frequency:    0.8784829355
  - # 6
    frequency:    2.6022732165
  - # 7
    frequency:    2.6484812045
  - # 8
    frequency:    4.4674244209
  - # 9
    frequency:    5.7124832047
  - # 10
    frequency:    5.7633615320
  - # 11
    frequency:    7.9478767291
  - # 12
    frequency:   10.9896543517
  - # 13
    frequency:   11.0887723809
  - # 14
    frequency:   12.3932870704
  - # 15
    frequency:   13.2217542539
  - # 16
    frequency:   13.2228453884
  - # 17
    frequency:   15.5114694508
  - # 18
    frequency:   17.8226493947
  - # 19
    frequency:   17.8308006365
  - # 20
    frequency:   38.9350494232
  - # 21
    frequency:   69.1805080127

- q-position: [    0.0303030,    0.0000000,    0.0000000 ]
  distance:    0.0097926
  band:
  - # 1
    frequency:    0.0620889275
  - # 2
    frequency:    0.2921331190
  - # 3
    frequency:    0.5607793729
  - # 4
    frequency:    0.8469175586
  - # 5
    frequency:    0.9003732478
  - # 6
    frequency:    2.6060035584
  - # 7
    frequency:    2.6718500117
  - # 8
    frequency:    4.4642061271
  - # 9
    frequency:    5.7126485047
  - # 10
    frequency:    5.7849198602
  - # 11
    frequency:    7.9407766482
  - # 12
    frequency:   10.9850392657
  - # 13
    frequency:   11.1251114064
  - # 14
    frequency:   12.3851985503
  - # 15
    frequency:   13.2180186428
  - # 16
    frequency:   13.2194877357
  - # 17
    frequency:   15.5193271748
  - # 18
    frequency:   17.8227741607
  - # 19
    frequency:   17.8344780323
  - # 20
    frequency:   38.9346273492
  - # 21
    frequency:   69.1685321590

- q-position: [    0.0353535,    0.0000000,    0.0000000 ]
  distance:    0.0114247
  band:
  - # 1
    frequency:    0.0837026664
  - # 2
    frequency:    0.3394807748
  - # 3
    frequency:    0.6425285545
  - # 4
    frequency:    0.8510890131
  - # 5
    frequency:    0.9303677394
  - # 6
    frequency:    2.6104373585
  - # 7
    frequency:    2.6989892278
  - # 8
    frequency:    4.4606005717
  - # 9
    frequency:    5.7128454339
  - # 10
    frequency:    5.8096753123
  - # 11
    frequency:    7.9324348935
  - # 12
    frequency:   10.9796199380
  - # 13
    frequency:   11.1658372440
  - # 14
    frequency:   12.3773925637
  - # 15
    frequency:   13.2136189948
  - # 16
    frequency:   13.2154728705
  - # 17
    frequency:   15.5286244312
  - # 18
    frequency:   17.8229225037
  - # 19
    frequency:   17.8387985149
  - # 20
    frequency:   38.9341304966
  - # 21
    frequency:   69.1544370956

- q-position: [    0.0404040,    0.0000000,    0.0000000 ]
  distance:    0.0130567
  band:
  - # 1
    frequency:    0.1081642685
  - # 2
    frequency:    0.3860843026
  - # 3
    frequency:    0.7145592763
  - # 4
    frequency:    0.8562252029
  - # 5
    frequency:    0.9718267238
  - # 6
    frequency:    2.6155864012
  - # 7
    frequency:    2.7296990551
  - # 8
    frequency:    4.4566851399
  - # 9
    frequency:    5.7130747507
  - # 10
    frequency:    5.8373223829
  - # 11
    frequency:    7.9228738149
  - # 12
    frequency:   10.9734136955
  - # 13
    frequency:   11.2096625977
  - # 14
    frequency:   12.3709034126
  - # 15
    frequency:   13.2085628332
  - # 16
    frequency:   13.2107964253
  - # 17
    frequency:   15.5393715128
  - # 18
    frequency:   17.8230948555
  - # 19
    frequency:   17.8437496231
  - # 20
    frequency:   38.9335598379
  - # 21
    frequency:   69.1382516409

- q-position: [    0.0454545,    0.0000000,    0.0000000 ]
  distance:    0.0146888
  band:
  - # 1
    frequency:    0.1353091510
  - # 2
    frequency:    0.4317302612
  - # 3
    frequency:    0.7737981482
  - # 4
    frequency:    0.8625126946
  - # 5
    frequency:    1.0276620522
  - # 6
    frequency:    2.6214636643
  - # 7
    frequency:    2.7637735650
  - # 8
    frequency:    4.4525370159
  - # 9
    frequency:    5.7133373107
  - # 10
    frequency:    5.8675438414
  - # 11
    frequency:    7.9121177800
  - # 12
    frequency:   10.9664404474
  - # 13
    frequency:   11.2549721312
  - # 14
    frequency:   12.3670409089
  - # 15
    frequency:   13.2028587932
  - # 16
    frequency:   13.2054675127
  - # 17
    frequency:   15.5515837683
  - # 18
    frequency:   17.8232917037
  - # 19
    frequency:   17.8493172102
  - # 20
    frequency:   38.9329164888
  - # 21
    frequency:   69.1200088238

- q-position: [    0.0505051,    0.0000000,    0.0000000 ]
  distance:    0.0163209
  band:
  - # 1
    frequency:    0.1649700728
  - # 2
    frequency:    0.4761453548
  - # 3
    frequency:    0.8204056768
  - # 4
    frequency:    0.8702003500
  - # 5
    frequency:    1.0975506857
  - # 6
    frequency:    2.6280830657
  - # 7
    frequency:    2.8010067113
  - # 8
    frequency:    4.4482311681
  - # 9
    frequency:    5.7136340589
  - # 10
    frequency:    5.9000199139
  - # 11
    frequency:    7.9001928304
  - # 12
    frequency:   10.9587226462
  - # 13
    frequency:   11.2997979962
  - # 14
    frequency:   12.3674092769
  - # 15
    frequency:   13.1965166031
  - # 16
    frequency:   13.1995152751
  - # 17
    frequency:   15.5652828391
  - # 18
    frequency:   17.8235135873
  - # 19
    frequency:   17.8554855400
  - # 20
    frequency:   38.9322017055
  - # 21
    frequency:   69.0997457906

- q-position: [    0.0555556,    0.0000000,    0.0000000 ]
  distance:    0.0179530
  band:
  - # 1
    frequency:    0.1969800712
  - # 2
    frequency:    0.5189804819
  - # 3
    frequency:    0.8577755199
  - # 4
    frequency:    0.8796149169
  - # 5
    frequency:    1.1779357540
  - # 6
    frequency:    2.6354591869
  - # 7
    frequency:    2.8411972117
  - # 8
    frequency:    4.4438391313
  - # 9
    frequency:    5.7139660243
  - # 10
    frequency:    5.9344361993
  - # 11
    frequency:    7.8871264066
  - # 12
    frequency:   10.9502852425
  - # 13
    frequency:   11.3418507689
  - # 14
    frequency:   12.3738687556
  - # 15
    frequency:   13.1895470633
  - # 16
    frequency:   13.1929978090
  - # 17
    frequency:   15.5804979108
  - # 18
    frequency:   17.8237610917
  - # 19
    frequency:   17.8622373945
  - # 20
    frequency:   38.9314168816
  - # 21
    frequency:   69.0775036986

- q-position: [    0.0606061,    0.0000000,    0.0000000 ]
  distance:    0.0195851
  band:
  - # 1
    frequency:    0.2311746225
  - # 2
    frequency:    0.5597989882
  - # 3
    frequency:    0.8896655030
  - # 4
    frequency:    0.8911724891
  - # 5
    frequency:    1.2648959539
  - # 6
    frequency:    2.6436069732
  - # 7
    frequency:    2.8841521822
  - # 8
    frequency:    4.4394285107
  - # 9
    frequency:    5.7143343135
  - # 10
    frequency:    5.9704901523
  - # 11
    frequency:    7.8729471524
  - # 12
    frequency:   10.9411556324
  - # 13
    frequency:   11.3786570157
  - # 14
    frequency:   12.3883868796
  - # 15
    frequency:   13.1819620222
  - # 16
    frequency:   13.1860153002
  - # 17
    frequency:   15.5972669321
  - # 18
    frequency:   17.8240348434
  - # 19
    frequency:   17.8695541916
  - # 20
    frequency:   38.9305635451
  - # 21
    frequency:   69.0533275990

- q-position: [    0.0656566,    0.0000000,    0.0000000 ]
  distance:    0.0212172
  band:
  - # 1
    frequency:    0.2673931309
  - # 2
    frequency:    0.5980813582
  - # 3
    frequency:    0.9053735844
  - # 4
    frequency:    0.9186540874
  - # 5
    frequency:    1.3556894962
  - # 6
    frequency:    2.6525414180
  - # 7
    frequency:    2.9296895238
  - # 8
    frequency:    4.4350630878
  - # 9
    frequency:    5.7147401061
  - # 10
    frequency:    6.0078960909
  - # 11
    frequency:    7.8576847983
  - # 12
    frequency:   10.9313635969
  - # 13
    frequency:   11.4078406114
  - # 14
    frequency:   12.4127389544
  - # 15
    frequency:   13.1737743512
  - # 16
    frequency:   13.1787307349
  - # 17
    frequency:   15.6156377493
  - # 18
    frequency:   17.8243355048
  - # 19
    frequency:   17.8774161121
  - # 20
    frequency:   38.9296433547
  - # 21
    frequency:   69.0272663089

- q-position: [    0.0707071,    0.0000000,    0.0000000 ]
  distance:    0.0228493
  band:
  - # 1
    frequency:    0.3054798734
  - # 2
    frequency:    0.6332664148
  - # 3
    frequency:    0.9227617597
  - # 4
    frequency:    0.9462317725
  - # 5
    frequency:    1.4486630670
  - # 6
    frequency:    2.6622772326
  - # 7
    frequency:    2.9776391449
  - # 8
    frequency:    4.4308033976
  - # 9
    frequency:    5.7151846514
  - # 10
    frequency:    6.0463887833
  - # 11
    frequency:    7.8413701230
  - # 12
    frequency:   10.9209412327
  - # 13
    frequency:   11.4275107065
  - # 14
    frequency:   12.4480885131
  - # 15
    frequency:   13.1649979168
  - # 16
    frequency:   13.1714044889
  - # 17
    frequency:   15.6356690950
  - # 18
    frequency:   17.8246637680
  - # 19
    frequency:   17.8858022353
  - # 20
    frequency:   38.9286580959
  - # 21
    frequency:   68.9993722724

- q-position: [    0.0757576,    0.0000000,    0.0000000 ]
  distance:    0.0244814
  band:
  - # 1
    frequency:    0.3452845216
  - # 2
    frequency:    0.6648470374
  - # 3
    frequency:    0.9438277431
  - # 4
    frequency:    0.9732228546
  - # 5
    frequency:    1.5428303675
  - # 6
    frequency:    2.6728285073
  - # 7
    frequency:    3.0278431523
  - # 8
    frequency:    4.4267076568
  - # 9
    frequency:    5.7156692662
  - # 10
    frequency:    6.0857257315
  - # 11
    frequency:    7.8240349856
  - # 12
    frequency:   10.9099228742
  - # 13
    frequency:   11.4366078013
  - # 14
    frequency:   12.4945841587
  - # 15
    frequency:   13.1556475510
  - # 16
    frequency:   13.1644549054
  - # 17
    frequency:   15.6574313596
  - # 18
    frequency:   17.8250203485
  - # 19
    frequency:   17.8946906825
  - # 20
    frequency:   38.9276096773
  - # 21
    frequency:   68.9697014116

- q-position: [    0.0808081,    0.0000000,    0.0000000 ]
  distance:    0.0261135
  band:
  - # 1
    frequency:    0.3866623481
  - # 2
    frequency:    0.6925084614
  - # 3
    frequency:    0.9688710128
  - # 4
    frequency:    1.0000831493
  - # 5
    frequency:    1.6375746226
  - # 6
    frequency:    2.6842083695
  - # 7
    frequency:    3.0801551628
  - # 8
    frequency:    4.4228329531
  - # 9
    frequency:    5.7161953355
  - # 10
    frequency:    6.1256883090
  - # 11
    frequency:    7.8057124229
  - # 12
    frequency:   10.8983450060
  - # 13
    frequency:   11.4350256120
  - # 14
    frequency:   12.5511314789
  - # 15
    frequency:   13.1457390206
  - # 16
    frequency:   13.1585684626
  - # 17
    frequency:   15.6810070563
  - # 18
    frequency:   17.8254059792
  - # 19
    frequency:   17.9040587666
  - # 20
    frequency:   38.9265001262
  - # 21
    frequency:   68.9383129677

- q-position: [    0.0858586,    0.0000000,    0.0000000 ]
  distance:    0.0277456
  band:
  - # 1
    frequency:    0.4294742022
  - # 2
    frequency:    0.7162443363
  - # 3
    frequency:    0.9978836388
  - # 4
    frequency:    1.0270663884
  - # 5
    frequency:    1.7324823629
  - # 6
    frequency:    2.6964286422
  - # 7
    frequency:    3.1344388825
  - # 8
    frequency:    4.4192366400
  - # 9
    frequency:    5.7167643140
  - # 10
    frequency:    6.1660819294
  - # 11
    frequency:    7.7864368074
  - # 12
    frequency:   10.8862461649
  - # 13
    frequency:   11.4234523570
  - # 14
    frequency:   12.6153516708
  - # 15
    frequency:   13.1352889934
  - # 16
    frequency:   13.1549042568
  - # 17
    frequency:   15.7064908678
  - # 18
    frequency:   17.8258214037
  - # 19
    frequency:   17.9138831469
  - # 20
    frequency:   38.9253315844
  - # 21
    frequency:   68.9052693330

- q-position: [    0.0909091,    0.0000000,    0.0000000 ]
  distance:    0.0293777
  band:
  - # 1
    frequency:    0.4735863197
  - # 2
    frequency:    0.7363698364
  - # 3
    frequency:    1.0305370888
  - # 4
    frequency:    1.0543132628
  - # 5
    frequency:    1.8272545164
  - # 6
    frequency:    2.7094995102
  - # 7
    frequency:    3.1905660808
  - # 8
    frequency:    4.4159779146
  - # 9
    frequency:    5.7173777312
  - # 10
    frequency:    6.2067354243
  - # 11
    frequency:    7.7662440632
  - # 12
    frequency:   10.8736668321
  - # 13
    frequency:   11.4030505566
  - # 14
    frequency:   12.6835364581
  - # 15
    frequency:   13.1243150041
  - # 16
    frequency:   13.1554641446
  - # 17
    frequency:   15.7339891380
  - # 18
    frequency:   17.8262673696
  - # 19
    frequency:   17.9241399881
  - # 20
    frequency:   38.9241063030
  - # 21
    frequency:   68.8706358741

- q-position: [    0.0959596,    0.0000000,    0.0000000 ]
  distance:    0.0310098
  band:
  - # 1
    frequency:    0.5188700108
  - # 2
    frequency:    0.7534195505
  - # 3
    frequency:    1.0662842669
  - # 4
    frequency:    1.0818997369
  - # 5
    frequency:    1.9216582076
  - # 6
    frequency:    2.7234291978
  - # 7
    frequency:    3.2484140471
  - # 8
    frequency:    4.4131196011
  - # 9
    frequency:    5.7180371982
  - # 10
    frequency:    6.2474997992
  - # 11
    frequency:    7.7451719423
  - # 12
    frequency:   10.8606493140
  - # 13
    frequency:   11.3751461460
  - # 14
    frequency:   12.7503966916
  - # 15
    frequency:   13.1128354184
  - # 16
    frequency:   13.1636604119
  - # 17
    frequency:   15.7636186452
  - # 18
    frequency:   17.8267446222
  - # 19
    frequency:   17.9348051221
  - # 20
    frequency:   38.9228266385
  - # 21
    frequency:   68.8344807468

- q-position: [    0.1010101,    0.0000000,    0.0000000 ]
  distance:    0.0326419
  band:
  - # 1
    frequency:    0.5652012534
  - # 2
    frequency:    0.7680019224
  - # 3
    frequency:    1.1045050103
  - # 4
    frequency:    1.1098641325
  - # 5
    frequency:    2.0154997758
  - # 6
    frequency:    2.7382236655
  - # 7
    frequency:    3.3078625784
  - # 8
    frequency:    4.4107301968
  - # 9
    frequency:    5.7187444167
  - # 10
    frequency:    6.2882465172
  - # 11
    frequency:    7.7232603689
  - # 12
    frequency:   10.8472376122
  - # 13
    frequency:   11.3410215018
  - # 14
    frequency:   12.8089204203
  - # 15
    frequency:   13.1008693950
  - # 16
    frequency:   13.1846706869
  - # 17
    frequency:   15.7955044653
  - # 18
    frequency:   17.8272538972
  - # 19
    frequency:   17.9458542105
  - # 20
    frequency:   38.9214950470
  - # 21
    frequency:   68.7968747032

- q-position: [    0.1060606,    0.0000000,    0.0000000 ]
  distance:    0.0342740
  band:
  - # 1
    frequency:    0.6124602060
  - # 2
    frequency:    0.7806874210
  - # 3
    frequency:    1.1382229077
  - # 4
    frequency:    1.1446178602
  - # 5
    frequency:    2.1086091019
  - # 6
    frequency:    2.7538863296
  - # 7
    frequency:    3.3687904871
  - # 8
    frequency:    4.4088862891
  - # 9
    frequency:    5.7195011904
  - # 10
    frequency:    6.3288654339
  - # 11
    frequency:    7.7005518667
  - # 12
    frequency:   10.8334772825
  - # 13
    frequency:   11.3018168808
  - # 14
    frequency:   12.8519620349
  - # 15
    frequency:   13.0884368471
  - # 16
    frequency:   13.2239541281
  - # 17
    frequency:   15.8297767214
  - # 18
    frequency:   17.8277959148
  - # 19
    frequency:   17.9572629067
  - # 20
    frequency:   38.9201140796
  - # 21
    frequency:   68.7578908924

- q-position: [    0.1111111,    0.0000000,    0.0000000 ]
  distance:    0.0359061
  band:
  - # 1
    frequency:    0.6605306408
  - # 2
    frequency:    0.7919553065
  - # 3
    frequency:    1.1669802347
  - # 4
    frequency:    1.1861332384
  - # 5
    frequency:    2.2008301474
  - # 6
    frequency:    2.7704178103
  - # 7
    frequency:    3.4310715508
  - # 8
    frequency:    4.4076755113
  - # 9
    frequency:    5.7203094392
  - # 10
    frequency:    6.3692624747
  - # 11
    frequency:    7.6770920924
  - # 12
    frequency:   10.8194152819
  - # 13
    frequency:   11.2585045899
  - # 14
    frequency:   12.8764260812
  - # 15
    frequency:   13.0755584026
  - # 16
    frequency:   13.2831011274
  - # 17
    frequency:   15.8665660228
  - # 18
    frequency:   17.8283713725
  - # 19
    frequency:   17.9690070160
  - # 20
    frequency:   38.9186863769
  - # 21
    frequency:   68.7176046537

- q-position: [    0.1161616,    0.0000000,    0.0000000 ]
  distance:    0.0375382
  band:
  - # 1
    frequency:    0.7092992922
  - # 2
    frequency:    0.8021841258
  - # 3
    frequency:    1.1961340812
  - # 4
    frequency:    1.2286628935
  - # 5
    frequency:    2.2920150065
  - # 6
    frequency:    2.7878157141
  - # 7
    frequency:    3.4945697332
  - # 8
    frequency:    4.4072002862
  - # 9
    frequency:    5.7211712137
  - # 10
    frequency:    6.4093571122
  - # 11
    frequency:    7.6529305124
  - # 12
    frequency:   10.8050998055
  - # 13
    frequency:   11.2118998951
  - # 14
    frequency:   12.8849663631
  - # 15
    frequency:   13.0622553626
  - # 16
    frequency:   13.3581320260
  - # 17
    frequency:   15.9059974385
  - # 18
    frequency:   17.8289809391
  - # 19
    frequency:   17.9810626502
  - # 20
    frequency:   38.9172146635
  - # 21
    frequency:   68.6760933054

- q-position: [    0.1212121,    0.0000000,    0.0000000 ]
  distance:    0.0391702
  band:
  - # 1
    frequency:    0.7586551056
  - # 2
    frequency:    0.8116634197
  - # 3
    frequency:    1.2256802781
  - # 4
    frequency:    1.2719081311
  - # 5
    frequency:    2.3820199889
  - # 6
    frequency:    2.8060744532
  - # 7
    frequency:    3.5591333775
  - # 8
    frequency:    4.4075827297
  - # 9
    frequency:    5.7220887124
  - # 10
    frequency:    6.4490796605
  - # 11
    frequency:    7.6281212754
  - # 12
    frequency:   10.7905801114
  - # 13
    frequency:   11.1626854359
  - # 14
    frequency:   12.8824041807
  - # 15
    frequency:   13.0485496598
  - # 16
    frequency:   13.4430642849
  - # 17
    frequency:   15.9481829459
  - # 18
    frequency:   17.8296252483
  - # 19
    frequency:   17.9934063759
  - # 20
    frequency:   38.9157017421
  - # 21
    frequency:   68.6334359270

- q-position: [    0.1262626,    0.0000000,    0.0000000 ]
  distance:    0.0408023
  band:
  - # 1
    frequency:    0.8084883673
  - # 2
    frequency:    0.8206115425
  - # 3
    frequency:    1.2556154249
  - # 4
    frequency:    1.3156419252
  - # 5
    frequency:    2.4707028819
  - # 6
    frequency:    2.8251851072
  - # 7
    frequency:    3.6245878879
  - # 8
    frequency:    4.4089712588
  - # 9
    frequency:    5.7230642995
  - # 10
    frequency:    6.4883683611
  - # 11
    frequency:    7.6027243574
  - # 12
    frequency:   10.7759063359
  - # 13
    frequency:   11.1114373886
  - # 14
    frequency:   12.8726091415
  - # 15
    frequency:   13.0344638148
  - # 16
    frequency:   13.5330163426
  - # 17
    frequency:   15.9932124520
  - # 18
    frequency:   17.8303048926
  - # 19
    frequency:   18.0060153512
  - # 20
    frequency:   38.9141504882
  - # 21
    frequency:   68.5897131384

- q-position: [    0.1313131,    0.0000000,    0.0000000 ]
  distance:    0.0424344
  band:
  - # 1
    frequency:    0.8291925771
  - # 2
    frequency:    0.8586896918
  - # 3
    frequency:    1.2859391371
  - # 4
    frequency:    1.3596919273
  - # 5
    frequency:    2.5579208896
  - # 6
    frequency:    2.8451353287
  - # 7
    frequency:    3.6907261455
  - # 8
    frequency:    4.4115497133
  - # 9
    frequency:    5.7241005221
  - # 10
    frequency:    6.5271661800
  - # 11
    frequency:    7.5768070933
  - # 12
    frequency:   10.7611292983
  - # 13
    frequency:   11.0586486049
  - # 14
    frequency:   12.8580172311
  - # 15
    frequency:   13.0200208931
  - # 16
    frequency:   13.6246779455
  - # 17
    frequency:   16.0411437071
  - # 18
    frequency:   17.8310204174
  - # 19
    frequency:   18.0188674494
  - # 20
    frequency:   38.9125638436
  - # 21
    frequency:   68.5450068744

- q-position: [    0.1363636,    0.0000000,    0.0000000 ]
  distance:    0.0440665
  band:
  - # 1
    frequency:    0.8375300961
  - # 2
    frequency:    0.9091488431
  - # 3
    frequency:    1.3166559494
  - # 4
    frequency:    1.4039266197
  - # 5
    frequency:    2.6435289417
  - # 6
    frequency:    2.8659092952
  - # 7
    frequency:    3.7572955289
  - # 8
    frequency:    4.4155501561
  - # 9
    frequency:    5.7252001288
  - # 10
    frequency:    6.5654171708
  - # 11
    frequency:    7.5504462593
  - # 12
    frequency:   10.7463002964
  - # 13
    frequency:   11.0047474350
  - # 14
    frequency:   12.8400758901
  - # 15
    frequency:   13.0052444596
  - # 16
    frequency:   13.7158579407
  - # 17
    frequency:   16.0919916963
  - # 18
    frequency:   17.8317723152
  - # 19
    frequency:   18.0319413632
  - # 20
    frequency:   38.9109448103
  - # 21
    frequency:   68.4994001566

- q-position: [    0.1414141,    0.0000000,    0.0000000 ]
  distance:    0.0456986
  band:
  - # 1
    frequency:    0.8457176208
  - # 2
    frequency:    0.9597533692
  - # 3
    frequency:    1.3477770712
  - # 4
    frequency:    1.4482447611
  - # 5
    frequency:    2.7273781923
  - # 6
    frequency:    2.8874877084
  - # 7
    frequency:    3.8239799460
  - # 8
    frequency:    4.4212709653
  - # 9
    frequency:    5.7263660854
  - # 10
    frequency:    6.6030621645
  - # 11
    frequency:    7.5237309537
  - # 12
    frequency:   10.7314708941
  - # 13
    frequency:   10.9501124077
  - # 14
    frequency:   12.8196583445
  - # 15
    frequency:   12.9901585336
  - # 16
    frequency:   13.8050662909
  - # 17
    frequency:   16.1457183680
  - # 18
    frequency:   17.8325610206
  - # 19
    frequency:   18.0452166843
  - # 20
    frequency:   38.9092964436
  - # 21
    frequency:   68.4529768635

- q-position: [    0.1464646,    0.0000000,    0.0000000 ]
  distance:    0.0473307
  band:
  - # 1
    frequency:    0.8538263252
  - # 2
    frequency:    1.0103870429
  - # 3
    frequency:    1.3793221152
  - # 4
    frequency:    1.4925675781
  - # 5
    frequency:    2.8093146185
  - # 6
    frequency:    2.9098478408
  - # 7
    frequency:    3.8903749306
  - # 8
    frequency:    4.4291021481
  - # 9
    frequency:    5.7276015900
  - # 10
    frequency:    6.6400334158
  - # 11
    frequency:    7.4967666456
  - # 12
    frequency:   10.7166927008
  - # 13
    frequency:   10.8950834206
  - # 14
    frequency:   12.7973138447
  - # 15
    frequency:   12.9747875430
  - # 16
    frequency:   13.8912619778
  - # 17
    frequency:   16.2022237633
  - # 18
    frequency:   17.8333869050
  - # 19
    frequency:   18.0586739519
  - # 20
    frequency:   38.9076218463
  - # 21
    frequency:   68.4058214981

- q-position: [    0.1515152,    0.0000000,    0.0000000 ]
  distance:    0.0489628
  band:
  - # 1
    frequency:    0.8619106378
  - # 2
    frequency:    1.0609281315
  - # 3
    frequency:    1.4113208459
  - # 4
    frequency:    1.5368330483
  - # 5
    frequency:    2.8891777112
  - # 6
    frequency:    2.9329636276
  - # 7
    frequency:    3.9559543452
  - # 8
    frequency:    4.4395592787
  - # 9
    frequency:    5.7289100851
  - # 10
    frequency:    6.6762476398
  - # 11
    frequency:    7.4696809518
  - # 12
    frequency:   10.7020171455
  - # 13
    frequency:   10.8399701630
  - # 14
    frequency:   12.7734056114
  - # 15
    frequency:   12.9591562773
  - # 16
    frequency:   13.9737131852
  - # 17
    frequency:   16.2613396763
  - # 18
    frequency:   17.8342502717
  - # 19
    frequency:   18.0722946611
  - # 20
    frequency:   38.9059241605
  - # 21
    frequency:   68.3580189563
