nqpoint: 300    
npath: 3      
segment_nqpoint:
- 100
- 100
- 100
labels:
- [ 'G', 'M' ]
- [ 'M', 'K' ]
- [ 'K', 'G' ]
reciprocal_lattice:
- [   0.30240991,   0.17459644,   0.00000000 ] # a*
- [   0.00000000,   0.34919289,   0.00000000 ] # b*
- [   0.00000000,   0.00000000,   0.03756036 ] # c*
natom: 8      
lattice:
- [     3.306769919649247,     0.000000000000000,     0.000000000000000 ] # a
- [    -1.653384959824624,     2.863746754875161,     0.000000000000000 ] # b
- [     0.000000000000000,     0.000000000000000,    26.623810460538255 ] # c
points:
- symbol: C # 1
  coordinates: [  0.000000000000000,  0.000000000000000,  0.470080511948363 ]
  mass: 12.010700
- symbol: C # 2
  coordinates: [  0.333332985432215,  0.666666983183674,  0.616680604965629 ]
  mass: 12.010700
- symbol: H # 3
  coordinates: [  0.666666984744047,  0.333332985985145,  0.338043271955372 ]
  mass: 1.007940
- symbol: Hf # 4
  coordinates: [  0.333332985432215,  0.666666983183674,  0.425070292563257 ]
  mass: 178.490000
- symbol: Hf # 5
  coordinates: [  0.666666984744047,  0.333332985985145,  0.515653868777803 ]
  mass: 178.490000
- symbol: N # 6
  coordinates: [  0.333332985432215,  0.666666983183674,  0.569777004366730 ]
  mass: 14.006700
- symbol: O # 7
  coordinates: [  0.333332985432215,  0.666666983183674,  0.661956728044628 ]
  mass: 15.999400
- symbol: O # 8
  coordinates: [  0.666666984744047,  0.333332985985145,  0.375240084959826 ]
  mass: 15.999400

phonon:
- q-position: [    0.0000000,    0.0000000,    0.0000000 ]
  distance:    0.0000000
  band:
  - # 1
    frequency:   -0.0000176166
  - # 2
    frequency:   -0.0000003473
  - # 3
    frequency:    0.0000144781
  - # 4
    frequency:    1.0069321093
  - # 5
    frequency:    1.0069321093
  - # 6
    frequency:    3.7482325315
  - # 7
    frequency:    3.7482325315
  - # 8
    frequency:    5.2926846809
  - # 9
    frequency:    5.9595596369
  - # 10
    frequency:    5.9595596370
  - # 11
    frequency:    7.2910084512
  - # 12
    frequency:    7.2910084512
  - # 13
    frequency:    8.0901297693
  - # 14
    frequency:   12.8414212202
  - # 15
    frequency:   16.2594642941
  - # 16
    frequency:   16.2594642942
  - # 17
    frequency:   17.0798294160
  - # 18
    frequency:   17.0798294160
  - # 19
    frequency:   17.2592545281
  - # 20
    frequency:   19.7756868001
  - # 21
    frequency:   19.7756868001
  - # 22
    frequency:   37.9273364780
  - # 23
    frequency:   68.7777803411
  - # 24
    frequency:  108.9316155006

- q-position: [    0.0050505,    0.0000000,    0.0000000 ]
  distance:    0.0017636
  band:
  - # 1
    frequency:    0.0014265798
  - # 2
    frequency:    0.0569191593
  - # 3
    frequency:    0.0912924936
  - # 4
    frequency:    1.0069326755
  - # 5
    frequency:    1.0086079940
  - # 6
    frequency:    3.7485807337
  - # 7
    frequency:    3.7489908887
  - # 8
    frequency:    5.2923797869
  - # 9
    frequency:    5.9598626955
  - # 10
    frequency:    5.9606283734
  - # 11
    frequency:    7.2911564113
  - # 12
    frequency:    7.2913249026
  - # 13
    frequency:    8.0897534831
  - # 14
    frequency:   12.8406202906
  - # 15
    frequency:   16.2587983364
  - # 16
    frequency:   16.2598117357
  - # 17
    frequency:   17.0798377949
  - # 18
    frequency:   17.0798541478
  - # 19
    frequency:   17.2594337172
  - # 20
    frequency:   19.7756306945
  - # 21
    frequency:   19.7758523024
  - # 22
    frequency:   37.9273503476
  - # 23
    frequency:   68.7766231316
  - # 24
    frequency:  108.9318327471

- q-position: [    0.0101010,    0.0000000,    0.0000000 ]
  distance:    0.0035272
  band:
  - # 1
    frequency:    0.0057052373
  - # 2
    frequency:    0.1137241566
  - # 3
    frequency:    0.1824613437
  - # 4
    frequency:    1.0069451353
  - # 5
    frequency:    1.0136343520
  - # 6
    frequency:    3.7496230671
  - # 7
    frequency:    3.7512606791
  - # 8
    frequency:    5.2914735128
  - # 9
    frequency:    5.9607712488
  - # 10
    frequency:    5.9638237024
  - # 11
    frequency:    7.2915999993
  - # 12
    frequency:    7.2922727199
  - # 13
    frequency:    8.0886253481
  - # 14
    frequency:   12.8382197630
  - # 15
    frequency:   16.2568052633
  - # 16
    frequency:   16.2608533590
  - # 17
    frequency:   17.0798630285
  - # 18
    frequency:   17.0799314155
  - # 19
    frequency:   17.2599674891
  - # 20
    frequency:   19.7754629796
  - # 21
    frequency:   19.7763477740
  - # 22
    frequency:   37.9273919813
  - # 23
    frequency:   68.7731538622
  - # 24
    frequency:  108.9324835130

- q-position: [    0.0151515,    0.0000000,    0.0000000 ]
  distance:    0.0052908
  band:
  - # 1
    frequency:    0.0128048732
  - # 2
    frequency:    0.1702958360
  - # 3
    frequency:    0.2733726393
  - # 4
    frequency:    1.0070025817
  - # 5
    frequency:    1.0220101275
  - # 6
    frequency:    3.7513527329
  - # 7
    frequency:    3.7550261665
  - # 8
    frequency:    5.2899905242
  - # 9
    frequency:    5.9622834309
  - # 10
    frequency:    5.9691135559
  - # 11
    frequency:    7.2923383415
  - # 12
    frequency:    7.2938473092
  - # 13
    frequency:    8.0867475392
  - # 14
    frequency:   12.8342264025
  - # 15
    frequency:   16.2534994800
  - # 16
    frequency:   16.2625870625
  - # 17
    frequency:   17.0799054061
  - # 18
    frequency:   17.0800702109
  - # 19
    frequency:   17.2608446823
  - # 20
    frequency:   19.7751854570
  - # 21
    frequency:   19.7771701041
  - # 22
    frequency:   37.9274614538
  - # 23
    frequency:   68.7673796039
  - # 24
    frequency:  108.9335648822

- q-position: [    0.0202020,    0.0000000,    0.0000000 ]
  distance:    0.0070544
  band:
  - # 1
    frequency:    0.0226800745
  - # 2
    frequency:    0.2265044781
  - # 3
    frequency:    0.3638700701
  - # 4
    frequency:    1.0071629674
  - # 5
    frequency:    1.0337433347
  - # 6
    frequency:    3.7537584688
  - # 7
    frequency:    3.7602614778
  - # 8
    frequency:    5.2879701514
  - # 9
    frequency:    5.9643961365
  - # 10
    frequency:    5.9764463158
  - # 11
    frequency:    7.2933699917
  - # 12
    frequency:    7.2960410727
  - # 13
    frequency:    8.0841236933
  - # 14
    frequency:   12.8286514209
  - # 15
    frequency:   16.2489050100
  - # 16
    frequency:   16.2650093523
  - # 17
    frequency:   17.0799654049
  - # 18
    frequency:   17.0802847970
  - # 19
    frequency:   17.2620474140
  - # 20
    frequency:   19.7748011127
  - # 21
    frequency:   19.7783140885
  - # 22
    frequency:   37.9275588888
  - # 23
    frequency:   68.7593121197
  - # 24
    frequency:  108.9350720084

- q-position: [    0.0252525,    0.0000000,    0.0000000 ]
  distance:    0.0088180
  band:
  - # 1
    frequency:    0.0352704501
  - # 2
    frequency:    0.2822030236
  - # 3
    frequency:    0.4537585644
  - # 4
    frequency:    1.0075136701
  - # 5
    frequency:    1.0488670314
  - # 6
    frequency:    3.7568246506
  - # 7
    frequency:    3.7669311178
  - # 8
    frequency:    5.2854639796
  - # 9
    frequency:    5.9671050288
  - # 10
    frequency:    5.9857532977
  - # 11
    frequency:    7.2946929453
  - # 12
    frequency:    7.2988434950
  - # 13
    frequency:    8.0807589283
  - # 14
    frequency:   12.8215103811
  - # 15
    frequency:   16.2430555119
  - # 16
    frequency:   16.2681153554
  - # 17
    frequency:   17.0800436832
  - # 18
    frequency:   17.0805937202
  - # 19
    frequency:   17.2635520702
  - # 20
    frequency:   19.7743140922
  - # 21
    frequency:   19.7797724035
  - # 22
    frequency:   37.9276844584
  - # 23
    frequency:   68.7489678317
  - # 24
    frequency:  108.9369981355

- q-position: [    0.0303030,    0.0000000,    0.0000000 ]
  distance:    0.0105816
  band:
  - # 1
    frequency:    0.0505032648
  - # 2
    frequency:    0.3372182942
  - # 3
    frequency:    0.5427803203
  - # 4
    frequency:    1.0081786541
  - # 5
    frequency:    1.0674648166
  - # 6
    frequency:    3.7605314341
  - # 7
    frequency:    3.7749906591
  - # 8
    frequency:    5.2825329317
  - # 9
    frequency:    5.9704045488
  - # 10
    frequency:    5.9969517703
  - # 11
    frequency:    7.2963046595
  - # 12
    frequency:    7.3022412635
  - # 13
    frequency:    8.0766598694
  - # 14
    frequency:   12.8128230641
  - # 15
    frequency:   16.2359942917
  - # 16
    frequency:   16.2718988374
  - # 17
    frequency:   17.0801410699
  - # 18
    frequency:   17.0810185971
  - # 19
    frequency:   17.2653305268
  - # 20
    frequency:   19.7737296668
  - # 21
    frequency:   19.7815355700
  - # 22
    frequency:   37.9278383820
  - # 23
    frequency:   68.7363677755
  - # 24
    frequency:  108.9393346267

- q-position: [    0.0353535,    0.0000000,    0.0000000 ]
  distance:    0.0123452
  band:
  - # 1
    frequency:    0.0682961723
  - # 2
    frequency:    0.3913392281
  - # 3
    frequency:    0.6305782402
  - # 4
    frequency:    1.0093290521
  - # 5
    frequency:    1.0897100010
  - # 6
    frequency:    3.7648549323
  - # 7
    frequency:    3.7843875779
  - # 8
    frequency:    5.2792441713
  - # 9
    frequency:    5.9742879292
  - # 10
    frequency:    6.0099481797
  - # 11
    frequency:    7.2982020774
  - # 12
    frequency:    7.3062184190
  - # 13
    frequency:    8.0718346832
  - # 14
    frequency:   12.8026132975
  - # 15
    frequency:   16.2277743012
  - # 16
    frequency:   16.2763522268
  - # 17
    frequency:   17.0802585526
  - # 18
    frequency:   17.0815828048
  - # 19
    frequency:   17.2673514828
  - # 20
    frequency:   19.7730541900
  - # 21
    frequency:   19.7835919134
  - # 22
    frequency:   37.9280209243
  - # 23
    frequency:   68.7215375414
  - # 24
    frequency:  108.9420710011

- q-position: [    0.0404040,    0.0000000,    0.0000000 ]
  distance:    0.0141088
  band:
  - # 1
    frequency:    0.0885597996
  - # 2
    frequency:    0.4443009785
  - # 3
    frequency:    0.7166403391
  - # 4
    frequency:    1.0111982022
  - # 5
    frequency:    1.1159242277
  - # 6
    frequency:    3.7697674286
  - # 7
    frequency:    3.7950622048
  - # 8
    frequency:    5.2756681222
  - # 9
    frequency:    5.9787472101
  - # 10
    frequency:    6.0246412826
  - # 11
    frequency:    7.3003816561
  - # 12
    frequency:    7.3107565368
  - # 13
    frequency:    8.0662931202
  - # 14
    frequency:   12.7909087469
  - # 15
    frequency:   16.2184581151
  - # 16
    frequency:   16.2814666421
  - # 17
    frequency:   17.0803972620
  - # 18
    frequency:   17.0823101967
  - # 19
    frequency:   17.2695817871
  - # 20
    frequency:   19.7722950455
  - # 21
    frequency:   19.7859275193
  - # 22
    frequency:   37.9282323940
  - # 23
    frequency:   68.7045072024
  - # 24
    frequency:  108.9451949783

- q-position: [    0.0454545,    0.0000000,    0.0000000 ]
  distance:    0.0158724
  band:
  - # 1
    frequency:    0.1112000187
  - # 2
    frequency:    0.4957638536
  - # 3
    frequency:    0.8002212197
  - # 4
    frequency:    1.0141020762
  - # 5
    frequency:    1.1466589806
  - # 6
    frequency:    3.7752376208
  - # 7
    frequency:    3.8069487537
  - # 8
    frequency:    5.2718758209
  - # 9
    frequency:    5.9837732592
  - # 10
    frequency:    6.0409249671
  - # 11
    frequency:    7.3028393988
  - # 12
    frequency:    7.3158349333
  - # 13
    frequency:    8.0600465661
  - # 14
    frequency:   12.7777406700
  - # 15
    frequency:   16.2081178772
  - # 16
    frequency:   16.2872319260
  - # 17
    frequency:   17.0805584549
  - # 18
    frequency:   17.0832239358
  - # 19
    frequency:   17.2719876701
  - # 20
    frequency:   19.7714605875
  - # 21
    frequency:   19.7885261912
  - # 22
    frequency:   37.9284731415
  - # 23
    frequency:   68.6853112312
  - # 24
    frequency:  108.9486925311

- q-position: [    0.0505051,    0.0000000,    0.0000000 ]
  distance:    0.0176360
  band:
  - # 1
    frequency:    0.1361198327
  - # 2
    frequency:    0.5452872051
  - # 3
    frequency:    0.8802566219
  - # 4
    frequency:    1.0184649320
  - # 5
    frequency:    1.1827836827
  - # 6
    frequency:    3.7812308936
  - # 7
    frequency:    3.8199763963
  - # 8
    frequency:    5.2679367332
  - # 9
    frequency:    5.9893557935
  - # 10
    frequency:    6.0586906289
  - # 11
    frequency:    7.3055708877
  - # 12
    frequency:    7.3214308972
  - # 13
    frequency:    8.0531081018
  - # 14
    frequency:   12.7631436363
  - # 15
    frequency:   16.1968352108
  - # 16
    frequency:   16.2936366830
  - # 17
    frequency:   17.0807434949
  - # 18
    frequency:   17.0843455130
  - # 19
    frequency:   17.2745358140
  - # 20
    frequency:   19.7705600727
  - # 21
    frequency:   19.7913694121
  - # 22
    frequency:   37.9287435561
  - # 23
    frequency:   68.6639884027
  - # 24
    frequency:  108.9525479447

- q-position: [    0.0555556,    0.0000000,    0.0000000 ]
  distance:    0.0193996
  band:
  - # 1
    frequency:    0.1632208773
  - # 2
    frequency:    0.5923020514
  - # 3
    frequency:    0.9553540056
  - # 4
    frequency:    1.0248463559
  - # 5
    frequency:    1.2254972750
  - # 6
    frequency:    3.7877096168
  - # 7
    frequency:    3.8340703472
  - # 8
    frequency:    5.2639170827
  - # 9
    frequency:    5.9954834062
  - # 10
    frequency:    6.0778290505
  - # 11
    frequency:    7.3085713196
  - # 12
    frequency:    7.3275199396
  - # 13
    frequency:    8.0454925744
  - # 14
    frequency:   12.7471552128
  - # 15
    frequency:   16.1847010883
  - # 16
    frequency:   16.3006683216
  - # 17
    frequency:   17.0809538312
  - # 18
    frequency:   17.0856939793
  - # 19
    frequency:   17.2771942300
  - # 20
    frequency:   19.7696035860
  - # 21
    frequency:   19.7944363144
  - # 22
    frequency:   37.9290440638
  - # 23
    frequency:   68.6405816867
  - # 24
    frequency:  108.9567438837

- q-position: [    0.0606061,    0.0000000,    0.0000000 ]
  distance:    0.0211632
  band:
  - # 1
    frequency:    0.1924045823
  - # 2
    frequency:    0.6360950345
  - # 3
    frequency:    1.0240563777
  - # 4
    frequency:    1.0339570611
  - # 5
    frequency:    1.2760660285
  - # 6
    frequency:    3.7946334635
  - # 7
    frequency:    3.8491529314
  - # 8
    frequency:    5.2598786757
  - # 9
    frequency:    6.0021435958
  - # 10
    frequency:    6.0982317952
  - # 11
    frequency:    7.3118355407
  - # 12
    frequency:    7.3340760608
  - # 13
    frequency:    8.0372166784
  - # 14
    frequency:   12.7298156199
  - # 15
    frequency:   16.1718156586
  - # 16
    frequency:   16.3083131018
  - # 17
    frequency:   17.0811909759
  - # 18
    frequency:   17.0872853968
  - # 19
    frequency:   17.2799329335
  - # 20
    frequency:   19.7686019605
  - # 21
    frequency:   19.7977036621
  - # 22
    frequency:   37.9293751238
  - # 23
    frequency:   68.6151381270
  - # 24
    frequency:  108.9612614661

- q-position: [    0.0656566,    0.0000000,    0.0000000 ]
  distance:    0.0229268
  band:
  - # 1
    frequency:    0.2235730565
  - # 2
    frequency:    0.6758316312
  - # 3
    frequency:    1.0466354914
  - # 4
    frequency:    1.0855131918
  - # 5
    frequency:    1.3351537830
  - # 6
    frequency:    3.8019597472
  - # 7
    frequency:    3.8651446083
  - # 8
    frequency:    5.2558781681
  - # 9
    frequency:    6.0093227990
  - # 10
    frequency:    6.1197921687
  - # 11
    frequency:    7.3153580812
  - # 12
    frequency:    7.3410720273
  - # 13
    frequency:    8.0282990494
  - # 14
    frequency:   12.7111673617
  - # 15
    frequency:   16.1582880302
  - # 16
    frequency:   16.3165561859
  - # 17
    frequency:   17.0814564801
  - # 18
    frequency:   17.0891324930
  - # 19
    frequency:   17.2827244265
  - # 20
    frequency:   19.7675666913
  - # 21
    frequency:   19.8011458483
  - # 22
    frequency:   37.9297372252
  - # 23
    frequency:   68.5877087100
  - # 24
    frequency:  108.9660803432

- q-position: [    0.0707071,    0.0000000,    0.0000000 ]
  distance:    0.0246904
  band:
  - # 1
    frequency:    0.2566297606
  - # 2
    frequency:    0.7106594699
  - # 3
    frequency:    1.0637443595
  - # 4
    frequency:    1.1401129364
  - # 5
    frequency:    1.4021900656
  - # 6
    frequency:    3.8096437705
  - # 7
    frequency:    3.8819649321
  - # 8
    frequency:    5.2519666960
  - # 9
    frequency:    6.0170064272
  - # 10
    frequency:    6.1424058177
  - # 11
    frequency:    7.3191331880
  - # 12
    frequency:    7.3484796554
  - # 13
    frequency:    8.0187603725
  - # 14
    frequency:   12.6912548347
  - # 15
    frequency:   16.1442360097
  - # 16
    frequency:   16.3253816931
  - # 17
    frequency:   17.0817519095
  - # 18
    frequency:   17.0912444877
  - # 19
    frequency:   17.2855440103
  - # 20
    frequency:   19.7665098465
  - # 21
    frequency:   19.8047349121
  - # 22
    frequency:   37.9301308837
  - # 23
    frequency:   68.5583482221
  - # 24
    frequency:  108.9711787861

- q-position: [    0.0757576,    0.0000000,    0.0000000 ]
  distance:    0.0264540
  band:
  - # 1
    frequency:    0.2914800248
  - # 2
    frequency:    0.7399113420
  - # 3
    frequency:    1.0859675089
  - # 4
    frequency:    1.1893069651
  - # 5
    frequency:    1.4755466109
  - # 6
    frequency:    3.8176391848
  - # 7
    frequency:    3.8995334345
  - # 8
    frequency:    5.2481897915
  - # 9
    frequency:    6.0251789064
  - # 10
    frequency:    6.1659710451
  - # 11
    frequency:    7.3231548542
  - # 12
    frequency:    7.3562700938
  - # 13
    frequency:    8.0086235062
  - # 14
    frequency:   12.6701239232
  - # 15
    frequency:   16.1297857948
  - # 16
    frequency:   16.3347727587
  - # 17
    frequency:   17.0820788186
  - # 18
    frequency:   17.0936270597
  - # 19
    frequency:   17.2883699537
  - # 20
    frequency:   19.7654439728
  - # 21
    frequency:   19.8084405772
  - # 22
    frequency:   37.9305566374
  - # 23
    frequency:   68.5271150967
  - # 24
    frequency:  108.9765337783

- q-position: [    0.0808081,    0.0000000,    0.0000000 ]
  distance:    0.0282176
  band:
  - # 1
    frequency:    0.3280314501
  - # 2
    frequency:    0.7633413102
  - # 3
    frequency:    1.1135736824
  - # 4
    frequency:    1.2348174158
  - # 5
    frequency:    1.5533295201
  - # 6
    frequency:    3.8258983544
  - # 7
    frequency:    3.9177704184
  - # 8
    frequency:    5.2445875052
  - # 9
    frequency:    6.0338237210
  - # 10
    frequency:    6.1903889102
  - # 11
    frequency:    7.3274168455
  - # 12
    frequency:    7.3644141009
  - # 13
    frequency:    7.9979136255
  - # 14
    frequency:   12.6478215881
  - # 15
    frequency:   16.1150716186
  - # 16
    frequency:   16.3447115955
  - # 17
    frequency:   17.0824387262
  - # 18
    frequency:   17.0962824161
  - # 19
    frequency:   17.2911835486
  - # 20
    frequency:   19.7643820006
  - # 21
    frequency:   19.8122303150
  - # 22
    frequency:   37.9310150428
  - # 23
    frequency:   68.4940712501
  - # 24
    frequency:  108.9821211129

- q-position: [    0.0858586,    0.0000000,    0.0000000 ]
  distance:    0.0299812
  band:
  - # 1
    frequency:    0.3661942245
  - # 2
    frequency:    0.7812396022
  - # 3
    frequency:    1.1463014928
  - # 4
    frequency:    1.2780607771
  - # 5
    frequency:    1.6339555696
  - # 6
    frequency:    3.8343727223
  - # 7
    frequency:    3.9365976588
  - # 8
    frequency:    5.2411946727
  - # 9
    frequency:    6.0429234605
  - # 10
    frequency:    6.2155631759
  - # 11
    frequency:    7.3319127222
  - # 12
    frequency:    7.3728823073
  - # 13
    frequency:    7.9866583871
  - # 14
    frequency:   12.6243954584
  - # 15
    frequency:   16.1002353427
  - # 16
    frequency:   16.3551795584
  - # 17
    frequency:   17.0828330894
  - # 18
    frequency:   17.0992094319
  - # 19
    frequency:   17.2939690781
  - # 20
    frequency:   19.7633371457
  - # 21
    frequency:   19.8160694331
  - # 22
    frequency:   37.9315066708
  - # 23
    frequency:   68.4592819084
  - # 24
    frequency:  108.9879154955

- q-position: [    0.0909091,    0.0000000,    0.0000000 ]
  distance:    0.0317448
  band:
  - # 1
    frequency:    0.4058813708
  - # 2
    frequency:    0.7943305954
  - # 3
    frequency:    1.1834612788
  - # 4
    frequency:    1.3200161713
  - # 5
    frequency:    1.7162836669
  - # 6
    frequency:    3.8430131749
  - # 7
    frequency:    3.9559390094
  - # 8
    frequency:    5.2380412693
  - # 9
    frequency:    6.0524598701
  - # 10
    frequency:    6.2414001504
  - # 11
    frequency:    7.3366358551
  - # 12
    frequency:    7.3816454574
  - # 13
    frequency:    7.9748881216
  - # 14
    frequency:   12.5998934358
  - # 15
    frequency:   16.0854259922
  - # 16
    frequency:   16.3661572116
  - # 17
    frequency:   17.0832632798
  - # 18
    frequency:   17.1024038303
  - # 19
    frequency:   17.2967137254
  - # 20
    frequency:   19.7623228116
  - # 21
    frequency:   19.8199211915
  - # 22
    frequency:   37.9320321018
  - # 23
    frequency:   68.4228154252
  - # 24
    frequency:  108.9938906512

- q-position: [    0.0959596,    0.0000000,    0.0000000 ]
  distance:    0.0335084
  band:
  - # 1
    frequency:    0.4470089365
  - # 2
    frequency:    0.8035368859
  - # 3
    frequency:    1.2241708379
  - # 4
    frequency:    1.3613080482
  - # 5
    frequency:    1.7995318077
  - # 6
    frequency:    3.8517704005
  - # 7
    frequency:    3.9757209152
  - # 8
    frequency:    5.2351528138
  - # 9
    frequency:    6.0624139041
  - # 10
    frequency:    6.2678084591
  - # 11
    frequency:    7.3415794373
  - # 12
    frequency:    7.3906746196
  - # 13
    frequency:    7.9626360576
  - # 14
    frequency:   12.5743633235
  - # 15
    frequency:   16.0707992269
  - # 16
    frequency:   16.3776243982
  - # 17
    frequency:   17.0837305599
  - # 18
    frequency:   17.1058583812
  - # 19
    frequency:   17.2994074426
  - # 20
    frequency:   19.7613524908
  - # 21
    frequency:   19.8237469451
  - # 22
    frequency:   37.9325919210
  - # 23
    frequency:   68.3847430901
  - # 24
    frequency:  109.0000194363

- q-position: [    0.1010101,    0.0000000,    0.0000000 ]
  distance:    0.0352720
  band:
  - # 1
    frequency:    0.4894961330
  - # 2
    frequency:    0.8097673303
  - # 3
    frequency:    1.2675671366
  - # 4
    frequency:    1.4023202962
  - # 5
    frequency:    1.8831625717
  - # 6
    frequency:    3.8605952395
  - # 7
    frequency:    3.9958728382
  - # 8
    frequency:    5.2325507880
  - # 9
    frequency:    6.0727657828
  - # 10
    frequency:    6.2946987729
  - # 11
    frequency:    7.3467364886
  - # 12
    frequency:    7.3999413562
  - # 13
    frequency:    7.9499385850
  - # 14
    frequency:   12.5478524912
  - # 15
    frequency:   16.0565167399
  - # 16
    frequency:   16.3895603105
  - # 17
    frequency:   17.0842360610
  - # 18
    frequency:   17.1095630990
  - # 19
    frequency:   17.3020428002
  - # 20
    frequency:   19.7604396686
  - # 21
    frequency:   19.8275063146
  - # 22
    frequency:   37.9331867138
  - # 23
    frequency:   68.3451389289
  - # 24
    frequency:  109.0062739524

- q-position: [    0.1060606,    0.0000000,    0.0000000 ]
  distance:    0.0370356
  band:
  - # 1
    frequency:    0.5332654257
  - # 2
    frequency:    0.8138054948
  - # 3
    frequency:    1.3129175529
  - # 4
    frequency:    1.4432837487
  - # 5
    frequency:    1.9667952105
  - # 6
    frequency:    3.8694390235
  - # 7
    frequency:    4.0163276000
  - # 8
    frequency:    5.2302530533
  - # 9
    frequency:    6.0834950518
  - # 10
    frequency:    6.3219835074
  - # 11
    frequency:    7.3520998551
  - # 12
    frequency:    7.4094178410
  - # 13
    frequency:    7.9368355656
  - # 14
    frequency:   12.5204075873
  - # 15
    frequency:   16.0427455752
  - # 16
    frequency:   16.4019435618
  - # 17
    frequency:   17.0847807632
  - # 18
    frequency:   17.1135054260
  - # 19
    frequency:   17.3046148303
  - # 20
    frequency:   19.7595977267
  - # 21
    frequency:   19.8311573823
  - # 22
    frequency:   37.9338170609
  - # 23
    frequency:   68.3040794972
  - # 24
    frequency:  109.0126256650

- q-position: [    0.1111111,    0.0000000,    0.0000000 ]
  distance:    0.0387992
  band:
  - # 1
    frequency:    0.5782425777
  - # 2
    frequency:    0.8162828046
  - # 3
    frequency:    1.3596463461
  - # 4
    frequency:    1.4843335392
  - # 5
    frequency:    2.0501478973
  - # 6
    frequency:    3.8782539009
  - # 7
    frequency:    4.0370216501
  - # 8
    frequency:    5.2282742463
  - # 9
    frequency:    6.0945806440
  - # 10
    frequency:    6.3495765042
  - # 11
    frequency:    7.3576622015
  - # 12
    frequency:    7.4190769096
  - # 13
    frequency:    7.9233707041
  - # 14
    frequency:   12.4920743107
  - # 15
    frequency:   16.0296573560
  - # 16
    frequency:   16.4147522597
  - # 17
    frequency:   17.0853654773
  - # 18
    frequency:   17.1176703941
  - # 19
    frequency:   17.3071208773
  - # 20
    frequency:   19.7588398518
  - # 21
    frequency:   19.8346569125
  - # 22
    frequency:   37.9344835326
  - # 23
    frequency:   68.2616436660
  - # 24
    frequency:  109.0190455240

- q-position: [    0.1161616,    0.0000000,    0.0000000 ]
  distance:    0.0405628
  band:
  - # 1
    frequency:    0.6243566500
  - # 2
    frequency:    0.8176942814
  - # 3
    frequency:    1.4073184585
  - # 4
    frequency:    1.5255448510
  - # 5
    frequency:    2.1330016148
  - # 6
    frequency:    3.8869931456
  - # 7
    frequency:    4.0578952661
  - # 8
    frequency:    5.2266261440
  - # 9
    frequency:    6.1060009437
  - # 10
    frequency:    6.3773926967
  - # 11
    frequency:    7.3634159988
  - # 12
    frequency:    7.4288920287
  - # 13
    frequency:    7.9095919911
  - # 14
    frequency:   12.4628972528
  - # 15
    frequency:   16.0174274167
  - # 16
    frequency:   16.4279640779
  - # 17
    frequency:   17.0859908290
  - # 18
    frequency:   17.1220407577
  - # 19
    frequency:   17.3095604640
  - # 20
    frequency:   19.7581789450
  - # 21
    frequency:   19.8379605951
  - # 22
    frequency:   37.9351866840
  - # 23
    frequency:   68.2179124015
  - # 24
    frequency:  109.0255040858

- q-position: [    0.1212121,    0.0000000,    0.0000000 ]
  distance:    0.0423264
  band:
  - # 1
    frequency:    0.6715399588
  - # 2
    frequency:    0.8184268534
  - # 3
    frequency:    1.4556106542
  - # 4
    frequency:    1.5669549790
  - # 5
    frequency:    2.2151777737
  - # 6
    frequency:    3.8956114496
  - # 7
    frequency:    4.0788926946
  - # 8
    frequency:    5.2253179935
  - # 9
    frequency:    6.1177338528
  - # 10
    frequency:    6.4053477625
  - # 11
    frequency:    7.3693535057
  - # 12
    frequency:    7.4388371612
  - # 13
    frequency:    7.8955522409
  - # 14
    frequency:   12.4329198174
  - # 15
    frequency:   16.0062338338
  - # 16
    frequency:   16.4415563286
  - # 17
    frequency:   17.0866572467
  - # 18
    frequency:   17.1265970954
  - # 19
    frequency:   17.3119351801
  - # 20
    frequency:   19.7576275376
  - # 21
    frequency:   19.8410233075
  - # 22
    frequency:   37.9359270498
  - # 23
    frequency:   68.1729685393
  - # 24
    frequency:  109.0319716381

- q-position: [    0.1262626,    0.0000000,    0.0000000 ]
  distance:    0.0440900
  band:
  - # 1
    frequency:    0.7197279941
  - # 2
    frequency:    0.8187864063
  - # 3
    frequency:    1.5042838250
  - # 4
    frequency:    1.6085770408
  - # 5
    frequency:    2.2965242386
  - # 6
    frequency:    3.9040651947
  - # 7
    frequency:    4.0999622393
  - # 8
    frequency:    5.2243568004
  - # 9
    frequency:    6.1297568579
  - # 10
    frequency:    6.4333577583
  - # 11
    frequency:    7.3754667463
  - # 12
    frequency:    7.4488865037
  - # 13
    frequency:    7.8813097439
  - # 14
    frequency:   12.4021842273
  - # 15
    frequency:   15.9962563527
  - # 16
    frequency:   16.4555060338
  - # 17
    frequency:   17.0873649509
  - # 18
    frequency:   17.1313178825
  - # 19
    frequency:   17.3142485973
  - # 20
    frequency:   19.7571977096
  - # 21
    frequency:   19.8437993947
  - # 22
    frequency:   37.9367051385
  - # 23
    frequency:   68.1268965536
  - # 24
    frequency:  109.0384183248

- q-position: [    0.1313131,    0.0000000,    0.0000000 ]
  distance:    0.0458536
  band:
  - # 1
    frequency:    0.7688593025
  - # 2
    frequency:    0.8190193184
  - # 3
    frequency:    1.5531607138
  - # 4
    frequency:    1.6504086128
  - # 5
    frequency:    2.3769064913
  - # 6
    frequency:    3.9123127052
  - # 7
    frequency:    4.1210563032
  - # 8
    frequency:    5.2237475752
  - # 9
    frequency:    6.1420470987
  - # 10
    frequency:    6.4613387366
  - # 11
    frequency:    7.3817474828
  - # 12
    frequency:    7.4590140628
  - # 13
    frequency:    7.8669290712
  - # 14
    frequency:   12.3707316198
  - # 15
    frequency:   15.9876752120
  - # 16
    frequency:   16.4697899953
  - # 17
    frequency:   17.0881139486
  - # 18
    frequency:   17.1361795347
  - # 19
    frequency:   17.3165062130
  - # 20
    frequency:   19.7569010142
  - # 21
    frequency:   19.8462429620
  - # 22
    frequency:   37.9375214275
  - # 23
    frequency:   68.0797823224
  - # 24
    frequency:  109.0448142719

- q-position: [    0.1363636,    0.0000000,    0.0000000 ]
  distance:    0.0476172
  band:
  - # 1
    frequency:    0.8188753378
  - # 2
    frequency:    0.8193282795
  - # 3
    frequency:    1.6021092611
  - # 4
    frequency:    1.6924372546
  - # 5
    frequency:    2.4562019764
  - # 6
    frequency:    3.9203144790
  - # 7