nqpoint: 300    
npath: 3      
segment_nqpoint:
- 100
- 100
- 100
labels:
- [ 'G', 'M' ]
- [ 'M', 'K' ]
- [ 'K', 'G' ]
reciprocal_lattice:
- [   0.29484663,   0.17022978,   0.00000000 ] # a*
- [   0.00000000,   0.34045956,   0.00000000 ] # b*
- [   0.00000000,   0.00000000,   0.03562161 ] # c*
natom: 9      
lattice:
- [     3.391593815842891,     0.000000000000000,     0.000000000000000 ] # a
- [    -1.695796907921446,     2.937206403810635,     0.000000000000000 ] # b
- [     0.000000000000000,     0.000000000000000,    28.072849712899519 ] # c
points:
- symbol: C # 1
  coordinates: [  0.333332985432215,  0.666666983183674,  0.637079749662871 ]
  mass: 12.010700
- symbol: C # 2
  coordinates: [  0.666666984744047,  0.333332985985145,  0.362920249905357 ]
  mass: 12.010700
- symbol: N # 3
  coordinates: [  0.000000000000000,  0.000000000000000,  0.500000028928721 ]
  mass: 14.006700
- symbol: N # 4
  coordinates: [  0.333332985432215,  0.666666983183674,  0.679405543361546 ]
  mass: 14.006700
- symbol: N # 5
  coordinates: [  0.666666984744047,  0.333332985985145,  0.320594456638454 ]
  mass: 14.006700
- symbol: O # 6
  coordinates: [  0.333332985432215,  0.666666983183674,  0.589439732211699 ]
  mass: 15.999400
- symbol: O # 7
  coordinates: [  0.666666984744047,  0.333332985985145,  0.410560267788301 ]
  mass: 15.999400
- symbol: Zr # 8
  coordinates: [  0.333332985432215,  0.666666983183674,  0.459213157602427 ]
  mass: 91.224000
- symbol: Zr # 9
  coordinates: [  0.666666984744047,  0.333332985985145,  0.540786841965793 ]
  mass: 91.224000

phonon:
- q-position: [    0.0000000,    0.0000000,    0.0000000 ]
  distance:    0.0000000
  band:
  - # 1
    frequency:   -1.1088966793
  - # 2
    frequency:   -1.1088966790
  - # 3
    frequency:   -1.0580721318
  - # 4
    frequency:   -1.0580721317
  - # 5
    frequency:   -0.0000355107
  - # 6
    frequency:   -0.0000007869
  - # 7
    frequency:    0.0000161437
  - # 8
    frequency:    3.9400938286
  - # 9
    frequency:    3.9400938287
  - # 10
    frequency:    5.4551018962
  - # 11
    frequency:    6.3942656810
  - # 12
    frequency:    6.3942656811
  - # 13
    frequency:    7.0532536657
  - # 14
    frequency:    7.0532536657
  - # 15
    frequency:    8.1503816355
  - # 16
    frequency:    9.9930865232
  - # 17
    frequency:   13.9871113454
  - # 18
    frequency:   13.9871113455
  - # 19
    frequency:   14.0547708965
  - # 20
    frequency:   14.1139114953
  - # 21
    frequency:   14.1139114955
  - # 22
    frequency:   16.4413484297
  - # 23
    frequency:   16.4413484299
  - # 24
    frequency:   31.8979538022
  - # 25
    frequency:   31.9545618749
  - # 26
    frequency:   67.8949795531
  - # 27
    frequency:   67.8972305977

- q-position: [    0.0050505,    0.0000000,    0.0000000 ]
  distance:    0.0017195
  band:
  - # 1
    frequency:   -1.1086784006
  - # 2
    frequency:   -1.1063318806
  - # 3
    frequency:   -1.0581047136
  - # 4
    frequency:   -1.0562545473
  - # 5
    frequency:    0.0014879988
  - # 6
    frequency:    0.0575100171
  - # 7
    frequency:    0.0773921027
  - # 8
    frequency:    3.9397004098
  - # 9
    frequency:    3.9402725569
  - # 10
    frequency:    5.4550474732
  - # 11
    frequency:    6.3941764656
  - # 12
    frequency:    6.3947033571
  - # 13
    frequency:    7.0532082159
  - # 14
    frequency:    7.0536553889
  - # 15
    frequency:    8.1501722977
  - # 16
    frequency:    9.9920415947
  - # 17
    frequency:   13.9871679102
  - # 18
    frequency:   13.9873433370
  - # 19
    frequency:   14.0542351672
  - # 20
    frequency:   14.1138712889
  - # 21
    frequency:   14.1142985344
  - # 22
    frequency:   16.4414411632
  - # 23
    frequency:   16.4415237312
  - # 24
    frequency:   31.8974698216
  - # 25
    frequency:   31.9540556356
  - # 26
    frequency:   67.8947184358
  - # 27
    frequency:   67.8969684513

- q-position: [    0.0101010,    0.0000000,    0.0000000 ]
  distance:    0.0034390
  band:
  - # 1
    frequency:   -1.1080299238
  - # 2
    frequency:   -1.0986429560
  - # 3
    frequency:   -1.0581950854
  - # 4
    frequency:   -1.0507692351
  - # 5
    frequency:    0.0059493432
  - # 6
    frequency:    0.1149780066
  - # 7
    frequency:    0.1548927457
  - # 8
    frequency:    3.9385202478
  - # 9
    frequency:    3.9408105077
  - # 10
    frequency:    5.4548854834
  - # 11
    frequency:    6.3939101019
  - # 12
    frequency:    6.3960151031
  - # 13
    frequency:    7.0530708341
  - # 14
    frequency:    7.0548576125
  - # 15
    frequency:    8.1495451806
  - # 16
    frequency:    9.9889087633
  - # 17
    frequency:   13.9873375150
  - # 18
    frequency:   13.9880384095
  - # 19
    frequency:   14.0526651802
  - # 20
    frequency:   14.1137509484
  - # 21
    frequency:   14.1154222991
  - # 22
    frequency:   16.4417185919
  - # 23
    frequency:   16.4420489187
  - # 24
    frequency:   31.8960190905
  - # 25
    frequency:   31.9525381878
  - # 26
    frequency:   67.8939356754
  - # 27
    frequency:   67.8961826059

- q-position: [    0.0151515,    0.0000000,    0.0000000 ]
  distance:    0.0051585
  band:
  - # 1
    frequency:   -1.1069703573
  - # 2
    frequency:   -1.0858543187
  - # 3
    frequency:   -1.0583211214
  - # 4
    frequency:   -1.0415086369
  - # 5
    frequency:    0.0133965773
  - # 6
    frequency:    0.1723618674
  - # 7
    frequency:    0.2326081283
  - # 8
    frequency:    3.9365536329
  - # 9
    frequency:    3.9417129540
  - # 10
    frequency:    5.4546197508
  - # 11
    frequency:    6.3934704149
  - # 12
    frequency:    6.3981970767
  - # 13
    frequency:    7.0528384491
  - # 14
    frequency:    7.0568515190
  - # 15
    frequency:    8.1485029757
  - # 16
    frequency:    9.9836938840
  - # 17
    frequency:   13.9876198918
  - # 18
    frequency:   13.9891937417
  - # 19
    frequency:   14.0501579395
  - # 20
    frequency:   14.1135513100
  - # 21
    frequency:   14.1171854679
  - # 22
    frequency:   16.4421783979
  - # 23
    frequency:   16.4429218437
  - # 24
    frequency:   31.8936052374
  - # 25
    frequency:   31.9500133386
  - # 26
    frequency:   67.8926330443
  - # 27
    frequency:   67.8948748408

- q-position: [    0.0202020,    0.0000000,    0.0000000 ]
  distance:    0.0068780
  band:
  - # 1
    frequency:   -1.1055316732
  - # 2
    frequency:   -1.0680408120
  - # 3
    frequency:   -1.0584458885
  - # 4
    frequency:   -1.0282527295
  - # 5
    frequency:    0.0238485893
  - # 6
    frequency:    0.2296194041
  - # 7
    frequency:    0.3106394370
  - # 8
    frequency:    3.9338010719
  - # 9
    frequency:    3.9429886027
  - # 10
    frequency:    5.4542566031
  - # 11
    frequency:    6.3928637024
  - # 12
    frequency:    6.4012428920
  - # 13
    frequency:    7.0525060256
  - # 14
    frequency:    7.0596224809
  - # 15
    frequency:    8.1470501780
  - # 16
    frequency:    9.9764066933
  - # 17
    frequency:   13.9880145938
  - # 18
    frequency:   13.9908041797
  - # 19
    frequency:   14.0468381451
  - # 20
    frequency:   14.1132737606
  - # 21
    frequency:   14.1194633393
  - # 22
    frequency:   16.4428167115
  - # 23
    frequency:   16.4441389251
  - # 24
    frequency:   31.8902342980
  - # 25
    frequency:   31.9464874190
  - # 26
    frequency:   67.8908134900
  - # 27
    frequency:   67.8930481148

- q-position: [    0.0252525,    0.0000000,    0.0000000 ]
  distance:    0.0085975
  band:
  - # 1
    frequency:   -1.1037589472
  - # 2
    frequency:   -1.0585174577
  - # 3
    frequency:   -1.0454109458
  - # 4
    frequency:   -1.0105746308
  - # 5
    frequency:    0.0373347943
  - # 6
    frequency:    0.2867081553
  - # 7
    frequency:    0.3890796053
  - # 8
    frequency:    3.9302633230
  - # 9
    frequency:    3.9446494727
  - # 10
    frequency:    5.4538048039
  - # 11
    frequency:    6.3920986222
  - # 12
    frequency:    6.4051436458
  - # 13
    frequency:    7.0520666870
  - # 14
    frequency:    7.0631501608
  - # 15
    frequency:    8.1451930989
  - # 16
    frequency:    9.9670607751
  - # 17
    frequency:   13.9885209947
  - # 18
    frequency:   13.9928612436
  - # 19
    frequency:   14.0428297272
  - # 20
    frequency:   14.1129202284
  - # 21
    frequency:   14.1221334017
  - # 22
    frequency:   16.4436281017
  - # 23
    frequency:   16.4456951505
  - # 24
    frequency:   31.8859146968
  - # 25
    frequency:   31.9419692638
  - # 26
    frequency:   67.8884811250
  - # 27
    frequency:   67.8907065561

- q-position: [    0.0303030,    0.0000000,    0.0000000 ]
  distance:    0.0103170
  band:
  - # 1
    frequency:   -1.1017106834
  - # 2
    frequency:   -1.0584685741
  - # 3
    frequency:   -1.0184896315
  - # 4
    frequency:   -0.9876394897
  - # 5
    frequency:    0.0538985667
  - # 6
    frequency:    0.3435851883
  - # 7
    frequency:    0.4680093383
  - # 8
    frequency:    3.9259414458
  - # 9
    frequency:    3.9467107265
  - # 10
    frequency:    5.4532754611
  - # 11
    frequency:    6.3911860403
  - # 12
    frequency:    6.4098879537
  - # 13
    frequency:    7.0515118807
  - # 14
    frequency:    7.0674086504
  - # 15
    frequency:    8.1429398840
  - # 16
    frequency:    9.9556735151
  - # 17
    frequency:   13.9891382885
  - # 18
    frequency:   13.9953507132
  - # 19
    frequency:   14.0382422886
  - # 20
    frequency:   14.1124931698
  - # 21
    frequency:   14.1250914576
  - # 22
    frequency:   16.4446055643
  - # 23
    frequency:   16.4475840768
  - # 24
    frequency:   31.8806572224
  - # 25
    frequency:   31.9364701824
  - # 26
    frequency:   67.8856412127
  - # 27
    frequency:   67.8878554483

- q-position: [    0.0353535,    0.0000000,    0.0000000 ]
  distance:    0.0120364
  band:
  - # 1
    frequency:   -1.0994588928
  - # 2
    frequency:   -1.0582164782
  - # 3
    frequency:   -0.9882852256
  - # 4
    frequency:   -0.9580083992
  - # 5
    frequency:    0.0736023950
  - # 6
    frequency:    0.4002068705
  - # 7
    frequency:    0.5474924375
  - # 8
    frequency:    3.9208368664
  - # 9
    frequency:    3.9491904568
  - # 10
    frequency:    5.4526819120
  - # 11
    frequency:    6.3901388428
  - # 12
    frequency:    6.4154619969
  - # 13
    frequency:    7.0508315820
  - # 14
    frequency:    7.0723666432
  - # 15
    frequency:    8.1403005353
  - # 16
    frequency:    9.9422660430
  - # 17
    frequency:   13.9898654885
  - # 18
    frequency:   13.9982460432
  - # 19
    frequency:   14.0331735498
  - # 20
    frequency:   14.1119955527
  - # 21
    frequency:   14.1282559533
  - # 22
    frequency:   16.4457405096
  - # 23
    frequency:   16.4497978314
  - # 24
    frequency:   31.8744749950
  - # 25
    frequency:   31.9300039224
  - # 26
    frequency:   67.8823001499
  - # 27
    frequency:   67.8845012125

- q-position: [    0.0404040,    0.0000000,    0.0000000 ]
  distance:    0.0137559
  band:
  - # 1
    frequency:   -1.0970879821
  - # 2
    frequency:   -1.0576638095
  - # 3
    frequency:   -0.9557030801
  - # 4
    frequency:   -0.9201793037
  - # 5
    frequency:    0.0965354794
  - # 6
    frequency:    0.4565286666
  - # 7
    frequency:    0.6275707112
  - # 8
    frequency:    3.9149514592
  - # 9
    frequency:    3.9521094315
  - # 10
    frequency:    5.4520395897
  - # 11
    frequency:    6.3889717206
  - # 12
    frequency:    6.4218495777
  - # 13
    frequency:    7.0500145288
  - # 14
    frequency:    7.0779876399
  - # 15
    frequency:    8.1372869357
  - # 16
    frequency:    9.9268631627
  - # 17
    frequency:   13.9907014259
  - # 18
    frequency:   14.0014864928
  - # 19
    frequency:   14.0277333778
  - # 20
    frequency:   14.1114308372
  - # 21
    frequency:   14.1315660416
  - # 22
    frequency:   16.4470227499
  - # 23
    frequency:   16.4523271135
  - # 24
    frequency:   31.8673834270
  - # 25
    frequency:   31.9225866247
  - # 26
    frequency:   67.8784654452
  - # 27
    frequency:   67.8806513856

- q-position: [    0.0454545,    0.0000000,    0.0000000 ]
  distance:    0.0154754
  band:
  - # 1
    frequency:   -1.0946906201
  - # 2
    frequency:   -1.0567024418
  - # 3
    frequency:   -0.9204608428
  - # 4
    frequency:   -0.8735993232
  - # 5
    frequency:    0.1228248513
  - # 6
    frequency:    0.5125050135
  - # 7
    frequency:    0.7082590391
  - # 8
    frequency:    3.9082876470
  - # 9
    frequency:    3.9554907974
  - # 10
    frequency:    5.4513658724
  - # 11
    frequency:    6.3877009308
  - # 12
    frequency:    6.4290321852
  - # 13
    frequency:    7.0490484814
  - # 14
    frequency:    7.0842301818
  - # 15
    frequency:    8.1339128762
  - # 16
    frequency:    9.9094932737
  - # 17
    frequency:   13.9916447487
  - # 18
    frequency:   14.0048782378
  - # 19
    frequency:   14.0221469276
  - # 20
    frequency:   14.1108029522
  - # 21
    frequency:   14.1349775797
  - # 22
    frequency:   16.4484404907
  - # 23
    frequency:   16.4551611957
  - # 24
    frequency:   31.8594001770
  - # 25
    frequency:   31.9142367709
  - # 26
    frequency:   67.8741456934
  - # 27
    frequency:   67.8763145948

- q-position: [    0.0505051,    0.0000000,    0.0000000 ]
  distance:    0.0171949
  band:
  - # 1
    frequency:   -1.0923582676
  - # 2
    frequency:   -1.0552226003
  - # 3
    frequency:   -0.8815501007
  - # 4
    frequency:   -0.8180838622
  - # 5
    frequency:    0.1526515492
  - # 6
    frequency:    0.5680893062
  - # 7
    frequency:    0.7895413927
  - # 8
    frequency:    3.9008485194
  - # 9
    frequency:    3.9593597482
  - # 10
    frequency:    5.4506799208
  - # 11
    frequency:    6.3863440420
  - # 12
    frequency:    6.4369890679
  - # 13
    frequency:    7.0479204992
  - # 14
    frequency:    7.0910481094
  - # 15
    frequency:    8.1301940837
  - # 16
    frequency:    9.8901882817
  - # 17
    frequency:   13.9926939187
  - # 18
    frequency:   14.0074159823
  - # 19
    frequency:   14.0174373003
  - # 20
    frequency:   14.1101162707
  - # 21
    frequency:   14.1384591306
  - # 22
    frequency:   16.4499803259
  - # 23
    frequency:   16.4582879258
  - # 24
    frequency:   31.8505450965
  - # 25
    frequency:   31.9049751235
  - # 26
    frequency:   67.8693505471
  - # 27
    frequency:   67.8715005287

- q-position: [    0.0555556,    0.0000000,    0.0000000 ]
  distance:    0.0189144
  band:
  - # 1
    frequency:   -1.0901656326
  - # 2
    frequency:   -1.0531280449
  - # 3
    frequency:   -0.8380542532
  - # 4
    frequency:   -0.7527889189
  - # 5
    frequency:    0.1862738257
  - # 6
    frequency:    0.6232340038
  - # 7
    frequency:    0.8713686908
  - # 8
    frequency:    3.8926379711
  - # 9
    frequency:    3.9637431581
  - # 10
    frequency:    5.4500025051
  - # 11
    frequency:    6.3849196715
  - # 12
    frequency:    6.4456973153
  - # 13
    frequency:    7.0466172265
  - # 14
    frequency:    7.0983908419
  - # 15
    frequency:    8.1261482468
  - # 16
    frequency:    9.8689835017
  - # 17
    frequency:   13.9938472089
  - # 18
    frequency:   14.0052402578
  - # 19
    frequency:   14.0174718196
  - # 20
    frequency:   14.1093755820
  - # 21
    frequency:   14.1419886774
  - # 22
    frequency:   16.4516272401
  - # 23
    frequency:   16.4616937289
  - # 24
    frequency:   31.8408401700
  - # 25
    frequency:   31.8948246583
  - # 26
    frequency:   67.8640906841
  - # 27
    frequency:   67.8662199044

- q-position: [    0.0606061,    0.0000000,    0.0000000 ]
  distance:    0.0206339
  band:
  - # 1
    frequency:   -1.0881530872
  - # 2
    frequency:   -1.0503533254
  - # 3
    frequency:   -0.7892324405
  - # 4
    frequency:   -0.6757166816
  - # 5
    frequency:    0.2240592154
  - # 6
    frequency:    0.6778908471
  - # 7
    frequency:    0.9536591874
  - # 8
    frequency:    3.8836608631
  - # 9
    frequency:    3.9686691852
  - # 10
    frequency:    5.4493558281
  - # 11
    frequency:    6.3834472192
  - # 12
    frequency:    6.4551319462
  - # 13
    frequency:    7.0451251817
  - # 14
    frequency:    7.1062036755
  - # 15
    frequency:    8.1217950387
  - # 16
    frequency:    9.8459175537
  - # 17
    frequency:   13.9951026993
  - # 18
    frequency:   13.9991023324
  - # 19
    frequency:   14.0214999065
  - # 20
    frequency:   14.1085860629
  - # 21
    frequency:   14.1455511378
  - # 22
    frequency:   16.4533646196
  - # 23
    frequency:   16.4653636102
  - # 24
    frequency:   31.8303094485
  - # 25
    frequency:   31.8838104897
  - # 26
    frequency:   67.8583777715
  - # 27
    frequency:   67.8604844320

- q-position: [    0.0656566,    0.0000000,    0.0000000 ]
  distance:    0.0223534
  band:
  - # 1
    frequency:   -1.0863158673
  - # 2
    frequency:   -1.0468743165
  - # 3
    frequency:   -0.7344178122
  - # 4
    frequency:   -0.5828725122
  - # 5
    frequency:    0.2665247844
  - # 6
    frequency:    0.7320111609
  - # 7
    frequency:    1.0363016500
  - # 8
    frequency:    3.8739232055
  - # 9
    frequency:    3.9741668476
  - # 10
    frequency:    5.4487633451
  - # 11
    frequency:    6.3819466039
  - # 12
    frequency:    6.4652660034
  - # 13
    frequency:    7.0434310415
  - # 14
    frequency:    7.1144280961
  - # 15
    frequency:    8.1171561340
  - # 16
    frequency:    9.8210322519
  - # 17
    frequency:   13.9918352048
  - # 18
    frequency:   13.9964582717
  - # 19
    frequency:   14.0266841969
  - # 20
    frequency:   14.1077532474
  - # 21
    frequency:   14.1491365559
  - # 22
    frequency:   16.4551742753
  - # 23
    frequency:   16.4692811589
  - # 24
    frequency:   31.8189789763
  - # 25
    frequency:   31.8719597892
  - # 26
    frequency:   67.8522244275
  - # 27
    frequency:   67.8543067754

- q-position: [    0.0707071,    0.0000000,    0.0000000 ]
  distance:    0.0240729
  band:
  - # 1
    frequency:   -1.0846068317
  - # 2
    frequency:   -1.0427052727
  - # 3
    frequency:   -0.6729705283
  - # 4
    frequency:   -0.4655047985
  - # 5
    frequency:    0.3143753126
  - # 6
    frequency:    0.7855462079
  - # 7
    frequency:    1.1191610034
  - # 8
    frequency:    3.8634323643
  - # 9
    frequency:    3.9802655750
  - # 10
    frequency:    5.4482495876
  - # 11
    frequency:    6.3804380084
  - # 12
    frequency:    6.4760706538
  - # 13
    frequency:    7.0415219149
  - # 14
    frequency:    7.1230021057
  - # 15
    frequency:    8.1122552146
  - # 16
    frequency:    9.7943724884
  - # 17
    frequency:   13.9840000138
  - # 18
    frequency:   13.9979116037
  - # 19
    frequency:   14.0324557284
  - # 20
    frequency:   14.1068829952
  - # 21
    frequency:   14.1527388068
  - # 22
    frequency:   16.4570364778
  - # 23
    frequency:   16.4734285518
  - # 24
    frequency:   31.8068767118
  - # 25
    frequency:   31.8593016975
  - # 26
    frequency:   67.8456441792
  - # 27
    frequency:   67.8477005103

- q-position: [    0.0757576,    0.0000000,    0.0000000 ]
  distance:    0.0257924
  band:
  - # 1
    frequency:   -1.0829504759
  - # 2
    frequency:   -1.0378847074
  - # 3
    frequency:   -0.6042784345
  - # 4
    frequency:   -0.2964663768
  - # 5
    frequency:    0.3685050366
  - # 6
    frequency:    0.8384475617
  - # 7
    frequency:    1.2020855865
  - # 8
    frequency:    3.8521972937
  - # 9
    frequency:    3.9869947400
  - # 10
    frequency:    5.4478399906
  - # 11
    frequency:    6.3789416365
  - # 12
    frequency:    6.4875152940
  - # 13
    frequency:    7.0393856015
  - # 14
    frequency:    7.1318605600
  - # 15
    frequency:    8.1071179625
  - # 16
    frequency:    9.7659861133
  - # 17
    frequency:   13.9757203167
  - # 18
    frequency:   13.9994601599
  - # 19
    frequency:   14.0386808803
  - # 20
    frequency:   14.1059814613
  - # 21
    frequency:   14.1563546720
  - # 22
    frequency:   16.4589300071
  - # 23
    frequency:   16.4777865600
  - # 24
    frequency:   31.7940324416
  - # 25
    frequency:   31.8458672298
  - # 26
    frequency:   67.8386514176
  - # 27
    frequency:   67.8406800790

- q-position: [    0.0808081,    0.0000000,    0.0000000 ]
  distance:    0.0275119
  band:
  - # 1
    frequency:   -1.0812594546
  - # 2
    frequency:   -1.0324588311
  - # 3
    frequency:   -0.5276966844
  - # 4
    frequency:    0.2150176033
  - # 5
    frequency:    0.4299071066
  - # 6
    frequency:    0.8906674712
  - # 7
    frequency:    1.2849149053
  - # 8
    frequency:    3.8402287933
  - # 9
    frequency:    3.9943831719
  - # 10
    frequency:    5.4475607295
  - # 11
    frequency:    6.3774774852
  - # 12
    frequency:    6.4995676598
  - # 13
    frequency:    7.0370108296
  - # 14
    frequency:    7.1409355188
  - # 15
    frequency:    8.1017720338
  - # 16
    frequency:    9.7359238102
  - # 17
    frequency:   13.9670370280
  - # 18
    frequency:   14.0011011820
  - # 19
    frequency:   14.0453073792
  - # 20
    frequency:   14.1050550649
  - # 21
    frequency:   14.1599831750
  - # 22
    frequency:   16.4608322193
  - # 23
    frequency:   16.4823345560
  - # 24
    frequency:   31.7804776893
  - # 25
    frequency:   31.8316891752
  - # 26
    frequency:   67.8312613512
  - # 27
    frequency:   67.8332607435

- q-position: [    0.0858586,    0.0000000,    0.0000000 ]
  distance:    0.0292314
  band:
  - # 1
    frequency:   -1.0794466990
  - # 2
    frequency:   -1.0264694464
  - # 3
    frequency:   -0.4420263922
  - # 4
    frequency:    0.4296813548
  - # 5
    frequency:    0.4997500552
  - # 6
    frequency:    0.9421591976
  - # 7
    frequency:    1.3674868198
  - # 8
    frequency:    3.8275397904
  - # 9
    frequency:    4.0024586547
  - # 10
    frequency:    5.4474385671
  - # 11
    frequency:    6.3760651352
  - # 12
    frequency:    6.5121939395
  - # 13
    frequency:    7.0343874705
  - # 14
    frequency:    7.1501566082
  - # 15
    frequency:    8.0962470066
  - # 16
    frequency:    9.7042389691
  - # 17
    frequency:   13.9579680695
  - # 18
    frequency:   14.0028316764
  - # 19
    frequency:   14.0523053961
  - # 20
    frequency:   14.1041104608
  - # 21
    frequency:   14.1636250970
  - # 22
    frequency:   16.4627191291
  - # 23
    frequency:   16.4870505239
  - # 24
    frequency:   31.7662456177
  - # 25
    frequency:   31.8168019912
  - # 26
    frequency:   67.8234899555
  - # 27
    frequency:   67.8254585349

- q-position: [    0.0909091,    0.0000000,    0.0000000 ]
  distance:    0.0309509
  band:
  - # 1
    frequency:   -1.0774315305
  - # 2
    frequency:   -1.0199478758
  - # 3
    frequency:   -0.3432650071
  - # 4
    frequency:    0.5618045880
  - # 5
    frequency:    0.5868917593
  - # 6
    frequency:    0.9928773115
  - # 7
    frequency:    1.4496434122
  - # 8
    frequency:    3.8141456489
  - # 9
    frequency:    4.0112474144
  - # 10
    frequency:    5.4475007147
  - # 11
    frequency:    6.3747235615
  - # 12
    frequency:    6.5253588905
  - # 13
    frequency:    7.0315067255
  - # 14
    frequency:    7.1594513980
  - # 15
    frequency:    8.0905742985
  - # 16
    frequency:    9.6709875579
  - # 17
    frequency:   13.9485235628
  - # 18
    frequency:   14.0046483991
  - # 19
    frequency:   14.0596529547
  - # 20
    frequency:   14.1031545120
  - # 21
    frequency:   14.1672826167
  - # 22
    frequency:   16.4645655106
  - # 23
    frequency:   16.4919110723
  - # 24
    frequency:   31.7513709266
  - # 25
    frequency:   31.8012416918
  - # 26
    frequency:   67.8153539213
  - # 27
    frequency:   67.8172902014

- q-position: [    0.0959596,    0.0000000,    0.0000000 ]
  distance:    0.0326704
  band:
  - # 1
    frequency:   -1.0751413959
  - # 2
    frequency:   -1.0129132796
  - # 3
    frequency:   -0.2144776141
  - # 4
    frequency:    0.6491066937
  - # 5
    frequency:    0.6980766816
  - # 6
    frequency:    1.0427779458
  - # 7
    frequency:    1.5312352023
  - # 8
    frequency:    3.8000645007
  - # 9
    frequency:    4.0207735970
  - # 10
    frequency:    5.4477747066
  - # 11
    frequency:    6.3734709638
  - # 12
    frequency:    6.5390259587
  - # 13
    frequency:    7.0283612844
  - # 14
    frequency:    7.1687457992
  - # 15
    frequency:    8.0847870429
  - # 16
    frequency:    9.6362279917
  - # 17
    frequency:   13.9387110403
  - # 18
    frequency:   14.0065478369
  - # 19
    frequency:   14.0673312110
  - # 20
    frequency:   14.1021942658
  - # 21
    frequency:   14.1709590343
  - # 22
    frequency:   16.4663450159
  - # 23
    frequency:   16.4968914504
  - # 24
    frequency:   31.7358897438
  - # 25
    frequency:   31.7850457315
  - # 26
    frequency:   67.8068706009
  - # 27
    frequency:   67.8087731544

- q-position: [    0.1010101,    0.0000000,    0.0000000 ]
  distance:    0.0343899
  band:
  - # 1
    frequency:   -1.0725113225
  - # 2
    frequency:   -1.0053732439
  - # 3
    frequency:    0.1474079037
  - # 4
    frequency:    0.7324963879
  - # 5
    frequency:    0.8014309832
  - # 6
    frequency:    1.0918190066
  - # 7
    frequency:    1.6121237328
  - # 8
    frequency:    3.7853176007
  - # 9
    frequency:    4.0310587415
  - # 10
    frequency:    5.4482882918
  - # 11
    frequency:    6.3723246196
  - # 12
    frequency:    6.5531574006
  - # 13
    frequency:    7.0249454536
  - # 14
    frequency:    7.1779644842
  - # 15
    frequency:    8.0789199181
  - # 16
    frequency:    9.6000210015
  - # 17
    frequency:   13.9285376652
  - # 18
    frequency:   14.0085261857
  - # 19
    frequency:   14.0753226379
  - # 20
    frequency:   14.1012369338
  - # 21
    frequency:   14.1746585526
  - # 22
    frequency:   16.4680303111
  - # 23
    frequency:   16.5019655696
  - # 24
    frequency:   31.7198395130
  - # 25
    frequency:   31.7682528844
  - # 26
    frequency:   67.7980579519
  - # 27
    frequency:   67.7999254121

- q-position: [    0.1060606,    0.0000000,    0.0000000 ]
  distance:    0.0361093
  band:
  - # 1
    frequency:   -1.0694825247
  - # 2
    frequency:   -0.9973251936
  - # 3
    frequency:    0.2964921536
  - # 4
    frequency:    0.8154771264
  - # 5
    frequency:    0.8963436367
  - # 6
    frequency:    1.1399603456
  - # 7
    frequency:    1.6921827916
  - # 8
    frequency:    3.7699297013
  - # 9
    frequency:    4.0421212500
  - # 10
    frequency:    5.4490693408
  - # 11
    frequency:    6.3713007565
  - # 12
    frequency:    6.5677144075
  - # 13
    frequency:    7.0212552536
  - # 14
    frequency:    7.1870313388
  - # 15
    frequency:    8.0730089172
  - # 16
    frequency:    9.5624295033
  - # 17
    frequency:   13.9180113497
  - # 18
    frequency:   14.0105793235
  - # 19
    frequency:   14.0836102423
  - # 20
    frequency:   14.1002898763
  - # 21
    frequency:   14.1783860977
  - # 22
    frequency:   16.4695932289
  - # 23
    frequency:   16.5071060289
  - # 24
    frequency:   31.7032588753
  - # 25
    frequency:   31.7509031198
  - # 26
    frequency:   67.7889344806
  - # 27
    frequency:   67.7907655423

- q-position: [    0.1111111,    0.0000000,    0.0000000 ]
  distance:    0.0378288
  band:
  - # 1
    frequency:   -1.0660008850
  - # 2
    frequency:   -0.9887578910
  - # 3
    frequency:    0.3937657769
  - # 4
    frequency:    0.8972348838
  - # 5
    frequency:    0.9849928362
  - # 6
    frequency:    1.1871639019
  - # 7
    frequency:    1.7712986326
  - # 8
    frequency:    3.7539294420
  - # 9
    frequency:    4.0539758605
  - # 10
    frequency:    5.4501457694
  - # 11
    frequency:    6.3704144463
  - # 12
    frequency:    6.5826572329
  - # 13
    frequency:    7.0172884838
  - # 14
    frequency:    7.1958699500
  - # 15
    frequency:    8.0670910508
  - # 16
    frequency:    9.5235184679
  - # 17
    frequency:   13.9071413911
  - # 18
    frequency:   14.0127027793
  - # 19
    frequency:   14.0921772052
  - # 20
    frequency:   14.0993605935
  - # 21
    frequency:   14.1821471649
  - # 22
    frequency:   16.4710049377
  - # 23
    frequency:   16.5122841474
  - # 24
    frequency:   31.6861875473
  - # 25
    frequency:   31.7330374733
  - # 26
    frequency:   67.7795191824
  - # 27
    frequency:   67.7813126033

- q-position: [    0.1161616,    0.0000000,    0.0000000 ]
  distance:    0.0395483
  band:
  - # 1
    frequency:   -1.0620155973
  - # 2
    frequency:   -0.9796527234
  - # 3
    frequency:    0.4745758407
  - # 4
    frequency:    0.9772285318
  - # 5
    frequency:    1.0688936727
  - # 6
    frequency:    1.2333938219
  - # 7
    frequency:    1.8493695561
  - # 8
    frequency:    3.7373497504
  - # 9
    frequency:    4.0666331255
  - # 10
    frequency:    5.4515454781
  - # 11
    frequency:    6.3696795183
  - # 12
    frequency:    6.5979453211
  - # 13
    frequency:    7.0130447589
  - # 14
    frequency:    7.2044041398
  - # 15
    frequency:    8.0612039713
  - # 16
    frequency:    9.4833547926
  - # 17
    frequency:   13.8959388649
  - # 18
    frequency:   14.0148916952
  - # 19
    frequency:   14.0984567232
  - # 20
    frequency:   14.1010067126
  - # 21
    frequency:   14.1859476837
  - # 22
    frequency:   16.4722361246
  - # 23
    frequency:   16.5174700032
  - # 24
    frequency:   31.6686661952
  - # 25
    frequency:   31.7146979156
  - # 26
    frequency:   67.7698314828
  - # 27
    frequency:   67.7715860842

- q-position: [    0.1212121,    0.0000000,    0.0000000 ]
  distance:    0.0412678
  band:
  - # 1
    frequency:   -1.0574780409
  - # 2
    frequency:   -0.9699846975
  - # 3
    frequency:    0.5477189811
  - # 4
    frequency:    1.0552519271
  - # 5
    frequency:    1.1490799318
  - # 6
    frequency:    1.2786165651
  - # 7
    frequency:    1.9263051474
  - # 8
    frequency:    3.7202282473
  - # 9
    frequency:    4.0800989036
  - # 10
    frequency:    5.4532963058