nqpoint: 300    
npath: 3      
segment_nqpoint:
- 100
- 100
- 100
labels:
- [ 'G', 'M' ]
- [ 'M', 'K' ]
- [ 'K', 'G' ]
reciprocal_lattice:
- [   0.30945039,   0.17866127,   0.00000000 ] # a*
- [   0.00000000,   0.35732253,   0.00000000 ] # b*
- [   0.00000000,   0.00000000,   0.03960701 ] # c*
natom: 7      
lattice:
- [     3.231535756403654,     0.000000000000000,     0.000000000000000 ] # a
- [    -1.615767878201827,     2.798592058282120,     0.000000000000000 ] # b
- [     0.000000000000000,     0.000000000000000,    25.248052702173883 ] # c
points:
- symbol: C # 1
  coordinates: [  0.000000000000000,  0.000000000000000,  0.551199170538838 ]
  mass: 12.010700
- symbol: C # 2
  coordinates: [  0.666666984744048,  0.333332985985145,  0.403539275872448 ]
  mass: 12.010700
- symbol: F # 3
  coordinates: [  0.333332985432215,  0.666666983183674,  0.643536865747072 ]
  mass: 18.998403
- symbol: N # 4
  coordinates: [  0.666666984744048,  0.333332985985145,  0.356463134252928 ]
  mass: 14.006700
- symbol: O # 5
  coordinates: [  0.666666984744048,  0.333332985985145,  0.456439012033620 ]
  mass: 15.999400
- symbol: Ti # 6
  coordinates: [  0.333332985432215,  0.666666983183674,  0.507434475298138 ]
  mass: 47.867000
- symbol: Ti # 7
  coordinates: [  0.666666984744048,  0.333332985985145,  0.594979160292174 ]
  mass: 47.867000

phonon:
- q-position: [    0.0000000,    0.0000000,    0.0000000 ]
  distance:    0.0000000
  band:
  - # 1
    frequency:   -0.0000076586
  - # 2
    frequency:   -0.0000005958
  - # 3
    frequency:    0.0000061339
  - # 4
    frequency:    1.7946281840
  - # 5
    frequency:    1.7946281840
  - # 6
    frequency:    5.0395280162
  - # 7
    frequency:    5.0395280162
  - # 8
    frequency:    5.8273070012
  - # 9
    frequency:    5.8273070012
  - # 10
    frequency:    6.7500382691
  - # 11
    frequency:    6.8131404453
  - # 12
    frequency:    6.8131404453
  - # 13
    frequency:   10.9066540017
  - # 14
    frequency:   13.4380501502
  - # 15
    frequency:   14.2298695717
  - # 16
    frequency:   14.2298695717
  - # 17
    frequency:   17.7315760559
  - # 18
    frequency:   17.7769348981
  - # 19
    frequency:   17.7769348981
  - # 20
    frequency:   31.5957899899
  - # 21
    frequency:   67.3441201238

- q-position: [    0.0050505,    0.0000000,    0.0000000 ]
  distance:    0.0018047
  band:
  - # 1
    frequency:    0.0021021222
  - # 2
    frequency:    0.0690631243
  - # 3
    frequency:    0.1153701179
  - # 4
    frequency:    1.7949776358
  - # 5
    frequency:    1.7965891550
  - # 6
    frequency:    5.0394183687
  - # 7
    frequency:    5.0399214098
  - # 8
    frequency:    5.8272416150
  - # 9
    frequency:    5.8282176012
  - # 10
    frequency:    6.7423970313
  - # 11
    frequency:    6.8132060350
  - # 12
    frequency:    6.8214930547
  - # 13
    frequency:   10.9062741321
  - # 14
    frequency:   13.4368953431
  - # 15
    frequency:   14.2299273558
  - # 16
    frequency:   14.2301712536
  - # 17
    frequency:   17.7309515159
  - # 18
    frequency:   17.7761351837
  - # 19
    frequency:   17.7772106835
  - # 20
    frequency:   31.5954701360
  - # 21
    frequency:   67.3439704863

- q-position: [    0.0101010,    0.0000000,    0.0000000 ]
  distance:    0.0036093
  band:
  - # 1
    frequency:    0.0084060858
  - # 2
    frequency:    0.1381010643
  - # 3
    frequency:    0.2306450817
  - # 4
    frequency:    1.7960294578
  - # 5
    frequency:    1.8024641856
  - # 6
    frequency:    5.0390905017
  - # 7
    frequency:    5.0411004367
  - # 8
    frequency:    5.8270454628
  - # 9
    frequency:    5.8309415441
  - # 10
    frequency:    6.7258713598
  - # 11
    frequency:    6.8134017943
  - # 12
    frequency:    6.8401540200
  - # 13
    frequency:   10.9051346853
  - # 14
    frequency:   13.4334336534
  - # 15
    frequency:   14.2301006454
  - # 16
    frequency:   14.2310748276
  - # 17
    frequency:   17.7291042388
  - # 18
    frequency:   17.7737391319
  - # 19
    frequency:   17.7780103272
  - # 20
    frequency:   31.5945112734
  - # 21
    frequency:   67.3435218414

- q-position: [    0.0151515,    0.0000000,    0.0000000 ]
  distance:    0.0054140
  band:
  - # 1
    frequency:    0.0188625569
  - # 2
    frequency:    0.2070873651
  - # 3
    frequency:    0.3457254169
  - # 4
    frequency:    1.7977941414
  - # 5
    frequency:    1.8122310022
  - # 6
    frequency:    5.0385476226
  - # 7
    frequency:    5.0430615746
  - # 8
    frequency:    5.8267185758
  - # 9
    frequency:    5.8354553604
  - # 10
    frequency:    6.7067887850
  - # 11
    frequency:    6.8137246972
  - # 12
    frequency:    6.8627993851
  - # 13
    frequency:   10.9032361507
  - # 14
    frequency:   13.4276732156
  - # 15
    frequency:   14.2303892520
  - # 16
    frequency:   14.2325759396
  - # 17
    frequency:   17.7261005739
  - # 18
    frequency:   17.7697560097
  - # 19
    frequency:   17.7792633824
  - # 20
    frequency:   31.5929154979
  - # 21
    frequency:   67.3427749910

- q-position: [    0.0202020,    0.0000000,    0.0000000 ]
  distance:    0.0072186
  band:
  - # 1
    frequency:    0.0333992246
  - # 2
    frequency:    0.2759929950
  - # 3
    frequency:    0.4605027559
  - # 4
    frequency:    1.8002894830
  - # 5
    frequency:    1.8258569725
  - # 6
    frequency:    5.0377950138
  - # 7
    frequency:    5.0457987622
  - # 8
    frequency:    5.8262610460
  - # 9
    frequency:    5.8417202663
  - # 10
    frequency:    6.6872924064
  - # 11
    frequency:    6.8141697139
  - # 12
    frequency:    6.8872921272
  - # 13
    frequency:   10.9005793533
  - # 14
    frequency:   13.4196273909
  - # 15
    frequency:   14.2307928609
  - # 16
    frequency:   14.2346675288
  - # 17
    frequency:   17.7220202722
  - # 18
    frequency:   17.7642012397
  - # 19
    frequency:   17.7808833087
  - # 20
    frequency:   31.5906862955
  - # 21
    frequency:   67.3417312692

- q-position: [    0.0252525,    0.0000000,    0.0000000 ]
  distance:    0.0090233
  band:
  - # 1
    frequency:    0.0519201061
  - # 2
    frequency:    0.3447849680
  - # 3
    frequency:    0.5748547583
  - # 4
    frequency:    1.8035410623
  - # 5
    frequency:    1.8433055634
  - # 6
    frequency:    5.0368399389
  - # 7
    frequency:    5.0493031346
  - # 8
    frequency:    5.8256730837
  - # 9
    frequency:    5.8496826377
  - # 10
    frequency:    6.6681262642
  - # 11
    frequency:    6.8147298319
  - # 12
    frequency:    6.9128969633
  - # 13
    frequency:   10.8971654687
  - # 14
    frequency:   13.4093144941
  - # 15
    frequency:   14.2313110299
  - # 16
    frequency:   14.2373401002
  - # 17
    frequency:   17.7169351543
  - # 18
    frequency:   17.7570963667
  - # 19
    frequency:   17.7827888625
  - # 20
    frequency:   31.5878285316
  - # 21
    frequency:   67.3403925382

- q-position: [    0.0303030,    0.0000000,    0.0000000 ]
  distance:    0.0108280
  band:
  - # 1
    frequency:    0.0743100108
  - # 2
    frequency:    0.4134248560
  - # 3
    frequency:    0.6886392431
  - # 4
    frequency:    1.8075829398
  - # 5
    frequency:    1.8645449105
  - # 6
    frequency:    5.0356915131
  - # 7
    frequency:    5.0535626995
  - # 8
    frequency:    5.8249550936
  - # 9
    frequency:    5.8592746270
  - # 10
    frequency:    6.6496206978
  - # 11
    frequency:    6.8153960880
  - # 12
    frequency:    6.9392952316
  - # 13
    frequency:   10.8929960427
  - # 14
    frequency:   13.3967574518
  - # 15
    frequency:   14.2319431882
  - # 16
    frequency:   14.2405820669
  - # 17
    frequency:   17.7109005226
  - # 18
    frequency:   17.7484690094
  - # 19
    frequency:   17.7849127673
  - # 20
    frequency:   31.5843484367
  - # 21
    frequency:   67.3387611837

- q-position: [    0.0353535,    0.0000000,    0.0000000 ]
  distance:    0.0126326
  band:
  - # 1
    frequency:    0.1004392949
  - # 2
    frequency:    0.4818671482
  - # 3
    frequency:    0.8016872448
  - # 4
    frequency:    1.8124585981
  - # 5
    frequency:    1.8895581776
  - # 6
    frequency:    5.0343605418
  - # 7
    frequency:    5.0585619890
  - # 8
    frequency:    5.8241077650
  - # 9
    frequency:    5.8704148863
  - # 10
    frequency:    6.6319616430
  - # 11
    frequency:    6.8161576120
  - # 12
    frequency:    6.9663158917
  - # 13
    frequency:   10.8880730162
  - # 14
    frequency:   13.3819834215
  - # 15
    frequency:   14.2326886348
  - # 16
    frequency:   14.2443801310
  - # 17
    frequency:   17.7039557853
  - # 18
    frequency:   17.7383527991
  - # 19
    frequency:   17.7872011955
  - # 20
    frequency:   31.5802535877
  - # 21
    frequency:   67.3368401081

- q-position: [    0.0404040,    0.0000000,    0.0000000 ]
  distance:    0.0144373
  band:
  - # 1
    frequency:    0.1301684716
  - # 2
    frequency:    0.5500574117
  - # 3
    frequency:    0.9137947416
  - # 4
    frequency:    1.8182221618
  - # 5
    frequency:    1.9183554216
  - # 6
    frequency:    5.0328593273
  - # 7
    frequency:    5.0642817309
  - # 8
    frequency:    5.8231321724
  - # 9
    frequency:    5.8830093560
  - # 10
    frequency:    6.6152767579
  - # 11
    frequency:    6.8170016857
  - # 12
    frequency:    6.9938497382
  - # 13
    frequency:   10.8823987540
  - # 14
    frequency:   13.3650234051
  - # 15
    frequency:   14.2335465363
  - # 16
    frequency:   14.2487196717
  - # 17
    frequency:   17.6961287132
  - # 18
    frequency:   17.7267873028
  - # 19
    frequency:   17.7896096402
  - # 20
    frequency:   31.5755528848
  - # 21
    frequency:   67.3346327219

- q-position: [    0.0454545,    0.0000000,    0.0000000 ]
  distance:    0.0162419
  band:
  - # 1
    frequency:    0.1633523330
  - # 2
    frequency:    0.6179302067
  - # 3
    frequency:    1.0247129430
  - # 4
    frequency:    1.8249399304
  - # 5
    frequency:    1.9509866544
  - # 6
    frequency:    5.0312014489
  - # 7
    frequency:    5.0706985759
  - # 8
    frequency:    5.8220298793
  - # 9
    frequency:    5.8969520842
  - # 10
    frequency:    6.5996679997
  - # 11
    frequency:    6.8179138182
  - # 12
    frequency:    7.0218171905
  - # 13
    frequency:   10.8759760777
  - # 14
    frequency:   13.3459118827
  - # 15
    frequency:   14.2345159251
  - # 16
    frequency:   14.2535851144
  - # 17
    frequency:   17.6874399524
  - # 18
    frequency:   17.7138179317
  - # 19
    frequency:   17.7920985543
  - # 20
    frequency:   31.5702565249
  - # 21
    frequency:   67.3321429351

- q-position: [    0.0505051,    0.0000000,    0.0000000 ]
  distance:    0.0180466
  band:
  - # 1
    frequency:    0.1998433761
  - # 2
    frequency:    0.6854067116
  - # 3
    frequency:    1.1341374145
  - # 4
    frequency:    1.8326922630
  - # 5
    frequency:    1.9875555497
  - # 6
    frequency:    5.0294015195
  - # 7
    frequency:    5.0777849192
  - # 8
    frequency:    5.8208030424
  - # 9
    frequency:    5.9121260523
  - # 10
    frequency:    6.5852257602
  - # 11
    frequency:    6.8188778399
  - # 12
    frequency:    7.0501545236
  - # 13
    frequency:   10.8688083015
  - # 14
    frequency:   13.3246864886
  - # 15
    frequency:   14.2355956972
  - # 16
    frequency:   14.2589602582
  - # 17
    frequency:   17.6779065496
  - # 18
    frequency:   17.6994958334
  - # 19
    frequency:   17.7946299998
  - # 20
    frequency:   31.5643759710
  - # 21
    frequency:   67.3293751459

- q-position: [    0.0555556,    0.0000000,    0.0000000 ]
  distance:    0.0198513
  band:
  - # 1
    frequency:    0.2394944480
  - # 2
    frequency:    0.7523920261
  - # 3
    frequency:    1.2416971754
  - # 4
    frequency:    1.8415758372
  - # 5
    frequency:    2.0282325252
  - # 6
    frequency:    5.0274749209
  - # 7
    frequency:    5.0855088410
  - # 8
    frequency:    5.8194545078
  - # 9
    frequency:    5.9284040008
  - # 10
    frequency:    6.5720356999
  - # 11
    frequency:    6.8198760170
  - # 12
    frequency:    7.0788073617
  - # 13
    frequency:   10.8608992696
  - # 14
    frequency:   13.3013877427
  - # 15
    frequency:   14.2367846103
  - # 16
    frequency:   14.2648285514
  - # 17
    frequency:   17.6675443341
  - # 18
    frequency:   17.6838777681
  - # 19
    frequency:   17.7971654621
  - # 20
    frequency:   31.5579239180
  - # 21
    frequency:   67.3263342285

- q-position: [    0.0606061,    0.0000000,    0.0000000 ]
  distance:    0.0216559
  band:
  - # 1
    frequency:    0.2821606284
  - # 2
    frequency:    0.8187721493
  - # 3
    frequency:    1.3469465541
  - # 4
    frequency:    1.8517062804
  - # 5
    frequency:    2.0732643863
  - # 6
    frequency:    5.0254375239
  - # 7
    frequency:    5.0938341869
  - # 8
    frequency:    5.8179878985
  - # 9
    frequency:    5.9456492731
  - # 10
    frequency:    6.5601823080
  - # 11
    frequency:    6.8208891879
  - # 12
    frequency:    7.1077273537
  - # 13
    frequency:   10.8522533957
  - # 14
    frequency:   13.2760588427
  - # 15
    frequency:   14.2380812819
  - # 16
    frequency:   14.2711733073
  - # 17
    frequency:   17.6563693780
  - # 18
    frequency:   17.6670259672
  - # 19
    frequency:   17.7996646090
  - # 20
    frequency:   31.5509142542
  - # 21
    frequency:   67.3230255201

- q-position: [    0.0656566,    0.0000000,    0.0000000 ]
  distance:    0.0234606
  band:
  - # 1
    frequency:    0.3277004342
  - # 2
    frequency:    0.8844106936
  - # 3
    frequency:    1.4493652804
  - # 4
    frequency:    1.8632211075
  - # 5
    frequency:    2.1229751111
  - # 6
    frequency:    5.0233053951
  - # 7
    frequency:    5.1027207954
  - # 8
    frequency:    5.8164076856
  - # 9
    frequency:    5.9637167279
  - # 10
    frequency:    6.5497507713
  - # 11
    frequency:    6.8218969229
  - # 12
    frequency:    7.1368703632
  - # 13
    frequency:   10.8428757018
  - # 14
    frequency:   13.2487455171
  - # 15
    frequency:   14.2394841872
  - # 16
    frequency:   14.2779778622
  - # 17
    frequency:   17.6443988077
  - # 18
    frequency:   17.6490079741
  - # 19
    frequency:   17.8020847195
  - # 20
    frequency:   31.5433620198
  - # 21
    frequency:   67.3194548060

- q-position: [    0.0707071,    0.0000000,    0.0000000 ]
  distance:    0.0252652
  band:
  - # 1
    frequency:    0.3759764708
  - # 2
    frequency:    0.9491455032
  - # 3
    frequency:    1.5483756276
  - # 4
    frequency:    1.8762827909
  - # 5
    frequency:    2.1777490568
  - # 6
    frequency:    5.0210944964
  - # 7
    frequency:    5.1121248754
  - # 8
    frequency:    5.8147192418
  - # 9
    frequency:    5.9824538132
  - # 10
    frequency:    6.5408277884
  - # 11
    frequency:    6.8228777052
  - # 12
    frequency:    7.1661954284
  - # 13
    frequency:   10.8327718565
  - # 14
    frequency:   13.2194959343
  - # 15
    frequency:   14.2409916585
  - # 16
    frequency:   14.2852256791
  - # 17
    frequency:   17.6298964662
  - # 18
    frequency:   17.6316511942
  - # 19
    frequency:   17.8043805543
  - # 20
    frequency:   31.5352833625
  - # 21
    frequency:   67.3156283039

- q-position: [    0.0757576,    0.0000000,    0.0000000 ]
  distance:    0.0270699
  band:
  - # 1
    frequency:    0.4268556610
  - # 2
    frequency:    1.0127855344
  - # 3
    frequency:    1.6433872165
  - # 4
    frequency:    1.8910816022
  - # 5
    frequency:    2.2379860948
  - # 6
    frequency:    5.0188203793
  - # 7
    frequency:    5.1219995229
  - # 8
    frequency:    5.8129288765
  - # 9
    frequency:    6.0017019410
  - # 10
    frequency:    6.5335015328
  - # 11
    frequency:    6.8238091356
  - # 12
    frequency:    7.1956641308
  - # 13
    frequency:   10.8219482114
  - # 14
    frequency:   13.1883606587
  - # 15
    frequency:   14.2426018834
  - # 16
    frequency:   14.2929004073
  - # 17
    frequency:   17.6097690579
  - # 18
    frequency:   17.6181466833
  - # 19
    frequency:   17.8065045069
  - # 20
    frequency:   31.5266954886
  - # 21
    frequency:   67.3115526468

- q-position: [    0.0808081,    0.0000000,    0.0000000 ]
  distance:    0.0288745
  band:
  - # 1
    frequency:    0.4802091794
  - # 2
    frequency:    1.0751086416
  - # 3
    frequency:    1.7338754505
  - # 4
    frequency:    1.9078375768
  - # 5
    frequency:    2.3040228216
  - # 6
    frequency:    5.0164978796
  - # 7
    frequency:    5.1322953639
  - # 8
    frequency:    5.8110438475
  - # 9
    frequency:    6.0212983525
  - # 10
    frequency:    6.5278607579
  - # 11
    frequency:    6.8246681568
  - # 12
    frequency:    7.2252401879
  - # 13
    frequency:   10.8104118351
  - # 14
    frequency:   13.1553926462
  - # 15
    frequency:   14.2443129054
  - # 16
    frequency:   14.3009859048
  - # 17
    frequency:   17.5887080823
  - # 18
    frequency:   17.6039069736
  - # 19
    frequency:   17.8084069264
  - # 20
    frequency:   31.5176166118
  - # 21
    frequency:   67.3072348655

- q-position: [    0.0858586,    0.0000000,    0.0000000 ]
  distance:    0.0306792
  band:
  - # 1
    frequency:    0.5359121979
  - # 2
    frequency:    1.1358613056
  - # 3
    frequency:    1.8194834728
  - # 4
    frequency:    1.9268005631
  - # 5
    frequency:    2.3760300564
  - # 6
    frequency:    5.0141408166
  - # 7
    frequency:    5.1429613032
  - # 8
    frequency:    5.8090723545
  - # 9
    frequency:    6.0410787038
  - # 10
    frequency:    6.5239929134
  - # 11
    frequency:    6.8254312970
  - # 12
    frequency:    7.2548891673
  - # 13
    frequency:   10.7981705419
  - # 14
    frequency:   13.1206472675
  - # 15
    frequency:   14.2461226233
  - # 16
    frequency:   14.3094662343
  - # 17
    frequency:   17.5668003533
  - # 18
    frequency:   17.5889552087
  - # 19
    frequency:   17.8100365425
  - # 20
    frequency:   31.5080658994
  - # 21
    frequency:   67.3026823692

- q-position: [    0.0909091,    0.0000000,    0.0000000 ]
  distance:    0.0324839
  band:
  - # 1
    frequency:    0.5938435322
  - # 2
    frequency:    1.1947617934
  - # 3
    frequency:    1.9001140324
  - # 4
    frequency:    1.9482468610
  - # 5
    frequency:    2.4539203324
  - # 6
    frequency:    5.0117616996
  - # 7
    frequency:    5.1539453529
  - # 8
    frequency:    5.8070235102
  - # 9
    frequency:    6.0608806086
  - # 10
    frequency:    6.5219811012
  - # 11
    frequency:    6.8260749292
  - # 12
    frequency:    7.2845782672
  - # 13
    frequency:   10.7852329169
  - # 14
    frequency:   13.0841823512
  - # 15
    frequency:   14.2480287927
  - # 16
    frequency:   14.3183256406
  - # 17
    frequency:   17.5441369048
  - # 18
    frequency:   17.5733158284
  - # 19
    frequency:   17.8113409504
  - # 20
    frequency:   31.4980634149
  - # 21
    frequency:   67.2979029257

- q-position: [    0.0959596,    0.0000000,    0.0000000 ]
  distance:    0.0342885
  band:
  - # 1
    frequency:    0.6538852511
  - # 2
    frequency:    1.2515085859
  - # 3
    frequency:    1.9724706140
  - # 4
    frequency:    1.9759666923
  - # 5
    frequency:    2.5373100115
  - # 6
    frequency:    5.0093714467
  - # 7
    frequency:    5.1651955149
  - # 8
    frequency:    5.8049072948
  - # 9
    frequency:    6.0805483166
  - # 10
    frequency:    6.5218997362
  - # 11
    frequency:    6.8265755437
  - # 12
    frequency:    7.3142761270
  - # 13
    frequency:   10.7716083338
  - # 14
    frequency:   13.0460582393
  - # 15
    frequency:   14.2500290276
  - # 16
    frequency:   14.3275485171
  - # 17
    frequency:   17.5208127092
  - # 18
    frequency:   17.5570144018
  - # 19
    frequency:   17.8122671268
  - # 20
    frequency:   31.4876300588
  - # 21
    frequency:   67.2929046411

- q-position: [    0.1010101,    0.0000000,    0.0000000 ]
  distance:    0.0360932
  band:
  - # 1
    frequency:    0.7159222972
  - # 2
    frequency:    1.3057958061
  - # 3
    frequency:    1.9997682157
  - # 4
    frequency:    2.0474973664
  - # 5
    frequency:    2.6255590979
  - # 6
    frequency:    5.0069791203
  - # 7
    frequency:    5.1766606857
  - # 8
    frequency:    5.8027344937
  - # 9
    frequency:    6.0999385454
  - # 10
    frequency:    6.5238089293
  - # 11
    frequency:    6.8269100285
  - # 12
    frequency:    7.3439526492
  - # 13
    frequency:   10.7573069663
  - # 14
    frequency:   13.0063378467
  - # 15
    frequency:   14.2521208025
  - # 16
    frequency:   14.3371193671
  - # 17
    frequency:   17.4969263718
  - # 18
    frequency:   17.5400774595
  - # 19
    frequency:   17.8127619607
  - # 20
    frequency:   31.4767875064
  - # 21
    frequency:   67.2876959377

- q-position: [    0.1060606,    0.0000000,    0.0000000 ]
  distance:    0.0378978
  band:
  - # 1
    frequency:    0.7798421445
  - # 2
    frequency:    1.3573363676
  - # 3
    frequency:    2.0304150125
  - # 4
    frequency:    2.1153198412
  - # 5
    frequency:    2.7178691286
  - # 6
    frequency:    5.0045916819
  - # 7
    frequency:    5.1882915546
  - # 8
    frequency:    5.8005166228
  - # 9
    frequency:    6.1189271949
  - # 10
    frequency:    6.5277478933
  - # 11
    frequency:    6.8270559563
  - # 12
    frequency:    7.3735788185
  - # 13
    frequency:   10.7423397906
  - # 14
    frequency:   12.9650867209
  - # 15
    frequency:   14.2543014564
  - # 16
    frequency:   14.3470227648
  - # 17
    frequency:   17.4725798041
  - # 18
    frequency:   17.5225323327
  - # 19
    frequency:   17.8127727877
  - # 20
    frequency:   31.4655581441
  - # 21
    frequency:   67.2822855324

- q-position: [    0.1111111,    0.0000000,    0.0000000 ]
  distance:    0.0397025
  band:
  - # 1
    frequency:    0.8455345119
  - # 2
    frequency:    1.4058912784
  - # 3
    frequency:    2.0646358611
  - # 4
    frequency:    2.1800952694
  - # 5
    frequency:    2.8133931857
  - # 6
    frequency:    5.0022137707
  - # 7
    frequency:    5.2000414642
  - # 8
    frequency:    5.7982658439
  - # 9
    frequency:    6.1374162863
  - # 10
    frequency:    6.5337280582
  - # 11
    frequency:    6.8269918709
  - # 12
    frequency:    7.4031265137
  - # 13
    frequency:   10.7267185789
  - # 14
    frequency:   12.9223730963
  - # 15
    frequency:   14.2565681963
  - # 16
    frequency:   14.3572433189
  - # 17
    frequency:   17.4478778729
  - # 18
    frequency:   17.5044070042
  - # 19
    frequency:   17.8122479202
  - # 20
    frequency:   31.4539650036
  - # 21
    frequency:   67.2766824133

- q-position: [    0.1161616,    0.0000000,    0.0000000 ]
  distance:    0.0415072
  band:
  - # 1
    frequency:    0.9128911386
  - # 2
    frequency:    1.4513003431
  - # 3
    frequency:    2.1025743001
  - # 4
    frequency:    2.2424474235
  - # 5
    frequency:    2.9113202628
  - # 6
    frequency:    4.9998475112
  - # 7
    frequency:    5.2118672034
  - # 8
    frequency:    5.7959948739
  - # 9
    frequency:    6.1553400805
  - # 10
    frequency:    6.5417269647
  - # 11
    frequency:    6.8266975705
  - # 12
    frequency:    7.4325683044
  - # 13
    frequency:   10.7104558830
  - # 14
    frequency:   12.8782679412
  - # 15
    frequency:   14.2589181024
  - # 16
    frequency:   14.3677656417
  - # 17
    frequency:   17.4229280274
  - # 18
    frequency:   17.4857299748
  - # 19
    frequency:   17.8111371672
  - # 20
    frequency:   31.4420316936
  - # 21
    frequency:   67.2708958169

- q-position: [    0.1212121,    0.0000000,    0.0000000 ]
  distance:    0.0433118
  band:
  - # 1
    frequency:    0.9818056205
  - # 2
    frequency:    1.4935068320
  - # 3
    frequency:    2.1442677620
  - # 4
    frequency:    2.3029161858
  - # 5
    frequency:    3.0109215214
  - # 6
    frequency:    4.9974923500
  - # 7
    frequency:    5.2237297054
  - # 8
    frequency:    5.7937168910
  - # 9
    frequency:    6.1726691337
  - # 10
    frequency:    6.5516842028
  - # 11
    frequency:    6.8261543832
  - # 12
    frequency:    7.4618772348
  - # 13
    frequency:   10.6935650061
  - # 14
    frequency:   12.8328449935
  - # 15
    frequency:   14.2613481339
  - # 16
    frequency:   14.3785743238
  - # 17
    frequency:   17.3978399036
  - # 18
    frequency:   17.4665301453
  - # 19
    frequency:   17.8093923401
  - # 20
    frequency:   31.4297823315
  - # 21
    frequency:   67.2649352040

- q-position: [    0.1262626,    0.0000000,    0.0000000 ]
  distance:    0.0451165
  band:
  - # 1
    frequency:    1.0521733060
  - # 2
    frequency:    1.5325686214
  - # 3
    frequency:    2.1896363224
  - # 4
    frequency:    2.3619427077
  - # 5
    frequency:    3.1115650153
  - # 6
    frequency:    4.9951449296
  - # 7
    frequency:    5.2355946285
  - # 8
    frequency:    5.7914454411
  - # 9
    frequency:    6.1894112040
  - # 10
    frequency:    6.5635005020
  - # 11
    frequency:    6.8253454296
  - # 12
    frequency:    7.4910265914
  - # 13
    frequency:   10.6760599621
  - # 14
    frequency:   12.7861807843
  - # 15
    frequency:   14.2638551353
  - # 16
    frequency:   14.3896539167
  - # 17
    frequency:   17.3727249075
  - # 18
    frequency:   17.4468367153
  - # 19
    frequency:   17.8069677394
  - # 20
    frequency:   31.4172414722
  - # 21
    frequency:   67.2588102356

- q-position: [    0.1313131,    0.0000000,    0.0000000 ]
  distance:    0.0469211
  band:
  - # 1
    frequency:    1.1238912420
  - # 2
    frequency:    1.5686519052
  - # 3
    frequency:    2.2384888847
  - # 4
    frequency:    2.4198736780
  - # 5
    frequency:    3.2127114494
  - # 6
    frequency:    4.9927989993
  - # 7
    frequency:    5.2474327971
  - # 8
    frequency:    5.7891943482
  - # 9
    frequency:    6.2056084985
  - # 10
    frequency:    6.5770405021
  - # 11
    frequency:    6.8242558701
  - # 12
    frequency:    7.5199896570
  - # 13
    frequency:   10.6579554217
  - # 14
    frequency:   12.7383546476
  - # 15
    frequency:   14.2664358434
  - # 16
    frequency:   14.4009889217
  - # 17
    frequency:   17.3476957766
  - # 18
    frequency:   17.4266790982
  - # 19
    frequency:   17.8038206193
  - # 20
    frequency:   31.4044340372
  - # 21
    frequency:   67.2525307485

- q-position: [    0.1363636,    0.0000000,    0.0000000 ]
  distance:    0.0487258
  band:
  - # 1
    frequency:    1.1968581645
  - # 2
    frequency:    1.6020093812
  - # 3
    frequency:    2.2905448939
  - # 4
    frequency:    2.4769741634
  - # 5
    frequency:    3.3139015116
  - # 6
    frequency:    4.9904453690
  - # 7
    frequency:    5.2592204924
  - # 8
    frequency:    5.7869776298
  - # 9
    frequency:    6.2213315771
  - # 10
    frequency:    6.5921389019
  - # 11
    frequency:    6.8228731306
  - # 12
    frequency:    7.5487394522
  - # 13
    frequency:   10.6392666444
  - # 14
    frequency:   12.6894487149
  - # 15
    frequency:   14.2690868950
  - # 16
    frequency:   14.4125637864
  - # 17
    frequency:   17.3228661224
  - # 18
    frequency:   17.4060868514
  - # 19
    frequency:   17.7999116248
  - # 20
    frequency:   31.3913852421
  - # 21
    frequency:   67.2461067304

- q-position: [    0.1414141,    0.0000000,    0.0000000 ]
  distance:    0.0505305
  band:
  - # 1
    frequency:    1.2709745243
  - # 2
    frequency:    1.6329496003
  - # 3
    frequency:    2.3454648945
  - # 4
    frequency:    2.5334425673
  - # 5
    frequency:    3.4147412353
  - # 6
    frequency:    4.9880719071
  - # 7
    frequency:    5.2709395824
  - # 8
    frequency:    5.7848094205
  - # 9
    frequency:    6.2366709869
  - # 10
    frequency:    6.6086089224
  - # 11
    frequency:    6.8211871047
  - # 12
    frequency:    7.5772484656
  - # 13
    frequency:   10.6200093937
  - # 14
    frequency:   12.6395478934
  - # 15
    frequency:   14.2718048346
  - # 16
    frequency:   14.4243629074
  - # 17
    frequency:   17.2983499546
  - # 18
    frequency:   17.3850896215
  - # 19
    frequency:   17.7952051997
  - # 20
    frequency:   31.3781205237
  - # 21
    frequency:   67.2395482954

- q-position: [    0.1464646,    0.0000000,    0.0000000 ]
  distance:    0.0523351
  band:
  - # 1
    frequency:    1.3461425414
  - # 2
    frequency:    1.6618054962
  - # 3
    frequency:    2.4028819103
  - # 4
    frequency:    2.5894245636
  - # 5
    frequency:    3.5148885336
  - # 6
    frequency:    4.9856635879
  - # 7
    frequency:    5.2825774937
  - # 8
    frequency:    5.7827039055
  - # 9
    frequency:    6.2517281011
  - # 10
    frequency:    6.6262516149
  - # 11
    frequency:    6.8191903287
  - # 12
    frequency:    7.6054883766
  - # 13
    frequency:   10.6001998364
  - # 14
    frequency:   12.5887398278
  - # 15
    frequency:   14.2745861226
  - # 16
    frequency:   14.4363706389
  - # 17
    frequency:   17.2742611891
  - # 18
    frequency:   17.3637171028
  - # 19
    frequency:   17.7896699604
  - # 20
    frequency:   31.3646654670
  - # 21
    frequency:   67.2328656589

- q-position: [    0.1515152,    0.0000000,    0.0000000 ]
  distance:    0.0541398
  band:
  - # 1
    frequency:    1.4222662788
  - # 2
    frequency:    1.6889081392
  - # 3
    frequency:    2.4624276037
  - # 4
    frequency:    2.6450248546
  - # 5
    frequency:    3.6140420530
  - # 6
    frequency:    4.9832025903
  - # 7
    frequency:    5.2941270291
  - # 8
    frequency:    5.7806752646
  - # 9
    frequency:    6.2666065587
  - # 10
    frequency:    6.6448646183
  - # 11
    frequency:    6.8168781246
  - # 12
    frequency:    7.6334297728
  - # 13
    frequency:   10.5798544230
  - # 14
    frequency:   12.5371148432
  - # 15
    frequency:   14.2774271438
  - # 16
    frequency:   14.4485713058
  - # 17
    frequency:   17.2507131421
  - # 18
    frequency:   17.3419990065
  - # 19
    frequency:   17.7832790314
  - # 20
    frequency:   31.3510457319
  - # 21
    frequency:   67.2260691131