nqpoint: 300    
npath: 3      
segment_nqpoint:
- 100
- 100
- 100
labels:
- [ 'G', 'M' ]
- [ 'M', 'K' ]
- [ 'K', 'G' ]
reciprocal_lattice:
- [   0.32175871,   0.18576748,   0.00000000 ] # a*
- [   0.00000000,   0.37153495,   0.00000000 ] # b*
- [   0.00000000,   0.00000000,   0.04221514 ] # c*
natom: 6      
lattice:
- [     3.107918988550781,     0.000000000000000,     0.000000000000000 ] # a
- [    -1.553959494275390,     2.691536797017819,     0.000000000000000 ] # b
- [     0.000000000000000,     0.000000000000000,    23.688183016210001 ] # c
points:
- symbol: N # 1
  coordinates: [  0.000000000000000,  0.000000000000000,  0.468114771758282 ]
  mass: 14.006700
- symbol: N # 2
  coordinates: [  0.333332985432214,  0.666666983183674,  0.564370441940624 ]
  mass: 14.006700
- symbol: O # 3
  coordinates: [  0.333332985432214,  0.666666983183674,  0.620063725704870 ]
  mass: 15.999400
- symbol: O # 4
  coordinates: [  0.666666984744047,  0.333332985985145,  0.379936274295130 ]
  mass: 15.999400
- symbol: Ti # 5
  coordinates: [  0.333332985432214,  0.666666983183674,  0.417020002187876 ]
  mass: 47.867000
- symbol: Ti # 6
  coordinates: [  0.666666984744047,  0.333332985985145,  0.524261843345419 ]
  mass: 47.867000

phonon:
- q-position: [    0.0000000,    0.0000000,    0.0000000 ]
  distance:    0.0000000
  band:
  - # 1
    frequency:   -6.4038026889
  - # 2
    frequency:   -6.4038026888
  - # 3
    frequency:   -0.0000384919
  - # 4
    frequency:   -0.0000003345
  - # 5
    frequency:    0.0000416899
  - # 6
    frequency:    1.2558360758
  - # 7
    frequency:    1.2558360769
  - # 8
    frequency:    3.8522253446
  - # 9
    frequency:    3.8522253450
  - # 10
    frequency:    6.7839405893
  - # 11
    frequency:    8.6132465214
  - # 12
    frequency:    8.6132465216
  - # 13
    frequency:   10.4369094199
  - # 14
    frequency:   12.7042306676
  - # 15
    frequency:   12.7042306677
  - # 16
    frequency:   15.9611797631
  - # 17
    frequency:   16.9511544080
  - # 18
    frequency:   40.0864365210

- q-position: [    0.0050505,    0.0000000,    0.0000000 ]
  distance:    0.0018764
  band:
  - # 1
    frequency:   -6.4043400633
  - # 2
    frequency:   -6.4021566639
  - # 3
    frequency:   -0.1064292505
  - # 4
    frequency:    0.0023645111
  - # 5
    frequency:    0.0796632687
  - # 6
    frequency:    1.2611470975
  - # 7
    frequency:    1.2727220532
  - # 8
    frequency:    3.8557083588
  - # 9
    frequency:    3.8617104610
  - # 10
    frequency:    6.7841255447
  - # 11
    frequency:    8.6141485523
  - # 12
    frequency:    8.6147099854
  - # 13
    frequency:   10.4367453482
  - # 14
    frequency:   12.7038471890
  - # 15
    frequency:   12.7043019230
  - # 16
    frequency:   15.9605981958
  - # 17
    frequency:   16.9511098161
  - # 18
    frequency:   40.0856341208

- q-position: [    0.0101010,    0.0000000,    0.0000000 ]
  distance:    0.0037529
  band:
  - # 1
    frequency:   -6.4059529047
  - # 2
    frequency:   -6.3972359757
  - # 3
    frequency:   -0.2098548430
  - # 4
    frequency:    0.0095269079
  - # 5
    frequency:    0.1651574336
  - # 6
    frequency:    1.2764845499
  - # 7
    frequency:    1.3211942232
  - # 8
    frequency:    3.8661226630
  - # 9
    frequency:    3.8900710606
  - # 10
    frequency:    6.7846842543
  - # 11
    frequency:    8.6168529022
  - # 12
    frequency:    8.6190909901
  - # 13
    frequency:   10.4362540510
  - # 14
    frequency:   12.7026987099
  - # 15
    frequency:   12.7045154603
  - # 16
    frequency:   15.9588537817
  - # 17
    frequency:   16.9509780327
  - # 18
    frequency:   40.0832284505

- q-position: [    0.0151515,    0.0000000,    0.0000000 ]
  distance:    0.0056293
  band:
  - # 1
    frequency:   -6.4086433301
  - # 2
    frequency:   -6.3890920772
  - # 3
    frequency:   -0.3079289853
  - # 4
    frequency:    0.0215873993
  - # 5
    frequency:    0.2595036366
  - # 6
    frequency:    1.3003188127
  - # 7
    frequency:    1.3958512489
  - # 8
    frequency:    3.8833654850
  - # 9
    frequency:    3.9370235919
  - # 10
    frequency:    6.7856283415
  - # 11
    frequency:    8.6213543379
  - # 12
    frequency:    8.6263615813
  - # 13
    frequency:   10.4354382970
  - # 14
    frequency:   12.7007911232
  - # 15
    frequency:   12.7048705924
  - # 16
    frequency:   15.9559474700
  - # 17
    frequency:   16.9507649444
  - # 18
    frequency:   40.0792240973

- q-position: [    0.0202020,    0.0000000,    0.0000000 ]
  distance:    0.0075058
  band:
  - # 1
    frequency:   -6.4124147445
  - # 2
    frequency:   -6.3778084088
  - # 3
    frequency:   -0.3992387598
  - # 4
    frequency:    0.0385255547
  - # 5
    frequency:    0.3627113737
  - # 6
    frequency:    1.3307433705
  - # 7
    frequency:    1.4903566965
  - # 8
    frequency:    3.9072702087
  - # 9
    frequency:    4.0020980461
  - # 10
    frequency:    6.7869775215
  - # 11
    frequency:    8.6276441191
  - # 12
    frequency:    8.6364758454
  - # 13
    frequency:   10.4343027511
  - # 14
    frequency:   12.6981343224
  - # 15
    frequency:   12.7053661706
  - # 16
    frequency:   15.9518811222
  - # 17
    frequency:   16.9504800675
  - # 18
    frequency:   40.0736286911

- q-position: [    0.0252525,    0.0000000,    0.0000000 ]
  distance:    0.0093822
  band:
  - # 1
    frequency:   -6.4172716585
  - # 2
    frequency:   -6.3634970651
  - # 3
    frequency:   -0.4831948545
  - # 4
    frequency:    0.0601943356
  - # 5
    frequency:    0.4731958015
  - # 6
    frequency:    1.3659577981
  - # 7
    frequency:    1.5990730457
  - # 8
    frequency:    3.9376129253
  - # 9
    frequency:    4.0846427016
  - # 10
    frequency:    6.7887602207
  - # 11
    frequency:    8.6357099741
  - # 12
    frequency:    8.6493708894
  - # 13
    frequency:   10.4328540520
  - # 14
    frequency:   12.6947423150
  - # 15
    frequency:   12.7060005805
  - # 16
    frequency:   15.9466579146
  - # 17
    frequency:   16.9501361212
  - # 18
    frequency:   40.0664528828

- q-position: [    0.0303030,    0.0000000,    0.0000000 ]
  distance:    0.0112586
  band:
  - # 1
    frequency:   -6.4232194375
  - # 2
    frequency:   -6.3462943992
  - # 3
    frequency:   -0.5597563911
  - # 4
    frequency:    0.0863744393
  - # 5
    frequency:    0.5890127712
  - # 6
    frequency:    1.4045074422
  - # 7
    frequency:    1.7176238895
  - # 8
    frequency:    3.9741207702
  - # 9
    frequency:    4.1838322904
  - # 10
    frequency:    6.7910146720
  - # 11
    frequency:    8.6455360658
  - # 12
    frequency:    8.6649681432
  - # 13
    frequency:   10.4311009246
  - # 14
    frequency:   12.6906333915
  - # 15
    frequency:   12.7067717355
  - # 16
    frequency:   15.9402828663
  - # 17
    frequency:   16.9497484600
  - # 18
    frequency:   40.0577103129

- q-position: [    0.0353535,    0.0000000,    0.0000000 ]
  distance:    0.0131351
  band:
  - # 1
    frequency:   -6.4302639867
  - # 2
    frequency:   -6.3263558140
  - # 3
    frequency:   -0.6291775701
  - # 4
    frequency:    0.1168167836
  - # 5
    frequency:    0.7084338303
  - # 6
    frequency:    1.4453255801
  - # 7
    frequency:    1.8428332708
  - # 8
    frequency:    4.0164813621
  - # 9
    frequency:    4.2986804837
  - # 10
    frequency:    6.7937907555
  - # 11
    frequency:    8.6571029544
  - # 12
    frequency:    8.6831749229
  - # 13
    frequency:   10.4290543319
  - # 14
    frequency:   12.6858303577
  - # 15
    frequency:   12.7076770688
  - # 16
    frequency:   15.9327634614
  - # 17
    frequency:   16.9493343936
  - # 18
    frequency:   40.0474175720

- q-position: [    0.0404040,    0.0000000,    0.0000000 ]
  distance:    0.0150115
  band:
  - # 1
    frequency:   -6.4384113793
  - # 2
    frequency:   -6.3038500336
  - # 3
    frequency:   -0.6918383172
  - # 4
    frequency:    0.1512651178
  - # 5
    frequency:    0.8300956838
  - # 6
    frequency:    1.4876800534
  - # 7
    frequency:    1.9724720525
  - # 8
    frequency:    4.0643526490
  - # 9
    frequency:    4.4280568879
  - # 10
    frequency:    6.7971530110
  - # 11
    frequency:    8.6703875558
  - # 12
    frequency:    8.7038861874
  - # 13
    frequency:   10.4267276725
  - # 14
    frequency:   12.6803608439
  - # 15
    frequency:   12.7087135249
  - # 16
    frequency:   15.9241103254
  - # 17
    frequency:   16.9489124280
  - # 18
    frequency:   40.0355941524

- q-position: [    0.0454545,    0.0000000,    0.0000000 ]
  distance:    0.0168880
  band:
  - # 1
    frequency:   -6.4476674346
  - # 2
    frequency:   -6.2789531686
  - # 3
    frequency:   -0.7481500702
  - # 4
    frequency:    0.1894673578
  - # 5
    frequency:    0.9529759280
  - # 6
    frequency:    1.5310947013
  - # 7
    frequency:    2.1050052558
  - # 8
    frequency:    4.1173725318
  - # 9
    frequency:    4.5707074783
  - # 10
    frequency:    6.8011855049
  - # 11
    frequency:    8.6853631024
  - # 12
    frequency:    8.7269864155
  - # 13
    frequency:   10.4241370326
  - # 14
    frequency:   12.6742577036
  - # 15
    frequency:   12.7098775493
  - # 16
    frequency:   15.9143379141
  - # 17
    frequency:   16.9485014650
  - # 18
    frequency:   40.0222623912

- q-position: [    0.0505051,    0.0000000,    0.0000000 ]
  distance:    0.0187644
  band:
  - # 1
    frequency:   -6.4580372550
  - # 2
    frequency:   -6.2518428898
  - # 3
    frequency:   -0.7985104759
  - # 4
    frequency:    0.2311814524
  - # 5
    frequency:    1.0763224567
  - # 6
    frequency:    1.5752770298
  - # 7
    frequency:    2.2393915957
  - # 8
    frequency:    4.1751677633
  - # 9
    frequency:    4.7252758013
  - # 10
    frequency:    6.8059996843
  - # 11
    frequency:    8.7019991067
  - # 12
    frequency:    8.7523515358
  - # 13
    frequency:   10.4213015035
  - # 14
    frequency:   12.6675595170
  - # 15
    frequency:   12.7111650780
  - # 16
    frequency:   15.9034651687
  - # 17
    frequency:   16.9481199981
  - # 18
    frequency:   40.0074474066

- q-position: [    0.0555556,    0.0000000,    0.0000000 ]
  distance:    0.0206408
  band:
  - # 1
    frequency:   -6.4695247328
  - # 2
    frequency:   -6.2226929938
  - # 3
    frequency:   -0.8432853092
  - # 4
    frequency:    0.2761783227
  - # 5
    frequency:    1.1995837851
  - # 6
    frequency:    1.6200611296
  - # 7
    frequency:    2.3749348185
  - # 8
    frequency:    4.2373617717
  - # 9
    frequency:    4.8903205814
  - # 10
    frequency:    6.8117471677
  - # 11
    frequency:    8.7202613341
  - # 12
    frequency:    8.7798508470
  - # 13
    frequency:   10.4182435824
  - # 14
    frequency:   12.6603112162
  - # 15
    frequency:   12.7125715266
  - # 16
    frequency:   15.8915160948
  - # 17
    frequency:   16.9477853429
  - # 18
    frequency:   39.9911770244

- q-position: [    0.0606061,    0.0000000,    0.0000000 ]
  distance:    0.0225173
  band:
  - # 1
    frequency:   -6.4821320377
  - # 2
    frequency:   -6.1916686018
  - # 3
    frequency:   -0.8828040246
  - # 4
    frequency:    0.3242429822
  - # 5
    frequency:    1.3223529733
  - # 6
    frequency:    1.6653656051
  - # 7
    frequency:    2.5111752390
  - # 8
    frequency:    4.3035812165
  - # 9
    frequency:    5.0643235409
  - # 10
    frequency:    6.8186409811
  - # 11
    frequency:    8.7401117869
  - # 12
    frequency:    8.8093488760
  - # 13
    frequency:   10.4149896759
  - # 14
    frequency:   12.6525648486
  - # 15
    frequency:   12.7140917798
  - # 16
    frequency:   15.8785202241
  - # 17
    frequency:   16.9475129353
  - # 18
    frequency:   39.9734816990

- q-position: [    0.0656566,    0.0000000,    0.0000000 ]
  distance:    0.0243937
  band:
  - # 1
    frequency:   -6.4958590984
  - # 2
    frequency:   -6.1589221669
  - # 3
    frequency:   -0.9173614489
  - # 4
    frequency:    0.3751744626
  - # 5
    frequency:    1.4443257693
  - # 6
    frequency:    1.7111635863
  - # 7
    frequency:    2.6478108554
  - # 8
    frequency:    4.3734612200
  - # 9
    frequency:    5.2456785089
  - # 10
    frequency:    6.8269918265
  - # 11
    frequency:    8.7615087029
  - # 12
    frequency:    8.8407071329
  - # 13
    frequency:   10.4115707376
  - # 14
    frequency:   12.6443804959
  - # 15
    frequency:   12.7157201813
  - # 16
    frequency:   15.8645129250
  - # 17
    frequency:   16.9473157273
  - # 18
    frequency:   39.9543944256

- q-position: [    0.0707071,    0.0000000,    0.0000000 ]
  distance:    0.0262701
  band:
  - # 1
    frequency:   -6.5107030905
  - # 2
    frequency:   -6.1245903954
  - # 3
    frequency:   -0.9472217938
  - # 4
    frequency:    0.4287849855
  - # 5
    frequency:    1.5652703329
  - # 6
    frequency:    1.7574617242
  - # 7
    frequency:    2.7846403410
  - # 8
    frequency:    4.4466493237
  - # 9
    frequency:    5.4326473556
  - # 10
    frequency:    6.8372722964
  - # 11
    frequency:    8.7844065733
  - # 12
    frequency:    8.8737857314
  - # 13
    frequency:   10.4080230785
  - # 14
    frequency:   12.6358273649
  - # 15
    frequency:   12.7174505247
  - # 16
    frequency:   15.8495355374
  - # 17
    frequency:   16.9472037007
  - # 18
    frequency:   39.9339506465

- q-position: [    0.0757576,    0.0000000,    0.0000000 ]
  distance:    0.0281466
  band:
  - # 1
    frequency:   -6.5266579446
  - # 2
    frequency:   -6.0887921164
  - # 3
    frequency:   -0.9726231631
  - # 4
    frequency:    0.4848987171
  - # 5
    frequency:    1.6850056018
  - # 6
    frequency:    1.8042856310
  - # 7
    frequency:    2.9215224716
  - # 8
    frequency:    4.5228082924
  - # 9
    frequency:    5.6232557559
  - # 10
    frequency:    6.8502353753
  - # 11
    frequency:    8.8087561818
  - # 12
    frequency:    8.9084448572
  - # 13
    frequency:   10.4043894029
  - # 14
    frequency:   12.6269850656
  - # 15
    frequency:   12.7192760468
  - # 16
    frequency:   15.8336353134
  - # 17
    frequency:   16.9471835126
  - # 18
    frequency:   39.9121881505

- q-position: [    0.0808081,    0.0000000,    0.0000000 ]
  distance:    0.0300230
  band:
  - # 1
    frequency:   -6.5437138878
  - # 2
    frequency:   -6.0516270685
  - # 3
    frequency:   -0.9937817440
  - # 4
    frequency:    0.5433503551
  - # 5
    frequency:    1.8033858825
  - # 6
    frequency:    1.8516698724
  - # 7
    frequency:    3.0583479684
  - # 8
    frequency:    4.6016179283
  - # 9
    frequency:    5.8150736863
  - # 10
    frequency:    6.8671424336
  - # 11
    frequency:    8.8345046678
  - # 12
    frequency:    8.9445460728
  - # 13
    frequency:   10.4007201446
  - # 14
    frequency:   12.6179450878
  - # 15
    frequency:   12.7211894220
  - # 16
    frequency:   15.8168651600
  - # 17
    frequency:   16.9472582784
  - # 18
    frequency:   39.8891469666

- q-position: [    0.0858586,    0.0000000,    0.0000000 ]
  distance:    0.0318995
  band:
  - # 1
    frequency:   -6.5618570316
  - # 2
    frequency:   -6.0131755229
  - # 3
    frequency:   -1.0108953734
  - # 4
    frequency:    0.6039837133
  - # 5
    frequency:    1.8996511481
  - # 6
    frequency:    1.9202898570
  - # 7
    frequency:    3.1950206229
  - # 8
    frequency:    4.6827760692
  - # 9
    frequency:    6.0047673581
  - # 10
    frequency:    6.8902146020
  - # 11
    frequency:    8.8615956150
  - # 12
    frequency:    8.9819534571
  - # 13
    frequency:   10.3970751983
  - # 14
    frequency:   12.6088124872
  - # 15
    frequency:   12.7231827603
  - # 16
    frequency:   15.7992831866
  - # 17
    frequency:   16.9474274891
  - # 18
    frequency:   39.8648692515

- q-position: [    0.0909091,    0.0000000,    0.0000000 ]
  distance:    0.0337759
  band:
  - # 1
    frequency:   -6.5810690164
  - # 2
    frequency:   -5.9734986244
  - # 3
    frequency:   -1.0241463931
  - # 4
    frequency:    0.6666504043
  - # 5
    frequency:    1.9482636977
  - # 6
    frequency:    2.0356127156
  - # 7
    frequency:    3.3314452171
  - # 8
    frequency:    4.7659989456
  - # 9
    frequency:    6.1872253052
  - # 10
    frequency:    6.9235056132
  - # 11
    frequency:    8.8899691685
  - # 12
    frequency:    9.0205345782
  - # 13
    frequency:   10.3935261821
  - # 14
    frequency:   12.5997077845
  - # 15
    frequency:   12.7252476087
  - # 16
    frequency:   15.7809520708
  - # 17
    frequency:   16.9476870532
  - # 18
    frequency:   39.8393991720

- q-position: [    0.0959596,    0.0000000,    0.0000000 ]
  distance:    0.0356523
  band:
  - # 1
    frequency:   -6.6013267239
  - # 2
    frequency:   -5.9326393124
  - # 3
    frequency:   -1.0337038103
  - # 4
    frequency:    0.7312086683
  - # 5
    frequency:    1.9975362586
  - # 6
    frequency:    2.1492605097
  - # 7
    frequency:    3.4675202662
  - # 8
    frequency:    4.8510210497
  - # 9
    frequency:    6.3541911953
  - # 10
    frequency:    6.9742643290
  - # 11
    frequency:    8.9195621797
  - # 12
    frequency:    9.0601612978
  - # 13
    frequency:   10.3901594091
  - # 14
    frequency:   12.5907690756
  - # 15
    frequency:   12.7273749557
  - # 16
    frequency:   15.7619382647
  - # 17
    frequency:   16.9480294483
  - # 18
    frequency:   39.8127827830

- q-position: [    0.1010101,    0.0000000,    0.0000000 ]
  distance:    0.0375288
  band:
  - # 1
    frequency:   -6.6226020644
  - # 2
    frequency:   -5.8906236782
  - # 3
    frequency:   -1.0397248101
  - # 4
    frequency:    0.7975223636
  - # 5
    frequency:    2.0474901046
  - # 6
    frequency:    2.2611460937
  - # 7
    frequency:    3.6031340587
  - # 8
    frequency:    4.9375946510
  - # 9
    frequency:    6.4939371670
  - # 10
    frequency:    7.0532537945
  - # 11
    frequency:    8.9503083799
  - # 12
    frequency:    9.1007103962
  - # 13
    frequency:   10.3870798117
  - # 14
    frequency:   12.5821543439
  - # 15
    frequency:   12.7295552412
  - # 16
    frequency:   15.7423110693
  - # 17
    frequency:   16.9484439638
  - # 18
    frequency:   39.7850679009

- q-position: [    0.1060606,    0.0000000,    0.0000000 ]
  distance:    0.0394052
  band:
  - # 1
    frequency:   -6.6448618448
  - # 2
    frequency:   -5.8474626204
  - # 3
    frequency:   -1.0423556781
  - # 4
    frequency:    0.8654601090
  - # 5
    frequency:    2.0981378423
  - # 6
    frequency:    2.3711862223
  - # 7
    frequency:    3.7381628517
  - # 8
    frequency:    5.0254890690
  - # 9
    frequency:    6.5970024475
  - # 10
    frequency:    7.1690024945
  - # 11
    frequency:    8.9821385826
  - # 12
    frequency:    9.1420639796
  - # 13
    frequency:   10.3844161446
  - # 14
    frequency:   12.5740439553
  - # 15
    frequency:   12.7317783707
  - # 16
    frequency:   15.7221416098
  - # 17
    frequency:   16.9489170138
  - # 18
    frequency:   39.7563039724

- q-position: [    0.1111111,    0.0000000,    0.0000000 ]
  distance:    0.0412817
  band:
  - # 1
    frequency:   -6.6680677206
  - # 2
    frequency:   -5.8031536749
  - # 3
    frequency:   -1.0417321823
  - # 4
    frequency:    0.9348945611
  - # 5
    frequency:    2.1494827419
  - # 6
    frequency:    2.4792994996
  - # 7
    frequency:    3.8724703884
  - # 8
    frequency:    5.1144897890
  - # 9
    frequency:    6.6656480641
  - # 10
    frequency:    7.3183372105
  - # 11
    frequency:    9.0149809135
  - # 12
    frequency:    9.1841095915
  - # 13
    frequency:   10.3823278985
  - # 14
    frequency:   12.5666433005
  - # 15
    frequency:   12.7340337353
  - # 16
    frequency:   15.7015017470
  - # 17
    frequency:   16.9494324989
  - # 18
    frequency:   39.7265419414

- q-position: [    0.1161616,    0.0000000,    0.0000000 ]
  distance:    0.0431581
  band:
  - # 1
    frequency:   -6.6921762322
  - # 2
    frequency:   -5.7576829145
  - # 3
    frequency:   -1.0379794596
  - # 4
    frequency:    1.0057018005
  - # 5
    frequency:    2.2015184538
  - # 6
    frequency:    2.5854049689
  - # 7
    frequency:    4.0059081530
  - # 8
    frequency:    5.2043974881
  - # 9
    frequency:    6.7108131968
  - # 10
    frequency:    7.4894119644
  - # 11
    frequency:    9.0487610665
  - # 12
    frequency:    9.2267398679
  - # 13
    frequency:   10.3810144831
  - # 14
    frequency:   12.5601855345
  - # 15
    frequency:   12.7363102376
  - # 16
    frequency:   15.6804629625
  - # 17
    frequency:   16.9499721974
  - # 18
    frequency:   39.6958341114

- q-position: [    0.1212121,    0.0000000,    0.0000000 ]
  distance:    0.0450345
  band:
  - # 1
    frequency:   -6.7171389241
  - # 2
    frequency:   -5.7110268310
  - # 3
    frequency:   -1.0312114369
  - # 4
    frequency:    1.0777608065
  - # 5
    frequency:    2.2542290108
  - # 6
    frequency:    2.6894211997
  - # 7
    frequency:    4.1383159641
  - # 8
    frequency:    5.2950270212
  - # 9
    frequency:    6.7423563544
  - # 10
    frequency:    7.6714497992
  - # 11
    frequency:    9.0834025844
  - # 12
    frequency:    9.2698514382
  - # 13
    frequency:   10.3807273744
  - # 14
    frequency:   12.5549343363
  - # 15
    frequency:   12.7385963239
  - # 16
    frequency:   15.6590952533
  - # 17
    frequency:   16.9505161680
  - # 18
    frequency:   39.6642340064

- q-position: [    0.1262626,    0.0000000,    0.0000000 ]
  distance:    0.0469110
  band:
  - # 1
    frequency:   -6.7429025422
  - # 2
    frequency:   -5.6631541380
  - # 3
    frequency:   -1.0215298068
  - # 4
    frequency:    1.1509529965
  - # 5
    frequency:    2.3075890480
  - # 6
    frequency:    2.7912657663
  - # 7
    frequency:    4.2695226422
  - # 8
    frequency:    5.3862064021
  - # 9
    frequency:    6.7662614566
  - # 10
    frequency:    7.8575173266
  - # 11
    frequency:    9.1188271621
  - # 12
    frequency:    9.3133425450
  - # 13
    frequency:   10.3817860133
  - # 14
    frequency:   12.5511865777
  - # 15
    frequency:   12.7408800227
  - # 16
    frequency:   15.6374660697
  - # 17
    frequency:   16.9510431471
  - # 18
    frequency:   39.6317962293

- q-position: [    0.1313131,    0.0000000,    0.0000000 ]
  distance:    0.0487874
  band:
  - # 1
    frequency:   -6.7694093031
  - # 2
    frequency:   -5.6140274452
  - # 3
    frequency:   -1.0090225594
  - # 4
    frequency:    1.2251618152
  - # 5
    frequency:    2.3615641973
  - # 6
    frequency:    2.8908550465
  - # 7
    frequency:    4.3993465837
  - # 8
    frequency:    5.4777758047
  - # 9
    frequency:    6.7858159257
  - # 10
    frequency:    8.0433253582
  - # 11
    frequency:    9.1549549699
  - # 12
    frequency:    9.3571084869
  - # 13
    frequency:   10.3845981805
  - # 14
    frequency:   12.5492747453
  - # 15
    frequency:   12.7431489903
  - # 16
    frequency:   15.6156393307
  - # 17
    frequency:   16.9515309314
  - # 18
    frequency:   39.5985763194

- q-position: [    0.1363636,    0.0000000,    0.0000000 ]
  distance:    0.0506639
  band:
  - # 1
    frequency:   -6.7965972291
  - # 2
    frequency:   -5.5636047740
  - # 3
    frequency:   -0.9937620502
  - # 4
    frequency:    1.3002723593
  - # 5
    frequency:    2.4161116236
  - # 6
    frequency:    2.9881042883
  - # 7
    frequency:    4.5275961387
  - # 8
    frequency:    5.5695865995
  - # 9
    frequency:    6.8028521768
  - # 10
    frequency:    8.2259657032
  - # 11
    frequency:    9.1917049931
  - # 12
    frequency:    9.4010334416
  - # 13
    frequency:   10.3896850897
  - # 14
    frequency:   12.5495688924
  - # 15
    frequency:   12.7453905632
  - # 16
    frequency:   15.5936745412
  - # 17
    frequency:   16.9519567335
  - # 18
    frequency:   39.5646306081

- q-position: [    0.1414141,    0.0000000,    0.0000000 ]
  distance:    0.0525403
  band:
  - # 1
    frequency:   -6.8244005367
  - # 2
    frequency:   -5.5118408966
  - # 3
    frequency:   -0.9758025490
  - # 4
    frequency:    1.3761710285
  - # 5
    frequency:    2.4711806792
  - # 6
    frequency:    3.0829279044
  - # 7
    frequency:    4.6540697362
  - # 8
    frequency:    5.6615004369
  - # 9
    frequency:    6.8184469659
  - # 10
    frequency:    8.4031933460
  - # 11
    frequency:    9.2289953868
  - # 12
    frequency:    9.4449765282
  - # 13
    frequency:   10.3977099897
  - # 14
    frequency:   12.5524778114
  - # 15
    frequency:   12.7475918178
  - # 16
    frequency:   15.5716260383
  - # 17
    frequency:   16.9522975067
  - # 18
    frequency:   39.5300160745

- q-position: [    0.1464646,    0.0000000,    0.0000000 ]
  distance:    0.0544167
  band:
  - # 1
    frequency:   -6.8527500717
  - # 2
    frequency:   -5.4586884887
  - # 3
    frequency:   -0.9551771677
  - # 4
    frequency:    1.4527451986
  - # 5
    frequency:    2.5267136542
  - # 6
    frequency:    3.1752399656
  - # 7
    frequency:    4.7785557308
  - # 8
    frequency:    5.7533883822
  - # 9
    frequency:    6.8332750702
  - # 10
    frequency:    8.5730652300
  - # 11
    frequency:    9.2667438414
  - # 12
    frequency:    9.4887494001
  - # 13
    frequency:   10.4095057155
  - # 14
    frequency:   12.5584489943
  - # 15
    frequency:   12.7497396361
  - # 16
    frequency:   15.5495423820
  - # 17
    frequency:   16.9525302343
  - # 18
    frequency:   39.4947902005

- q-position: [    0.1515152,    0.0000000,    0.0000000 ]
  distance:    0.0562932
  band:
  - # 1
    frequency:   -6.8815737792
  - # 2
    frequency:   -5.4040990966
  - # 3
    frequency:   -0.9318939875
  - # 4
    frequency:    1.5298829107
  - # 5
    frequency:    2.5826466044
  - # 6
    frequency:    3.2649548658
  - # 7
    frequency:    4.9008319694
  - # 8
    frequency:    5.8451301037
  - # 9
    frequency:    6.8477892313
  - # 10
    frequency:    8.7337776347
  - # 11
    frequency:    9.3048679556
  - # 12
    frequency:    9.5320831540
  - # 13
    frequency:   10.4260900382
  - # 14
    frequency:   12.5679668031
  - # 15
    frequency:   12.7518207787
  - # 16
    frequency:   15.5274659057
  - # 17
    frequency:   16.9526321832
  - # 18
    frequency:   39.4590108272

- q-position: [    0.1565657,    0.0000000,    0.0000000 ]
  distance:    0.0581696
  band:
  - # 1
    frequency:   -6.9107971983
  - # 2
    frequency:   -5.3480239200
  - # 3
    frequency:   -0.9059310954
  - # 4
    frequency:    1.6074725787
  - # 5
    frequency:    2.6389102338
  - # 6
    frequency:    3.3519881359
  - # 7
    frequency:    5.0206650998
  - # 8
    frequency:    5.9366131168
  - # 9
    frequency:    6.8623153383
  - # 10
    frequency:    8.8836340644
  - # 11
    frequency:    9.3432856153
  - # 12
    frequency:    9.5745860558
  - # 13
    frequency:   10.4486471487
  - # 14
    frequency:   12.5815480880
  - # 15
    frequency:   12.7538219641
  - # 16
    frequency:   15.5054324325
  - # 17
    frequency:   16.9525811224
  - # 18
    frequency:   39.4227360106

- q-position: [    0.1616162,    0.0000000,    0.0000000 ]
  distance:    0.0600461
  band:
  - # 1
    frequency:   -6.9403439716
  - # 2
    frequency:   -5.2904144209
  - # 3
    frequency:   -0.8772300530
  - # 4
    frequency:    1.6854027145
  - # 5
    frequency:    2.6954308129
  - # 6
    frequency:    3.4362573807
  - # 7
    frequency:    5.1378096709
  - # 8
    frequency:    6.0277320806
  - # 9
    frequency:    6.8771052098
  - # 10
    frequency:    9.0211235478
  - # 11
    frequency:    9.3819153732
  - # 12
    frequency:    9.6157037879
  - # 13
    frequency:   10.4784421971
  - # 14
    frequency:   12.5997343174
  - # 15
    frequency:   12.7557299531
  - # 16
    frequency:   15.4834711607
  - # 17
    frequency:   16.9523555084
  - # 18
    frequency:   39.3860238798

- q-position: [    0.1666667,    0.0000000,    0.0000000 ]
  distance:    0.0619225
  band:
  - # 1
    frequency:   -6.9701363607
  - # 2
    frequency:   -5.2312227639
  - # 3
    frequency:   -0.8456870282
  - # 4
    frequency:    1.7635616736
  - # 5
    frequency:    2.7521311106
  - # 6
    frequency:    3.5176833129
  - # 7
    frequency:    5.2520071099
  - # 8
    frequency:    6.1183881469
  - # 9
    frequency:    6.8923672701
  - # 10
    frequency:    9.1450937347
  - # 11
    frequency:    9.4206768278
  - # 12
    frequency:    9.6547114975
  - # 13
    frequency:   10.5166359047
  - # 14
    frequency:   12.6230791570
  - # 15
    frequency:   12.7575316392
  - # 16
    frequency:   15.4616047141
  - # 17
    frequency:   16.9519346421
  - # 18
    frequency:   39.3489324959

- q-position: [    0.1717172,    0.0000000,    0.0000000 ]
  distance:    0.0637989
  band:
  - # 1
    frequency:   -7.0000957585
  - # 2
    frequency:   -5.1704021013
  - # 3
    frequency:   -0.8111403034
  - # 4
    frequency:    1.8418374234
  - # 5
    frequency:    2.8089313185
  - # 6
    frequency:    3.5961908536
  - # 7
    frequency:    5.3629847223
  - # 8
    frequency:    6.2084883591
  - # 9
    frequency:    6.9082851324
  - # 10
    frequency:    9.2549650853
  - # 11
    frequency:    9.4594909978
  - # 12
    frequency:    9.6907812539
  - # 13
    frequency:   10.5640002290
  - # 14
    frequency:   12.6521304766
  - # 15
    frequency:   12.7592141431
  - # 16
    frequency:   15.4398493514
  - # 17
    frequency:   16.9512988019
  - # 18
    frequency:   39.3115197139

- q-position: [    0.1767677,    0.0000000,    0.0000000 ]
  distance:    0.0656754
  band:
  - # 1
    frequency:   -7.0301431921
  - # 2
    frequency:   -5.1079067103
  - # 3
    frequency:   -0.7733519667
  - # 4
    frequency:    1.9201173396
  - # 5
    frequency:    2.8657499495
  - # 6
    frequency:    3.6717102643
  - # 7
    frequency:    5.4704549375
  - # 8
    frequency:    6.2979450980
  - # 9
    frequency:    6.9250291576
  - # 10
    frequency:    9.3508755907
  - # 11
    frequency:    9.4982806899
  - # 12
    frequency:    9.7231526849
  - # 13
    frequency:   10.6206132748
  - # 14