nqpoint: 300    
npath: 3      
segment_nqpoint:
- 100
- 100
- 100
labels:
- [ 'G', 'M' ]
- [ 'M', 'K' ]
- [ 'K', 'G' ]
reciprocal_lattice:
- [   0.30230621,   0.17453657,   0.00000000 ] # a*
- [   0.00000000,   0.34907315,   0.00000000 ] # b*
- [   0.00000000,   0.00000000,   0.03747602 ] # c*
natom: 8      
lattice:
- [     3.307904220825408,     0.000000000000000,     0.000000000000000 ] # a
- [    -1.653952110412704,     2.864729088524285,     0.000000000000000 ] # b
- [     0.000000000000000,     0.000000000000000,    26.683728716157059 ] # c
points:
- symbol: C # 1
  coordinates: [  0.666666984744047,  0.333332985985145,  0.381795564981927 ]
  mass: 12.010700
- symbol: N # 2
  coordinates: [  0.000000000000000,  0.000000000000000,  0.519332138204702 ]
  mass: 14.006700
- symbol: N # 3
  coordinates: [  0.333332985432214,  0.666666983183674,  0.613237732094440 ]
  mass: 14.006700
- symbol: N # 4
  coordinates: [  0.666666984744047,  0.333332985985145,  0.337284196513004 ]
  mass: 14.006700
- symbol: O # 5
  coordinates: [  0.333332985432214,  0.666666983183674,  0.662715803486996 ]
  mass: 15.999400
- symbol: O # 6
  coordinates: [  0.666666984744047,  0.333332985985145,  0.431913112216452 ]
  mass: 15.999400
- symbol: Sc # 7
  coordinates: [  0.333332985432214,  0.666666983183674,  0.479295523635923 ]
  mass: 44.955912
- symbol: Sc # 8
  coordinates: [  0.666666984744047,  0.333332985985145,  0.575746923642639 ]
  mass: 44.955912

phonon:
- q-position: [    0.0000000,    0.0000000,    0.0000000 ]
  distance:    0.0000000
  band:
  - # 1
    frequency:   -4.0758066985
  - # 2
    frequency:   -4.0758066985
  - # 3
    frequency:   -1.2497588997
  - # 4
    frequency:   -1.2497588997
  - # 5
    frequency:   -0.0000014505
  - # 6
    frequency:   -0.0000008035
  - # 7
    frequency:    0.0000015145
  - # 8
    frequency:    3.3487592630
  - # 9
    frequency:    3.3487592630
  - # 10
    frequency:    5.5816968874
  - # 11
    frequency:    6.6586338379
  - # 12
    frequency:    6.6586338379
  - # 13
    frequency:    8.9328810452
  - # 14
    frequency:    8.9328810452
  - # 15
    frequency:    9.3088561209
  - # 16
    frequency:   10.3439215165
  - # 17
    frequency:   11.8214172977
  - # 18
    frequency:   11.8214172977
  - # 19
    frequency:   13.6713418232
  - # 20
    frequency:   13.6713418232
  - # 21
    frequency:   16.1185707884
  - # 22
    frequency:   32.2522936840
  - # 23
    frequency:   39.6959747085
  - # 24
    frequency:   68.0931726492

- q-position: [    0.0050505,    0.0000000,    0.0000000 ]
  distance:    0.0017630
  band:
  - # 1
    frequency:   -4.0751783186
  - # 2
    frequency:   -4.0737066756
  - # 3
    frequency:   -1.2489515477
  - # 4
    frequency:   -1.2464958749
  - # 5
    frequency:   -0.0642359611
  - # 6
    frequency:    0.0590969796
  - # 7
    frequency:    0.1314928093
  - # 8
    frequency:    3.3494169251
  - # 9
    frequency:    3.3512320593
  - # 10
    frequency:    5.5812423182
  - # 11
    frequency:    6.6586815903
  - # 12
    frequency:    6.6599143807
  - # 13
    frequency:    8.9334386891
  - # 14
    frequency:    8.9347627925
  - # 15
    frequency:    9.3081026680
  - # 16
    frequency:   10.3431050317
  - # 17
    frequency:   11.8214163708
  - # 18
    frequency:   11.8243678463
  - # 19
    frequency:   13.6714003765
  - # 20
    frequency:   13.6716119616
  - # 21
    frequency:   16.1176389499
  - # 22
    frequency:   32.2516145253
  - # 23
    frequency:   39.6952100873
  - # 24
    frequency:   68.0928671654

- q-position: [    0.0101010,    0.0000000,    0.0000000 ]
  distance:    0.0035260
  band:
  - # 1
    frequency:   -4.0732966095
  - # 2
    frequency:   -4.0674183512
  - # 3
    frequency:   -1.2465303176
  - # 4
    frequency:   -1.2366927031
  - # 5
    frequency:   -0.0746192303
  - # 6
    frequency:    0.1181978432
  - # 7
    frequency:    0.2416259186
  - # 8
    frequency:    3.3513893695
  - # 9
    frequency:    3.3586278723
  - # 10
    frequency:    5.5798871545
  - # 11
    frequency:    6.6588245537
  - # 12
    frequency:    6.6637406737
  - # 13
    frequency:    8.9351104758
  - # 14
    frequency:    8.9403675327
  - # 15
    frequency:    9.3058844255
  - # 16
    frequency:   10.3406662251
  - # 17
    frequency:   11.8214132548
  - # 18
    frequency:   11.8331946627
  - # 19
    frequency:   13.6715759613
  - # 20
    frequency:   13.6724224862
  - # 21
    frequency:   16.1148464713
  - # 22
    frequency:   32.2495796278
  - # 23
    frequency:   39.6929174958
  - # 24
    frequency:   68.0919515979

- q-position: [    0.0151515,    0.0000000,    0.0000000 ]
  distance:    0.0052890
  band:
  - # 1
    frequency:   -4.0701718604
  - # 2
    frequency:   -4.0569769275
  - # 3
    frequency:   -1.2424975851
  - # 4
    frequency:   -1.2203037331
  - # 5
    frequency:   -0.0825210087
  - # 6
    frequency:    0.1773062146
  - # 7
    frequency:    0.3552887455
  - # 8
    frequency:    3.3546749613
  - # 9
    frequency:    3.3708798312
  - # 10
    frequency:    5.5776565415
  - # 11
    frequency:    6.6590618476
  - # 12
    frequency:    6.6700674938
  - # 13
    frequency:    8.9378929714
  - # 14
    frequency:    8.9495679834
  - # 15
    frequency:    9.3023331177
  - # 16
    frequency:   10.3366360845
  - # 17
    frequency:   11.8214069509
  - # 18
    frequency:   11.8478245691
  - # 19
    frequency:   13.6718683517
  - # 20
    frequency:   13.6737737389
  - # 21
    frequency:   16.1102024540
  - # 22
    frequency:   32.2461967112
  - # 23
    frequency:   39.6891007470
  - # 24
    frequency:   68.0904285940

- q-position: [    0.0202020,    0.0000000,    0.0000000 ]
  distance:    0.0070520
  band:
  - # 1
    frequency:   -4.0658212093
  - # 2
    frequency:   -4.0424409698
  - # 3
    frequency:   -1.2368569768
  - # 4
    frequency:   -1.1972414062
  - # 5
    frequency:   -0.0893456864
  - # 6
    frequency:    0.2364252201
  - # 7
    frequency:    0.4708656853
  - # 8
    frequency:    3.3592709459
  - # 9
    frequency:    3.3878792607
  - # 10
    frequency:    5.5745908323
  - # 11
    frequency:    6.6593920086
  - # 12
    frequency:    6.6788220011
  - # 13
    frequency:    8.9417804544
  - # 14
    frequency:    8.9621310038
  - # 15
    frequency:    9.2976879935
  - # 16
    frequency:   10.3310632406
  - # 17
    frequency:   11.8213958183
  - # 18
    frequency:   11.8681397692
  - # 19
    frequency:   13.6722771720
  - # 20
    frequency:   13.6756663381
  - # 21
    frequency:   16.1037220363
  - # 22
    frequency:   32.2414785890
  - # 23
    frequency:   39.6837661838
  - # 24
    frequency:   68.0883025496

- q-position: [    0.0252525,    0.0000000,    0.0000000 ]
  distance:    0.0088150
  band:
  - # 1
    frequency:   -4.0602686264
  - # 2
    frequency:   -4.0238922254
  - # 3
    frequency:   -1.2296128786
  - # 4
    frequency:   -1.1673580911
  - # 5
    frequency:   -0.0938542497
  - # 6
    frequency:    0.2955572923
  - # 7
    frequency:    0.5878400406
  - # 8
    frequency:    3.3651734066
  - # 9
    frequency:    3.4094795860
  - # 10
    frequency:    5.5707434645
  - # 11
    frequency:    6.6598129965
  - # 12
    frequency:    6.6899072596
  - # 13
    frequency:    8.9467649195
  - # 14
    frequency:    8.9776795025
  - # 15
    frequency:    9.2923321257
  - # 16
    frequency:   10.3240099837
  - # 17
    frequency:   11.8213776087
  - # 18
    frequency:   11.8939834473
  - # 19
    frequency:   13.6728018974
  - # 20
    frequency:   13.6781012528
  - # 21
    frequency:   16.0954263483
  - # 22
    frequency:   32.2354430895
  - # 23
    frequency:   39.6769226611
  - # 24
    frequency:   68.0855795853

- q-position: [    0.0303030,    0.0000000,    0.0000000 ]
  distance:    0.0105780
  band:
  - # 1
    frequency:   -4.0535448857
  - # 2
    frequency:   -4.0014353288
  - # 3
    frequency:   -1.2207697681
  - # 4
    frequency:   -1.1304187568
  - # 5
    frequency:   -0.0941157491
  - # 6
    frequency:    0.3547040336
  - # 7
    frequency:    0.7060605004
  - # 8
    frequency:    3.3723772050
  - # 9
    frequency:    3.4355013206
  - # 10
    frequency:    5.5661783658
  - # 11
    frequency:    6.6603222033
  - # 12
    frequency:    6.7032066692
  - # 13
    frequency:    8.9528360818
  - # 14
    frequency:    8.9956246088
  - # 15
    frequency:    9.2868580057
  - # 16
    frequency:   10.3155476200
  - # 17
    frequency:   11.8213495151
  - # 18
    frequency:   11.9251664680
  - # 19
    frequency:   13.6734418549
  - # 20
    frequency:   13.6810799123
  - # 21
    frequency:   16.0853424474
  - # 22
    frequency:   32.2281129462
  - # 23
    frequency:   39.6685815207
  - # 24
    frequency:   68.0822675139

- q-position: [    0.0353535,    0.0000000,    0.0000000 ]
  distance:    0.0123410
  band:
  - # 1
    frequency:   -4.0456875243
  - # 2
    frequency:   -3.9751973497
  - # 3
    frequency:   -1.2103313848
  - # 4
    frequency:   -1.0860624532
  - # 5
    frequency:   -0.0871082923
  - # 6
    frequency:    0.4138661494
  - # 7
    frequency:    0.8254798724
  - # 8
    frequency:    3.3808759094
  - # 9
    frequency:    3.4657377493
  - # 10
    frequency:    5.5609671693
  - # 11
    frequency:    6.6609164649
  - # 12
    frequency:    6.7185889154
  - # 13
    frequency:    8.9599813825
  - # 14
    frequency:    9.0150536015
  - # 15
    frequency:    9.2821771729
  - # 16
    frequency:   10.3057518052
  - # 17
    frequency:   11.8213082334
  - # 18
    frequency:   11.9614743677
  - # 19
    frequency:   13.6741962252
  - # 20
    frequency:   13.6846043551
  - # 21
    frequency:   16.0735032360
  - # 22
    frequency:   32.2195156583
  - # 23
    frequency:   39.6587565594
  - # 24
    frequency:   68.0783757975

- q-position: [    0.0404040,    0.0000000,    0.0000000 ]
  distance:    0.0141040
  band:
  - # 1
    frequency:   -4.0367407820
  - # 2
    frequency:   -3.9453271348
  - # 3
    frequency:   -1.1982997583
  - # 4
    frequency:   -1.0337494635
  - # 5
    frequency:   -0.0658634161
  - # 6
    frequency:    0.4730434559
  - # 7
    frequency:    0.9460681799
  - # 8
    frequency:    3.3906617106
  - # 9
    frequency:    3.4999609103
  - # 10
    frequency:    5.5551865044
  - # 11
    frequency:    6.6615920761
  - # 12
    frequency:    6.7359130509
  - # 13
    frequency:    8.9681859961
  - # 14
    frequency:    9.0345710771
  - # 15
    frequency:    9.2796766409
  - # 16
    frequency:   10.2946983845
  - # 17
    frequency:   11.8212500368
  - # 18
    frequency:   12.0026739255
  - # 19
    frequency:   13.6750640438
  - # 20
    frequency:   13.6886774260
  - # 21
    frequency:   16.0599473605
  - # 22
    frequency:   32.2096833231
  - # 23
    frequency:   39.6474639905
  - # 24
    frequency:   68.0739154970

- q-position: [    0.0454545,    0.0000000,    0.0000000 ]
  distance:    0.0158670
  band:
  - # 1
    frequency:   -4.0267555180
  - # 2
    frequency:   -3.9119943857
  - # 3
    frequency:   -1.1846741101
  - # 4
    frequency:   -0.9726894428
  - # 5
    frequency:    0.0413770018
  - # 6
    frequency:    0.5322349592
  - # 7
    frequency:    1.0677817154
  - # 8
    frequency:    3.4017253303
  - # 9
    frequency:    3.5379275150
  - # 10
    frequency:    5.5489155716
  - # 11
    frequency:    6.6623448091
  - # 12
    frequency:    6.7550333739
  - # 13
    frequency:    8.9774328386
  - # 14
    frequency:    9.0521675509
  - # 15
    frequency:    9.2813481549
  - # 16
    frequency:   10.2824600843
  - # 17
    frequency:   11.8211708614
  - # 18
    frequency:   12.0485188009
  - # 19
    frequency:   13.6760442038
  - # 20
    frequency:   13.6933030307
  - # 21
    frequency:   16.0447190922
  - # 22
    frequency:   32.1986524402
  - # 23
    frequency:   39.6347223983
  - # 24
    frequency:   68.0688992130

- q-position: [    0.0505051,    0.0000000,    0.0000000 ]
  distance:    0.0176300
  band:
  - # 1
    frequency:   -4.0157890965
  - # 2
    frequency:   -3.8753884177
  - # 3
    frequency:   -1.1694496416
  - # 4
    frequency:   -0.9017454898
  - # 5
    frequency:    0.1079087810
  - # 6
    frequency:    0.5914389950
  - # 7
    frequency:    1.1905530371
  - # 8
    frequency:    3.4140559237
  - # 9
    frequency:    3.5793845152
  - # 10
    frequency:    5.5422341392
  - # 11
    frequency:    6.6631699357
  - # 12
    frequency:    6.7758038470
  - # 13
    frequency:    8.9877025777
  - # 14
    frequency:    9.0653915665
  - # 15
    frequency:    9.2896143909
  - # 16
    frequency:   10.2691042025
  - # 17
    frequency:   11.8210664033
  - # 18
    frequency:   12.0987539443
  - # 19
    frequency:   13.6771354578
  - # 20
    frequency:   13.6984864632
  - # 21
    frequency:   16.0278681892
  - # 22
    frequency:   32.1864636902
  - # 23
    frequency:   39.6205526863
  - # 24
    frequency:   68.0633410192

- q-position: [    0.0555556,    0.0000000,    0.0000000 ]
  distance:    0.0193930
  band:
  - # 1
    frequency:   -4.0039052351
  - # 2
    frequency:   -3.8357165470
  - # 3
    frequency:   -1.1526162149
  - # 4
    frequency:   -0.8193193907
  - # 5
    frequency:    0.1644473992
  - # 6
    frequency:    0.6506534102
  - # 7
    frequency:    1.3142896328
  - # 8
    frequency:    3.4276409817
  - # 9
    frequency:    3.6240741078
  - # 10
    frequency:    5.5352210281
  - # 11
    frequency:    6.6640622530
  - # 12
    frequency:    6.7980818857
  - # 13
    frequency:    8.9989736436
  - # 14
    frequency:    9.0721807231
  - # 15
    frequency:    9.3064968196
  - # 16
    frequency:   10.2546912865
  - # 17
    frequency:   11.8209322255
  - # 18
    frequency:   12.1531186836
  - # 19
    frequency:   13.6783364206
  - # 20
    frequency:   13.7042348239
  - # 21
    frequency:   16.0094497412
  - # 22
    frequency:   32.1731616900
  - # 23
    frequency:   39.6049780202
  - # 24
    frequency:   68.0572563880

- q-position: [    0.0606061,    0.0000000,    0.0000000 ]
  distance:    0.0211559
  band:
  - # 1
    frequency:   -3.9911738070
  - # 2
    frequency:   -3.7932020716
  - # 3
    frequency:   -1.1341569160
  - # 4
    frequency:   -0.7232877873
  - # 5
    frequency:    0.2248794794
  - # 6
    frequency:    0.7098757621
  - # 7
    frequency:    1.4388759467
  - # 8
    frequency:    3.4424662358
  - # 9
    frequency:    3.6717380487
  - # 10
    frequency:    5.5279530937
  - # 11
    frequency:    6.6650161141
  - # 12
    frequency:    6.8217314286
  - # 13
    frequency:    9.0112222424
  - # 14
    frequency:    9.0719265115
  - # 15
    frequency:    9.3325504077
  - # 16
    frequency:   10.2392746781
  - # 17
    frequency:   11.8207638743
  - # 18
    frequency:   12.2113485362
  - # 19
    frequency:   13.6796455726
  - # 20
    frequency:   13.7105575576
  - # 21
    frequency:   15.9895239967
  - # 22
    frequency:   32.1587947245
  - # 23
    frequency:   39.5880237636
  - # 24
    frequency:   68.0506621100

- q-position: [    0.0656566,    0.0000000,    0.0000000 ]
  distance:    0.0229189
  band:
  - # 1
    frequency:   -3.9776705881
  - # 2
    frequency:   -3.7480818342
  - # 3
    frequency:   -1.1140464772
  - # 4
    frequency:   -0.6113532702
  - # 5
    frequency:    0.2955705566
  - # 6
    frequency:    0.7691035058
  - # 7
    frequency:    1.5641761444
  - # 8
    frequency:    3.4585155713
  - # 9
    frequency:    3.7221212235
  - # 10
    frequency:    5.5205046691
  - # 11
    frequency:    6.6660254628
  - # 12
    frequency:    6.8466252692
  - # 13
    frequency:    9.0244223709
  - # 14
    frequency:    9.0655386908
  - # 15
    frequency:    9.3667994175
  - # 16
    frequency:   10.2229007627
  - # 17
    frequency:   11.8205570025
  - # 18
    frequency:   12.2731758763
  - # 19
    frequency:   13.6810612624
  - # 20
    frequency:   13.7174671446
  - # 21
    frequency:   15.9681561735
  - # 22
    frequency:   32.1434144602
  - # 23
    frequency:   39.5697174093
  - # 24
    frequency:   68.0435762071

- q-position: [    0.0707071,    0.0000000,    0.0000000 ]
  distance:    0.0246819
  band:
  - # 1
    frequency:   -3.9634769403
  - # 2
    frequency:   -3.7006033895
  - # 3
    frequency:   -1.0922495087
  - # 4
    frequency:   -0.4830345356
  - # 5
    frequency:    0.3844138995
  - # 6
    frequency:    0.8283341410
  - # 7
    frequency:    1.6900363740
  - # 8
    frequency:    3.4757709529
  - # 9
    frequency:    3.7749744746
  - # 10
    frequency:    5.5129474125
  - # 11
    frequency:    6.6670838728
  - # 12
    frequency:    6.8726466784
  - # 13
    frequency:    9.0385458336
  - # 14
    frequency:    9.0545356586
  - # 15
    frequency:    9.4076477780
  - # 16
    frequency:   10.2056097611
  - # 17
    frequency:   11.8203075006
  - # 18
    frequency:   12.3383296198
  - # 19
    frequency:   13.6825817113
  - # 20
    frequency:   13.7249799977
  - # 21
    frequency:   15.9454162548
  - # 22
    frequency:   32.1270756389
  - # 23
    frequency:   39.5500885052
  - # 24
    frequency:   68.0360178407

- q-position: [    0.0757576,    0.0000000,    0.0000000 ]
  distance:    0.0264449
  band:
  - # 1
    frequency:   -3.9486794216
  - # 2
    frequency:   -3.6510218412
  - # 3
    frequency:   -1.0687184594
  - # 4
    frequency:   -0.3428467767
  - # 5
    frequency:    0.4976517129
  - # 6
    frequency:    0.8875652878
  - # 7
    frequency:    1.8162861292
  - # 8
    frequency:    3.4942123674
  - # 9
    frequency:    3.8300567248
  - # 10
    frequency:    5.5053504956
  - # 11
    frequency:    6.6681845913
  - # 12
    frequency:    6.8996903849
  - # 13
    frequency:    9.0403040572
  - # 14
    frequency:    9.0535622624
  - # 15
    frequency:    9.4536206312
  - # 16
    frequency:   10.1874369571
  - # 17
    frequency:   11.8200116325
  - # 18
    frequency:   12.4065340720
  - # 19
    frequency:   13.6842050162
  - # 20
    frequency:   13.7331176330
  - # 21
    frequency:   15.9213787724
  - # 22
    frequency:   32.1098357581
  - # 23
    frequency:   39.5291685751
  - # 24
    frequency:   68.0280072144

- q-position: [    0.0808081,    0.0000000,    0.0000000 ]
  distance:    0.0282079
  band:
  - # 1
    frequency:   -3.9333693141
  - # 2
    frequency:   -3.5995964583
  - # 3
    frequency:   -1.0433911837
  - # 4
    frequency:   -0.1825617222
  - # 5
    frequency:    0.6277641467
  - # 6
    frequency:    0.9467946682
  - # 7
    frequency:    1.9427388161
  - # 8
    frequency:    3.5138177890
  - # 9
    frequency:    3.8871364565
  - # 10
    frequency:    5.4977810726
  - # 11
    frequency:    6.6693205878
  - # 12
    frequency:    6.9276629951
  - # 13
    frequency:    9.0238871718
  - # 14
    frequency:    9.0694391390
  - # 15
    frequency:    9.5035772525
  - # 16
    frequency:   10.1684143493
  - # 17
    frequency:   11.8196661753
  - # 18
    frequency:   12.4775070397
  - # 19
    frequency:   13.6859291543
  - # 20
    frequency:   13.7419082113
  - # 21
    frequency:   15.8961225794
  - # 22
    frequency:   32.0917547371
  - # 23
    frequency:   39.5069910345
  - # 24
    frequency:   68.0195654741

- q-position: [    0.0858586,    0.0000000,    0.0000000 ]
  distance:    0.0299709
  band:
  - # 1
    frequency:   -3.9176420621
  - # 2
    frequency:   -3.5465872218
  - # 3
    frequency:   -1.0161879333
  - # 4
    frequency:    0.1740865617
  - # 5
    frequency:    0.7591068191
  - # 6
    frequency:    1.0060199743
  - # 7
    frequency:    2.0691918695
  - # 8
    frequency:    3.5345631697
  - # 9
    frequency:    3.9459926087
  - # 10
    frequency:    5.4903049849
  - # 11
    frequency:    6.6704846066
  - # 12
    frequency:    6.9564829455
  - # 13
    frequency:    9.0060309192
  - # 14
    frequency:    9.0861418210
  - # 15
    frequency:    9.5566661359
  - # 16
    frequency:   10.1485729006
  - # 17
    frequency:   11.8192685620
  - # 18
    frequency:   12.5509572398
  - # 19
    frequency:   13.6877519874
  - # 20
    frequency:   13.7513885863
  - # 21
    frequency:   15.8697306172
  - # 22
    frequency:   32.0728945735
  - # 23
    frequency:   39.4835911036
  - # 24
    frequency:   68.0107146033

- q-position: [    0.0909091,    0.0000000,    0.0000000 ]
  distance:    0.0317339
  band:
  - # 1
    frequency:   -3.9015966142
  - # 2
    frequency:   -3.4922514870
  - # 3
    frequency:   -0.9870075061
  - # 4
    frequency:    0.2934903981
  - # 5
    frequency:    0.8840234747
  - # 6
    frequency:    1.0652386142
  - # 7
    frequency:    2.1954268059
  - # 8
    frequency:    3.5564224592
  - # 9
    frequency:    4.0064149462
  - # 10
    frequency:    5.4829876746
  - # 11
    frequency:    6.6716692237
  - # 12
    frequency:    6.9860800763
  - # 13
    frequency:    8.9872755420
  - # 14
    frequency:    9.1036335713
  - # 15
    frequency:    9.6122333540
  - # 16
    frequency:   10.1279459562
  - # 17
    frequency:   11.8188170246
  - # 18
    frequency:   12.6265809433
  - # 19
    frequency:   13.6896712664
  - # 20
    frequency:   13.7616070500
  - # 21
    frequency:   15.8422896816
  - # 22
    frequency:   32.0533189917
  - # 23
    frequency:   39.4590057145
  - # 24
    frequency:   68.0014773176

- q-position: [    0.0959596,    0.0000000,    0.0000000 ]
  distance:    0.0334969
  band:
  - # 1
    frequency:   -3.8853346662
  - # 2
    frequency:   -3.4368409594
  - # 3
    frequency:   -0.9557221533
  - # 4
    frequency:    0.3758721423
  - # 5
    frequency:    1.0014344286
  - # 6
    frequency:    1.1244473363
  - # 7
    frequency:    2.3212095408
  - # 8
    frequency:    3.5793676575
  - # 9
    frequency:    4.0682039356
  - # 10
    frequency:    5.4758953043
  - # 11
    frequency:    6.6728669071
  - # 12
    frequency:    7.0163949078
  - # 13
    frequency:    8.9680281454
  - # 14
    frequency:    9.1218755925
  - # 15
    frequency:    9.6697473010
  - # 16
    frequency:   10.1065754117
  - # 17
    frequency:   11.8183107373
  - # 18
    frequency:   12.7040576840
  - # 19
    frequency:   13.6916846366
  - # 20
    frequency:   13.7726270438
  - # 21
    frequency:   15.8138901941
  - # 22
    frequency:   32.0330930866
  - # 23
    frequency:   39.4332734169
  - # 24
    frequency:   67.9918769561

- q-position: [    0.1010101,    0.0000000,    0.0000000 ]
  distance:    0.0352599
  band:
  - # 1
    frequency:   -3.8689598031
  - # 2
    frequency:   -3.3805991759
  - # 3
    frequency:   -0.9221706401
  - # 4
    frequency:    0.4463968324
  - # 5
    frequency:    1.1121843798
  - # 6
    frequency:    1.1836417407
  - # 7
    frequency:    2.4462911772
  - # 8
    frequency:    3.6033688996
  - # 9
    frequency:    4.1311701317
  - # 10
    frequency:    5.4690961049
  - # 11
    frequency:    6.6740700813
  - # 12
    frequency:    7.0473776911
  - # 13
    frequency:    8.9486104249
  - # 14
    frequency:    9.1408270666
  - # 15
    frequency:    9.7287406358
  - # 16
    frequency:   10.0845253354
  - # 17
    frequency:   11.8177499570
  - # 18
    frequency:   12.7830447164
  - # 19
    frequency:   13.6937896423
  - # 20
    frequency:   13.7845322116
  - # 21
    frequency:   15.7846259890
  - # 22
    frequency:   32.0122829652
  - # 23
    frequency:   39.4064342789
  - # 24
    frequency:   67.9819373727

- q-position: [    0.1060606,    0.0000000,    0.0000000 ]
  distance:    0.0370229
  band:
  - # 1
    frequency:   -3.8525765454
  - # 2
    frequency:   -3.3237596521
  - # 3
    frequency:   -0.8861485072
  - # 4
    frequency:    0.5118855490
  - # 5
    frequency:    1.2173507475
  - # 6
    frequency:    1.2428156989
  - # 7
    frequency:    2.5704093549
  - # 8
    frequency:    3.6283945746
  - # 9
    frequency:    4.1951330422
  - # 10
    frequency:    5.4626620053
  - # 11
    frequency:    6.6752711933
  - # 12
    frequency:    7.0789872882
  - # 13
    frequency:    8.9292885024
  - # 14
    frequency:    9.1604451995
  - # 15
    frequency:    9.7887459589
  - # 16
    frequency:   10.0619194926
  - # 17
    frequency:   11.8171361598
  - # 18
    frequency:   12.8631697396
  - # 19
    frequency:   13.6959837326
  - # 20
    frequency:   13.7974333138
  - # 21
    frequency:   15.7545941267
  - # 22
    frequency:   31.9909553880
  - # 23
    frequency:   39.3785297860
  - # 24
    frequency:   67.9716828269

- q-position: [    0.1111111,    0.0000000,    0.0000000 ]
  distance:    0.0387859
  band:
  - # 1
    frequency:   -3.8362893051
  - # 2
    frequency:   -3.2665448018
  - # 3
    frequency:   -0.8473939802
  - # 4
    frequency:    0.5751093033
  - # 5
    frequency:    1.3019607074
  - # 6
    frequency:    1.3178565441
  - # 7
    frequency:    2.6932901515
  - # 8
    frequency:    3.6544114774
  - # 9
    frequency:    4.2599193857
  - # 10
    frequency:    5.4566706358
  - # 11
    frequency:    6.6764627811
  - # 12
    frequency:    7.1111899245
  - # 13
    frequency:    8.9102914906
  - # 14
    frequency:    9.1806852735
  - # 15
    frequency:    9.8491436938
  - # 16
    frequency:   10.0390776169
  - # 17
    frequency:   11.8164721723
  - # 18
    frequency:   12.9440212005
  - # 19
    frequency:   13.6982642666
  - # 20
    frequency:   13.8114776948
  - # 21
    frequency:   15.7238947495
  - # 22
    frequency:   31.9691774143
  - # 23
    frequency:   39.3496027373
  - # 24
    frequency:   67.9611378753

- q-position: [    0.1161616,    0.0000000,    0.0000000 ]
  distance:    0.0405489
  band:
  - # 1
    frequency:   -3.8202012667
  - # 2
    frequency:   -3.2091656680
  - # 3
    frequency:   -0.8055668779
  - # 4
    frequency:    0.6374223404
  - # 5
    frequency:    1.3610652096
  - # 6
    frequency:    1.4144279220
  - # 7
    frequency:    2.8146504594
  - # 8
    frequency:    3.6813849903
  - # 9
    frequency:    4.3253605992
  - # 10
    frequency:    5.4512078434
  - # 11
    frequency:    6.6776375442
  - # 12
    frequency:    7.1439578423
  - # 13
    frequency:    8.8918232075
  - # 14
    frequency:    9.2015007059
  - # 15
    frequency:    9.9083912585
  - # 16
    frequency:   10.0172768839
  - # 17
    frequency:   11.8157622951
  - # 18
    frequency:   13.0251353098
  - # 19
    frequency:   13.7006285197
  - # 20
    frequency:   13.8268621558
  - # 21
    frequency:   15.6926310021
  - # 22
    frequency:   31.9470160516
  - # 23
    frequency:   39.3196971399
  - # 24
    frequency:   67.9503272642

- q-position: [    0.1212121,    0.0000000,    0.0000000 ]
  distance:    0.0423119
  band:
  - # 1
    frequency:   -3.8044132100
  - # 2
    frequency:   -3.1518224254
  - # 3
    frequency:   -0.7602157561
  - # 4
    frequency:    0.6995711706
  - # 5
    frequency:    1.4201139233
  - # 6
    frequency:    1.5076250836
  - # 7
    frequency:    2.9342007382
  - # 8
    frequency:    3.7092792923
  - # 9
    frequency:    4.3912893702
  - # 10
    frequency:    5.4463709253
  - # 11
    frequency:    6.6787884131
  - # 12
    frequency:    7.1772678738
  - # 13
    frequency:    8.8740697261
  - # 14
    frequency:    9.2228431166
  - # 15
    frequency:    9.9554340864
  - # 16
    frequency:   10.0073353313
  - # 17
    frequency:   11.8150124167
  - # 18
    frequency:   13.1059788599
  - # 19
    frequency:   13.7030736888
  - # 20
    frequency:   13.8438501077
  - # 21
    frequency:   15.6609090421
  - # 22
    frequency:   31.9245379145
  - # 23
    frequency:   39.2888581008
  - # 24
    frequency:   67.9392758241

- q-position: [    0.1262626,    0.0000000,    0.0000000 ]
  distance:    0.0440749
  band:
  - # 1
    frequency:   -3.7890222976
  - # 2
    frequency:   -3.0947055421
  - # 3
    frequency:   -0.7107241689
  - # 4
    frequency:    0.7620068141
  - # 5
    frequency:    1.4790872114
  - # 6
    frequency:    1.5978804466
  - # 7
    frequency:    3.0516480425
  - # 8
    frequency:    3.7380575898
  - # 9
    frequency:    4.4575348673
  - # 10
    frequency:    5.4422728729
  - # 11
    frequency:    6.6799086194
  - # 12
    frequency:    7.2110999420
  - # 13
    frequency:    8.8572043503
  - # 14
    frequency:    9.2446624038
  - # 15
    frequency:    9.9518642735
  - # 16
    frequency:   10.0474498632
  - # 17
    frequency:   11.8142301170
  - # 18
    frequency:   13.1859274000
  - # 19
    frequency:   13.7055968992
  - # 20
    frequency:   13.8627933933
  - # 21
    frequency:   15.6288381810
  - # 22
    frequency:   31.9018088931
  - # 23
    frequency:   39.2571317182
  - # 24
    frequency:   67.9280083663

- q-position: [    0.1313131,    0.0000000,    0.0000000 ]
  distance:    0.0458379
  band:
  - # 1
    frequency:   -3.7741208556
  - # 2
    frequency:   -3.0379974225
  - # 3
    frequency:   -0.6562171911
  - # 4
    frequency:    0.8250230700
  - # 5
    frequency:    1.5379605339
  - # 6
    frequency:    1.6855302210
  - # 7
    frequency:    3.1666992472
  - # 8
    frequency:    3.7676823653
  - # 9
    frequency:    4.5239162099
  - # 10
    frequency:    5.4390480453
  - # 11
    frequency:    6.6809917637
  - # 12
    frequency:    7.2454354905
  - # 13
    frequency:    8.8413909558
  - # 14
    frequency:    9.2669068308
  - # 15
    frequency:    9.9287178833
  - # 16
    frequency:   10.1063968911
  - # 17
    frequency:   11.8134247563
  - # 18
    frequency:   13.2642401081
  - # 19
    frequency:   13.7081952100
  - # 20
    frequency:   13.8841573638
  - # 21
    frequency:   15.5965312058
  - # 22
    frequency:   31.8788938338
  - # 23
    frequency:   39.2245649714
  - # 24
    frequency:   67.9165495837

- q-position: [    0.1363636,    0.0000000,    0.0000000 ]
  distance:    0.0476009
  band:
  - # 1
    frequency:   -3.7597951790
  - # 2
    frequency:   -2.9818743019
  - # 3
    frequency:   -0.5953851487
  - # 4
    frequency:    0.8888234723
  - # 5
    frequency:    1.5967040135
  - # 6
    frequency:    1.7708382254
  - # 7