nqpoint: 300    
npath: 3      
segment_nqpoint:
- 100
- 100
- 100
labels:
- [ 'G', 'M' ]
- [ 'M', 'K' ]
- [ 'K', 'G' ]
reciprocal_lattice:
- [   0.30230621,   0.17453657,   0.00000000 ] # a*
- [   0.00000000,   0.34907315,   0.00000000 ] # b*
- [   0.00000000,   0.00000000,   0.03747602 ] # c*
natom: 8      
lattice:
- [     3.307904220825408,     0.000000000000000,     0.000000000000000 ] # a
- [    -1.653952110412704,     2.864729088524285,     0.000000000000000 ] # b
- [     0.000000000000000,     0.000000000000000,    26.683728716157059 ] # c
points:
- symbol: C # 1
  coordinates: [  0.666666984744047,  0.333332985985145,  0.381795564981927 ]
  mass: 12.010700
- symbol: N # 2
  coordinates: [  0.000000000000000,  0.000000000000000,  0.519332138204702 ]
  mass: 14.006700
- symbol: N # 3
  coordinates: [  0.333332985432214,  0.666666983183674,  0.613237732094440 ]
  mass: 14.006700
- symbol: N # 4
  coordinates: [  0.666666984744047,  0.333332985985145,  0.337284196513004 ]
  mass: 14.006700
- symbol: O # 5
  coordinates: [  0.333332985432214,  0.666666983183674,  0.662715803486996 ]
  mass: 15.999400
- symbol: O # 6
  coordinates: [  0.666666984744047,  0.333332985985145,  0.431913112216452 ]
  mass: 15.999400
- symbol: Sc # 7
  coordinates: [  0.333332985432214,  0.666666983183674,  0.479295523635923 ]
  mass: 44.955912
- symbol: Sc # 8
  coordinates: [  0.666666984744047,  0.333332985985145,  0.575746923642639 ]
  mass: 44.955912

phonon:
- q-position: [    0.0000000,    0.0000000,    0.0000000 ]
  distance:    0.0000000
  band:
  - # 1
    frequency:   -4.0042349771
  - # 2
    frequency:   -4.0042349771
  - # 3
    frequency:   -0.4281114753
  - # 4
    frequency:   -0.4281114752
  - # 5
    frequency:   -0.0000114081
  - # 6
    frequency:   -0.0000002046
  - # 7
    frequency:    0.0000138222
  - # 8
    frequency:    3.4655720737
  - # 9
    frequency:    3.4655720737
  - # 10
    frequency:    5.5826090970
  - # 11
    frequency:    6.7299649210
  - # 12
    frequency:    6.7299649210
  - # 13
    frequency:    8.9904539930
  - # 14
    frequency:    8.9904539930
  - # 15
    frequency:    9.2512998778
  - # 16
    frequency:   10.3346240397
  - # 17
    frequency:   11.9159303899
  - # 18
    frequency:   11.9159303899
  - # 19
    frequency:   13.5702588065
  - # 20
    frequency:   13.5702588065
  - # 21
    frequency:   16.0391799055
  - # 22
    frequency:   32.1714990990
  - # 23
    frequency:   39.6878669292
  - # 24
    frequency:   68.0729286813

- q-position: [    0.0050505,    0.0000000,    0.0000000 ]
  distance:    0.0017630
  band:
  - # 1
    frequency:   -4.0038513851
  - # 2
    frequency:   -4.0022755015
  - # 3
    frequency:   -0.4274631138
  - # 4
    frequency:   -0.4196690912
  - # 5
    frequency:    0.0022805728
  - # 6
    frequency:    0.0614285098
  - # 7
    frequency:    0.1213676551
  - # 8
    frequency:    3.4660574294
  - # 9
    frequency:    3.4678492266
  - # 10
    frequency:    5.5821351063
  - # 11
    frequency:    6.7299211844
  - # 12
    frequency:    6.7310234719
  - # 13
    frequency:    8.9910348771
  - # 14
    frequency:    8.9919772988
  - # 15
    frequency:    9.2507702269
  - # 16
    frequency:   10.3338172141
  - # 17
    frequency:   11.9157841451
  - # 18
    frequency:   11.9185927291
  - # 19
    frequency:   13.5703100600
  - # 20
    frequency:   13.5705084640
  - # 21
    frequency:   16.0384267985
  - # 22
    frequency:   32.1710090053
  - # 23
    frequency:   39.6871201587
  - # 24
    frequency:   68.0726713648

- q-position: [    0.0101010,    0.0000000,    0.0000000 ]
  distance:    0.0035260
  band:
  - # 1
    frequency:   -4.0027022021
  - # 2
    frequency:   -3.9964096170
  - # 3
    frequency:   -0.4253617197
  - # 4
    frequency:   -0.3937495351
  - # 5
    frequency:    0.0093161302
  - # 6
    frequency:    0.1223121386
  - # 7
    frequency:    0.2435536737
  - # 8
    frequency:    3.4675141566
  - # 9
    frequency:    3.4746627279
  - # 10
    frequency:    5.5807208854
  - # 11
    frequency:    6.7297902590
  - # 12
    frequency:    6.7341891078
  - # 13
    frequency:    8.9927760812
  - # 14
    frequency:    8.9964862022
  - # 15
    frequency:    9.2492435411
  - # 16
    frequency:   10.3314072415
  - # 17
    frequency:   11.9153459877
  - # 18
    frequency:   11.9265581717
  - # 19
    frequency:   13.5704637842
  - # 20
    frequency:   13.5712574178
  - # 21
    frequency:   16.0361692633
  - # 22
    frequency:   32.1695399671
  - # 23
    frequency:   39.6848809963
  - # 24
    frequency:   68.0718999488

- q-position: [    0.0151515,    0.0000000,    0.0000000 ]
  distance:    0.0052890
  band:
  - # 1
    frequency:   -4.0007922090
  - # 2
    frequency:   -3.9866749037
  - # 3
    frequency:   -0.4213983583
  - # 4
    frequency:   -0.3477248959
  - # 5
    frequency:    0.0220045565
  - # 6
    frequency:    0.1822556398
  - # 7
    frequency:    0.3669229761
  - # 8
    frequency:    3.4699442185
  - # 9
    frequency:    3.4859592980
  - # 10
    frequency:    5.5783893313
  - # 11
    frequency:    6.7295729938
  - # 12
    frequency:    6.7394322558
  - # 13
    frequency:    8.9956732655
  - # 14
    frequency:    9.0037863351
  - # 15
    frequency:    9.2469177160
  - # 16
    frequency:   10.3274247930
  - # 17
    frequency:   11.9146176493
  - # 18
    frequency:   11.9397630804
  - # 19
    frequency:   13.5707198700
  - # 20
    frequency:   13.5725056210
  - # 21
    frequency:   16.0324126556
  - # 22
    frequency:   32.1670957081
  - # 23
    frequency:   39.6811528875
  - # 24
    frequency:   68.0706160315

- q-position: [    0.0202020,    0.0000000,    0.0000000 ]
  distance:    0.0070520
  band:
  - # 1
    frequency:   -3.9981293791
  - # 2
    frequency:   -3.9731338296
  - # 3
    frequency:   -0.4150360832
  - # 4
    frequency:   -0.2737033601
  - # 5
    frequency:    0.0439292620
  - # 6
    frequency:    0.2410700158
  - # 7
    frequency:    0.4913981067
  - # 8
    frequency:    3.4733508306
  - # 9
    frequency:    3.5016520653
  - # 10
    frequency:    5.5751774553
  - # 11
    frequency:    6.7292707897
  - # 12
    frequency:    6.7467051751
  - # 13
    frequency:    8.9997192109
  - # 14
    frequency:    9.0135132290
  - # 15
    frequency:    9.2441623477
  - # 16
    frequency:   10.3219183127
  - # 17
    frequency:   11.9136020175
  - # 18
    frequency:   11.9581048723
  - # 19
    frequency:   13.5710781354
  - # 20
    frequency:   13.5742530276
  - # 21
    frequency:   16.0271658931
  - # 22
    frequency:   32.1636824186
  - # 23
    frequency:   39.6759415659
  - # 24
    frequency:   68.0688222713

- q-position: [    0.0252525,    0.0000000,    0.0000000 ]
  distance:    0.0088150
  band:
  - # 1
    frequency:   -3.9947248846
  - # 2
    frequency:   -3.9558734718
  - # 3
    frequency:   -0.4057044088
  - # 4
    frequency:   -0.1510254353
  - # 5
    frequency:    0.1006848440
  - # 6
    frequency:    0.2987368887
  - # 7
    frequency:    0.6167471316
  - # 8
    frequency:    3.4777383754
  - # 9
    frequency:    3.5216232998
  - # 10
    frequency:    5.5711347876
  - # 11
    frequency:    6.7288855779
  - # 12
    frequency:    6.7559441238
  - # 13
    frequency:    9.0049038406
  - # 14
    frequency:    9.0250631132
  - # 15
    frequency:    9.2415868824
  - # 16
    frequency:   10.3149504318
  - # 17
    frequency:   11.9123031380
  - # 18
    frequency:   11.9814467510
  - # 19
    frequency:   13.5715383251
  - # 20
    frequency:   13.5764996420
  - # 21
    frequency:   16.0204414442
  - # 22
    frequency:   32.1593087303
  - # 23
    frequency:   39.6692550413
  - # 24
    frequency:   68.0665223777

- q-position: [    0.0303030,    0.0000000,    0.0000000 ]
  distance:    0.0105780
  band:
  - # 1
    frequency:   -3.9905931048
  - # 2
    frequency:   -3.9350050619
  - # 3
    frequency:   -0.3928220703
  - # 4
    frequency:   -0.0536484331
  - # 5
    frequency:    0.2521916371
  - # 6
    frequency:    0.3553394033
  - # 7
    frequency:    0.7427812392
  - # 8
    frequency:    3.4831122851
  - # 9
    frequency:    3.5457279490
  - # 10
    frequency:    5.5663213790
  - # 11
    frequency:    6.7284197918
  - # 12
    frequency:    6.7670721117
  - # 13
    frequency:    9.0112142486
  - # 14
    frequency:    9.0374883207
  - # 15
    frequency:    9.2401438725
  - # 16
    frequency:   10.3065936942
  - # 17
    frequency:   11.9107262178
  - # 18
    frequency:   12.0096234705
  - # 19
    frequency:   13.5721001104
  - # 20
    frequency:   13.5792455921
  - # 21
    frequency:   16.0122553109
  - # 22
    frequency:   32.1539856833
  - # 23
    frequency:   39.6611035818
  - # 24
    frequency:   68.0637210994

- q-position: [    0.0353535,    0.0000000,    0.0000000 ]
  distance:    0.0123410
  band:
  - # 1
    frequency:   -3.9857516328
  - # 2
    frequency:   -3.9106633022
  - # 3
    frequency:   -0.3757555964
  - # 4
    frequency:    0.0442497485
  - # 5
    frequency:    0.3815381147
  - # 6
    frequency:    0.4110038773
  - # 7
    frequency:    0.8693958973
  - # 8
    frequency:    3.4894788921
  - # 9
    frequency:    3.5737977310
  - # 10
    frequency:    5.5608055869
  - # 11
    frequency:    6.7278763311
  - # 12
    frequency:    6.7800020102
  - # 13
    frequency:    9.0186347368
  - # 14
    frequency:    9.0493910845
  - # 15
    frequency:    9.2412336794
  - # 16
    frequency:   10.2969261301
  - # 17
    frequency:   11.9088776287
  - # 18
    frequency:   12.0424474929
  - # 19
    frequency:   13.5727630881
  - # 20
    frequency:   13.5824912295
  - # 21
    frequency:   16.0026270073
  - # 22
    frequency:   32.1477266821
  - # 23
    frequency:   39.6514996910
  - # 24
    frequency:   68.0604242090

- q-position: [    0.0404040,    0.0000000,    0.0000000 ]
  distance:    0.0141040
  band:
  - # 1
    frequency:   -3.9802212797
  - # 2
    frequency:   -3.8830053843
  - # 3
    frequency:   -0.3537226811
  - # 4
    frequency:    0.0831400433
  - # 5
    frequency:    0.4658642636
  - # 6
    frequency:    0.4911256762
  - # 7
    frequency:    0.9965450421
  - # 8
    frequency:    3.4968452493
  - # 9
    frequency:    3.6056455280
  - # 10
    frequency:    5.5546618291
  - # 11
    frequency:    6.7272585208
  - # 12
    frequency:    6.7946397912
  - # 13
    frequency:    9.0271468581
  - # 14
    frequency:    9.0589581410
  - # 15
    frequency:    9.2466683318
  - # 16
    frequency:   10.2860271490
  - # 17
    frequency:   11.9067649120
  - # 18
    frequency:   12.0797149570
  - # 19
    frequency:   13.5735267806
  - # 20
    frequency:   13.5862372620
  - # 21
    frequency:   15.9915795327
  - # 22
    frequency:   32.1405474439
  - # 23
    frequency:   39.6404580813
  - # 24
    frequency:   68.0566384846

- q-position: [    0.0454545,    0.0000000,    0.0000000 ]
  distance:    0.0158670
  band:
  - # 1
    frequency:   -3.9740260732
  - # 2
    frequency:   -3.8522096452
  - # 3
    frequency:   -0.3256150376
  - # 4
    frequency:    0.1163473742
  - # 5
    frequency:    0.5200449776
  - # 6
    frequency:    0.5910292830
  - # 7
    frequency:    1.1242085841
  - # 8
    frequency:    3.5052189226
  - # 9
    frequency:    3.6410698371
  - # 10
    frequency:    5.5479684685
  - # 11
    frequency:    6.7265700650
  - # 12
    frequency:    6.8108876855
  - # 13
    frequency:    9.0367294666
  - # 14
    frequency:    9.0643837232
  - # 15
    frequency:    9.2582470839
  - # 16
    frequency:   10.2739740948
  - # 17
    frequency:   11.9043967827
  - # 18
    frequency:   12.1212110026
  - # 19
    frequency:   13.5743906348
  - # 20
    frequency:   13.5904849270
  - # 21
    frequency:   15.9791393410
  - # 22
    frequency:   32.1324659375
  - # 23
    frequency:   39.6279956407
  - # 24
    frequency:   68.0523716876

- q-position: [    0.0505051,    0.0000000,    0.0000000 ]
  distance:    0.0176300
  band:
  - # 1
    frequency:   -3.9671932470
  - # 2
    frequency:   -3.8184738009
  - # 3
    frequency:   -0.2896302340
  - # 4
    frequency:    0.1499992006
  - # 5
    frequency:    0.5736547215
  - # 6
    frequency:    0.6852680391
  - # 7
    frequency:    1.2523693475
  - # 8
    frequency:    3.5146077580
  - # 9
    frequency:    3.6798590687
  - # 10
    frequency:    5.5408059477
  - # 11
    frequency:    6.7258149971
  - # 12
    frequency:    6.8286470962
  - # 13
    frequency:    9.0473587729
  - # 14
    frequency:    9.0646299006
  - # 15
    frequency:    9.2769948253
  - # 16
    frequency:   10.2608396509
  - # 17
    frequency:   11.9017831346
  - # 18
    frequency:   12.1667141592
  - # 19
    frequency:   13.5753540211
  - # 20
    frequency:   13.5952362149
  - # 21
    frequency:   15.9653363041
  - # 22
    frequency:   32.1235023136
  - # 23
    frequency:   39.6141313964
  - # 24
    frequency:   68.0476325382

- q-position: [    0.0555556,    0.0000000,    0.0000000 ]
  distance:    0.0193930
  band:
  - # 1
    frequency:   -3.9597532184
  - # 2
    frequency:   -3.7820127163
  - # 3
    frequency:   -0.2423011392
  - # 4
    frequency:    0.1853052881
  - # 5
    frequency:    0.6267858435
  - # 6
    frequency:    0.7757811668
  - # 7
    frequency:    1.3809989072
  - # 8
    frequency:    3.5250196257
  - # 9
    frequency:    3.7217955297
  - # 10
    frequency:    5.5332552570
  - # 11
    frequency:    6.7249976286
  - # 12
    frequency:    6.8478211501
  - # 13
    frequency:    9.0590084049
  - # 14
    frequency:    9.0598135120
  - # 15
    frequency:    9.3027741795
  - # 16
    frequency:   10.2466901477
  - # 17
    frequency:   11.8989350446
  - # 18
    frequency:   12.2159996569
  - # 19
    frequency:   13.5764162331
  - # 20
    frequency:   13.6004941590
  - # 21
    frequency:   15.9502036713
  - # 22
    frequency:   32.1136788281
  - # 23
    frequency:   39.5988864728
  - # 24
    frequency:   68.0424306876

- q-position: [    0.0606061,    0.0000000,    0.0000000 ]
  distance:    0.0211559
  band:
  - # 1
    frequency:   -3.9517395497
  - # 2
    frequency:   -3.7430557013
  - # 3
    frequency:   -0.1747245745
  - # 4
    frequency:    0.2226113779
  - # 5
    frequency:    0.6795160559
  - # 6
    frequency:    0.8636333613
  - # 7
    frequency:    1.5100491528
  - # 8
    frequency:    3.5364621480
  - # 9
    frequency:    3.7666589761
  - # 10
    frequency:    5.5253967725
  - # 11
    frequency:    6.7241224953
  - # 12
    frequency:    6.8683168166
  - # 13
    frequency:    9.0508096743
  - # 14
    frequency:    9.0716494728
  - # 15
    frequency:    9.3346813555
  - # 16
    frequency:   10.2315847237
  - # 17
    frequency:   11.8958647776
  - # 18
    frequency:   12.2688416433
  - # 19
    frequency:   13.5775764861
  - # 20
    frequency:   13.6062632110
  - # 21
    frequency:   15.9337780246
  - # 22
    frequency:   32.1030197572
  - # 23
    frequency:   39.5822840452
  - # 24
    frequency:   68.0367766869

- q-position: [    0.0656566,    0.0000000,    0.0000000 ]
  distance:    0.0229189
  band:
  - # 1
    frequency:   -3.9431888891
  - # 2
    frequency:   -3.7018433608
  - # 3
    frequency:    0.0247124694
  - # 4
    frequency:    0.2620030845
  - # 5
    frequency:    0.7319108867
  - # 6
    frequency:    0.9494606919
  - # 7
    frequency:    1.6394472529
  - # 8
    frequency:    3.5489424122
  - # 9
    frequency:    3.8142296678
  - # 10
    frequency:    5.5173094730
  - # 11
    frequency:    6.7231943051
  - # 12
    frequency:    6.8900465709
  - # 13
    frequency:    9.0386465883
  - # 14
    frequency:    9.0852506379
  - # 15
    frequency:    9.3716510372
  - # 16
    frequency:   10.2155752334
  - # 17
    frequency:   11.8925857899
  - # 18
    frequency:   12.3250143681
  - # 19
    frequency:   13.5788339167
  - # 20
    frequency:   13.6125497312
  - # 21
    frequency:   15.9160992299
  - # 22
    frequency:   32.0915513057
  - # 23
    frequency:   39.5643492884
  - # 24
    frequency:   68.0306819540

- q-position: [    0.0707071,    0.0000000,    0.0000000 ]
  distance:    0.0246819
  band:
  - # 1
    frequency:   -3.9341408866
  - # 2
    frequency:   -3.6586240743
  - # 3
    frequency:    0.1861440072
  - # 4
    frequency:    0.3034684053
  - # 5
    frequency:    0.7840261110
  - # 6
    frequency:    1.0336656785
  - # 7
    frequency:    1.7690927319
  - # 8
    frequency:    3.5624666769
  - # 9
    frequency:    3.8642908971
  - # 10
    frequency:    5.5090705221
  - # 11
    frequency:    6.7222178865
  - # 12
    frequency:    6.9129296066
  - # 13
    frequency:    9.0241967468
  - # 14
    frequency:    9.0997781852
  - # 15
    frequency:    9.4127651647
  - # 16
    frequency:   10.1987067883
  - # 17
    frequency:   11.8891127315
  - # 18
    frequency:   12.3842924373
  - # 19
    frequency:   13.5801875812
  - # 20
    frequency:   13.6193626343
  - # 21
    frequency:   15.8972103859
  - # 22
    frequency:   32.0793015090
  - # 23
    frequency:   39.5451093222
  - # 24
    frequency:   68.0241587378

- q-position: [    0.0757576,    0.0000000,    0.0000000 ]
  distance:    0.0264449
  band:
  - # 1
    frequency:   -3.9246380809
  - # 2
    frequency:   -3.6136502317
  - # 3
    frequency:    0.2674338508
  - # 4
    frequency:    0.3469553632
  - # 5
    frequency:    0.8359098532
  - # 6
    frequency:    1.1165134239
  - # 7
    frequency:    1.8988560203
  - # 8
    frequency:    3.5770400759
  - # 9
    frequency:    3.9166309867
  - # 10
    frequency:    5.5007551865
  - # 11
    frequency:    6.7211981390
  - # 12
    frequency:    6.9368926298
  - # 13
    frequency:    9.0081259945
  - # 14
    frequency:    9.1151960981
  - # 15
    frequency:    9.4573040523
  - # 16
    frequency:   10.1810188536
  - # 17
    frequency:   11.8854614480
  - # 18
    frequency:   12.4464502382
  - # 19
    frequency:   13.5816364549
  - # 20
    frequency:   13.6267142482
  - # 21
    frequency:   15.8771577699
  - # 22
    frequency:   32.0663001295
  - # 23
    frequency:   39.5245931514
  - # 24
    frequency:   68.0172200792

- q-position: [    0.0808081,    0.0000000,    0.0000000 ]
  distance:    0.0282079
  band:
  - # 1
    frequency:   -3.9147257527
  - # 2
    frequency:   -3.5671743890
  - # 3
    frequency:    0.3333936496
  - # 4
    frequency:    0.3923962126
  - # 5
    frequency:    0.8876042630
  - # 6
    frequency:    1.1981833276
  - # 7
    frequency:    2.0285781812
  - # 8
    frequency:    3.5926663269
  - # 9
    frequency:    3.9710447740
  - # 10
    frequency:    5.4924370649
  - # 11
    frequency:    6.7201399879
  - # 12
    frequency:    6.9618702774
  - # 13
    frequency:    8.9909345789
  - # 14
    frequency:    9.1314661368
  - # 15
    frequency:    9.5047055049
  - # 16
    frequency:   10.1625469117
  - # 17
    frequency:   11.8816489793
  - # 18
    frequency:   12.5112606110
  - # 19
    frequency:   13.5831794309
  - # 20
    frequency:   13.6346214702
  - # 21
    frequency:   15.8559907848
  - # 22
    frequency:   32.0525785470
  - # 23
    frequency:   39.5028316020
  - # 24
    frequency:   68.0098797710

- q-position: [    0.0858586,    0.0000000,    0.0000000 ]
  distance:    0.0299709
  band:
  - # 1
    frequency:   -3.9044517394
  - # 2
    frequency:   -3.5194455425
  - # 3
    frequency:    0.3917440599
  - # 4
    frequency:    0.4397187310
  - # 5
    frequency:    0.9391467651
  - # 6
    frequency:    1.2787988417
  - # 7
    frequency:    2.1580716511
  - # 8
    frequency:    3.6093474521
  - # 9
    frequency:    4.0273345990
  - # 10
    frequency:    5.4841886025
  - # 11
    frequency:    6.7190483419
  - # 12
    frequency:    6.9878052103
  - # 13
    frequency:    8.9730074249
  - # 14
    frequency:    9.1485479181
  - # 15
    frequency:    9.5545143258
  - # 16
    frequency:   10.1433248952
  - # 17
    frequency:   11.8776935569
  - # 18
    frequency:   12.5784927862
  - # 19
    frequency:   13.5848153192
  - # 20
    frequency:   13.6431073430
  - # 21
    frequency:   15.8337619069
  - # 22
    frequency:   32.0381696452
  - # 23
    frequency:   39.4798572537
  - # 24
    frequency:   68.0021523150

- q-position: [    0.0909091,    0.0000000,    0.0000000 ]
  distance:    0.0317339
  band:
  - # 1
    frequency:   -3.8938662086
  - # 2
    frequency:   -3.4707057228
  - # 3
    frequency:    0.4453947795
  - # 4
    frequency:    0.4888517541
  - # 5
    frequency:    0.9905709203
  - # 6
    frequency:    1.3584455336
  - # 7
    frequency:    2.2871218806
  - # 8
    frequency:    3.6270835164
  - # 9
    frequency:    4.0853108083
  - # 10
    frequency:    5.4760818832
  - # 11
    frequency:    6.7179280560
  - # 12
    frequency:    7.0146479284
  - # 13
    frequency:    8.9546522157
  - # 14
    frequency:    9.1663989987
  - # 15
    frequency:    9.6063428666
  - # 16
    frequency:   10.1233890005
  - # 17
    frequency:   11.8736145977
  - # 18
    frequency:   12.6479095266
  - # 19
    frequency:   13.5865428456
  - # 20
    frequency:   13.6522032341
  - # 21
    frequency:   15.8105266391
  - # 22
    frequency:   32.0231076938
  - # 23
    frequency:   39.4557043685
  - # 24
    frequency:   67.9940528773

- q-position: [    0.0959596,    0.0000000,    0.0000000 ]
  distance:    0.0334969
  band:
  - # 1
    frequency:   -3.8830213864
  - # 2
    frequency:   -3.4211870941
  - # 3
    frequency:    0.4957903430
  - # 4
    frequency:    0.5397278269
  - # 5
    frequency:    1.0419069506
  - # 6
    frequency:    1.4371825410
  - # 7
    frequency:    2.4154897472
  - # 8
    frequency:    3.6458723913
  - # 9
    frequency:    4.1447917693
  - # 10
    frequency:    5.4681897063
  - # 11
    frequency:    6.7167838991
  - # 12
    frequency:    7.0423563538
  - # 13
    frequency:    8.9361248023
  - # 14
    frequency:    9.1849749604
  - # 15
    frequency:    9.6598413355
  - # 16
    frequency:   10.1027845178
  - # 17
    frequency:   11.8694326948
  - # 18
    frequency:   12.7192632962
  - # 19
    frequency:   13.5883606508
  - # 20
    frequency:   13.6619518918
  - # 21
    frequency:   15.7863434723
  - # 22
    frequency:   32.0074282270
  - # 23
    frequency:   39.4304088152
  - # 24
    frequency:   67.9855972418

- q-position: [    0.1010101,    0.0000000,    0.0000000 ]
  distance:    0.0352599
  band:
  - # 1
    frequency:   -3.8719712384
  - # 2
    frequency:   -3.3711097044
  - # 3
    frequency:    0.5437595587
  - # 4
    frequency:    0.5922842640
  - # 5
    frequency:    1.0931819843
  - # 6
    frequency:    1.5150501077
  - # 7
    frequency:    2.5429145903
  - # 8
    frequency:    3.6657095491
  - # 9
    frequency:    4.2056033589
  - # 10
    frequency:    5.4605869844
  - # 11
    frequency:    6.7156205272
  - # 12
    frequency:    7.0708952157
  - # 13
    frequency:    8.9176455603
  - # 14
    frequency:    9.2042294984
  - # 15
    frequency:    9.7146695399
  - # 16
    frequency:   10.0815802763
  - # 17
    frequency:   11.8651696038
  - # 18
    frequency:   12.7922911094
  - # 19
    frequency:   13.5902672891
  - # 20
    frequency:   13.6724117977
  - # 21
    frequency:   15.7612738614
  - # 22
    frequency:   31.9911679197
  - # 23
    frequency:   39.4040079914
  - # 24
    frequency:   67.9768017626

- q-position: [    0.1060606,    0.0000000,    0.0000000 ]
  distance:    0.0370229
  band:
  - # 1
    frequency:   -3.8607711026
  - # 2
    frequency:   -3.3206799690
  - # 3
    frequency:    0.5898235574
  - # 4
    frequency:    0.6464632534
  - # 5
    frequency:    1.1444200728
  - # 6
    frequency:    1.5920746997
  - # 7
    frequency:    2.6691177008
  - # 8
    frequency:    3.6865878947
  - # 9
    frequency:    4.2675778514
  - # 10
    frequency:    5.4533525302
  - # 11
    frequency:    6.7144424611
  - # 12
    frequency:    7.1002352664
  - # 13
    frequency:    8.8994099218
  - # 14
    frequency:    9.2241145132
  - # 15
    frequency:    9.7704519286
  - # 16
    frequency:   10.0599055326
  - # 17
    frequency:   11.8608482237
  - # 18
    frequency:   12.8667074700
  - # 19
    frequency:   13.5922612282
  - # 20
    frequency:   13.6836634580
  - # 21
    frequency:   15.7353822221
  - # 22
    frequency:   31.9743644609
  - # 23
    frequency:   39.3765407406
  - # 24
    frequency:   67.9676833145

- q-position: [    0.1111111,    0.0000000,    0.0000000 ]
  distance:    0.0387859
  band:
  - # 1
    frequency:   -3.8494772745
  - # 2
    frequency:   -3.2700899011
  - # 3
    frequency:    0.6343317672
  - # 4
    frequency:    0.7022113507
  - # 5
    frequency:    1.1956420317
  - # 6
    frequency:    1.6682725748
  - # 7
    frequency:    2.7938060992
  - # 8
    frequency:    3.7084976372
  - # 9
    frequency:    4.3305520682
  - # 10
    frequency:    5.4465713494
  - # 11
    frequency:    6.7132540707
  - # 12
    frequency:    7.1303523459
  - # 13
    frequency:    8.8815952803
  - # 14
    frequency:    9.2445802058
  - # 15
    frequency:    9.8266544911
  - # 16
    frequency:   10.0380684925
  - # 17
    frequency:   11.8564925734
  - # 18
    frequency:   12.9421944361
  - # 19
    frequency:   13.5943408479
  - # 20
    frequency:   13.6958186272
  - # 21
    frequency:   15.7087359586
  - # 22
    frequency:   31.9570564257
  - # 23
    frequency:   39.3480472683
  - # 24
    frequency:   67.9582592431

- q-position: [    0.1161616,    0.0000000,    0.0000000 ]
  distance:    0.0405489
  band:
  - # 1
    frequency:   -3.8381465458
  - # 2
    frequency:   -3.2195170327
  - # 3
    frequency:    0.6775301345
  - # 4
    frequency:    0.7594785660
  - # 5
    frequency:    1.2468651530
  - # 6
    frequency:    1.7436523323
  - # 7
    frequency:    2.9166764576
  - # 8
    frequency:    3.7314262067
  - # 9
    frequency:    4.3943645779
  - # 10
    frequency:    5.4403376216
  - # 11
    frequency:    6.7120595629
  - # 12
    frequency:    7.1612263055
  - # 13
    frequency:    8.8643656418
  - # 14
    frequency:    9.2655751783
  - # 15
    frequency:    9.8820543850
  - # 16
    frequency:   10.0170841810
  - # 17
    frequency:   11.8521277599
  - # 18
    frequency:   13.0183873000
  - # 19
    frequency:   13.5965044397
  - # 20
    frequency:   13.7090339903
  - # 21
    frequency:   15.6814055343
  - # 22
    frequency:   31.9392831463
  - # 23
    frequency:   39.3185690536
  - # 24
    frequency:   67.9485473126

- q-position: [    0.1212121,    0.0000000,    0.0000000 ]
  distance:    0.0423119
  band:
  - # 1
    frequency:   -3.8268357017
  - # 2
    frequency:   -3.1691249098
  - # 3
    frequency:    0.7195986031
  - # 4
    frequency:    0.8182171773
  - # 5
    frequency:    1.2981028322
  - # 6
    frequency:    1.8182167760
  - # 7
    frequency:    3.0374190614
  - # 8
    frequency:    3.7553582170
  - # 9
    frequency:    4.4588516220
  - # 10
    frequency:    5.4347586473
  - # 11
    frequency:    6.7108629749
  - # 12
    frequency:    7.1928397930
  - # 13
    frequency:    8.8478748650
  - # 14
    frequency:    9.2870465392
  - # 15
    frequency:    9.9308976712
  - # 16
    frequency:   10.0025154200
  - # 17
    frequency:   11.8477799404
  - # 18
    frequency:   13.0948535962
  - # 19
    frequency:   13.5987502064
  - # 20
    frequency:   13.7235315853
  - # 21
    frequency:   15.6534646034
  - # 22
    frequency:   31.9210845822
  - # 23
    frequency:   39.2881487587
  - # 24
    frequency:   67.9385656549

- q-position: [    0.1262626,    0.0000000,    0.0000000 ]
  distance:    0.0440749
  band:
  - # 1
    frequency:   -3.8156009816
  - # 2
    frequency:   -3.1190640023
  - # 3
    frequency:    0.7606731452
  - # 4
    frequency:    0.8783803704
  - # 5
    frequency:    1.3493641520
  - # 6
    frequency:    1.8919642991
  - # 7
    frequency:    3.1557217583
  - # 8
    frequency:    3.7802754749
  - # 9
    frequency:    4.5238412946
  - # 10
    frequency:    5.4299601806
  - # 11
    frequency:    6.7096681716
  - # 12
    frequency:    7.2251768984
  - # 13
    frequency:    8.8322690018
  - # 14
    frequency:    9.3089400156
  - # 15
    frequency:    9.9449969778
  - # 16
    frequency:   10.0223745728
  - # 17
    frequency:   11.8434762750
  - # 18
    frequency:   13.1710622490
  - # 19
    frequency:   13.6010762613
  - # 20
    frequency:   13.7396291354
  - # 21
    frequency:   15.6249902266
  - # 22
    frequency:   31.9025011912
  - # 23
    frequency:   39.2568301366
  - # 24
    frequency:   67.9283327158

- q-position: [    0.1313131,    0.0000000,    0.0000000 ]
  distance:    0.0458379
  band:
  - # 1
    frequency:   -3.8044975115
  - # 2
    frequency:   -3.0694728523
  - # 3
    frequency:    0.8008593997
  - # 4
    frequency:    0.9399207883
  - # 5
    frequency:    1.4006534591
  - # 6
    frequency:    1.9648899338
  - # 7
    frequency:    3.2712738915
  - # 8
    frequency:    3.8061570353
  - # 9
    frequency:    4.5891452918
  - # 10
    frequency:    5.4260937723
  - # 11
    frequency:    6.7084788467
  - # 12
    frequency:    7.2582216551
  - # 13
    frequency:    8.8176880513
  - # 14
    frequency:    9.3312000732
  - # 15
    frequency:    9.9274777281
  - # 16
    frequency:   10.0733771119
  - # 17
    frequency:   11.8392448697
  - # 18
    frequency:   13.2463392654
  - # 19
    frequency:   13.6034806284
  - # 20
    frequency:   13.7577838523
  - # 21
    frequency:   15.5960632016
  - # 22
    frequency:   31.8835737996
  - # 23
    frequency:   39.2246579355
  - # 24
    frequency:   67.9178672032

- q-position: [    0.1363636,    0.0000000,    0.0000000 ]
  distance:    0.0476009
  band:
  - # 1
    frequency:   -3.7935787179
  - # 2
    frequency:   -3.0204792820
  - # 3
    frequency:    0.8402414599
  - # 4
    frequency:    1.0027890682
  - # 5
    frequency:    1.4519699665
  - # 6
    frequency:    2.0369861578
  - # 7