nqpoint: 300    
npath: 3      
segment_nqpoint:
- 100
- 100
- 100
labels:
- [ 'G', 'M' ]
- [ 'M', 'K' ]
- [ 'K', 'G' ]
reciprocal_lattice:
- [   0.28199443,   0.16280956,   0.00000000 ] # a*
- [   0.00000000,   0.32561912,   0.00000000 ] # b*
- [   0.00000000,   0.00000000,   0.03684629 ] # c*
natom: 8      
lattice:
- [     3.546169310785946,     0.000000000000000,     0.000000000000000 ] # a
- [    -1.773084655392973,     3.071072709257967,     0.000000000000000 ] # b
- [     0.000000000000000,     0.000000000000000,    27.139773232344105 ] # c
points:
- symbol: C # 1
  coordinates: [  0.333332985432215,  0.666666983183674,  0.610990692514908 ]
  mass: 12.010700
- symbol: H # 2
  coordinates: [  0.666666984744047,  0.333332985985145,  0.331616624905110 ]
  mass: 1.007940
- symbol: N # 3
  coordinates: [  0.000000000000000,  0.000000000000000,  0.463492889129513 ]
  mass: 14.006700
- symbol: N # 4
  coordinates: [  0.333332985432215,  0.666666983183674,  0.564930938538331 ]
  mass: 14.006700
- symbol: O # 5
  coordinates: [  0.666666984744047,  0.333332985985145,  0.368003107642410 ]
  mass: 15.999400
- symbol: S # 6
  coordinates: [  0.333332985432215,  0.666666983183674,  0.668383375094890 ]
  mass: 32.065000
- symbol: Y # 7
  coordinates: [  0.333332985432215,  0.666666983183674,  0.415283084936592 ]
  mass: 88.905850
- symbol: Y # 8
  coordinates: [  0.666666984744047,  0.333332985985145,  0.514086781500053 ]
  mass: 88.905850

phonon:
- q-position: [    0.0000000,    0.0000000,    0.0000000 ]
  distance:    0.0000000
  band:
  - # 1
    frequency:   -0.3426731013
  - # 2
    frequency:   -0.3426731012
  - # 3
    frequency:   -0.0000088227
  - # 4
    frequency:   -0.0000002704
  - # 5
    frequency:    0.0000078434
  - # 6
    frequency:    3.7523275096
  - # 7
    frequency:    3.7523275096
  - # 8
    frequency:    4.8525320154
  - # 9
    frequency:    6.5797241370
  - # 10
    frequency:    6.5797241370
  - # 11
    frequency:    6.9281413143
  - # 12
    frequency:    7.5252981453
  - # 13
    frequency:    7.5252981453
  - # 14
    frequency:   11.5100574689
  - # 15
    frequency:   11.8951015676
  - # 16
    frequency:   11.8951015676
  - # 17
    frequency:   11.9908073047
  - # 18
    frequency:   13.2346181746
  - # 19
    frequency:   13.2346181746
  - # 20
    frequency:   13.9919525819
  - # 21
    frequency:   13.9919525819
  - # 22
    frequency:   26.7245052946
  - # 23
    frequency:   57.8189685784
  - # 24
    frequency:  112.6962394455

- q-position: [    0.0050505,    0.0000000,    0.0000000 ]
  distance:    0.0016445
  band:
  - # 1
    frequency:   -0.3640863872
  - # 2
    frequency:   -0.3596562773
  - # 3
    frequency:    0.0017357686
  - # 4
    frequency:    0.1451983893
  - # 5
    frequency:    0.1501583009
  - # 6
    frequency:    3.7519484386
  - # 7
    frequency:    3.7527034199
  - # 8
    frequency:    4.8525150403
  - # 9
    frequency:    6.5799151318
  - # 10
    frequency:    6.5801614004
  - # 11
    frequency:    6.9277907273
  - # 12
    frequency:    7.5251270631
  - # 13
    frequency:    7.5251683432
  - # 14
    frequency:   11.5086022190
  - # 15
    frequency:   11.8946193236
  - # 16
    frequency:   11.8948489704
  - # 17
    frequency:   11.9898931838
  - # 18
    frequency:   13.2344449408
  - # 19
    frequency:   13.2352351171
  - # 20
    frequency:   13.9920349786
  - # 21
    frequency:   13.9922543188
  - # 22
    frequency:   26.7244280481
  - # 23
    frequency:   57.8181464489
  - # 24
    frequency:  112.6952962630

- q-position: [    0.0101010,    0.0000000,    0.0000000 ]
  distance:    0.0032891
  band:
  - # 1
    frequency:   -0.4025104750
  - # 2
    frequency:   -0.3876857343
  - # 3
    frequency:    0.0071384934
  - # 4
    frequency:    0.2614830962
  - # 5
    frequency:    0.2744723773
  - # 6
    frequency:    3.7508153245
  - # 7
    frequency:    3.7538298097
  - # 8
    frequency:    4.8524645486
  - # 9
    frequency:    6.5804872034
  - # 10
    frequency:    6.5814699810
  - # 11
    frequency:    6.9267411852
  - # 12
    frequency:    7.5246140479
  - # 13
    frequency:    7.5247796425
  - # 14
    frequency:   11.5042440857
  - # 15
    frequency:   11.8931737599
  - # 16
    frequency:   11.8940856856
  - # 17
    frequency:   11.9871585705
  - # 18
    frequency:   13.2339267045
  - # 19
    frequency:   13.2370832034
  - # 20
    frequency:   13.9922818051
  - # 21
    frequency:   13.9931580611
  - # 22
    frequency:   26.7241964533
  - # 23
    frequency:   57.8156816162
  - # 24
    frequency:  112.6924699090

- q-position: [    0.0151515,    0.0000000,    0.0000000 ]
  distance:    0.0049336
  band:
  - # 1
    frequency:   -0.4380370045
  - # 2
    frequency:   -0.4085584203
  - # 3
    frequency:    0.0163298509
  - # 4
    frequency:    0.3576662069
  - # 5
    frequency:    0.3807242668
  - # 6
    frequency:    3.7489404358
  - # 7
    frequency:    3.7557026654
  - # 8
    frequency:    4.8523818562
  - # 9
    frequency:    6.5814376182
  - # 10
    frequency:    6.5836401226
  - # 11
    frequency:    6.9249994694
  - # 12
    frequency:    7.5237597929
  - # 13
    frequency:    7.5241341543
  - # 14
    frequency:   11.4970055540
  - # 15
    frequency:   11.8907683523
  - # 16
    frequency:   11.8927950929
  - # 17
    frequency:   11.9826270601
  - # 18
    frequency:   13.2330679621
  - # 19
    frequency:   13.2401542524
  - # 20
    frequency:   13.9926919742
  - # 21
    frequency:   13.9946594337
  - # 22
    frequency:   26.7238109441
  - # 23
    frequency:   57.8115787433
  - # 24
    frequency:  112.6877699520

- q-position: [    0.0202020,    0.0000000,    0.0000000 ]
  distance:    0.0065782
  band:
  - # 1
    frequency:   -0.4670881840
  - # 2
    frequency:   -0.4186843206
  - # 3
    frequency:    0.0296412329
  - # 4
    frequency:    0.4423938206
  - # 5
    frequency:    0.4768103204
  - # 6
    frequency:    3.7463441222
  - # 7
    frequency:    3.7583153288
  - # 8
    frequency:    4.8522692043
  - # 9
    frequency:    6.5827618379
  - # 10
    frequency:    6.5866551270
  - # 11
    frequency:    6.9225773103
  - # 12
    frequency:    7.5225654509
  - # 13
    frequency:    7.5232353778
  - # 14
    frequency:   11.4869229544
  - # 15
    frequency:   11.8874087991
  - # 16
    frequency:   11.8909487856
  - # 17
    frequency:   11.9763393140
  - # 18
    frequency:   13.2318765372
  - # 19
    frequency:   13.2444347680
  - # 20
    frequency:   13.9932636852
  - # 21
    frequency:   13.9967512422
  - # 22
    frequency:   26.7232722407
  - # 23
    frequency:   57.8058455876
  - # 24
    frequency:  112.6812123017

- q-position: [    0.0252525,    0.0000000,    0.0000000 ]
  distance:    0.0082227
  band:
  - # 1
    frequency:   -0.4896180256
  - # 2
    frequency:   -0.4175900305
  - # 3
    frequency:    0.0476572982
  - # 4
    frequency:    0.5200841195
  - # 5
    frequency:    0.5667684555
  - # 6
    frequency:    3.7430546690
  - # 7
    frequency:    3.7616585432
  - # 8
    frequency:    4.8521298301
  - # 9
    frequency:    6.5844535467
  - # 10
    frequency:    6.5904906536
  - # 11
    frequency:    6.9194920767
  - # 12
    frequency:    7.5210326307
  - # 13
    frequency:    7.5220881709
  - # 14
    frequency:   11.4740449543
  - # 15
    frequency:   11.8831028850
  - # 16
    frequency:   11.8885046044
  - # 17
    frequency:   11.9683557866
  - # 18
    frequency:   13.2303640539
  - # 19
    frequency:   13.2499061399
  - # 20
    frequency:   13.9939944411
  - # 21
    frequency:   13.9994236139
  - # 22
    frequency:   26.7225813456
  - # 23
    frequency:   57.7984929792
  - # 24
    frequency:  112.6728191515

- q-position: [    0.0303030,    0.0000000,    0.0000000 ]
  distance:    0.0098672
  band:
  - # 1
    frequency:   -0.5061024749
  - # 2
    frequency:   -0.4051284423
  - # 3
    frequency:    0.0713984670
  - # 4
    frequency:    0.5930901815
  - # 5
    frequency:    0.6527283598
  - # 6
    frequency:    3.7391080913
  - # 7
    frequency:    3.7657205164
  - # 8
    frequency:    4.8519680627
  - # 9
    frequency:    6.5865046874
  - # 10
    frequency:    6.5951136420
  - # 11
    frequency:    6.9157678379
  - # 12
    frequency:    7.5191633926
  - # 13
    frequency:    7.5206987092
  - # 14
    frequency:   11.4584308016
  - # 15
    frequency:   11.8778603035
  - # 16
    frequency:   11.8854017559
  - # 17
    frequency:   11.9587623668
  - # 18
    frequency:   13.2285465596
  - # 19
    frequency:   13.2565449132
  - # 20
    frequency:   13.9948810720
  - # 21
    frequency:   14.0026641857
  - # 22
    frequency:   26.7217395388
  - # 23
    frequency:   57.7895347916
  - # 24
    frequency:  112.6626188994

- q-position: [    0.0353535,    0.0000000,    0.0000000 ]
  distance:    0.0115118
  band:
  - # 1
    frequency:   -0.5169956773
  - # 2
    frequency:   -0.3811265030
  - # 3
    frequency:    0.1026601627
  - # 4
    frequency:    0.6627770939
  - # 5
    frequency:    0.7359119326
  - # 6
    frequency:    3.7345478695
  - # 7
    frequency:    3.7704869999
  - # 8
    frequency:    4.8517894409
  - # 9
    frequency:    6.5889055082
  - # 10
    frequency:    6.6004807491
  - # 11
    frequency:    6.9114369167
  - # 12
    frequency:    7.5169602435
  - # 13
    frequency:    7.5190744303
  - # 14
    frequency:   11.4401485517
  - # 15
    frequency:   11.8716924464
  - # 16
    frequency:   11.8815498783
  - # 17
    frequency:   11.9476818859
  - # 18
    frequency:   13.2264452599
  - # 19
    frequency:   13.2643231115
  - # 20
    frequency:   13.9959197645
  - # 21
    frequency:   14.0064583311
  - # 22
    frequency:   26.7207483701
  - # 23
    frequency:   57.7789879026
  - # 24
    frequency:  112.6506460461

- q-position: [    0.0404040,    0.0000000,    0.0000000 ]
  distance:    0.0131563
  band:
  - # 1
    frequency:   -0.5226372991
  - # 2
    frequency:   -0.3459425687
  - # 3
    frequency:    0.1445090211
  - # 4
    frequency:    0.7299952039
  - # 5
    frequency:    0.8170738889
  - # 6
    frequency:    3.7294246238
  - # 7
    frequency:    3.7759413824
  - # 8
    frequency:    4.8516008489
  - # 9
    frequency:    6.5916446186
  - # 10
    frequency:    6.6065361293
  - # 11
    frequency:    6.9065421025
  - # 12
    frequency:    7.5144261337
  - # 13
    frequency:    7.5172239667
  - # 14
    frequency:   11.4192734611
  - # 15
    frequency:   11.8646121742
  - # 16
    frequency:   11.8768058775
  - # 17
    frequency:   11.9352975361
  - # 18
    frequency:   13.2240873243
  - # 19
    frequency:   13.2732086035
  - # 20
    frequency:   13.9971060969
  - # 21
    frequency:   14.0107894151
  - # 22
    frequency:   26.7196096522
  - # 23
    frequency:   57.7668721483
  - # 24
    frequency:  112.6369410707

- q-position: [    0.0454545,    0.0000000,    0.0000000 ]
  distance:    0.0148009
  band:
  - # 1
    frequency:   -0.5232461067
  - # 2
    frequency:   -0.3022985839
  - # 3
    frequency:    0.2011792459
  - # 4
    frequency:    0.7953040026
  - # 5
    frequency:    0.8967088220
  - # 6
    frequency:    3.7237957287
  - # 7
    frequency:    3.7820647968
  - # 8
    frequency:    4.8514106651
  - # 9
    frequency:    6.5947090529
  - # 10
    frequency:    6.6132083124
  - # 11
    frequency:    6.9011397772
  - # 12
    frequency:    7.5115644534
  - # 13
    frequency:    7.5151570630
  - # 14
    frequency:   11.3958866535
  - # 15
    frequency:   11.8566335780
  - # 16
    frequency:   11.8709272645
  - # 17
    frequency:   11.9218994184
  - # 18
    frequency:   13.2215067162
  - # 19
    frequency:   13.2831654964
  - # 20
    frequency:   13.9984350796
  - # 21
    frequency:   14.0156390687
  - # 22
    frequency:   26.7183254511
  - # 23
    frequency:   57.7532102685
  - # 24
    frequency:  112.6215502855

- q-position: [    0.0505051,    0.0000000,    0.0000000 ]
  distance:    0.0164454
  band:
  - # 1
    frequency:   -0.5189253909
  - # 2
    frequency:   -0.2571976488
  - # 3
    frequency:    0.2746102594
  - # 4
    frequency:    0.8590873288
  - # 5
    frequency:    0.9751565318
  - # 6
    frequency:    3.7177248654
  - # 7
    frequency:    3.7888362405
  - # 8
    frequency:    4.8512289198
  - # 9
    frequency:    6.5980843426
  - # 10
    frequency:    6.6204058321
  - # 11
    frequency:    6.8953043052
  - # 12
    frequency:    7.5083790333
  - # 13
    frequency:    7.5128844811
  - # 14
    frequency:   11.3700740978
  - # 15
    frequency:   11.8477717455
  - # 16
    frequency:   11.8634900510
  - # 17
    frequency:   11.9079661825
  - # 18
    frequency:   13.2187450022
  - # 19
    frequency:   13.2941545433
  - # 20
    frequency:   13.9999012002
  - # 21
    frequency:   14.0209874724
  - # 22
    frequency:   26.7168980772
  - # 23
    frequency:   57.7380278435
  - # 24
    frequency:  112.6045256693

- q-position: [    0.0555556,    0.0000000,    0.0000000 ]
  distance:    0.0180900
  band:
  - # 1
    frequency:   -0.5096626347
  - # 2
    frequency:   -0.2171403319
  - # 3
    frequency:    0.3594397265
  - # 4
    frequency:    0.9216171040
  - # 5
    frequency:    1.0526594069
  - # 6
    frequency:    3.7112815123
  - # 7
    frequency:    3.7962327076
  - # 8
    frequency:    4.8510674537
  - # 9
    frequency:    6.6017545949
  - # 10
    frequency:    6.6280111358
  - # 11
    frequency:    6.8891341589
  - # 12
    frequency:    7.5048741480
  - # 13
    frequency:    7.5104178908
  - # 14
    frequency:   11.3419258787
  - # 15
    frequency:   11.8380425410
  - # 16
    frequency:   11.8538081785
  - # 17
    frequency:   11.8942448519
  - # 18
    frequency:   13.2158520955
  - # 19
    frequency:   13.3061335525
  - # 20
    frequency:   14.0014984727
  - # 21
    frequency:   14.0268136397
  - # 22
    frequency:   26.7153300751
  - # 23
    frequency:   57.7213532242
  - # 24
    frequency:  112.5859246797

- q-position: [    0.0606061,    0.0000000,    0.0000000 ]
  distance:    0.0197345
  band:
  - # 1
    frequency:   -0.4953170392
  - # 2
    frequency:   -0.1807920323
  - # 3
    frequency:    0.4477223003
  - # 4
    frequency:    0.9830907766
  - # 5
    frequency:    1.1293954742
  - # 6
    frequency:    3.7045403729
  - # 7
    frequency:    3.8042293348
  - # 8
    frequency:    4.8509400722
  - # 9
    frequency:    6.6057025768
  - # 10
    frequency:    6.6358722189
  - # 11
    frequency:    6.8827603416
  - # 12
    frequency:    7.5010545237
  - # 13
    frequency:    7.5077697502
  - # 14
    frequency:   11.3115357124
  - # 15
    frequency:   11.8274624063
  - # 16
    frequency:   11.8410789009
  - # 17
    frequency:   11.8816045153
  - # 18
    frequency:   13.2128868904
  - # 19
    frequency:   13.3190577860
  - # 20
    frequency:   14.0032204910
  - # 21
    frequency:   14.0330956946
  - # 22
    frequency:   26.7136242133
  - # 23
    frequency:   57.7032174543
  - # 24
    frequency:  112.5658100461

- q-position: [    0.0656566,    0.0000000,    0.0000000 ]
  distance:    0.0213790
  band:
  - # 1
    frequency:   -0.4755881768
  - # 2
    frequency:   -0.1408977761
  - # 3
    frequency:    0.5353437678
  - # 4
    frequency:    1.0436544437
  - # 5
    frequency:    1.2054982847
  - # 6
    frequency:    3.6975807414
  - # 7
    frequency:    3.8127995625
  - # 8
    frequency:    4.8508626876
  - # 9
    frequency:    6.6099098050
  - # 10
    frequency:    6.6437914846
  - # 11
    frequency:    6.8763576078
  - # 12
    frequency:    7.4969253520
  - # 13
    frequency:    7.5049531765
  - # 14
    frequency:   11.2790006499
  - # 15
    frequency:   11.8160481914
  - # 16
    frequency:   11.8249499193
  - # 17
    frequency:   11.8704681845
  - # 18
    frequency:   13.2099177521
  - # 19
    frequency:   13.3328803405
  - # 20
    frequency:   14.0050604850
  - # 21
    frequency:   14.0398111364
  - # 22
    frequency:   26.7117834743
  - # 23
    frequency:   57.6836541847
  - # 24
    frequency:  112.5442495422

- q-position: [    0.0707071,    0.0000000,    0.0000000 ]
  distance:    0.0230236
  band:
  - # 1
    frequency:   -0.4499523513
  - # 2
    frequency:   -0.0813333936
  - # 3
    frequency:    0.6211913426
  - # 4
    frequency:    1.1034177416
  - # 5
    frequency:    1.2810692737
  - # 6
    frequency:    3.6904858067
  - # 7
    frequency:    3.8219153127
  - # 8
    frequency:    4.8508534411
  - # 9
    frequency:    6.6143566386
  - # 10
    frequency:    6.6515118894
  - # 11
    frequency:    6.8701584223
  - # 12
    frequency:    7.4924923103
  - # 13
    frequency:    7.5019818112
  - # 14
    frequency:   11.2444209111
  - # 15
    frequency:   11.8038170150
  - # 16
    frequency:   11.8058005754
  - # 17
    frequency:   11.8605306064
  - # 18
    frequency:   13.2070228277
  - # 19
    frequency:   13.3475525015
  - # 20
    frequency:   14.0070113809
  - # 21
    frequency:   14.0469370880
  - # 22
    frequency:   26.7098110443
  - # 23
    frequency:   57.6626995819
  - # 24
    frequency:  112.5213157408

- q-position: [    0.0757576,    0.0000000,    0.0000000 ]
  distance:    0.0246681
  band:
  - # 1
    frequency:   -0.4175354281
  - # 2
    frequency:    0.0911144465
  - # 3
    frequency:    0.7052126463
  - # 4
    frequency:    1.1624637899
  - # 5
    frequency:    1.3561856107
  - # 6
    frequency:    3.6833418946
  - # 7
    frequency:    3.8315471915
  - # 8
    frequency:    4.8509327957
  - # 9
    frequency:    6.6190223759
  - # 10
    frequency:    6.6587021948
  - # 11
    frequency:    6.8644678373
  - # 12
    frequency:    7.4877615896
  - # 13
    frequency:    7.4988696855
  - # 14
    frequency:   11.2078998058
  - # 15
    frequency:   11.7842672178
  - # 16
    frequency:   11.7907861594
  - # 17
    frequency:   11.8512319878
  - # 18
    frequency:   13.2042901506
  - # 19
    frequency:   13.3630240680
  - # 20
    frequency:   14.0090658637
  - # 21
    frequency:   14.0544505272
  - # 22
    frequency:   26.7077103041
  - # 23
    frequency:   57.6403922284
  - # 24
    frequency:  112.4970857499

- q-position: [    0.0808081,    0.0000000,    0.0000000 ]
  distance:    0.0263127
  band:
  - # 1
    frequency:   -0.3768404026
  - # 2
    frequency:    0.1605535341
  - # 3
    frequency:    0.7876064342
  - # 4
    frequency:    1.2208560488
  - # 5
    frequency:    1.4309052298
  - # 6
    frequency:    3.6762376530
  - # 7
    frequency:    3.8416647182
  - # 8
    frequency:    4.8511235920
  - # 9
    frequency:    6.6238853519
  - # 10
    frequency:    6.6649472125
  - # 11
    frequency:    6.8596733986
  - # 12
    frequency:    7.4827399302
  - # 13
    frequency:    7.4956310918
  - # 14
    frequency:   11.1695437079
  - # 15
    frequency:   11.7608447660
  - # 16
    frequency:   11.7769729975
  - # 17
    frequency:   11.8421556630
  - # 18
    frequency:   13.2018175187
  - # 19
    frequency:   13.3792436431
  - # 20
    frequency:   14.0112164434
  - # 21
    frequency:   14.0623284991
  - # 22
    frequency:   26.7054848198
  - # 23
    frequency:   57.6167730183
  - # 24
    frequency:  112.4716409319

- q-position: [    0.0858586,    0.0000000,    0.0000000 ]
  distance:    0.0279572
  band:
  - # 1
    frequency:   -0.3250741851
  - # 2
    frequency:    0.2156295487
  - # 3
    frequency:    0.8685856157
  - # 4
    frequency:    1.2786431877
  - # 5
    frequency:    1.5052700317
  - # 6
    frequency:    3.6692631808
  - # 7
    frequency:    3.8522365929
  - # 8
    frequency:    4.8514510542
  - # 9
    frequency:    6.6289230373
  - # 10
    frequency:    6.6697557557
  - # 11
    frequency:    6.8562373629
  - # 12
    frequency:    7.4774346669
  - # 13
    frequency:    7.4922804693
  - # 14
    frequency:   11.1294620636
  - # 15
    frequency:   11.7358448238
  - # 16
    frequency:   11.7623949504
  - # 17
    frequency:   11.8330693857
  - # 18
    frequency:   13.1997121323
  - # 19
    frequency:   13.3961588907
  - # 20
    frequency:   14.0134555244
  - # 21
    frequency:   14.0705483120
  - # 22
    frequency:   26.7031383349
  - # 23
    frequency:   57.5918850452
  - # 24
    frequency:  112.4450666069

- q-position: [    0.0909091,    0.0000000,    0.0000000 ]
  distance:    0.0296017
  band:
  - # 1
    frequency:   -0.2559974066
  - # 2
    frequency:    0.2665416802
  - # 3
    frequency:    0.9483218290
  - # 4
    frequency:    1.3358626373
  - # 5
    frequency:    1.5793078640
  - # 6
    frequency:    3.6625091081
  - # 7
    frequency:    3.8632310099
  - # 8
    frequency:    4.8519427389
  - # 9
    frequency:    6.6341121383
  - # 10
    frequency:    6.6726046822
  - # 11
    frequency:    6.8546528378
  - # 12
    frequency:    7.4718537831
  - # 13
    frequency:    7.4888323141
  - # 14
    frequency:   11.0877674172
  - # 15
    frequency:   11.7094584858
  - # 16
    frequency:   11.7470694720
  - # 17
    frequency:   11.8238621192
  - # 18
    frequency:   13.1980899826
  - # 19
    frequency:   13.4137167567
  - # 20
    frequency:   14.0157754784
  - # 21
    frequency:   14.0790877178
  - # 22
    frequency:   26.7006747630
  - # 23
    frequency:   57.5657734857
  - # 24
    frequency:  112.4174517407

- q-position: [    0.0959596,    0.0000000,    0.0000000 ]
  distance:    0.0312463
  band:
  - # 1
    frequency:   -0.1476635220
  - # 2
    frequency:    0.3161587383
  - # 3
    frequency:    1.0269405906
  - # 4
    frequency:    1.3925432480
  - # 5
    frequency:    1.6530336619
  - # 6
    frequency:    3.6560656328
  - # 7
    frequency:    3.8746160288
  - # 8
    frequency:    4.8526284120
  - # 9
    frequency:    6.6394286942
  - # 10
    frequency:    6.6730290660
  - # 11
    frequency:    6.8553537977
  - # 12
    frequency:    7.4660059738
  - # 13
    frequency:    7.4853011242
  - # 14
    frequency:   11.0445754491
  - # 15
    frequency:   11.6818071799
  - # 16
    frequency:   11.7310140564
  - # 17
    frequency:   11.8144929858
  - # 18
    frequency:   13.1970749955
  - # 19
    frequency:   13.4318636563
  - # 20
    frequency:   14.0181687224
  - # 21
    frequency:   14.0879250822
  - # 22
    frequency:   26.6980981816
  - # 23
    frequency:   57.5384854768
  - # 24
    frequency:  112.3888886182

- q-position: [    0.1010101,    0.0000000,    0.0000000 ]
  distance:    0.0328908
  band:
  - # 1
    frequency:    0.1590626995
  - # 2
    frequency:    0.3656962239
  - # 3
    frequency:    1.1045286618
  - # 4
    frequency:    1.4487073260
  - # 5
    frequency:    1.7264500075
  - # 6
    frequency:    3.6500215241
  - # 7
    frequency:    3.8863600159
  - # 8
    frequency:    4.8535398441
  - # 9
    frequency:    6.6448481758
  - # 10
    frequency:    6.6707339542
  - # 11
    frequency:    6.8586035104
  - # 12
    frequency:    7.4599007174
  - # 13
    frequency:    7.4817013940
  - # 14
    frequency:   11.0000050191
  - # 15
    frequency:   11.6529717652
  - # 16
    frequency:   11.7142462634
  - # 17
    frequency:   11.8049621448
  - # 18
    frequency:   13.1967979376
  - # 19
    frequency:   13.4505456279
  - # 20
    frequency:   14.0206278017
  - # 21
    frequency:   14.0970395457
  - # 22
    frequency:   26.6954128265
  - # 23
    frequency:   57.5100699884
  - # 24
    frequency:  112.3594725042

- q-position: [    0.1060606,    0.0000000,    0.0000000 ]
  distance:    0.0345354
  band:
  - # 1
    frequency:    0.2748855353
  - # 2
    frequency:    0.4157597317
  - # 3
    frequency:    1.1811429254
  - # 4
    frequency:    1.5043722266
  - # 5
    frequency:    1.7995472835
  - # 6
    frequency:    3.6444631043
  - # 7
    frequency:    3.8984321687
  - # 8
    frequency:    4.8547105125
  - # 9
    frequency:    6.6503455815
  - # 10
    frequency:    6.6656650138
  - # 11
    frequency:    6.8644240603
  - # 12
    frequency:    7.4535483562
  - # 13
    frequency:    7.4780476713
  - # 14
    frequency:   10.9541782105
  - # 15
    frequency:   11.6230084106
  - # 16
    frequency:   11.6967837576
  - # 17
    frequency:   11.7952950579
  - # 18
    frequency:   13.1973951031
  - # 19
    frequency:   13.4697084555
  - # 20
    frequency:   14.0231454804
  - # 21
    frequency:   14.1064111827
  - # 22
    frequency:   26.6926230878
  - # 23
    frequency:   57.4805776918
  - # 24
    frequency:  112.3293012922

- q-position: [    0.1111111,    0.0000000,    0.0000000 ]
  distance:    0.0361799
  band:
  - # 1
    frequency:    0.3588277185
  - # 2
    frequency:    0.4666735977
  - # 3
    frequency:    1.2568180864
  - # 4
    frequency:    1.5595516206
  - # 5
    frequency:    1.8723035525
  - # 6
    frequency:    3.6394732228
  - # 7
    frequency:    3.9108031358
  - # 8
    frequency:    4.8561751969
  - # 9
    frequency:    6.6558955316
  - # 10
    frequency:    6.6579902960
  - # 11
    frequency:    6.8726147264
  - # 12
    frequency:    7.4469601834
  - # 13
    frequency:    7.4743546924
  - # 14
    frequency:   10.9072203684
  - # 15
    frequency:   11.5919576745
  - # 16
    frequency:   11.6786443551
  - # 17
    frequency:   11.7855336950
  - # 18
    frequency:   13.1990068074
  - # 19
    frequency:   13.4892977595
  - # 20
    frequency:   14.0257148402
  - # 21
    frequency:   14.1160211610
  - # 22
    frequency:   26.6897335059
  - # 23
    frequency:   57.4500608237
  - # 24
    frequency:  112.2984751425

- q-position: [    0.1161616,    0.0000000,    0.0000000 ]
  distance:    0.0378244
  band:
  - # 1
    frequency:    0.4297265566
  - # 2
    frequency:    0.5186136150
  - # 3
    frequency:    1.3315728004
  - # 4
    frequency:    1.6142565117
  - # 5
    frequency:    1.9446842636
  - # 6
    frequency:    3.6351302403
  - # 7
    frequency:    3.9234457421
  - # 8
    frequency:    4.8579694618
  - # 9
    frequency:    6.6480132834
  - # 10
    frequency:    6.6614723621
  - # 11
    frequency:    6.8828390371
  - # 12
    frequency:    7.4401485349
  - # 13
    frequency:    7.4706376145
  - # 14
    frequency:   10.8592601244
  - # 15
    frequency:   11.5598502022
  - # 16
    frequency:   11.6598460747
  - # 17
    frequency:   11.7757312301
  - # 18
    frequency:   13.2017757186
  - # 19
    frequency:   13.5092590587
  - # 20
    frequency:   14.0283293903
  - # 21
    frequency:   14.1258519082
  - # 22
    frequency:   26.6867487694
  - # 23
    frequency:   57.4185730461
  - # 24
    frequency:  112.2670961110

- q-position: [    0.1212121,    0.0000000,    0.0000000 ]
  distance:    0.0394690
  band:
  - # 1
    frequency:    0.4930153110
  - # 2
    frequency:    0.5716693527
  - # 3
    frequency:    1.4054144118
  - # 4
    frequency:    1.6684960546
  - # 5
    frequency:    2.0166418669
  - # 6
    frequency:    3.6315070428
  - # 7
    frequency:    3.9363358268
  - # 8
    frequency:    4.8601290173
  - # 9
    frequency:    6.6360783664
  - # 10
    frequency:    6.6670502177
  - # 11
    frequency:    6.8947193405
  - # 12
    frequency:    7.4331268851
  - # 13
    frequency:    7.4669123594
  - # 14
    frequency:   10.8104293995
  - # 15
    frequency:   11.5267107360
  - # 16
    frequency:   11.6404071885
  - # 17
    frequency:   11.7659485004
  - # 18
    frequency:   13.2058450650
  - # 19
    frequency:   13.5295378004
  - # 20
    frequency:   14.0309831916
  - # 21
    frequency:   14.1358872905
  - # 22
    frequency:   26.6836737123
  - # 23
    frequency:   57.3861693039
  - # 24
    frequency:  112.2352677698

- q-position: [    0.1262626,    0.0000000,    0.0000000 ]
  distance:    0.0411135
  band:
  - # 1
    frequency:    0.5511232153
  - # 2
    frequency:    0.6258766167
  - # 3
    frequency:    1.4783425853
  - # 4
    frequency:    1.7222782049
  - # 5
    frequency:    2.0881154065
  - # 6
    frequency:    3.6286701078
  - # 7
    frequency:    3.9494531938
  - # 8
    frequency:    4.8626889551
  - # 9
    frequency:    6.6225091110
  - # 10
    frequency:    6.6726031446
  - # 11
    frequency:    6.9078985131
  - # 12
    frequency:    7.4259099424
  - # 13
    frequency:    7.4631960892
  - # 14
    frequency:   10.7608633712
  - # 15
    frequency:   11.4925612505
  - # 16
    frequency:   11.6203462692
  - # 17
    frequency:   11.7562513740
  - # 18
    frequency:   13.2113567563
  - # 19
    frequency:   13.5500793606
  - # 20
    frequency:   14.0336709976
  - # 21
    frequency:   14.1461128098
  - # 22
    frequency:   26.6805133129
  - # 23
    frequency:   57.3529056793
  - # 24
    frequency:  112.2030948211

- q-position: [    0.1313131,    0.0000000,    0.0000000 ]
  distance:    0.0427581
  band:
  - # 1
    frequency:    0.6053668283
  - # 2
    frequency:    0.6812357207
  - # 3
    frequency:    1.5503520711
  - # 4
    frequency:    1.7756102205
  - # 5
    frequency:    2.1590301514
  - # 6
    frequency:    3.6266786465
  - # 7
    frequency:    3.9627826669
  - # 8
    frequency:    4.8656828640
  - # 9
    frequency:    6.6075825709
  - # 10
    frequency:    6.6781051848
  - # 11
    frequency:    6.9220655380
  - # 12
    frequency:    7.4185137410
  - # 13
    frequency:    7.4595078294
  - # 14
    frequency:   10.7107003955
  - # 15
    frequency:   11.4574235968
  - # 16
    frequency:   11.5996822306
  - # 17
    frequency:   11.7467086102
  - # 18
    frequency:   13.2184494593
  - # 19
    frequency:   13.5708290111
  - # 20
    frequency:   14.0363884175
  - # 21
    frequency:   14.1565158261
  - # 22
    frequency:   26.6772726919
  - # 23
    frequency:   57.3188392435
  - # 24
    frequency:  112.1706827060

- q-position: [    0.1363636,    0.0000000,    0.0000000 ]
  distance:    0.0444026
  band:
  - # 1
    frequency:    0.6565455906
  - # 2
    frequency:    0.7377224252
  - # 3
    frequency:    1.6214347956
  - # 4
    frequency:    1.8284990232
  - # 5
    frequency:    2.2292973185
  - # 6
    frequency:    3.6255838482
  - # 7