nqpoint: 300    
npath: 3      
segment_nqpoint:
- 100
- 100
- 100
labels:
- [ 'G', 'M' ]
- [ 'M', 'K' ]
- [ 'K', 'G' ]
reciprocal_lattice:
- [   0.31440139,   0.18151973,   0.00000000 ] # a*
- [   0.00000000,   0.36303945,   0.00000000 ] # b*
- [   0.00000000,   0.00000000,   0.03610227 ] # c*
natom: 8      
lattice:
- [     3.180647543760229,     0.000000000000000,     0.000000000000000 ] # a
- [    -1.590323771880115,     2.754521573382490,     0.000000000000000 ] # b
- [     0.000000000000000,     0.000000000000000,    27.699093104867593 ] # c
points:
- symbol: C # 1
  coordinates: [  0.000000000000000,  0.000000000000000,  0.486367102400278 ]
  mass: 12.010700
- symbol: C # 2
  coordinates: [  0.333332985432215,  0.666666983183674,  0.619156961782279 ]
  mass: 12.010700
- symbol: N # 3
  coordinates: [  0.333332985432215,  0.666666983183674,  0.573817316268454 ]
  mass: 14.006700
- symbol: O # 4
  coordinates: [  0.666666984744047,  0.333332985985145,  0.324920385152192 ]
  mass: 15.999400
- symbol: P # 5
  coordinates: [  0.666666984744047,  0.333332985985145,  0.378752183578209 ]
  mass: 30.973762
- symbol: S # 6
  coordinates: [  0.333332985432215,  0.666666983183674,  0.675079614847808 ]
  mass: 32.065000
- symbol: Ti # 7
  coordinates: [  0.333332985432215,  0.666666983183674,  0.445987651162912 ]
  mass: 47.867000
- symbol: Ti # 8
  coordinates: [  0.666666984744047,  0.333332985985145,  0.528408030266971 ]
  mass: 47.867000

phonon:
- q-position: [    0.0000000,    0.0000000,    0.0000000 ]
  distance:    0.0000000
  band:
  - # 1
    frequency:   -2.1119922073
  - # 2
    frequency:   -2.1119922073
  - # 3
    frequency:   -0.0000013798
  - # 4
    frequency:    0.0000004310
  - # 5
    frequency:    0.0000009980
  - # 6
    frequency:    1.0591829146
  - # 7
    frequency:    1.0591829146
  - # 8
    frequency:    4.6646062712
  - # 9
    frequency:    4.6646062712
  - # 10
    frequency:    5.3446919882
  - # 11
    frequency:    6.1542009548
  - # 12
    frequency:    6.1542009548
  - # 13
    frequency:    8.2942167100
  - # 14
    frequency:    8.3559725796
  - # 15
    frequency:    8.3559725796
  - # 16
    frequency:   11.1652347860
  - # 17
    frequency:   13.6323461324
  - # 18
    frequency:   13.6323461324
  - # 19
    frequency:   17.3924570425
  - # 20
    frequency:   17.3924570425
  - # 21
    frequency:   17.7090437915
  - # 22
    frequency:   27.1100325869
  - # 23
    frequency:   34.5095342306
  - # 24
    frequency:   56.5281647205

- q-position: [    0.0050505,    0.0000000,    0.0000000 ]
  distance:    0.0018335
  band:
  - # 1
    frequency:   -2.1124020001
  - # 2
    frequency:   -2.1083052567
  - # 3
    frequency:   -0.2255000979
  - # 4
    frequency:    0.0879049270
  - # 5
    frequency:    0.2631490370
  - # 6
    frequency:    1.0616703809
  - # 7
    frequency:    1.0653401622
  - # 8
    frequency:    4.6647440604
  - # 9
    frequency:    4.6649479070
  - # 10
    frequency:    5.3444566369
  - # 11
    frequency:    6.1541120853
  - # 12
    frequency:    6.1542687321
  - # 13
    frequency:    8.2929551490
  - # 14
    frequency:    8.3561668971
  - # 15
    frequency:    8.3578129035
  - # 16
    frequency:   11.1646507659
  - # 17
    frequency:   13.6324372610
  - # 18
    frequency:   13.6324850940
  - # 19
    frequency:   17.3921999417
  - # 20
    frequency:   17.3926125742
  - # 21
    frequency:   17.7090809655
  - # 22
    frequency:   27.1099083629
  - # 23
    frequency:   34.5092650328
  - # 24
    frequency:   56.5275759347

- q-position: [    0.0101010,    0.0000000,    0.0000000 ]
  distance:    0.0036671
  band:
  - # 1
    frequency:   -2.1136190900
  - # 2
    frequency:   -2.0972811489
  - # 3
    frequency:   -0.2934272597
  - # 4
    frequency:    0.1755123144
  - # 5
    frequency:    0.3997709393
  - # 6
    frequency:    1.0691230143
  - # 7
    frequency:    1.0836364832
  - # 8
    frequency:    4.6651574826
  - # 9
    frequency:    4.6659584999
  - # 10
    frequency:    5.3437710276
  - # 11
    frequency:    6.1538492447
  - # 12
    frequency:    6.1544729590
  - # 13
    frequency:    8.2895745671
  - # 14
    frequency:    8.3567475225
  - # 15
    frequency:    8.3629280041
  - # 16
    frequency:   11.1629007671
  - # 17
    frequency:   13.6327103130
  - # 18
    frequency:   13.6329029049
  - # 19
    frequency:   17.3914304308
  - # 20
    frequency:   17.3930772795
  - # 21
    frequency:   17.7091888798
  - # 22
    frequency:   27.1095353976
  - # 23
    frequency:   34.5084579995
  - # 24
    frequency:   56.5258093486

- q-position: [    0.0151515,    0.0000000,    0.0000000 ]
  distance:    0.0055006
  band:
  - # 1
    frequency:   -2.1156072424
  - # 2
    frequency:   -2.0790298310
  - # 3
    frequency:   -0.3290057286
  - # 4
    frequency:    0.2625225679
  - # 5
    frequency:    0.5239895449
  - # 6
    frequency:    1.0815132336
  - # 7
    frequency:    1.1135818614
  - # 8
    frequency:    4.6658466901
  - # 9
    frequency:    4.6675952448
  - # 10
    frequency:    5.3426962577
  - # 11
    frequency:    6.1534236888
  - # 12
    frequency:    6.1548164137
  - # 13
    frequency:    8.2849023128
  - # 14
    frequency:    8.3577075156
  - # 15
    frequency:    8.3704852541
  - # 16
    frequency:   11.1599909523
  - # 17
    frequency:   13.6331642894
  - # 18
    frequency:   13.6336023380
  - # 19
    frequency:   17.3901538329
  - # 20
    frequency:   17.3938455046
  - # 21
    frequency:   17.7093567967
  - # 22
    frequency:   27.1089128170
  - # 23
    frequency:   34.5071148094
  - # 24
    frequency:   56.5228642852

- q-position: [    0.0202020,    0.0000000,    0.0000000 ]
  distance:    0.0073341
  band:
  - # 1
    frequency:   -2.1183080819
  - # 2
    frequency:   -2.0537331546
  - # 3
    frequency:   -0.3455023683
  - # 4
    frequency:    0.3486319485
  - # 5
    frequency:    0.6450454592
  - # 6
    frequency:    1.0988004231
  - # 7
    frequency:    1.1544703988
  - # 8
    frequency:    4.6668118989
  - # 9
    frequency:    4.6697873104
  - # 10
    frequency:    5.3413333237
  - # 11
    frequency:    6.1528540163
  - # 12
    frequency:    6.1553040270
  - # 13
    frequency:    8.2796617264
  - # 14
    frequency:    8.3590354492
  - # 15
    frequency:    8.3797526199
  - # 16
    frequency:   11.1559315209
  - # 17
    frequency:   13.6337975372
  - # 18
    frequency:   13.6345880021
  - # 19
    frequency:   17.3883788501
  - # 20
    frequency:   17.3949078729
  - # 21
    frequency:   17.7095671015
  - # 22
    frequency:   27.1080391848
  - # 23
    frequency:   34.5052382533
  - # 24
    frequency:   56.5187396435

- q-position: [    0.0252525,    0.0000000,    0.0000000 ]
  distance:    0.0091677
  band:
  - # 1
    frequency:   -2.1216438332
  - # 2
    frequency:   -2.0216412878
  - # 3
    frequency:   -0.3480161373
  - # 4
    frequency:    0.4335307209
  - # 5
    frequency:    0.7658287347
  - # 6
    frequency:    1.1209376620
  - # 7
    frequency:    1.2055181308
  - # 8
    frequency:    4.6680533342
  - # 9
    frequency:    4.6724367812
  - # 10
    frequency:    5.3398217285
  - # 11
    frequency:    6.1521659310
  - # 12
    frequency:    6.1559433047
  - # 13
    frequency:    8.2743295576
  - # 14
    frequency:    8.3607156127
  - # 15
    frequency:    8.3902413975
  - # 16
    frequency:   11.1507366050
  - # 17
    frequency:   13.6346077651
  - # 18
    frequency:   13.6358663193
  - # 19
    frequency:   17.3861173244
  - # 20
    frequency:   17.3962513564
  - # 21
    frequency:   17.7097957079
  - # 22
    frequency:   27.1069125323
  - # 23
    frequency:   34.5028322255
  - # 24
    frequency:   56.5134339406

- q-position: [    0.0303030,    0.0000000,    0.0000000 ]
  distance:    0.0110012
  band:
  - # 1
    frequency:   -2.1255206635
  - # 2
    frequency:   -1.9830649421
  - # 3
    frequency:   -0.3386387362
  - # 4
    frequency:    0.5169024036
  - # 5
    frequency:    0.8872346298
  - # 6
    frequency:    1.1478785324
  - # 7
    frequency:    1.2660175441
  - # 8
    frequency:    4.6695711569
  - # 9
    frequency:    4.6754203244
  - # 10
    frequency:    5.3383372356
  - # 11
    frequency:    6.1513919138
  - # 12
    frequency:    6.1567448635
  - # 13
    frequency:    8.2691943442
  - # 14
    frequency:    8.3627282908
  - # 15
    frequency:    8.4016480511
  - # 16
    frequency:   11.1444241293
  - # 17
    frequency:   13.6355920676
  - # 18
    frequency:   13.6374454939
  - # 19
    frequency:   17.3833839292
  - # 20
    frequency:   17.3978593718
  - # 21
    frequency:   17.7100125943
  - # 22
    frequency:   27.1055304000
  - # 23
    frequency:   34.4999017094
  - # 24
    frequency:   56.5069453690

- q-position: [    0.0353535,    0.0000000,    0.0000000 ]
  distance:    0.0128347
  band:
  - # 1
    frequency:   -2.1298322697
  - # 2
    frequency:   -1.9383613435
  - # 3
    frequency:   -0.3176100509
  - # 4
    frequency:    0.5984258027
  - # 5
    frequency:    1.0091727051
  - # 6
    frequency:    1.1795813816
  - # 7
    frequency:    1.3354963312
  - # 8
    frequency:    4.6713653758
  - # 9
    frequency:    4.6785919244
  - # 10
    frequency:    5.3370884813
  - # 11
    frequency:    6.1505708112
  - # 12
    frequency:    6.1577230368
  - # 13
    frequency:    8.2644300013
  - # 14
    frequency:    8.3650501067
  - # 15
    frequency:    8.4137808977
  - # 16
    frequency:   11.1370156412
  - # 17
    frequency:   13.6367469544
  - # 18
    frequency:   13.6393354668
  - # 19
    frequency:   17.3801958138
  - # 20
    frequency:   17.3997119048
  - # 21
    frequency:   17.7101824468
  - # 22
    frequency:   27.1038898908
  - # 23
    frequency:   34.4964527613
  - # 24
    frequency:   56.4992718698

- q-position: [    0.0404040,    0.0000000,    0.0000000 ]
  distance:    0.0146683
  band:
  - # 1
    frequency:   -2.1344633980
  - # 2
    frequency:   -1.8879123930
  - # 3
    frequency:   -0.2832309930
  - # 4
    frequency:    0.6777823076
  - # 5
    frequency:    1.1308462993
  - # 6
    frequency:    1.2160078242
  - # 7
    frequency:    1.4138677931
  - # 8
    frequency:    4.6734357486
  - # 9
    frequency:    4.6817870819
  - # 10
    frequency:    5.3363120959
  - # 11
    frequency:    6.1497473469
  - # 12
    frequency:    6.1588964994
  - # 13
    frequency:    8.2601436333
  - # 14
    frequency:    8.3676544224
  - # 15
    frequency:    8.4265126259
  - # 16
    frequency:   11.1285361174
  - # 17
    frequency:   13.6380683853
  - # 18
    frequency:   13.6415478564
  - # 19
    frequency:   17.3765722246
  - # 20
    frequency:   17.4017856574
  - # 21
    frequency:   17.7102653781
  - # 22
    frequency:   27.1019877335
  - # 23
    frequency:   34.4924924891
  - # 24
    frequency:   56.4904112213

- q-position: [    0.0454545,    0.0000000,    0.0000000 ]
  distance:    0.0165018
  band:
  - # 1
    frequency:   -2.1392930672
  - # 2
    frequency:   -1.8320948180
  - # 3
    frequency:   -0.2301162415
  - # 4
    frequency:    0.7546711522
  - # 5
    frequency:    1.2508507290
  - # 6
    frequency:    1.2571123123
  - # 7
    frequency:    1.5015134784
  - # 8
    frequency:    4.6757816769
  - # 9
    frequency:    4.6848288766
  - # 10
    frequency:    5.3362659920
  - # 11
    frequency:    6.1489715624
  - # 12
    frequency:    6.1602888659
  - # 13
    frequency:    8.2564026597
  - # 14
    frequency:    8.3705117851
  - # 15
    frequency:    8.4397535543
  - # 16
    frequency:   11.1190137541
  - # 17
    frequency:   13.6395518119
  - # 18
    frequency:   13.6440958809
  - # 19
    frequency:   17.3725341245
  - # 20
    frequency:   17.4040542190
  - # 21
    frequency:   17.7102176976
  - # 22
    frequency:   27.0998203564
  - # 23
    frequency:   34.4880290282
  - # 24
    frequency:   56.4803611413

- q-position: [    0.0505051,    0.0000000,    0.0000000 ]
  distance:    0.0183353
  band:
  - # 1
    frequency:   -2.1441973673
  - # 2
    frequency:   -1.7712440719
  - # 3
    frequency:   -0.1382430055
  - # 4
    frequency:    0.8288340619
  - # 5
    frequency:    1.3028211471
  - # 6
    frequency:    1.3674209750
  - # 7
    frequency:    1.5991149865
  - # 8
    frequency:    4.6784021018
  - # 9
    frequency:    4.6875361754
  - # 10
    frequency:    5.3372205878
  - # 11
    frequency:    6.1482981960
  - # 12
    frequency:    6.1619292208
  - # 13
    frequency:    8.2532499905
  - # 14
    frequency:    8.3735904077
  - # 15
    frequency:    8.4534368887
  - # 16
    frequency:   11.1084797482
  - # 17
    frequency:   13.6411922229
  - # 18
    frequency:   13.6469942626
  - # 19
    frequency:   17.3681038283
  - # 20
    frequency:   17.4064882588
  - # 21
    frequency:   17.7099927084
  - # 22
    frequency:   27.0973839705
  - # 23
    frequency:   34.4830715140
  - # 24
    frequency:   56.4691194030

- q-position: [    0.0555556,    0.0000000,    0.0000000 ]
  distance:    0.0201689
  band:
  - # 1
    frequency:   -2.1490517913
  - # 2
    frequency:   -1.7056156008
  - # 3
    frequency:    0.1464723640
  - # 4
    frequency:    0.9000870487
  - # 5
    frequency:    1.3530031651
  - # 6
    frequency:    1.4791052823
  - # 7
    frequency:    1.7070180383
  - # 8
    frequency:    4.6812954037
  - # 9
    frequency:    4.6897340116
  - # 10
    frequency:    5.3394479897
  - # 11
    frequency:    6.1477860072
  - # 12
    frequency:    6.1638525472
  - # 13
    frequency:    8.2507127887
  - # 14
    frequency:    8.3768566733
  - # 15
    frequency:    8.4675104358
  - # 16
    frequency:   11.0969680756
  - # 17
    frequency:   13.6429841950
  - # 18
    frequency:   13.6502591090
  - # 19
    frequency:   17.3633046697
  - # 20
    frequency:   17.4090557384
  - # 21
    frequency:   17.7095415084
  - # 22
    frequency:   27.0946746610
  - # 23
    frequency:   34.4776300509
  - # 24
    frequency:   56.4566839637

- q-position: [    0.0606061,    0.0000000,    0.0000000 ]
  distance:    0.0220024
  band:
  - # 1
    frequency:   -2.1537331281
  - # 2
    frequency:   -1.6353479019
  - # 3
    frequency:    0.2627781191
  - # 4
    frequency:    0.9683516224
  - # 5
    frequency:    1.4074399614
  - # 6
    frequency:    1.5855855396
  - # 7
    frequency:    1.8244348171
  - # 8
    frequency:    4.6844593146
  - # 9
    frequency:    4.6912657444
  - # 10
    frequency:    5.3432095705
  - # 11
    frequency:    6.1474970543
  - # 12
    frequency:    6.1661000293
  - # 13
    frequency:    8.2488078144
  - # 14
    frequency:    8.3802756512
  - # 15
    frequency:    8.4819317728
  - # 16
    frequency:   11.0845152742
  - # 17
    frequency:   13.6449219472
  - # 18
    frequency:   13.6539077716
  - # 19
    frequency:   17.3581607089
  - # 20
    frequency:   17.4117221407
  - # 21
    frequency:   17.7088137815
  - # 22
    frequency:   27.0916884864
  - # 23
    frequency:   34.4717156783
  - # 24
    frequency:   56.4430531044

- q-position: [    0.0656566,    0.0000000,    0.0000000 ]
  distance:    0.0238359
  band:
  - # 1
    frequency:   -2.1581209795
  - # 2
    frequency:   -1.5604308333
  - # 3
    frequency:    0.3523517437
  - # 4
    frequency:    1.0336735675
  - # 5
    frequency:    1.4658076944
  - # 6
    frequency:    1.6877493826
  - # 7
    frequency:    1.9493905930
  - # 8
    frequency:    4.6878908479
  - # 9
    frequency:    4.6920061038
  - # 10
    frequency:    5.3487428841
  - # 11
    frequency:    6.1474959340
  - # 12
    frequency:    6.1687192128
  - # 13
    frequency:    8.2475449148
  - # 14
    frequency:    8.3838116147
  - # 15
    frequency:    8.4966653007
  - # 16
    frequency:   11.0711602345
  - # 17
    frequency:   13.6469993979
  - # 18
    frequency:   13.6579586802
  - # 19
    frequency:   17.3526964875
  - # 20
    frequency:   17.4144507158
  - # 21
    frequency:   17.7077585660
  - # 22
    frequency:   27.0884215838
  - # 23
    frequency:   34.4653403334
  - # 24
    frequency:   56.4282255794

- q-position: [    0.0707071,    0.0000000,    0.0000000 ]
  distance:    0.0256695
  band:
  - # 1
    frequency:   -2.1620989838
  - # 2
    frequency:   -1.4806798817
  - # 3
    frequency:    0.4328816199
  - # 4
    frequency:    1.0962192557
  - # 5
    frequency:    1.5276807152
  - # 6
    frequency:    1.7869445985
  - # 7
    frequency:    2.0794865524
  - # 8
    frequency:    4.6915862513
  - # 9
    frequency:    4.6918737764
  - # 10
    frequency:    5.3562493095
  - # 11
    frequency:    6.1478489891
  - # 12
    frequency:    6.1717640116
  - # 13
    frequency:    8.2469294815
  - # 14
    frequency:    8.3874285503
  - # 15
    frequency:    8.5116803533
  - # 16
    frequency:   11.0569440035
  - # 17
    frequency:   13.6492102250
  - # 18
    frequency:   13.6624311524
  - # 19
    frequency:   17.3469368332
  - # 20
    frequency:   17.4172027396
  - # 21
    frequency:   17.7063249894
  - # 22
    frequency:   27.0848702800
  - # 23
    frequency:   34.4585168118
  - # 24
    frequency:   56.4122007746

- q-position: [    0.0757576,    0.0000000,    0.0000000 ]
  distance:    0.0275030
  band:
  - # 1
    frequency:   -2.1655558225
  - # 2
    frequency:   -1.3957130625
  - # 3
    frequency:    0.5094856886
  - # 4
    frequency:    1.1562483101
  - # 5
    frequency:    1.5925583952
  - # 6
    frequency:    1.8843191320
  - # 7
    frequency:    2.2125742380
  - # 8
    frequency:    4.6908419852
  - # 9
    frequency:    4.6955409890
  - # 10
    frequency:    5.3658840228
  - # 11
    frequency:    6.1486234928
  - # 12
    frequency:    6.1752945556
  - # 13
    frequency:    8.2469643114
  - # 14
    frequency:    8.3910906481
  - # 15
    frequency:    8.5269499161
  - # 16
    frequency:   11.0419096016
  - # 17
    frequency:   13.6515479265
  - # 18
    frequency:   13.6673451787
  - # 19
    frequency:   17.3409067143
  - # 20
    frequency:   17.4199377843
  - # 21
    frequency:   17.7044629654
  - # 22
    frequency:   27.0810312065
  - # 23
    frequency:   34.4512587246
  - # 24
    frequency:   56.3949788735

- q-position: [    0.0808081,    0.0000000,    0.0000000 ]
  distance:    0.0293365
  band:
  - # 1
    frequency:   -2.1683860793
  - # 2
    frequency:   -1.3049219980
  - # 3
    frequency:    0.5845967967
  - # 4
    frequency:    1.2140718644
  - # 5
    frequency:    1.6599060712
  - # 6
    frequency:    1.9806317477
  - # 7
    frequency:    2.3469545372
  - # 8
    frequency:    4.6889457244
  - # 9
    frequency:    4.6997497561
  - # 10
    frequency:    5.3777497004
  - # 11
    frequency:    6.1498868157
  - # 12
    frequency:    6.1793768754
  - # 13
    frequency:    8.2476511018
  - # 14
    frequency:    8.3947627682
  - # 15
    frequency:    8.5424497164
  - # 16
    frequency:   11.0261018552
  - # 17
    frequency:   13.6540058827
  - # 18
    frequency:   13.6727211852
  - # 19
    frequency:   17.3346311439
  - # 20
    frequency:   17.4226139981
  - # 21
    frequency:   17.7021238472
  - # 22
    frequency:   27.0769014164
  - # 23
    frequency:   34.4435804540
  - # 24
    frequency:   56.3765610276

- q-position: [    0.0858586,    0.0000000,    0.0000000 ]
  distance:    0.0311701
  band:
  - # 1
    frequency:   -2.1704910003
  - # 2
    frequency:   -1.2074208781
  - # 3
    frequency:    0.6597021482
  - # 4
    frequency:    1.2700102331
  - # 5
    frequency:    1.7291964120
  - # 6
    frequency:    2.0763173884
  - # 7
    frequency:    2.4813160563
  - # 8
    frequency:    4.6862849314
  - # 9
    frequency:    4.7042065306
  - # 10
    frequency:    5.3918947440
  - # 11
    frequency:    6.1517055835
  - # 12
    frequency:    6.1840824198
  - # 13
    frequency:    8.2489917016
  - # 14
    frequency:    8.3984108739
  - # 15
    frequency:    8.5581575523
  - # 16
    frequency:   11.0095672412
  - # 17
    frequency:   13.6565774172
  - # 18
    frequency:   13.6785797744
  - # 19
    frequency:   17.3281351303
  - # 20
    frequency:   17.4251883925
  - # 21
    frequency:   17.6992610337
  - # 22
    frequency:   27.0724785043
  - # 23
    frequency:   34.4354971061
  - # 24
    frequency:   56.3569495325

- q-position: [    0.0909091,    0.0000000,    0.0000000 ]
  distance:    0.0330036
  band:
  - # 1
    frequency:   -2.1717791908
  - # 2
    frequency:   -1.1019404527
  - # 3
    frequency:    0.7358761556
  - # 4
    frequency:    1.3243605574
  - # 5
    frequency:    1.7999407295
  - # 6
    frequency:    2.1715972351
  - # 7
    frequency:    2.6146230094
  - # 8
    frequency:    4.6830237352
  - # 9
    frequency:    4.7089046636
  - # 10
    frequency:    5.4083159709
  - # 11
    frequency:    6.1541448325
  - # 12
    frequency:    6.1894874000
  - # 13
    frequency:    8.2509891794
  - # 14
    frequency:    8.4020024277
  - # 15
    frequency:    8.5740527913
  - # 16
    frequency:   10.9923537425
  - # 17
    frequency:   13.6592558564
  - # 18
    frequency:   13.6849414491
  - # 19
    frequency:   17.3214436710
  - # 20
    frequency:   17.4276171355
  - # 21
    frequency:   17.6958305269
  - # 22
    frequency:   27.0677607242
  - # 23
    frequency:   34.4270244617
  - # 24
    frequency:   56.3361480044

- q-position: [    0.0959596,    0.0000000,    0.0000000 ]
  distance:    0.0348371
  band:
  - # 1
    frequency:   -2.1721672701
  - # 2
    frequency:   -0.9865913619
  - # 3
    frequency:    0.8139771332
  - # 4
    frequency:    1.3773781541
  - # 5
    frequency:    1.8717065640
  - # 6
    frequency:    2.2665636133
  - # 7
    frequency:    2.7460235320
  - # 8
    frequency:    4.6793867317
  - # 9
    frequency:    4.7138370100
  - # 10
    frequency:    5.4269649059
  - # 11
    frequency:    6.1572671709
  - # 12
    frequency:    6.1956719540
  - # 13
    frequency:    8.2536487329
  - # 14
    frequency:    8.4055067459
  - # 15
    frequency:    8.5901160019
  - # 16
    frequency:   10.9745107096
  - # 17
    frequency:   13.6620345868
  - # 18
    frequency:   13.6918263208
  - # 19
    frequency:   17.3145817862
  - # 20
    frequency:   17.4298558481
  - # 21
    frequency:   17.6917914377
  - # 22
    frequency:   27.0627471075
  - # 23
    frequency:   34.4181789257
  - # 24
    frequency:   56.3141615580

- q-position: [    0.1010101,    0.0000000,    0.0000000 ]
  distance:    0.0366707
  band:
  - # 1
    frequency:   -2.1715804924
  - # 2
    frequency:   -0.8582948479
  - # 3
    frequency:    0.8947041093
  - # 4
    frequency:    1.4292698393
  - # 5
    frequency:    1.9441233083
  - # 6
    frequency:    2.3612342659
  - # 7
    frequency:    2.8747853252
  - # 8
    frequency:    4.6756537223
  - # 9
    frequency:    4.7189960968
  - # 10
    frequency:    5.4477563120
  - # 11
    frequency:    6.1611319537
  - # 12
    frequency:    6.2027191184
  - # 13
    frequency:    8.2569784489
  - # 14
    frequency:    8.4088953083
  - # 15
    frequency:    8.6063286994
  - # 16
    frequency:   10.9560887236
  - # 17
    frequency:   13.6649071089
  - # 18
    frequency:   13.6992538085
  - # 19
    frequency:   17.3075745893
  - # 20
    frequency:   17.4318599028
  - # 21
    frequency:   17.6871064403
  - # 22
    frequency:   27.0574375765
  - # 23
    frequency:   34.4089774744
  - # 24
    frequency:   56.2909969831

- q-position: [    0.1060606,    0.0000000,    0.0000000 ]
  distance:    0.0385042
  band:
  - # 1
    frequency:   -2.1699533377
  - # 2
    frequency:   -0.7112323556
  - # 3
    frequency:    0.9785703654
  - # 4
    frequency:    1.4801952486
  - # 5
    frequency:    2.0168798698
  - # 6
    frequency:    2.4555848728
  - # 7
    frequency:    3.0002511575
  - # 8
    frequency:    4.6721544113
  - # 9
    frequency:    4.7243743290
  - # 10
    frequency:    5.4705774878
  - # 11
    frequency:    6.1657944800
  - # 12
    frequency:    6.2107135977
  - # 13
    frequency:    8.2609899098
  - # 14
    frequency:    8.4121420215
  - # 15
    frequency:    8.6226731967
  - # 16
    frequency:   10.9371394552
  - # 17
    frequency:   13.6678670864
  - # 18
    frequency:   13.7072423314
  - # 19
    frequency:   17.3004473876
  - # 20
    frequency:   17.4335847232
  - # 21
    frequency:   17.6817421729
  - # 22
    frequency:   27.0518330541
  - # 23
    frequency:   34.3994376018
  - # 24
    frequency:   56.2666629170

- q-position: [    0.1111111,    0.0000000,    0.0000000 ]
  distance:    0.0403377
  band:
  - # 1
    frequency:   -2.1672300699
  - # 2
    frequency:   -0.5314404697
  - # 3
    frequency:    1.0658244204
  - # 4
    frequency:    1.5302723281
  - # 5
    frequency:    2.0897182045
  - # 6
    frequency:    2.5495681213
  - # 7
    frequency:    3.1218071459
  - # 8
    frequency:    4.6692642044
  - # 9
    frequency:    4.7299642274
  - # 10
    frequency:    5.4952970873
  - # 11
    frequency:    6.1713052240
  - # 12
    frequency:    6.2197403165
  - # 13
    frequency:    8.2656986396
  - # 14
    frequency:    8.4152234351
  - # 15
    frequency:    8.6391325547
  - # 16
    frequency:   10.9177155153
  - # 17
    frequency:   13.6709083901
  - # 18
    frequency:   13.7158090015
  - # 19
    frequency:   17.2932258107
  - # 20
    frequency:   17.4349860814
  - # 21
    frequency:   17.6756695863
  - # 22
    frequency:   27.0459355675
  - # 23
    frequency:   34.3895772646
  - # 24
    frequency:   56.2411700122

- q-position: [    0.1161616,    0.0000000,    0.0000000 ]
  distance:    0.0421712
  band:
  - # 1
    frequency:   -2.1633652579
  - # 2
    frequency:   -0.2596411567
  - # 3
    frequency:    1.1563653298
  - # 4
    frequency:    1.5795842860
  - # 5
    frequency:    2.1624254389
  - # 6
    frequency:    2.6431248196
  - # 7
    frequency:    3.2388594471
  - # 8
    frequency:    4.6674016021
  - # 9
    frequency:    4.7357586937
  - # 10
    frequency:    5.5217726157
  - # 11
    frequency:    6.1777091071
  - # 12
    frequency:    6.2298827450
  - # 13
    frequency:    8.2711243814
  - # 14
    frequency:    8.4181189098
  - # 15
    frequency:    8.6556906233
  - # 16
    frequency:   10.8978702910
  - # 17
    frequency:   13.6740251358
  - # 18
    frequency:   13.7249693195
  - # 19
    frequency:   17.2859359581
  - # 20
    frequency:   17.4360203929
  - # 21
    frequency:   17.6688642396
  - # 22
    frequency:   27.0397483435
  - # 23
    frequency:   34.3794148262
  - # 24
    frequency:   56.2145310968

- q-position: [    0.1212121,    0.0000000,    0.0000000 ]
  distance:    0.0440048
  band:
  - # 1
    frequency:   -2.1583242558
  - # 2
    frequency:    0.3728911078
  - # 3
    frequency:    1.2497190845
  - # 4
    frequency:    1.6281864473
  - # 5
    frequency:    2.2348261364
  - # 6
    frequency:    2.7361903479
  - # 7
    frequency:    3.3508173604
  - # 8
    frequency:    4.6670267795
  - # 9
    frequency:    4.7417512957
  - # 10
    frequency:    5.5498561646
  - # 11
    frequency:    6.1850448244
  - # 12
    frequency:    6.2412209899
  - # 13
    frequency:    8.2772911985
  - # 14
    frequency:    8.4208107394
  - # 15
    frequency:    8.6723321667
  - # 16
    frequency:   10.8776577656
  - # 17
    frequency:   13.6772117151
  - # 18
    frequency:   13.7347368813
  - # 19
    frequency:   17.2786045610
  - # 20
    frequency:   17.4366450079
  - # 21
    frequency:   17.6613065456
  - # 22
    frequency:   27.0332758956
  - # 23
    frequency:   34.3689690004
  - # 24
    frequency:   56.1867613255

- q-position: [    0.1262626,    0.0000000,    0.0000000 ]
  distance:    0.0458383
  band:
  - # 1
    frequency:   -2.1520836358
  - # 2
    frequency:    0.5812067594
  - # 3
    frequency:    1.3451213623
  - # 4
    frequency:    1.6761122875
  - # 5
    frequency:    2.3067754322
  - # 6
    frequency:    2.8286983688
  - # 7
    frequency:    3.4570828224
  - # 8
    frequency:    4.6686397765
  - # 9
    frequency:    4.7479365667
  - # 10
    frequency:    5.5793982825
  - # 11
    frequency:    6.1933442342
  - # 12
    frequency:    6.2538296519
  - # 13
    frequency:    8.2842273928
  - # 14
    frequency:    8.4232842266
  - # 15
    frequency:    8.6890430578
  - # 16
    frequency:   10.8571323182
  - # 17
    frequency:   13.6804628193
  - # 18
    frequency:   13.7451230979
  - # 19
    frequency:   17.2712591484
  - # 20
    frequency:   17.4368184955
  - # 21
    frequency:   17.6529819692
  - # 22
    frequency:   27.0265241006
  - # 23
    frequency:   34.3582587942
  - # 24
    frequency:   56.1578783199

- q-position: [    0.1313131,    0.0000000,    0.0000000 ]
  distance:    0.0476718
  band:
  - # 1
    frequency:   -2.1446315741
  - # 2
    frequency:    0.7283595680
  - # 3
    frequency:    1.4416824166
  - # 4
    frequency:    1.7233784199
  - # 5
    frequency:    2.3781532586
  - # 6
    frequency:    2.9205829136
  - # 7
    frequency:    3.5570482174
  - # 8
    frequency:    4.6727752003
  - # 9
    frequency:    4.7543103095
  - # 10
    frequency:    5.6102500975
  - # 11
    frequency:    6.2026318227
  - # 12
    frequency:    6.2677754599
  - # 13
    frequency:    8.2919652377
  - # 14
    frequency:    8.4255277154
  - # 15
    frequency:    8.7058105247
  - # 16
    frequency:   10.8363485050
  - # 17
    frequency:   13.6837734547
  - # 18
    frequency:   13.7561369337
  - # 19
    frequency:   17.2639282100
  - # 20
    frequency:   17.4365009224
  - # 21
    frequency:   17.6438811809
  - # 22
    frequency:   27.0195002640
  - # 23
    frequency:   34.3473034505
  - # 24
    frequency:   56.1279022956

- q-position: [    0.1363636,    0.0000000,    0.0000000 ]
  distance:    0.0495054
  band:
  - # 1
    frequency:   -2.1359681851
  - # 2
    frequency:    0.8480942338
  - # 3
    frequency:    1.5385551248
  - # 4
    frequency:    1.7699885692
  - # 5
    frequency:    2.4488596276
  - # 6
    frequency:    3.0117794997
  - # 7