nqpoint: 300    
npath: 3      
segment_nqpoint:
- 100
- 100
- 100
labels:
- [ 'G', 'M' ]
- [ 'M', 'K' ]
- [ 'K', 'G' ]
reciprocal_lattice:
- [   0.30936631,   0.17861272,   0.00000000 ] # a*
- [   0.00000000,   0.35722545,   0.00000000 ] # b*
- [   0.00000000,   0.00000000,   0.03932987 ] # c*
natom: 7      
lattice:
- [     3.232414002361681,     0.000000000000000,     0.000000000000000 ] # a
- [    -1.616207001180841,     2.799352641593591,     0.000000000000000 ] # b
- [     0.000000000000000,     0.000000000000000,    25.425965465450108 ] # c
points:
- symbol: C # 1
  coordinates: [  0.333332985432215,  0.666666983183674,  0.598630106636509 ]
  mass: 12.010700
- symbol: Hf # 2
  coordinates: [  0.333332985432215,  0.666666983183674,  0.392313274183382 ]
  mass: 178.490000
- symbol: Hf # 3
  coordinates: [  0.666666984744047,  0.333332985985145,  0.493277549363561 ]
  mass: 178.490000
- symbol: N # 4
  coordinates: [  0.000000000000000,  0.000000000000000,  0.442473210100214 ]
  mass: 14.006700
- symbol: N # 5
  coordinates: [  0.333332985432215,  0.666666983183674,  0.549365649379127 ]
  mass: 14.006700
- symbol: O # 6
  coordinates: [  0.333332985432215,  0.666666983183674,  0.646031140401351 ]
  mass: 15.999400
- symbol: O # 7
  coordinates: [  0.666666984744047,  0.333332985985145,  0.353968859598649 ]
  mass: 15.999400

phonon:
- q-position: [    0.0000000,    0.0000000,    0.0000000 ]
  distance:    0.0000000
  band:
  - # 1
    frequency:   -0.0000019392
  - # 2
    frequency:   -0.0000003328
  - # 3
    frequency:    0.0000016704
  - # 4
    frequency:    1.7982658859
  - # 5
    frequency:    1.7982658859
  - # 6
    frequency:    3.1492622587
  - # 7
    frequency:    3.1492622587
  - # 8
    frequency:    4.6386056704
  - # 9
    frequency:    6.6642872494
  - # 10
    frequency:    6.6642872494
  - # 11
    frequency:    8.2570766571
  - # 12
    frequency:   11.3855946082
  - # 13
    frequency:   11.3855946082
  - # 14
    frequency:   15.5654247254
  - # 15
    frequency:   15.6492067474
  - # 16
    frequency:   15.6492067474
  - # 17
    frequency:   16.5226216511
  - # 18
    frequency:   16.5674031660
  - # 19
    frequency:   16.5674031660
  - # 20
    frequency:   37.1079632797
  - # 21
    frequency:   68.3516600884

- q-position: [    0.0050505,    0.0000000,    0.0000000 ]
  distance:    0.0018042
  band:
  - # 1
    frequency:    0.0015139780
  - # 2
    frequency:    0.0213431823
  - # 3
    frequency:    0.0907035680
  - # 4
    frequency:    1.7983033524
  - # 5
    frequency:    1.7994882755
  - # 6
    frequency:    3.1491168711
  - # 7
    frequency:    3.1499421298
  - # 8
    frequency:    4.6379896796
  - # 9
    frequency:    6.6643499119
  - # 10
    frequency:    6.6647977085
  - # 11
    frequency:    8.2566528700
  - # 12
    frequency:   11.3856756784
  - # 13
    frequency:   11.3857721342
  - # 14
    frequency:   15.5595719647
  - # 15
    frequency:   15.6492884244
  - # 16
    frequency:   15.6540028170
  - # 17
    frequency:   16.5224433649
  - # 18
    frequency:   16.5673457518
  - # 19
    frequency:   16.5674335297
  - # 20
    frequency:   37.1079966231
  - # 21
    frequency:   68.3505720975

- q-position: [    0.0101010,    0.0000000,    0.0000000 ]
  distance:    0.0036083
  band:
  - # 1
    frequency:    0.0060801300
  - # 2
    frequency:    0.0428571827
  - # 3
    frequency:    0.1813771504
  - # 4
    frequency:    1.7984165366
  - # 5
    frequency:    1.8031501833
  - # 6
    frequency:    3.1486821145
  - # 7
    frequency:    3.1519777604
  - # 8
    frequency:    4.6361510118
  - # 9
    frequency:    6.6645370364
  - # 10
    frequency:    6.6663211325
  - # 11
    frequency:    8.2553807935
  - # 12
    frequency:   11.3859200593
  - # 13
    frequency:   11.3863062645
  - # 14
    frequency:   15.5448192926
  - # 15
    frequency:   15.6495321611
  - # 16
    frequency:   15.6655768979
  - # 17
    frequency:   16.5219217473
  - # 18
    frequency:   16.5671737381
  - # 19
    frequency:   16.5675190336
  - # 20
    frequency:   37.1080966629
  - # 21
    frequency:   68.3473103002

- q-position: [    0.0151515,    0.0000000,    0.0000000 ]
  distance:    0.0054125
  band:
  - # 1
    frequency:    0.0136667346
  - # 2
    frequency:    0.0647098880
  - # 3
    frequency:    0.2719889360
  - # 4
    frequency:    1.7986077951
  - # 5
    frequency:    1.8092360646
  - # 6
    frequency:    3.1479622049
  - # 7
    frequency:    3.1553572469
  - # 8
    frequency:    4.6331173417
  - # 9
    frequency:    6.6648460430
  - # 10
    frequency:    6.6688338817
  - # 11
    frequency:    8.2532583420
  - # 12
    frequency:   11.3863311387
  - # 13
    frequency:   11.3872016175
  - # 14
    frequency:   15.5251877084
  - # 15
    frequency:   15.6499340995
  - # 16
    frequency:   15.6798827361
  - # 17
    frequency:   16.5210951305
  - # 18
    frequency:   16.5668878103
  - # 19
    frequency:   16.5676441093
  - # 20
    frequency:   37.1082634274
  - # 21
    frequency:   68.3418812167

- q-position: [    0.0202020,    0.0000000,    0.0000000 ]
  distance:    0.0072167
  band:
  - # 1
    frequency:    0.0242401321
  - # 2
    frequency:    0.0870634704
  - # 3
    frequency:    0.3625033788
  - # 4
    frequency:    1.7988810640
  - # 5
    frequency:    1.8177207946
  - # 6
    frequency:    3.1469641610
  - # 7
    frequency:    3.1600608978
  - # 8
    frequency:    4.6289340096
  - # 9
    frequency:    6.6652726640
  - # 10
    frequency:    6.6722972804
  - # 11
    frequency:    8.2502822384
  - # 12
    frequency:   11.3869141560
  - # 13
    frequency:   11.3884657647
  - # 14
    frequency:   15.5028357920
  - # 15
    frequency:   15.6504878902
  - # 16
    frequency:   15.6947206826
  - # 17
    frequency:   16.5200232077
  - # 18
    frequency:   16.5664891068
  - # 19
    frequency:   16.5677863189
  - # 20
    frequency:   37.1084969617
  - # 21
    frequency:   68.3342956936

- q-position: [    0.0252525,    0.0000000,    0.0000000 ]
  distance:    0.0090208
  band:
  - # 1
    frequency:    0.0377536535
  - # 2
    frequency:    0.1100718859
  - # 3
    frequency:    0.4528793707
  - # 4
    frequency:    1.7992418713
  - # 5
    frequency:    1.8285707962
  - # 6
    frequency:    3.1456977907
  - # 7
    frequency:    3.1660614524
  - # 8
    frequency:    4.6236628944
  - # 9
    frequency:    6.6658109920
  - # 10
    frequency:    6.6766586559
  - # 11
    frequency:    8.2464483048
  - # 12
    frequency:   11.3876756085
  - # 13
    frequency:   11.3901090436
  - # 14
    frequency:   15.4787365876
  - # 15
    frequency:   15.6511848129
  - # 16
    frequency:   15.7090624167
  - # 17
    frequency:   16.5187819885
  - # 18
    frequency:   16.5659792129
  - # 19
    frequency:   16.5679202893
  - # 20
    frequency:   37.1087973246
  - # 21
    frequency:   68.3245688742

- q-position: [    0.0303030,    0.0000000,    0.0000000 ]
  distance:    0.0108250
  band:
  - # 1
    frequency:    0.0541486617
  - # 2
    frequency:    0.1338787517
  - # 3
    frequency:    0.5430683965
  - # 4
    frequency:    1.7996973540
  - # 5
    frequency:    1.8417455377
  - # 6
    frequency:    3.1441756718
  - # 7
    frequency:    3.1733243782
  - # 8
    frequency:    4.6173809310
  - # 9
    frequency:    6.6664535476
  - # 10
    frequency:    6.6818527081
  - # 11
    frequency:    8.2417518545
  - # 12
    frequency:   11.3886224514
  - # 13
    frequency:   11.3921443028
  - # 14
    frequency:   15.4533646546
  - # 15
    frequency:   15.6520139398
  - # 16
    frequency:   15.7223662735
  - # 17
    frequency:   16.5174584222
  - # 18
    frequency:   16.5653601527
  - # 19
    frequency:   16.5680213807
  - # 20
    frequency:   37.1091645842
  - # 21
    frequency:   68.3127201559

- q-position: [    0.0353535,    0.0000000,    0.0000000 ]
  distance:    0.0126292
  band:
  - # 1
    frequency:    0.0733554833
  - # 2
    frequency:    0.1586156593
  - # 3
    frequency:    0.6330126953
  - # 4
    frequency:    1.8002562809
  - # 5
    frequency:    1.8571993279
  - # 6
    frequency:    3.1424131244
  - # 7
    frequency:    3.1818082430
  - # 8
    frequency:    4.6101783515
  - # 9
    frequency:    6.6671913663
  - # 10
    frequency:    6.6878031332
  - # 11
    frequency:    8.2361881710
  - # 12
    frequency:   11.3897611224
  - # 13
    frequency:   11.3945865831
  - # 14
    frequency:   15.4269847121
  - # 15
    frequency:   15.6529623402
  - # 16
    frequency:   15.7342918453
  - # 17
    frequency:   16.5161451973
  - # 18
    frequency:   16.5646343787
  - # 19
    frequency:   16.5680684666
  - # 20
    frequency:   37.1095988127
  - # 21
    frequency:   68.2987731367

- q-position: [    0.0404040,    0.0000000,    0.0000000 ]
  distance:    0.0144334
  band:
  - # 1
    frequency:    0.0952943850
  - # 2
    frequency:    0.1844009419
  - # 3
    frequency:    0.7226434246
  - # 4
    frequency:    1.8009290795
  - # 5
    frequency:    1.8748833353
  - # 6
    frequency:    3.1404281743
  - # 7
    frequency:    3.1914651536
  - # 8
    frequency:    4.6021567426
  - # 9
    frequency:    6.6680141048
  - # 10
    frequency:    6.6944244192
  - # 11
    frequency:    8.2297530569
  - # 12
    frequency:   11.3910964274
  - # 13
    frequency:   11.3974527429
  - # 14
    frequency:   15.3997660633
  - # 15
    frequency:   15.6540153210
  - # 16
    frequency:   15.7445897349
  - # 17
    frequency:   16.5149357226
  - # 18
    frequency:   16.5638047599
  - # 19
    frequency:   16.5680457285
  - # 20
    frequency:   37.1101000801
  - # 21
    frequency:   68.2827555495

- q-position: [    0.0454545,    0.0000000,    0.0000000 ]
  distance:    0.0162375
  band:
  - # 1
    frequency:    0.1198765596
  - # 2
    frequency:    0.2113388711
  - # 3
    frequency:    0.8118788256
  - # 4
    frequency:    1.8017278688
  - # 5
    frequency:    1.8947477578
  - # 6
    frequency:    3.1382415051
  - # 7
    frequency:    3.2022412567
  - # 8
    frequency:    4.5934270078
  - # 9
    frequency:    6.6689101665
  - # 10
    frequency:    6.7016237331
  - # 11
    frequency:    8.2224434312
  - # 12
    frequency:   11.3926303306
  - # 13
    frequency:   11.4007610346
  - # 14
    frequency:   15.3718313850
  - # 15
    frequency:   15.6551566982
  - # 16
    frequency:   15.7530578676
  - # 17
    frequency:   16.5139190257
  - # 18
    frequency:   16.5628745675
  - # 19
    frequency:   16.5679437039
  - # 20
    frequency:   37.1106684462
  - # 21
    frequency:   68.2646991847

- q-position: [    0.0505051,    0.0000000,    0.0000000 ]
  distance:    0.0180417
  band:
  - # 1
    frequency:    0.1470050816
  - # 2
    frequency:    0.2395192375
  - # 3
    frequency:    0.9006223917
  - # 4
    frequency:    1.8026664969
  - # 5
    frequency:    1.9167440706
  - # 6
    frequency:    3.1358763971
  - # 7
    frequency:    3.2140772981
  - # 8
    frequency:    4.5841073195
  - # 9
    frequency:    6.6698668458
  - # 10
    frequency:    6.7093028211
  - # 11
    frequency:    8.2142579555
  - # 12
    frequency:   11.3943606945
  - # 13
    frequency:   11.4045306432
  - # 14
    frequency:   15.3432794865
  - # 15
    frequency:   15.6563690937
  - # 16
    frequency:   15.7595246351
  - # 17
    frequency:   16.5131742935
  - # 18
    frequency:   16.5618474603
  - # 19
    frequency:   16.5677599558
  - # 20
    frequency:   37.1113039532
  - # 21
    frequency:   68.2446398022

- q-position: [    0.0555556,    0.0000000,    0.0000000 ]
  distance:    0.0198459
  band:
  - # 1
    frequency:    0.1765758011
  - # 2
    frequency:    0.2690172459
  - # 3
    frequency:    0.9887610556
  - # 4
    frequency:    1.8037605844
  - # 5
    frequency:    1.9408272814
  - # 6
    frequency:    3.1333586521
  - # 7
    frequency:    3.2269092399
  - # 8
    frequency:    4.5743211304
  - # 9
    frequency:    6.6708704904
  - # 10
    frequency:    6.7173598595
  - # 11
    frequency:    8.2051976644
  - # 12
    frequency:   11.3962800192
  - # 13
    frequency:   11.4087811949
  - # 14
    frequency:   15.3141968074
  - # 15
    frequency:   15.6576342503
  - # 16
    frequency:   15.7638438232
  - # 17
    frequency:   16.5127649349
  - # 18
    frequency:   16.5607274678
  - # 19
    frequency:   16.5674997244
  - # 20
    frequency:   37.1120066158
  - # 21
    frequency:   68.2226170315

- q-position: [    0.0606061,    0.0000000,    0.0000000 ]
  distance:    0.0216500
  band:
  - # 1
    frequency:    0.2084781587
  - # 2
    frequency:    0.2998936538
  - # 3
    frequency:    1.0761634332
  - # 4
    frequency:    1.8050275743
  - # 5
    frequency:    1.9669581060
  - # 6
    frequency:    3.1307165003
  - # 7
    frequency:    3.2406689393
  - # 8
    frequency:    4.5641952996
  - # 9
    frequency:    6.6719066802
  - # 10
    frequency:    6.7256912058
  - # 11
    frequency:    8.1952665780
  - # 12
    frequency:   11.3983742313
  - # 13
    frequency:   11.4135322479
  - # 14
    frequency:   15.2846635873
  - # 15
    frequency:   15.6589333601
  - # 16
    frequency:   15.7658949495
  - # 17
    frequency:   16.5127322613
  - # 18
    frequency:   16.5595189735
  - # 19
    frequency:   16.5671768684
  - # 20
    frequency:   37.1127764125
  - # 21
    frequency:   68.1986742621

- q-position: [    0.0656566,    0.0000000,    0.0000000 ]
  distance:    0.0234542
  band:
  - # 1
    frequency:    0.2425959132
  - # 2
    frequency:    0.3321950803
  - # 3
    frequency:    1.1626782097
  - # 4
    frequency:    1.8064867891
  - # 5
    frequency:    1.9951049459
  - # 6
    frequency:    3.1279804901
  - # 7
    frequency:    3.2552848977
  - # 8
    frequency:    4.5538583698
  - # 9
    frequency:    6.6729604229
  - # 10
    frequency:    6.7341930143
  - # 11
    frequency:    8.1844722738
  - # 12
    frequency:   11.4006215714
  - # 13
    frequency:   11.4188027765
  - # 14
    frequency:   15.2547572852
  - # 15
    frequency:   15.6602473983
  - # 16
    frequency:   15.7655858604
  - # 17
    frequency:   16.5130890782
  - # 18
    frequency:   16.5582266966
  - # 19
    frequency:   16.5668153375
  - # 20
    frequency:   37.1136132747
  - # 21
    frequency:   68.1728585222

- q-position: [    0.0707071,    0.0000000,    0.0000000 ]
  distance:    0.0252584
  band:
  - # 1
    frequency:    0.2788077811
  - # 2
    frequency:    0.3659544208
  - # 3
    frequency:    1.2481328264
  - # 4
    frequency:    1.8081594963
  - # 5
    frequency:    2.0252454831
  - # 6
    frequency:    3.1251833567
  - # 7
    frequency:    3.2706830933
  - # 8
    frequency:    4.5434390133
  - # 9
    frequency:    6.6740163618
  - # 10
    frequency:    6.7427626981
  - # 11
    frequency:    8.1728263987
  - # 12
    frequency:   11.4029916284
  - # 13
    frequency:   11.4246106585
  - # 14
    frequency:   15.2245544600
  - # 15
    frequency:   15.6615574563
  - # 16
    frequency:   15.7628557598
  - # 17
    frequency:   16.5138136370
  - # 18
    frequency:   16.5568556743
  - # 19
    frequency:   16.5664513078
  - # 20
    frequency:   37.1145170768
  - # 21
    frequency:   68.1452203482

- q-position: [    0.0757576,    0.0000000,    0.0000000 ]
  distance:    0.0270625
  band:
  - # 1
    frequency:    0.3169879962
  - # 2
    frequency:    0.4011913120
  - # 3
    frequency:    1.3323327463
  - # 4
    frequency:    1.8100689845
  - # 5
    frequency:    2.0573675972
  - # 6
    frequency:    3.1223598703
  - # 7
    frequency:    3.2867879156
  - # 8
    frequency:    4.5330646486
  - # 9
    frequency:    6.6750589968
  - # 10
    frequency:    6.7513002303
  - # 11
    frequency:    8.1603451009
  - # 12
    frequency:   11.4054445640
  - # 13
    frequency:   11.4309721777
  - # 14
    frequency:   15.1941317123
  - # 15
    frequency:   15.6628450680
  - # 16
    frequency:   15.7576775142
  - # 17
    frequency:   16.5148445661
  - # 18
    frequency:   16.5554112434
  - # 19
    frequency:   16.5661358755
  - # 20
    frequency:   37.1154876253
  - # 21
    frequency:   68.1158136440

- q-position: [    0.0808081,    0.0000000,    0.0000000 ]
  distance:    0.0288667
  band:
  - # 1
    frequency:    0.3570067963
  - # 2
    frequency:    0.4379126037
  - # 3
    frequency:    1.4150617467
  - # 4
    frequency:    1.8122406527
  - # 5
    frequency:    2.0914691431
  - # 6
    frequency:    3.1195466609
  - # 7
    frequency:    3.3035232278
  - # 8
    frequency:    4.5228602136
  - # 9
    frequency:    6.6760729136
  - # 10
    frequency:    6.7597092908
  - # 11
    frequency:    8.1470493666
  - # 12
    frequency:   11.4079305702
  - # 13
    frequency:   11.4379015528
  - # 14
    frequency:   15.1635660141
  - # 15
    frequency:   15.6640925229
  - # 16
    frequency:   15.7500585444
  - # 17
    frequency:   16.5160777749
  - # 18
    frequency:   16.5538990224
  - # 19
    frequency:   16.5659376460
  - # 20
    frequency:   37.1165246485
  - # 21
    frequency:   68.0846955317

- q-position: [    0.0858586,    0.0000000,    0.0000000 ]
  distance:    0.0306709
  band:
  - # 1
    frequency:    0.3987308491
  - # 2
    frequency:    0.4761128035
  - # 3
    frequency:    1.4960839065
  - # 4
    frequency:    1.8147021159
  - # 5
    frequency:    2.1275559143
  - # 6
    frequency:    3.1167820215
  - # 7
    frequency:    3.3208135817
  - # 8
    frequency:    4.5129470682
  - # 9
    frequency:    6.6770430190
  - # 10
    frequency:    6.7678982716
  - # 11
    frequency:    8.1329652497
  - # 12
    frequency:   11.4103895923
  - # 13
    frequency:   11.4454105021
  - # 14
    frequency:   15.1329346056
  - # 15
    frequency:   15.6652831598
  - # 16
    frequency:   15.7400400233
  - # 17
    frequency:   16.5173671426
  - # 18
    frequency:   16.5523248933
  - # 19
    frequency:   16.5659434712
  - # 20
    frequency:   37.1176277857
  - # 21
    frequency:   68.0519261917

- q-position: [    0.0909091,    0.0000000,    0.0000000 ]
  distance:    0.0324750
  band:
  - # 1
    frequency:    0.4420236268
  - # 2
    frequency:    0.5157744700
  - # 3
    frequency:    1.5751481885
  - # 4
    frequency:    1.8174833321
  - # 5
    frequency:    2.1656368873
  - # 6
    frequency:    3.1141056874
  - # 7
    frequency:    3.3385856155
  - # 8
    frequency:    4.5034419945
  - # 9
    frequency:    6.6779547794
  - # 10
    frequency:    6.7757811626
  - # 11
    frequency:    8.1181239827
  - # 12
    frequency:   11.4127513491
  - # 13
    frequency:   11.4535078537
  - # 14
    frequency:   15.1023145714
  - # 15
    frequency:   15.6664016373
  - # 16
    frequency:   15.7276944481
  - # 17
    frequency:   16.5185320636
  - # 18
    frequency:   16.5506949846
  - # 19
    frequency:   16.5662540551
  - # 20
    frequency:   37.1187965770
  - # 21
    frequency:   68.0175686967

- q-position: [    0.0959596,    0.0000000,    0.0000000 ]
  distance:    0.0342792
  band:
  - # 1
    frequency:    0.4867457370
  - # 2
    frequency:    0.5568685356
  - # 3
    frequency:    1.6519966550
  - # 4
    frequency:    1.8206167566
  - # 5
    frequency:    2.2057157092
  - # 6
    frequency:    3.1115585933
  - # 7
    frequency:    3.3567696602
  - # 8
    frequency:    4.4944562519
  - # 9
    frequency:    6.6787944589
  - # 10
    frequency:    6.7832783408
  - # 11
    frequency:    8.1025619649
  - # 12
    frequency:   11.4149356712
  - # 13
    frequency:   11.4621992095
  - # 14
    frequency:   15.0717821645
  - # 15
    frequency:   15.6674341753
  - # 16
    frequency:   15.7131219127
  - # 17
    frequency:   16.5193753989
  - # 18
    frequency:   16.5490156539
  - # 19
    frequency:   16.5669704521
  - # 20
    frequency:   37.1200304541
  - # 21
    frequency:   67.9816888357

- q-position: [    0.1010101,    0.0000000,    0.0000000 ]
  distance:    0.0360834
  band:
  - # 1
    frequency:    0.5327552186
  - # 2
    frequency:    0.5993545485
  - # 3
    frequency:    1.7263772023
  - # 4
    frequency:    1.8241375307
  - # 5
    frequency:    2.2477775510
  - # 6
    frequency:    3.1091826077
  - # 7
    frequency:    3.3753015704
  - # 8
    frequency:    4.4860946500
  - # 9
    frequency:    6.6795493531
  - # 10
    frequency:    6.7903172915
  - # 11
    frequency:    8.0863206224
  - # 12
    frequency:   11.4168531742
  - # 13
    frequency:   11.4714866712
  - # 14
    frequency:   15.0414119304
  - # 15
    frequency:   15.6683687635
  - # 16
    frequency:   15.6964455453
  - # 17
    frequency:   16.5197121624
  - # 18
    frequency:   16.5472934714
  - # 19
    frequency:   16.5681705939
  - # 20
    frequency:   37.1213287306
  - # 21
    frequency:   67.9443549317

- q-position: [    0.1060606,    0.0000000,    0.0000000 ]
  distance:    0.0378875
  band:
  - # 1
    frequency:    0.5799078053
  - # 2
    frequency:    0.6431808208
  - # 3
    frequency:    1.7980609867
  - # 4
    frequency:    1.8280837155
  - # 5
    frequency:    2.2917711772
  - # 6
    frequency:    3.1070202471
  - # 7
    frequency:    3.3941247805
  - # 8
    frequency:    4.4784546017
  - # 9
    frequency:    6.6802080161
  - # 10
    frequency:    6.7968332836
  - # 11
    frequency:    8.0694461401
  - # 12
    frequency:   11.4184062717
  - # 13
    frequency:   11.4813686331
  - # 14
    frequency:   15.0112756679
  - # 15
    frequency:   15.6691953348
  - # 16
    frequency:   15.6778065853
  - # 17
    frequency:   16.5194008315
  - # 18
    frequency:   16.5455352031
  - # 19
    frequency:   16.5698834220
  - # 20
    frequency:   37.1226905940
  - # 21
    frequency:   67.9056376526

- q-position: [    0.1111111,    0.0000000,    0.0000000 ]
  distance:    0.0396917
  band:
  - # 1
    frequency:    0.6280571607
  - # 2
    frequency:    0.6882844769
  - # 3
    frequency:    1.8324965821
  - # 4
    frequency:    1.8668632398
  - # 5
    frequency:    2.3375875750
  - # 6
    frequency:    3.1051143706
  - # 7
    frequency:    3.4131925541
  - # 8
    frequency:    4.4716251327
  - # 9
    frequency:    6.6807604756
  - # 10
    frequency:    6.8027700276
  - # 11
    frequency:    8.0519890687
  - # 12
    frequency:   11.4194905266
  - # 13
    frequency:   11.4918396469
  - # 14
    frequency:   14.9814412641
  - # 15
    frequency:   15.6573595004
  - # 16
    frequency:   15.6699058994
  - # 17
    frequency:   16.5183621315
  - # 18
    frequency:   16.5437477948
  - # 19
    frequency:   16.5720753314
  - # 20
    frequency:   37.1241150985
  - # 21
    frequency:   67.8656098150

- q-position: [    0.1161616,    0.0000000,    0.0000000 ]
  distance:    0.0414959
  band:
  - # 1
    frequency:    0.6770550839
  - # 2
    frequency:    0.7345913904
  - # 3
    frequency:    1.8374209726
  - # 4
    frequency:    1.9326641428
  - # 5
    frequency:    2.3850385501
  - # 6
    frequency:    3.1035078570
  - # 7
    frequency:    3.4324703519
  - # 8
    frequency:    4.4656858342
  - # 9
    frequency:    6.6811984352
  - # 10
    frequency:    6.8080803320
  - # 11
    frequency:    8.0340038090
  - # 12
    frequency:   11.4199963283
  - # 13
    frequency:   11.5028903614
  - # 14
    frequency:   14.9519714388
  - # 15
    frequency:   15.6352674142
  - # 16
    frequency:   15.6704946390
  - # 17
    frequency:   16.5165756922
  - # 18
    frequency:   16.5419383549
  - # 19
    frequency:   16.5746582170
  - # 20
    frequency:   37.1256011584
  - # 21
    frequency:   67.8243461829

- q-position: [    0.1212121,    0.0000000,    0.0000000 ]
  distance:    0.0433001
  band:
  - # 1
    frequency:    0.7267516857
  - # 2
    frequency:    0.7820160021
  - # 3
    frequency:    1.8429057505
  - # 4
    frequency:    1.9954247028
  - # 5
    frequency:    2.4338404705
  - # 6
    frequency:    3.1022432667
  - # 7
    frequency:    3.4519381760
  - # 8
    frequency:    4.4607057711
  - # 9
    frequency:    6.6815154589
  - # 10
    frequency:    6.8127267754
  - # 11
    frequency:    8.0155479837
  - # 12
    frequency:   11.4198108711
  - # 13
    frequency:   11.5145075389
  - # 14
    frequency:   14.9229224393
  - # 15
    frequency:   15.6116979858
  - # 16
    frequency:   15.6709579600
  - # 17
    frequency:   16.5140602596
  - # 18
    frequency:   16.5401141378
  - # 19
    frequency:   16.5775132661
  - # 20
    frequency:   37.1271475430
  - # 21
    frequency:   67.7819232618

- q-position: [    0.1262626,    0.0000000,    0.0000000 ]
  distance:    0.0451042
  band:
  - # 1
    frequency:    0.7769955300
  - # 2
    frequency:    0.8304610043
  - # 3
    frequency:    1.8490043590
  - # 4
    frequency:    2.0551924734
  - # 5
    frequency:    2.4836085072
  - # 6
    frequency:    3.1013624913
  - # 7
    frequency:    3.4715926624
  - # 8
    frequency:    4.4567423787
  - # 9
    frequency:    6.6817071366
  - # 10
    frequency:    6.8166823998
  - # 11
    frequency:    7.9966817044
  - # 12
    frequency:   11.4188203980
  - # 13
    frequency:   11.5266741468
  - # 14
    frequency:   14.8943427316
  - # 15
    frequency:   15.5868197719
  - # 16
    frequency:   15.6712945042
  - # 17
    frequency:   16.5108514054
  - # 18
    frequency:   16.5382825255
  - # 19
    frequency:   16.5805164959
  - # 20
    frequency:   37.1287528731
  - # 21
    frequency:   67.7384190875

- q-position: [    0.1313131,    0.0000000,    0.0000000 ]
  distance:    0.0469084
  band:
  - # 1
    frequency:    0.8276337386
  - # 2
    frequency:    0.8798168805
  - # 3
    frequency:    1.8557755097
  - # 4
    frequency:    2.1120943124
  - # 5
    frequency:    2.5338644555
  - # 6
    frequency:    3.1009063926
  - # 7
    frequency:    3.4914485874
  - # 8
    frequency:    4.4538404103
  - # 9
    frequency:    6.6817712277
  - # 10
    frequency:    6.8199314243
  - # 11
    frequency:    7.9774667490
  - # 12
    frequency:   11.4169126625
  - # 13
    frequency:   11.5393695242
  - # 14
    frequency:   14.8662717427
  - # 15
    frequency:   15.5607990288
  - # 16
    frequency:   15.6715051189
  - # 17
    frequency:   16.5069861334
  - # 18
    frequency:   16.5364510086
  - # 19
    frequency:   16.5835566567
  - # 20
    frequency:   37.1304156181
  - # 21
    frequency:   67.6939130115

- q-position: [    0.1363636,    0.0000000,    0.0000000 ]
  distance:    0.0487126
  band:
  - # 1
    frequency:    0.8785120487
  - # 2
    frequency:    0.9299612849
  - # 3
    frequency:    1.8632840246
  - # 4
    frequency:    2.1663174040
  - # 5
    frequency:    2.5840572846
  - # 6
    frequency:    3.1009144356
  - # 7
    frequency:    3.5115393348
  - # 8
    frequency:    4.4520310228
  - # 9
    frequency:    6.6817077819
  - # 10
    frequency:    6.8224699645
  - # 11
    frequency:    7.9579656668
  - # 12
    frequency:   11.4139795460
  - # 13
    frequency:   11.5525696180
  - # 14
    frequency:   14.8387387161
  - # 15
    frequency:   15.5337968711
  - # 16
    frequency:   15.6715927867
  - # 17
    frequency:   16.5024958304
  - # 18
    frequency:   16.5346271653
  - # 19
    frequency:   16.5865441174
  - # 20
    frequency:   37.1321340954
  - # 21
    frequency:   67.6484854842

- q-position: [    0.1414141,    0.0000000,    0.0000000 ]
  distance:    0.0505167
  band:
  - # 1
    frequency:    0.9294748176
  - # 2
    frequency:    0.9807582534
  - # 3
    frequency:    1.8716018478
  - # 4
    frequency:    2.2180833578
  - # 5
    frequency:    2.6335920724
  - # 6
    frequency:    3.1014243167
  - # 7
    frequency:    3.5319157687
  - # 8
    frequency:    4.4513311108
  - # 9
    frequency:    6.6815192354
  - # 10
    frequency:    6.8243067320
  - # 11
    frequency:    7.9382408333
  - # 12
    frequency:   11.4099197585
  - # 13
    frequency:   11.5662472853
  - # 14
    frequency:   14.8117617486
  - # 15
    frequency:   15.5059666997
  - # 16
    frequency:   15.6715625166
  - # 17
    frequency:   16.4974050237
  - # 18
    frequency:   16.5328186386
  - # 19
    frequency:   16.5894133514
  - # 20
    frequency:   37.1339064709
  - # 21
    frequency:   67.6022178346

- q-position: [    0.1464646,    0.0000000,    0.0000000 ]
  distance:    0.0523209
  band:
  - # 1
    frequency:    0.9803649597
  - # 2
    frequency:    1.0320572452
  - # 3
    frequency:    1.8808092376
  - # 4
    frequency:    2.2676214008
  - # 5
    frequency:    2.6818618176
  - # 6
    frequency:    3.1024715909
  - # 7
    frequency:    3.5526429091
  - # 8
    frequency:    4.4517430075
  - # 9
    frequency:    6.6812104817
  - # 10
    frequency:    6.8254636760
  - # 11
    frequency:    7.9183534833
  - # 12
    frequency:   11.4046415395
  - # 13
    frequency:   11.5803726541
  - # 14
    frequency:   14.7853470768
  - # 15
    frequency:   15.4774518190
  - # 16
    frequency:   15.6714212006
  - # 17
    frequency:   16.4917331305
  - # 18
    frequency:   16.5310331111
  - # 19
    frequency:   16.5921219113
  - # 20
    frequency:   37.1357307605
  - # 21
    frequency:   67.5551920491

- q-position: [    0.1515152,    0.0000000,    0.0000000 ]
  distance:    0.0541251
  band:
  - # 1
    frequency:    1.0310238023
  - # 2
    frequency:    1.0836920359
  - # 3
    frequency:    1.8909961241
  - # 4
    frequency:    2.3151453167
  - # 5
    frequency:    2.7282779320
  - # 6
    frequency:    3.1040893012
  - # 7
    frequency:    3.5737938786
  - # 8
    frequency:    4.4532546704
  - # 9
    frequency:    6.6807889175
  - # 10
    frequency:    6.8259765101
  - # 11
    frequency:    7.8983627550
  - # 12
    frequency:   11.3980652657
  - # 13
    frequency:   11.5949135350
  - # 14
    frequency:   14.7594886842
  - # 15
    frequency:   15.4483831966
  - # 16
    frequency:   15.6711774361
  - # 17
    frequency:   16.4854973629
  - # 18
    frequency:   16.5292782774
  - # 19
    frequency:   16.5946477910
  - # 20
    frequency:   37.1376048345
  - # 21