nqpoint: 300    
npath: 3      
segment_nqpoint:
- 100
- 100
- 100
labels:
- [ 'G', 'M' ]
- [ 'M', 'K' ]
- [ 'K', 'G' ]
reciprocal_lattice:
- [   0.29109643,   0.16806460,   0.00000000 ] # a*
- [   0.00000000,   0.33612921,   0.00000000 ] # b*
- [   0.00000000,   0.00000000,   0.03486622 ] # c*
natom: 9      
lattice:
- [     3.435287723576427,     0.000000000000000,     0.000000000000000 ] # a
- [    -1.717643861788213,     2.975046437892999,     0.000000000000000 ] # b
- [     0.000000000000000,     0.000000000000000,    28.681051773805432 ] # c
points:
- symbol: C # 1
  coordinates: [  0.000000000000000,  0.000000000000000,  0.500000027805523 ]
  mass: 12.010700
- symbol: C # 2
  coordinates: [  0.333332985432215,  0.666666983183674,  0.631935608651949 ]
  mass: 12.010700
- symbol: C # 3
  coordinates: [  0.666666984744047,  0.333332985985145,  0.368064391348052 ]
  mass: 12.010700
- symbol: N # 4
  coordinates: [  0.333332985432215,  0.666666983183674,  0.588471622765270 ]
  mass: 14.006700
- symbol: N # 5
  coordinates: [  0.666666984744047,  0.333332985985145,  0.411528377646664 ]
  mass: 14.006700
- symbol: S # 6
  coordinates: [  0.333332985432215,  0.666666983183674,  0.686203976375101 ]
  mass: 32.065000
- symbol: S # 7
  coordinates: [  0.666666984744047,  0.333332985985145,  0.313796023624899 ]
  mass: 32.065000
- symbol: Sc # 8
  coordinates: [  0.333332985432215,  0.666666983183674,  0.456696597313240 ]
  mass: 44.955912
- symbol: Sc # 9
  coordinates: [  0.666666984744047,  0.333332985985145,  0.543303402686753 ]
  mass: 44.955912

phonon:
- q-position: [    0.0000000,    0.0000000,    0.0000000 ]
  distance:    0.0000000
  band:
  - # 1
    frequency:   -0.6072203229
  - # 2
    frequency:   -0.6072203228
  - # 3
    frequency:   -0.4630661355
  - # 4
    frequency:   -0.4630661355
  - # 5
    frequency:   -0.0000046652
  - # 6
    frequency:    0.0000028472
  - # 7
    frequency:    0.0000038214
  - # 8
    frequency:    4.4575319668
  - # 9
    frequency:    4.4575319668
  - # 10
    frequency:    4.5423072498
  - # 11
    frequency:    5.1897167555
  - # 12
    frequency:    5.1897167555
  - # 13
    frequency:    6.3040936265
  - # 14
    frequency:    6.3040936265
  - # 15
    frequency:    7.6317756898
  - # 16
    frequency:   10.6490277475
  - # 17
    frequency:   10.6490277475
  - # 18
    frequency:   11.2629518426
  - # 19
    frequency:   14.4601831420
  - # 20
    frequency:   14.4601831420
  - # 21
    frequency:   14.4808071612
  - # 22
    frequency:   14.4808071612
  - # 23
    frequency:   18.2455209689
  - # 24
    frequency:   27.3118848015
  - # 25
    frequency:   27.3152688941
  - # 26
    frequency:   59.5922806675
  - # 27
    frequency:   59.7699650437

- q-position: [    0.0050505,    0.0000000,    0.0000000 ]
  distance:    0.0016976
  band:
  - # 1
    frequency:   -0.6041907765
  - # 2
    frequency:   -0.5984445291
  - # 3
    frequency:   -0.4611467264
  - # 4
    frequency:   -0.4556121343
  - # 5
    frequency:   -0.0117075597
  - # 6
    frequency:    0.0753426265
  - # 7
    frequency:    0.1170294353
  - # 8
    frequency:    4.4578698386
  - # 9
    frequency:    4.4585577777
  - # 10
    frequency:    4.5420170954
  - # 11
    frequency:    5.1904133342
  - # 12
    frequency:    5.1978085531
  - # 13
    frequency:    6.3040872263
  - # 14
    frequency:    6.3041593026
  - # 15
    frequency:    7.6315736167
  - # 16
    frequency:   10.6495897006
  - # 17
    frequency:   10.6539817751
  - # 18
    frequency:   11.2632363321
  - # 19
    frequency:   14.4602744907
  - # 20
    frequency:   14.4605167870
  - # 21
    frequency:   14.4808933570
  - # 22
    frequency:   14.4811801886
  - # 23
    frequency:   18.2438092170
  - # 24
    frequency:   27.3117917385
  - # 25
    frequency:   27.3151689842
  - # 26
    frequency:   59.5906658344
  - # 27
    frequency:   59.7683582142

- q-position: [    0.0101010,    0.0000000,    0.0000000 ]
  distance:    0.0033952
  band:
  - # 1
    frequency:   -0.5951918758
  - # 2
    frequency:   -0.5718704350
  - # 3
    frequency:   -0.4553364941
  - # 4
    frequency:   -0.4325380817
  - # 5
    frequency:   -0.0211914927
  - # 6
    frequency:    0.1513320622
  - # 7
    frequency:    0.2352288315
  - # 8
    frequency:    4.4588829925
  - # 9
    frequency:    4.4616312098
  - # 10
    frequency:    4.5411496755
  - # 11
    frequency:    5.1924970365
  - # 12
    frequency:    5.2218488077
  - # 13
    frequency:    6.3040671519
  - # 14
    frequency:    6.3043581604
  - # 15
    frequency:    7.6309702638
  - # 16
    frequency:   10.6512717276
  - # 17
    frequency:   10.6686835570
  - # 18
    frequency:   11.2642618907
  - # 19
    frequency:   14.4605483896
  - # 20
    frequency:   14.4615172012
  - # 21
    frequency:   14.4811518184
  - # 22
    frequency:   14.4822986109
  - # 23
    frequency:   18.2386786271
  - # 24
    frequency:   27.3115126779
  - # 25
    frequency:   27.3148694232
  - # 26
    frequency:   59.5858260026
  - # 27
    frequency:   59.7635419232

- q-position: [    0.0151515,    0.0000000,    0.0000000 ]
  distance:    0.0050929
  band:
  - # 1
    frequency:   -0.5804746960
  - # 2
    frequency:   -0.5264697662
  - # 3
    frequency:   -0.4454739889
  - # 4
    frequency:   -0.3913986920
  - # 5
    frequency:   -0.0235647093
  - # 6
    frequency:    0.2285277153
  - # 7
    frequency:    0.3555262180
  - # 8
    frequency:    4.4605700218
  - # 9
    frequency:    4.4667390296
  - # 10
    frequency:    4.5397138048
  - # 11
    frequency:    5.1959498671
  - # 12
    frequency:    5.2611482218
  - # 13
    frequency:    6.3040307906
  - # 14
    frequency:    6.3046959825
  - # 15
    frequency:    7.6299742957
  - # 16
    frequency:   10.6540623579
  - # 17
    frequency:   10.6926097971
  - # 18
    frequency:   11.2665848172
  - # 19
    frequency:   14.4610043980
  - # 20
    frequency:   14.4631828176
  - # 21
    frequency:   14.4815821678
  - # 22
    frequency:   14.4841604622
  - # 23
    frequency:   18.2301431841
  - # 24
    frequency:   27.3110480054
  - # 25
    frequency:   27.3143707160
  - # 26
    frequency:   59.5777751501
  - # 27
    frequency:   59.7555287434

- q-position: [    0.0202020,    0.0000000,    0.0000000 ]
  distance:    0.0067905
  band:
  - # 1
    frequency:   -0.5603904395
  - # 2
    frequency:   -0.4592304012
  - # 3
    frequency:   -0.4312695144
  - # 4
    frequency:   -0.3269179067
  - # 5
    frequency:    0.0271400286
  - # 6
    frequency:    0.3073170091
  - # 7
    frequency:    0.4783728761
  - # 8
    frequency:    4.4629285099
  - # 9
    frequency:    4.4738555852
  - # 10
    frequency:    4.5377236317
  - # 11
    frequency:    5.2007421845
  - # 12
    frequency:    5.3146088071
  - # 13
    frequency:    6.3039738191
  - # 14
    frequency:    6.3051834733
  - # 15
    frequency:    7.6286003712
  - # 16
    frequency:   10.6579425631
  - # 17
    frequency:   10.7247383224
  - # 18
    frequency:   11.2712744944
  - # 19
    frequency:   14.4616417830
  - # 20
    frequency:   14.4655110093
  - # 21
    frequency:   14.4821837769
  - # 22
    frequency:   14.4867625097
  - # 23
    frequency:   18.2182261523
  - # 24
    frequency:   27.3103983624
  - # 25
    frequency:   27.3136737025
  - # 26
    frequency:   59.5665364925
  - # 27
    frequency:   59.7443395657

- q-position: [    0.0252525,    0.0000000,    0.0000000 ]
  distance:    0.0084881
  band:
  - # 1
    frequency:   -0.5352760026
  - # 2
    frequency:   -0.4122644778
  - # 3
    frequency:   -0.3611762427
  - # 4
    frequency:   -0.2320702321
  - # 5
    frequency:    0.0970984842
  - # 6
    frequency:    0.3878524806
  - # 7
    frequency:    0.6036352928
  - # 8
    frequency:    4.4659549293
  - # 9
    frequency:    4.4829382434
  - # 10
    frequency:    4.5351996429
  - # 11
    frequency:    5.2068332130
  - # 12
    frequency:    5.3807913073
  - # 13
    frequency:    6.3038902498
  - # 14
    frequency:    6.3058382027
  - # 15
    frequency:    7.6268694651
  - # 16
    frequency:   10.6628858906
  - # 17
    frequency:   10.7633007343
  - # 18
    frequency:   11.2801493685
  - # 19
    frequency:   14.4624595222
  - # 20
    frequency:   14.4684980684
  - # 21
    frequency:   14.4829557676
  - # 22
    frequency:   14.4901003176
  - # 23
    frequency:   18.2029600103
  - # 24
    frequency:   27.3095646445
  - # 25
    frequency:   27.3127795536
  - # 26
    frequency:   59.5521423622
  - # 27
    frequency:   59.7300035033

- q-position: [    0.0303030,    0.0000000,    0.0000000 ]
  distance:    0.0101857
  band:
  - # 1
    frequency:   -0.5052929899
  - # 2
    frequency:   -0.3877496638
  - # 3
    frequency:   -0.1949622688
  - # 4
    frequency:   -0.1486637817
  - # 5
    frequency:    0.2332656624
  - # 6
    frequency:    0.4700406990
  - # 7
    frequency:    0.7307320913
  - # 8
    frequency:    4.4696445148
  - # 9
    frequency:    4.4939182797
  - # 10
    frequency:    4.5321758820
  - # 11
    frequency:    5.2141717315
  - # 12
    frequency:    5.4579951951
  - # 13
    frequency:    6.3037724951
  - # 14
    frequency:    6.3066881881
  - # 15
    frequency:    7.6248093119
  - # 16
    frequency:   10.6688586505
  - # 17
    frequency:   10.8054419005
  - # 18
    frequency:   11.2961022463
  - # 19
    frequency:   14.4634563079
  - # 20
    frequency:   14.4721391823
  - # 21
    frequency:   14.4838970137
  - # 22
    frequency:   14.4941683341
  - # 23
    frequency:   18.1843863606
  - # 24
    frequency:   27.3085479992
  - # 25
    frequency:   27.3116897672
  - # 26
    frequency:   59.5346340401
  - # 27
    frequency:   59.7125577586

- q-position: [    0.0353535,    0.0000000,    0.0000000 ]
  distance:    0.0118834
  band:
  - # 1
    frequency:   -0.4702446345
  - # 2
    frequency:   -0.3565965149
  - # 3
    frequency:   -0.1274874984
  - # 4
    frequency:    0.2609214037
  - # 5
    frequency:    0.3718190363
  - # 6
    frequency:    0.5535962853
  - # 7
    frequency:    0.8589282973
  - # 8
    frequency:    4.4739911234
  - # 9
    frequency:    4.5066538709
  - # 10
    frequency:    4.5287470646
  - # 11
    frequency:    5.2226969149
  - # 12
    frequency:    5.5443415326
  - # 13
    frequency:    6.3036114493
  - # 14
    frequency:    6.3077785102
  - # 15
    frequency:    7.6224549673
  - # 16
    frequency:   10.6758201564
  - # 17
    frequency:   10.8469841741
  - # 18
    frequency:   11.3233178471
  - # 19
    frequency:   14.4646305509
  - # 20
    frequency:   14.4764284096
  - # 21
    frequency:   14.4850061433
  - # 22
    frequency:   14.4989600001
  - # 23
    frequency:   18.1625558123
  - # 24
    frequency:   27.3073498227
  - # 25
    frequency:   27.3104061621
  - # 26
    frequency:   59.5140615420
  - # 27
    frequency:   59.6920474537

- q-position: [    0.0404040,    0.0000000,    0.0000000 ]
  distance:    0.0135810
  band:
  - # 1
    frequency:   -0.4293724527
  - # 2
    frequency:   -0.3168729351
  - # 3
    frequency:   -0.1148536112
  - # 4
    frequency:    0.4297809988
  - # 5
    frequency:    0.4909851012
  - # 6
    frequency:    0.6381368194
  - # 7
    frequency:    0.9875756186
  - # 8
    frequency:    4.4789870937
  - # 9
    frequency:    4.5198483284
  - # 10
    frequency:    4.5261519019
  - # 11
    frequency:    5.2323393001
  - # 12
    frequency:    5.6378485425
  - # 13
    frequency:    6.3033965876
  - # 14
    frequency:    6.3091840251
  - # 15
    frequency:    7.6198494882
  - # 16
    frequency:   10.6837230186
  - # 17
    frequency:   10.8828644865
  - # 18
    frequency:   11.3668156346
  - # 19
    frequency:   14.4659803869
  - # 20
    frequency:   14.4813586607
  - # 21
    frequency:   14.4862815413
  - # 22
    frequency:   14.5044678794
  - # 23
    frequency:   18.1375278408
  - # 24
    frequency:   27.3059717563
  - # 25
    frequency:   27.3089308715
  - # 26
    frequency:   59.4904833602
  - # 27
    frequency:   59.6685254242

- q-position: [    0.0454545,    0.0000000,    0.0000000 ]
  distance:    0.0152786
  band:
  - # 1
    frequency:   -0.3810373260
  - # 2
    frequency:   -0.2647887308
  - # 3
    frequency:   -0.0993278004
  - # 4
    frequency:    0.5595038221
  - # 5
    frequency:    0.5992160074
  - # 6
    frequency:    0.7232739627
  - # 7
    frequency:    1.1162036209
  - # 8
    frequency:    4.4846231179
  - # 9
    frequency:    4.5193018696
  - # 10
    frequency:    4.5385236028
  - # 11
    frequency:    5.2430218435
  - # 12
    frequency:    5.7364869347
  - # 13
    frequency:    6.3031160815
  - # 14
    frequency:    6.3110354088
  - # 15
    frequency:    7.6170447407
  - # 16
    frequency:   10.6925134902
  - # 17
    frequency:   10.9087621674
  - # 18
    frequency:   11.4308015829
  - # 19
    frequency:   14.4675036821
  - # 20
    frequency:   14.4869216873
  - # 21
    frequency:   14.4877213520
  - # 22
    frequency:   14.5106838129
  - # 23
    frequency:   18.1093706220
  - # 24
    frequency:   27.3044156821
  - # 25
    frequency:   27.3072663349
  - # 26
    frequency:   59.4639661631
  - # 27
    frequency:   59.6420519788

- q-position: [    0.0505051,    0.0000000,    0.0000000 ]
  distance:    0.0169762
  band:
  - # 1
    frequency:   -0.3219253797
  - # 2
    frequency:   -0.1905363993
  - # 3
    frequency:   -0.0705122183
  - # 4
    frequency:    0.6730672485
  - # 5
    frequency:    0.7010398260
  - # 6
    frequency:    0.8086706233
  - # 7
    frequency:    1.2445066049
  - # 8
    frequency:    4.4908881397
  - # 9
    frequency:    4.5145678980
  - # 10
    frequency:    4.5562360496
  - # 11
    frequency:    5.2546610433
  - # 12
    frequency:    5.8381918398
  - # 13
    frequency:    6.3027569289
  - # 14
    frequency:    6.3135773706
  - # 15
    frequency:    7.6141023545
  - # 16
    frequency:   10.7021318644
  - # 17
    frequency:   10.9229245527
  - # 18
    frequency:   11.5168235809
  - # 19
    frequency:   14.4691980402
  - # 20
    frequency:   14.4893234830
  - # 21
    frequency:   14.4931080842
  - # 22
    frequency:   14.5175991019
  - # 23
    frequency:   18.0781608443
  - # 24
    frequency:   27.3026837179
  - # 25
    frequency:   27.3054152886
  - # 26
    frequency:   59.4345844544
  - # 27
    frequency:   59.6126946257

- q-position: [    0.0555556,    0.0000000,    0.0000000 ]
  distance:    0.0186738
  band:
  - # 1
    frequency:   -0.2442123126
  - # 2
    frequency:    0.0313331114
  - # 3
    frequency:    0.0474785013
  - # 4
    frequency:    0.7775391784
  - # 5
    frequency:    0.7987564719
  - # 6
    frequency:    0.8940615123
  - # 7
    frequency:    1.3722957576
  - # 8
    frequency:    4.4977692853
  - # 9
    frequency:    4.5092682601
  - # 10
    frequency:    4.5755909167
  - # 11
    frequency:    5.2671680930
  - # 12
    frequency:    5.9407731477
  - # 13
    frequency:    6.3023050991
  - # 14
    frequency:    6.3173143342
  - # 15
    frequency:    7.6110948598
  - # 16
    frequency:   10.7125129228
  - # 17
    frequency:   10.9262228220
  - # 18
    frequency:   11.6236998635
  - # 19
    frequency:   14.4710608102
  - # 20
    frequency:   14.4910856086
  - # 21
    frequency:   14.4999073088
  - # 22
    frequency:   14.5252047317
  - # 23
    frequency:   18.0439835003
  - # 24
    frequency:   27.3007782119
  - # 25
    frequency:   27.3033807565
  - # 26
    frequency:   59.4024201948
  - # 27
    frequency:   59.5805277664

- q-position: [    0.0606061,    0.0000000,    0.0000000 ]
  distance:    0.0203715
  band:
  - # 1
    frequency:   -0.1145126789
  - # 2
    frequency:    0.1115616334
  - # 3
    frequency:    0.2042087164
  - # 4
    frequency:    0.8761338246
  - # 5
    frequency:    0.8936219845
  - # 6
    frequency:    0.9792500433
  - # 7
    frequency:    1.4994537389
  - # 8
    frequency:    4.5035694954
  - # 9
    frequency:    4.5052518366
  - # 10
    frequency:    4.5963436448
  - # 11
    frequency:    5.2804500426
  - # 12
    frequency:    6.0415366501
  - # 13
    frequency:    6.3017456900
  - # 14
    frequency:    6.3234296492
  - # 15
    frequency:    7.6081070624
  - # 16
    frequency:   10.7235864313
  - # 17
    frequency:   10.9206963801
  - # 18
    frequency:   11.7489638100
  - # 19
    frequency:   14.4730890939
  - # 20
    frequency:   14.4930051737
  - # 21
    frequency:   14.5073077243
  - # 22
    frequency:   14.5334916522
  - # 23
    frequency:   18.0069316584
  - # 24
    frequency:   27.2987017362
  - # 25
    frequency:   27.3011660387
  - # 26
    frequency:   59.3675623883
  - # 27
    frequency:   59.5456323601

- q-position: [    0.0656566,    0.0000000,    0.0000000 ]
  distance:    0.0220691
  band:
  - # 1
    frequency:    0.1618506014
  - # 2
    frequency:    0.1898091152
  - # 3
    frequency:    0.2929244304
  - # 4
    frequency:    0.9706448861
  - # 5
    frequency:    0.9863246873
  - # 6
    frequency:    1.0640953306
  - # 7
    frequency:    1.6259017469
  - # 8
    frequency:    4.4975398679
  - # 9
    frequency:    4.5133192479
  - # 10
    frequency:    4.6183485087
  - # 11
    frequency:    5.2944109421
  - # 12
    frequency:    6.1359247370
  - # 13
    frequency:    6.3010630969
  - # 14
    frequency:    6.3351692943
  - # 15
    frequency:    7.6052377364
  - # 16
    frequency:   10.7352776818
  - # 17
    frequency:   10.9083409075
  - # 18
    frequency:   11.8900711782
  - # 19
    frequency:   14.4752797538
  - # 20
    frequency:   14.4950793988
  - # 21
    frequency:   14.5152966737
  - # 22
    frequency:   14.5424511454
  - # 23
    frequency:   17.9671062210
  - # 24
    frequency:   27.2964570802
  - # 25
    frequency:   27.2987747006
  - # 26
    frequency:   59.3301066368
  - # 27
    frequency:   59.5080955597

- q-position: [    0.0707071,    0.0000000,    0.0000000 ]
  distance:    0.0237667
  band:
  - # 1
    frequency:    0.2099460207
  - # 2
    frequency:    0.2963930118
  - # 3
    frequency:    0.3650169187
  - # 4
    frequency:    1.0622109698
  - # 5
    frequency:    1.0772334141
  - # 6
    frequency:    1.1484977781
  - # 7
    frequency:    1.7515779715
  - # 8
    frequency:    4.4912379680
  - # 9
    frequency:    4.5219532099
  - # 10
    frequency:    4.6414720656
  - # 11
    frequency:    5.3089529490
  - # 12
    frequency:    6.2134420191
  - # 13
    frequency:    6.3002411908
  - # 14
    frequency:    6.3619255060
  - # 15
    frequency:    7.6026017437
  - # 16
    frequency:   10.7475080774
  - # 17
    frequency:   10.8906920114
  - # 18
    frequency:   12.0448183425
  - # 19
    frequency:   14.4776294218
  - # 20
    frequency:   14.4973052841
  - # 21
    frequency:   14.5238606002
  - # 22
    frequency:   14.5520753273
  - # 23
    frequency:   17.9246156714
  - # 24
    frequency:   27.2940472430
  - # 25
    frequency:   27.2962105604
  - # 26
    frequency:   59.2901546659
  - # 27
    frequency:   59.4680103213

- q-position: [    0.0757576,    0.0000000,    0.0000000 ]
  distance:    0.0254643
  band:
  - # 1
    frequency:    0.2581715962
  - # 2
    frequency:    0.3773529944
  - # 3
    frequency:    0.4288812038
  - # 4
    frequency:    1.1515846249
  - # 5
    frequency:    1.1665675803
  - # 6
    frequency:    1.2323868671
  - # 7
    frequency:    1.8764239333
  - # 8
    frequency:    4.4847255206
  - # 9
    frequency:    4.5311337569
  - # 10
    frequency:    4.6655824432
  - # 11
    frequency:    5.3239773830
  - # 12
    frequency:    6.2590590953
  - # 13
    frequency:    6.2992635046
  - # 14
    frequency:    6.4178287991
  - # 15
    frequency:    7.6003327205
  - # 16
    frequency:   10.7601957557
  - # 17
    frequency:   10.8688374202
  - # 18
    frequency:   12.2113382822
  - # 19
    frequency:   14.4801345069
  - # 20
    frequency:   14.4996796151
  - # 21
    frequency:   14.5329852316
  - # 22
    frequency:   14.5623578618
  - # 23
    frequency:   17.8795758176
  - # 24
    frequency:   27.2914754246
  - # 25
    frequency:   27.2934776770
  - # 26
    frequency:   59.2478138240
  - # 27
    frequency:   59.4254749906

- q-position: [    0.0808081,    0.0000000,    0.0000000 ]
  distance:    0.0271620
  band:
  - # 1
    frequency:    0.3073582812
  - # 2
    frequency:    0.4468662402
  - # 3
    frequency:    0.4876938886
  - # 4
    frequency:    1.2392563186
  - # 5
    frequency:    1.2544904689
  - # 6
    frequency:    1.3157119671
  - # 7
    frequency:    2.0003756440
  - # 8
    frequency:    4.4780716048
  - # 9
    frequency:    4.5408394148
  - # 10
    frequency:    4.6905473774
  - # 11
    frequency:    5.3393857168
  - # 12
    frequency:    6.2787799001
  - # 13
    frequency:    6.2981134250
  - # 14
    frequency:    6.4961652654
  - # 15
    frequency:    7.5985864962
  - # 16
    frequency:   10.7732562462
  - # 17
    frequency:   10.8435358763
  - # 18
    frequency:   12.3879950398
  - # 19
    frequency:   14.4827912033
  - # 20
    frequency:   14.5021989679
  - # 21
    frequency:   14.5426558686
  - # 22
    frequency:   14.5732950226
  - # 23
    frequency:   17.8321095408
  - # 24
    frequency:   27.2887450173
  - # 25
    frequency:   27.2905803385
  - # 26
    frequency:   59.2031965605
  - # 27
    frequency:   59.3805928677

- q-position: [    0.0858586,    0.0000000,    0.0000000 ]
  distance:    0.0288596
  band:
  - # 1
    frequency:    0.3578522157
  - # 2
    frequency:    0.5096409602
  - # 3
    frequency:    0.5430352060
  - # 4
    frequency:    1.3255420806
  - # 5
    frequency:    1.3411393780
  - # 6
    frequency:    1.3984358387
  - # 7
    frequency:    2.1233574395
  - # 8
    frequency:    4.4713553943
  - # 9
    frequency:    4.5510473845
  - # 10
    frequency:    4.7162340292
  - # 11
    frequency:    5.3550804954
  - # 12
    frequency:    6.2879843978
  - # 13
    frequency:    6.2967743869
  - # 14
    frequency:    6.5810100470
  - # 15
    frequency:    7.5975454150
  - # 16
    frequency:   10.7866031561
  - # 17
    frequency:   10.8153255013
  - # 18
    frequency:   12.5732920750
  - # 19
    frequency:   14.4855954984
  - # 20
    frequency:   14.5048597149
  - # 21
    frequency:   14.5528578336
  - # 22
    frequency:   14.5848873422
  - # 23
    frequency:   17.7823465625
  - # 24
    frequency:   27.2858595934
  - # 25
    frequency:   27.2875230503
  - # 26
    frequency:   59.1564198846
  - # 27
    frequency:   59.3334717533

- q-position: [    0.0909091,    0.0000000,    0.0000000 ]
  distance:    0.0305572
  band:
  - # 1
    frequency:    0.4097940561
  - # 2
    frequency:    0.5679031617
  - # 3
    frequency:    0.5958120837
  - # 4
    frequency:    1.4106473903
  - # 5
    frequency:    1.4266300797
  - # 6
    frequency:    1.4805301928
  - # 7
    frequency:    2.2452770625
  - # 8
    frequency:    4.4646689147
  - # 9
    frequency:    4.5617337547
  - # 10
    frequency:    4.7425092634
  - # 11
    frequency:    5.3709661782
  - # 12
    frequency:    6.2932561910
  - # 13
    frequency:    6.2952300699
  - # 14
    frequency:    6.6653701658
  - # 15
    frequency:    7.5974236791
  - # 16
    frequency:   10.7846004654
  - # 17
    frequency:   10.8001488800
  - # 18
    frequency:   12.7658133399
  - # 19
    frequency:   14.4885431800
  - # 20
    frequency:   14.5076580311
  - # 21
    frequency:   14.5635771927
  - # 22
    frequency:   14.5971422914
  - # 23
    frequency:   17.7304232459
  - # 24
    frequency:   27.2828228926
  - # 25
    frequency:   27.2843105260
  - # 26
    frequency:   59.1076048084
  - # 27
    frequency:   59.2842234787

- q-position: [    0.0959596,    0.0000000,    0.0000000 ]
  distance:    0.0322548
  band:
  - # 1
    frequency:    0.4632234133
  - # 2
    frequency:    0.6228966343
  - # 3
    frequency:    0.6465936425
  - # 4
    frequency:    1.4947085795
  - # 5
    frequency:    1.5110572329
  - # 6
    frequency:    1.5619727083
  - # 7
    frequency:    2.3660210193
  - # 8
    frequency:    4.4581203746
  - # 9
    frequency:    4.5728737367
  - # 10
    frequency:    4.7692400635
  - # 11
    frequency:    5.3869499025
  - # 12
    frequency:    6.2934645922
  - # 13
    frequency:    6.2968227402
  - # 14
    frequency:    6.7467116882
  - # 15
    frequency:    7.5984736496
  - # 16
    frequency:   10.7516612110
  - # 17
    frequency:   10.8138053233
  - # 18
    frequency:   12.9641889713
  - # 19
    frequency:   14.4916298439
  - # 20
    frequency:   14.5105899007
  - # 21
    frequency:   14.5748019463
  - # 22
    frequency:   14.6100788594
  - # 23
    frequency:   17.6764824568
  - # 24
    frequency:   27.2796388023
  - # 25
    frequency:   27.2809476830
  - # 26
    frequency:   59.0568757801
  - # 27
    frequency:   59.2329634231

- q-position: [    0.1010101,    0.0000000,    0.0000000 ]
  distance:    0.0339524
  band:
  - # 1
    frequency:    0.5181253593
  - # 2
    frequency:    0.6753891286
  - # 3
    frequency:    0.6957595560
  - # 4
    frequency:    1.5778179213
  - # 5
    frequency:    1.5944960018
  - # 6
    frequency:    1.6427450442
  - # 7
    frequency:    2.4854494840
  - # 8
    frequency:    4.4518384537
  - # 9
    frequency:    4.5844419151
  - # 10
    frequency:    4.7962940066
  - # 11
    frequency:    5.4029421696
  - # 12
    frequency:    6.2914627007
  - # 13
    frequency:    6.2995601756
  - # 14
    frequency:    6.8239218904
  - # 15
    frequency:    7.6009925988
  - # 16
    frequency:   10.7167466891
  - # 17
    frequency:   10.8274846366
  - # 18
    frequency:   13.1670733933
  - # 19
    frequency:   14.4948509000
  - # 20
    frequency:   14.5136511244
  - # 21
    frequency:   14.5865240721
  - # 22
    frequency:   14.6237358384
  - # 23
    frequency:   17.6206735188
  - # 24
    frequency:   27.2763113294
  - # 25
    frequency:   27.2774396469
  - # 26
    frequency:   59.0043601081
  - # 27
    frequency:   59.1798100208

- q-position: [    0.1060606,    0.0000000,    0.0000000 ]
  distance:    0.0356501
  band:
  - # 1
    frequency:    0.5744537084
  - # 2
    frequency:    0.7258870211
  - # 3
    frequency:    0.7435746188
  - # 4
    frequency:    1.6600386817
  - # 5
    frequency:    1.6770046847
  - # 6
    frequency:    1.7228315152
  - # 7
    frequency:    2.6033901093
  - # 8
    frequency:    4.4459779503
  - # 9
    frequency:    4.5964125078
  - # 10
    frequency:    4.8235398006
  - # 11
    frequency:    5.4188574549
  - # 12
    frequency:    6.2892099532
  - # 13
    frequency:    6.3018830929
  - # 14
    frequency:    6.8963890281
  - # 15
    frequency:    7.6053284934
  - # 16
    frequency:   10.6800551110
  - # 17
    frequency:   10.8410999489
  - # 18
    frequency:   13.3731233346
  - # 19
    frequency:   14.4982015796
  - # 20
    frequency:   14.5168373260
  - # 21
    frequency:   14.5987431915
  - # 22
    frequency:   14.6381878526
  - # 23
    frequency:   17.5631523120
  - # 24
    frequency:   27.2728445483
  - # 25
    frequency:   27.2737917793
  - # 26
    frequency:   58.9501873816
  - # 27
    frequency:   59.1248842605

- q-position: [    0.1111111,    0.0000000,    0.0000000 ]
  distance:    0.0373477
  band:
  - # 1
    frequency:    0.6321436945
  - # 2
    frequency:    0.7747403954
  - # 3
    frequency:    0.7902298037
  - # 4
    frequency:    1.7414143431
  - # 5
    frequency:    1.7586275541
  - # 6
    frequency:    1.8022182050
  - # 7
    frequency:    2.7196301028
  - # 8
    frequency:    4.4407272760
  - # 9
    frequency:    4.6087596284
  - # 10
    frequency:    4.8508479254
  - # 11
    frequency:    5.4346147481
  - # 12
    frequency:    6.2866928923
  - # 13
    frequency:    6.3040253041
  - # 14
    frequency:    6.9636977758
  - # 15
    frequency:    7.6118817545
  - # 16
    frequency:   10.6417574790
  - # 17
    frequency:   10.8545660957
  - # 18
    frequency:   13.5809591854
  - # 19
    frequency:   14.5016769412
  - # 20
    frequency:   14.5201439613
  - # 21
    frequency:   14.6114735131
  - # 22
    frequency:   14.6535789976
  - # 23
    frequency:   17.5040815907
  - # 24
    frequency:   27.2692424900
  - # 25
    frequency:   27.2700097644
  - # 26
    frequency:   58.8944888910
  - # 27
    frequency:   59.0683091819

- q-position: [    0.1161616,    0.0000000,    0.0000000 ]
  distance:    0.0390453
  band:
  - # 1
    frequency:    0.6911193215
  - # 2
    frequency:    0.8221998695
  - # 3
    frequency:    0.8358664745
  - # 4
    frequency:    1.8219744520
  - # 5
    frequency:    1.8393974613
  - # 6
    frequency:    1.8808923673
  - # 7
    frequency:    2.8339058547
  - # 8
    frequency:    4.4363184060
  - # 9
    frequency:    4.6214575461
  - # 10
    frequency:    4.8780914397
  - # 11
    frequency:    5.4501380265
  - # 12
    frequency:    6.2838992052
  - # 13
    frequency:    6.3061430812
  - # 14
    frequency:    7.0255147276
  - # 15
    frequency:    7.6210975362
  - # 16
    frequency:   10.6020065700
  - # 17
    frequency:   10.8678003305
  - # 18
    frequency:   13.7890758870
  - # 19
    frequency:   14.5052718767
  - # 20
    frequency:   14.5235663255
  - # 21
    frequency:   14.6247578553
  - # 22
    frequency:   14.6702010152
  - # 23
    frequency:   17.4436316323
  - # 24
    frequency:   27.2655088565
  - # 25
    frequency:   27.2660998703
  - # 26
    frequency:   58.8373970514
  - # 27
    frequency:   59.0102093696

- q-position: [    0.1212121,    0.0000000,    0.0000000 ]
  distance:    0.0407429
  band:
  - # 1
    frequency:    0.7512978274
  - # 2
    frequency:    0.8684496774
  - # 3
    frequency:    0.8805914510
  - # 4
    frequency:    1.9017384626
  - # 5
    frequency:    1.9193380485
  - # 6
    frequency:    1.9588420162
  - # 7
    frequency:    2.9458893258
  - # 8
    frequency:    4.4330399936
  - # 9
    frequency:    4.6344809376
  - # 10
    frequency:    4.9051470364