nqpoint: 300    
npath: 3      
segment_nqpoint:
- 100
- 100
- 100
labels:
- [ 'G', 'M' ]
- [ 'M', 'K' ]
- [ 'K', 'G' ]
reciprocal_lattice:
- [   0.28839229,   0.16650336,   0.00000000 ] # a*
- [   0.00000000,   0.33300673,   0.00000000 ] # b*
- [   0.00000000,   0.00000000,   0.03762090 ] # c*
natom: 7      
lattice:
- [     3.467499107103898,     0.000000000000000,     0.000000000000000 ] # a
- [    -1.733749553551949,     3.002942314345023,     0.000000000000000 ] # b
- [     0.000000000000000,     0.000000000000000,    26.580972746526449 ] # c
points:
- symbol: Br # 1
  coordinates: [  0.666666984744047,  0.333332985985144,  0.338588060182113 ]
  mass: 79.904000
- symbol: C # 2
  coordinates: [  0.000000000000000,  0.000000000000000,  0.457909919620803 ]
  mass: 12.010700
- symbol: C # 3
  coordinates: [  0.333332985432215,  0.666666983183674,  0.602887333064425 ]
  mass: 12.010700
- symbol: N # 4
  coordinates: [  0.333332985432215,  0.666666983183674,  0.555789545585356 ]
  mass: 14.006700
- symbol: S # 5
  coordinates: [  0.333332985432215,  0.666666983183674,  0.661411939817887 ]
  mass: 32.065000
- symbol: Zr # 6
  coordinates: [  0.333332985432215,  0.666666983183674,  0.412791974012980 ]
  mass: 91.224000
- symbol: Zr # 7
  coordinates: [  0.666666984744047,  0.333332985985144,  0.503830089800151 ]
  mass: 91.224000

phonon:
- q-position: [    0.0000000,    0.0000000,    0.0000000 ]
  distance:    0.0000000
  band:
  - # 1
    frequency:   -0.0000014352
  - # 2
    frequency:   -0.0000005068
  - # 3
    frequency:    0.0000015240
  - # 4
    frequency:    0.5267607440
  - # 5
    frequency:    0.5267607440
  - # 6
    frequency:    3.0781546344
  - # 7
    frequency:    3.0781546344
  - # 8
    frequency:    4.3649790897
  - # 9
    frequency:    5.0808348093
  - # 10
    frequency:    5.0808348093
  - # 11
    frequency:    6.3284130710
  - # 12
    frequency:    6.3284130710
  - # 13
    frequency:    6.6125587858
  - # 14
    frequency:    8.8447161431
  - # 15
    frequency:   14.0488705346
  - # 16
    frequency:   14.0488705346
  - # 17
    frequency:   14.9096160271
  - # 18
    frequency:   16.1711513776
  - # 19
    frequency:   16.1711513776
  - # 20
    frequency:   27.0481720777
  - # 21
    frequency:   57.9346676603

- q-position: [    0.0050505,    0.0000000,    0.0000000 ]
  distance:    0.0016819
  band:
  - # 1
    frequency:   -0.0399390374
  - # 2
    frequency:    0.0604519078
  - # 3
    frequency:    0.0965649093
  - # 4
    frequency:    0.5286826569
  - # 5
    frequency:    0.5333566341
  - # 6
    frequency:    3.0785619693
  - # 7
    frequency:    3.0793716137
  - # 8
    frequency:    4.3647328521
  - # 9
    frequency:    5.0810516598
  - # 10
    frequency:    5.0813510431
  - # 11
    frequency:    6.3285484123
  - # 12
    frequency:    6.3287659772
  - # 13
    frequency:    6.6126880386
  - # 14
    frequency:    8.8440569412
  - # 15
    frequency:   14.0490587093
  - # 16
    frequency:   14.0492272646
  - # 17
    frequency:   14.9096215368
  - # 18
    frequency:   16.1718048725
  - # 19
    frequency:   16.1721541912
  - # 20
    frequency:   27.0480743201
  - # 21
    frequency:   57.9335359678

- q-position: [    0.0101010,    0.0000000,    0.0000000 ]
  distance:    0.0033637
  band:
  - # 1
    frequency:   -0.0607786126
  - # 2
    frequency:    0.1207741493
  - # 3
    frequency:    0.1864483579
  - # 4
    frequency:    0.5344311903
  - # 5
    frequency:    0.5525694506
  - # 6
    frequency:    3.0797826779
  - # 7
    frequency:    3.0830118972
  - # 8
    frequency:    4.3639989564
  - # 9
    frequency:    5.0816994565
  - # 10
    frequency:    5.0828937537
  - # 11
    frequency:    6.3289535596
  - # 12
    frequency:    6.3298149565
  - # 13
    frequency:    6.6130824872
  - # 14
    frequency:    8.8420803943
  - # 15
    frequency:   14.0496221059
  - # 16
    frequency:   14.0502954055
  - # 17
    frequency:   14.9096375797
  - # 18
    frequency:   16.1737598472
  - # 19
    frequency:   16.1751546896
  - # 20
    frequency:   27.0477812562
  - # 21
    frequency:   57.9301437794

- q-position: [    0.0151515,    0.0000000,    0.0000000 ]
  distance:    0.0050456
  band:
  - # 1
    frequency:   -0.0811385150
  - # 2
    frequency:    0.1808219443
  - # 3
    frequency:    0.2773958828
  - # 4
    frequency:    0.5439613505
  - # 5
    frequency:    0.5829489214
  - # 6
    frequency:    3.0818128870
  - # 7
    frequency:    3.0890438286
  - # 8
    frequency:    4.3627917060
  - # 9
    frequency:    5.0827699710
  - # 10
    frequency:    5.0854451759
  - # 11
    frequency:    6.3296258912
  - # 12
    frequency:    6.3315308272
  - # 13
    frequency:    6.6137621981
  - # 14
    frequency:    8.8387896688
  - # 15
    frequency:   14.0505573528
  - # 16
    frequency:   14.0520688445
  - # 17
    frequency:   14.9096627031
  - # 18
    frequency:   16.1769998255
  - # 19
    frequency:   16.1801291065
  - # 20
    frequency:   27.0472935116
  - # 21
    frequency:   57.9244997493

- q-position: [    0.0202020,    0.0000000,    0.0000000 ]
  distance:    0.0067274
  band:
  - # 1
    frequency:   -0.0986880292
  - # 2
    frequency:    0.2404173852
  - # 3
    frequency:    0.3683628072
  - # 4
    frequency:    0.5572200750
  - # 5
    frequency:    0.6227358989
  - # 6
    frequency:    3.0846461889
  - # 7
    frequency:    3.0974156437
  - # 8
    frequency:    4.3611344660
  - # 9
    frequency:    5.0842496109
  - # 10
    frequency:    5.0889763769
  - # 11
    frequency:    6.3305610649
  - # 12
    frequency:    6.3338651034
  - # 13
    frequency:    6.6147605714
  - # 14
    frequency:    8.8341900128
  - # 15
    frequency:   14.0518588694
  - # 16
    frequency:   14.0545375065
  - # 17
    frequency:   14.9096945033
  - # 18
    frequency:   16.1814975219
  - # 19
    frequency:   16.1870380321
  - # 20
    frequency:   27.0466121271
  - # 21
    frequency:   57.9166182559

- q-position: [    0.0252525,    0.0000000,    0.0000000 ]
  distance:    0.0084093
  band:
  - # 1
    frequency:   -0.1123750415
  - # 2
    frequency:    0.2993253605
  - # 3
    frequency:    0.4589189694
  - # 4
    frequency:    0.5741787759
  - # 5
    frequency:    0.6703204399
  - # 6
    frequency:    3.0882737127
  - # 7
    frequency:    3.1080568843
  - # 8
    frequency:    4.3590590038
  - # 9
    frequency:    5.0861196000
  - # 10
    frequency:    5.0934482127
  - # 11
    frequency:    6.3317530579
  - # 12
    frequency:    6.3367503269
  - # 13
    frequency:    6.6161241672
  - # 14
    frequency:    8.8282887122
  - # 15
    frequency:   14.0535189229
  - # 16
    frequency:   14.0576875182
  - # 17
    frequency:   14.9097296529
  - # 18
    frequency:   16.1872151034
  - # 19
    frequency:   16.1958267142
  - # 20
    frequency:   27.0457385561
  - # 21
    frequency:   57.9065193349

- q-position: [    0.0303030,    0.0000000,    0.0000000 ]
  distance:    0.0100911
  band:
  - # 1
    frequency:   -0.1214804765
  - # 2
    frequency:    0.3572205648
  - # 3
    frequency:    0.5486777864
  - # 4
    frequency:    0.5948781225
  - # 5
    frequency:    0.7244685934
  - # 6
    frequency:    3.0926842202
  - # 7
    frequency:    3.1208802235
  - # 8
    frequency:    4.3566046621
  - # 9
    frequency:    5.0883562274
  - # 10
    frequency:    5.0988125607
  - # 11
    frequency:    6.3331942221
  - # 12
    frequency:    6.3401007474
  - # 13
    frequency:    6.6179122465
  - # 14
    frequency:    8.8210950332
  - # 15
    frequency:   14.0555277063
  - # 16
    frequency:   14.0615014296
  - # 17
    frequency:   14.9097639362
  - # 18
    frequency:   16.1941045508
  - # 19
    frequency:   16.2064254798
  - # 20
    frequency:   27.0446746607
  - # 21
    frequency:   57.8942285859

- q-position: [    0.0353535,    0.0000000,    0.0000000 ]
  distance:    0.0117730
  band:
  - # 1
    frequency:   -0.1251332034
  - # 2
    frequency:    0.4136467056
  - # 3
    frequency:    0.6194810672
  - # 4
    frequency:    0.6371472553
  - # 5
    frequency:    0.7843977762
  - # 6
    frequency:    3.0978642266
  - # 7
    frequency:    3.1357835736
  - # 8
    frequency:    4.3538174444
  - # 9
    frequency:    5.0909311619
  - # 10
    frequency:    5.1050137424
  - # 11
    frequency:    6.3348753520
  - # 12
    frequency:    6.3438135674
  - # 13
    frequency:    6.6201958092
  - # 14
    frequency:    8.8126201532
  - # 15
    frequency:   14.0578734367
  - # 16
    frequency:   14.0659584839
  - # 17
    frequency:   14.9097922941
  - # 18
    frequency:   16.2021081178
  - # 19
    frequency:   16.2187502770
  - # 20
    frequency:   27.0434227063
  - # 21
    frequency:   57.8797770535

- q-position: [    0.0404040,    0.0000000,    0.0000000 ]
  distance:    0.0134548
  band:
  - # 1
    frequency:   -0.1219066669
  - # 2
    frequency:    0.4679848718
  - # 3
    frequency:    0.6483151863
  - # 4
    frequency:    0.7236694780
  - # 5
    frequency:    0.8497703572
  - # 6
    frequency:    3.1037981414
  - # 7
    frequency:    3.1526523362
  - # 8
    frequency:    4.3507490918
  - # 9
    frequency:    5.0938118271
  - # 10
    frequency:    5.1119900424
  - # 11
    frequency:    6.3367857662
  - # 12
    frequency:    6.3477710122
  - # 13
    frequency:    6.6230558673
  - # 14
    frequency:    8.8028770828
  - # 15
    frequency:   14.0605424713
  - # 16
    frequency:   14.0710349252
  - # 17
    frequency:   14.9098088761
  - # 18
    frequency:   16.2111588815
  - # 19
    frequency:   16.2327033348
  - # 20
    frequency:   27.0419853561
  - # 21
    frequency:   57.8632010826

- q-position: [    0.0454545,    0.0000000,    0.0000000 ]
  distance:    0.0151367
  band:
  - # 1
    frequency:   -0.1090107799
  - # 2
    frequency:    0.5194869530
  - # 3
    frequency:    0.6818474530
  - # 4
    frequency:    0.8074887924
  - # 5
    frequency:    0.9205625063
  - # 6
    frequency:    3.1104684269
  - # 7
    frequency:    3.1713616592
  - # 8
    frequency:    4.3474562275
  - # 9
    frequency:    5.0969618338
  - # 10
    frequency:    5.1196752410
  - # 11
    frequency:    6.3389133984
  - # 12
    frequency:    6.3518434906
  - # 13
    frequency:    6.6265806844
  - # 14
    frequency:    8.7918805829
  - # 15
    frequency:   14.0635194393
  - # 16
    frequency:   14.0767043359
  - # 17
    frequency:   14.9098070987
  - # 18
    frequency:   16.2211813801
  - # 19
    frequency:   16.2481739392
  - # 20
    frequency:   27.0403656634
  - # 21
    frequency:   57.8445421511

- q-position: [    0.0505051,    0.0000000,    0.0000000 ]
  distance:    0.0168185
  band:
  - # 1
    frequency:   -0.0789017526
  - # 2
    frequency:    0.5674675747
  - # 3
    frequency:    0.7204977780
  - # 4
    frequency:    0.8880623387
  - # 5
    frequency:    0.9967012284
  - # 6
    frequency:    3.1178557715
  - # 7
    frequency:    3.1917785813
  - # 8
    frequency:    4.3439996291
  - # 9
    frequency:    5.1003414610
  - # 10
    frequency:    5.1280000849
  - # 11
    frequency:    6.3412448975
  - # 12
    frequency:    6.3558940449
  - # 13
    frequency:    6.6308617832
  - # 14
    frequency:    8.7796470811
  - # 15
    frequency:   14.0667873884
  - # 16
    frequency:   14.0829379906
  - # 17
    frequency:   14.9097797097
  - # 18
    frequency:   16.2320923289
  - # 19
    frequency:   16.2650393215
  - # 20
    frequency:   27.0385670637
  - # 21
    frequency:   57.8238466780

- q-position: [    0.0555556,    0.0000000,    0.0000000 ]
  distance:    0.0185004
  band:
  - # 1
    frequency:    0.0512224308
  - # 2
    frequency:    0.6116510802
  - # 3
    frequency:    0.7642950747
  - # 4
    frequency:    0.9654610515
  - # 5
    frequency:    1.0776224930
  - # 6
    frequency:    3.1259392730
  - # 7
    frequency:    3.2137639655
  - # 8
    frequency:    4.3404436734
  - # 9
    frequency:    5.1039081826
  - # 10
    frequency:    5.1368936425
  - # 11
    frequency:    6.3437657351
  - # 12
    frequency:    6.3597841106
  - # 13
    frequency:    6.6359886934
  - # 14
    frequency:    8.7661945898
  - # 15
    frequency:   14.0703279427
  - # 16
    frequency:   14.0897052176
  - # 17
    frequency:   14.9097188569
  - # 18
    frequency:   16.2438014105
  - # 19
    frequency:   16.2831656521
  - # 20
    frequency:   27.0365933651
  - # 21
    frequency:   57.8011658104

- q-position: [    0.0606061,    0.0000000,    0.0000000 ]
  distance:    0.0201822
  band:
  - # 1
    frequency:    0.1232092786
  - # 2
    frequency:    0.6523897397
  - # 3
    frequency:    0.8126601892
  - # 4
    frequency:    1.0403606929
  - # 5
    frequency:    1.1622491586
  - # 6
    frequency:    3.1346966304
  - # 7
    frequency:    3.2371741527
  - # 8
    frequency:    4.3368559807
  - # 9
    frequency:    5.1076172300
  - # 10
    frequency:    5.1462845046
  - # 11
    frequency:    6.3464603177
  - # 12
    frequency:    6.3633803273
  - # 13
    frequency:    6.6420426972
  - # 14
    frequency:    8.7515426312
  - # 15
    frequency:   14.0741214699
  - # 16
    frequency:   14.0969737579
  - # 17
    frequency:   14.9096161615
  - # 18
    frequency:   16.2562121270
  - # 19
    frequency:   16.3024091330
  - # 20
    frequency:   27.0344487377
  - # 21
    frequency:   57.7765551901

- q-position: [    0.0656566,    0.0000000,    0.0000000 ]
  distance:    0.0218641
  band:
  - # 1
    frequency:    0.1787665375
  - # 2
    frequency:    0.6904783993
  - # 3
    frequency:    0.8645910381
  - # 4
    frequency:    1.1136002519
  - # 5
    frequency:    1.2494092281
  - # 6
    frequency:    3.1441043381
  - # 7
    frequency:    3.2618622913
  - # 8
    frequency:    4.3333072701
  - # 9
    frequency:    5.1114221852
  - # 10
    frequency:    5.1561018097
  - # 11
    frequency:    6.3493121033
  - # 12
    frequency:    6.3665617957
  - # 13
    frequency:    6.6490901699
  - # 14
    frequency:    8.7357121709
  - # 15
    frequency:   14.0781472563
  - # 16
    frequency:   14.1047101134
  - # 17
    frequency:   14.9094627946
  - # 18
    frequency:   16.2692227086
  - # 19
    frequency:   16.3226171796
  - # 20
    frequency:   27.0321377022
  - # 21
    frequency:   57.7500747003

- q-position: [    0.0707071,    0.0000000,    0.0000000 ]
  distance:    0.0235459
  band:
  - # 1
    frequency:    0.2312041760
  - # 2
    frequency:    0.7267697694
  - # 3
    frequency:    0.9190462458
  - # 4
    frequency:    1.1858361439
  - # 5
    frequency:    1.3381641184
  - # 6
    frequency:    3.1541378821
  - # 7
    frequency:    3.2876793251
  - # 8
    frequency:    4.3298714227
  - # 9
    frequency:    5.1152755962
  - # 10
    frequency:    5.1662760863
  - # 11
    frequency:    6.3523037195
  - # 12
    frequency:    6.3692268848
  - # 13
    frequency:    6.6571764071
  - # 14
    frequency:    8.7187255634
  - # 15
    frequency:   14.0823836865
  - # 16
    frequency:   14.1128798777
  - # 17
    frequency:   14.9092495576
  - # 18
    frequency:   16.2827270676
  - # 19
    frequency:   16.3436296788
  - # 20
    frequency:   27.0296651171
  - # 21
    frequency:   57.7217881953

- q-position: [    0.0757576,    0.0000000,    0.0000000 ]
  distance:    0.0252278
  band:
  - # 1
    frequency:    0.2831181345
  - # 2
    frequency:    0.7619370585
  - # 3
    frequency:    0.9751809580
  - # 4
    frequency:    1.2574765916
  - # 5
    frequency:    1.4278610801
  - # 6
    frequency:    3.1647719332
  - # 7
    frequency:    3.3144746457
  - # 8
    frequency:    4.3266257379
  - # 9
    frequency:    5.1191296065
  - # 10
    frequency:    5.1767399158
  - # 11
    frequency:    6.3554170825
  - # 12
    frequency:    6.3712985999
  - # 13
    frequency:    6.6663209198
  - # 14
    frequency:    8.7006065122
  - # 15
    frequency:   14.0868084271
  - # 16
    frequency:   14.1214480435
  - # 17
    frequency:   14.9089669670
  - # 18
    frequency:   16.2966157880
  - # 19
    frequency:   16.3652803129
  - # 20
    frequency:   27.0270361652
  - # 21
    frequency:   57.6917632142

- q-position: [    0.0808081,    0.0000000,    0.0000000 ]
  distance:    0.0269096
  band:
  - # 1
    frequency:    0.3354331069
  - # 2
    frequency:    0.7964333310
  - # 3
    frequency:    1.0323857289
  - # 4
    frequency:    1.3287435987
  - # 5
    frequency:    1.5180612375
  - # 6
    frequency:    3.1759805353
  - # 7
    frequency:    3.3420964344
  - # 8
    frequency:    4.3236513574
  - # 9
    frequency:    5.1229365919
  - # 10
    frequency:    5.1874284276
  - # 11
    frequency:    6.3586335158
  - # 12
    frequency:    6.3727277135
  - # 13
    frequency:    6.6765149878
  - # 14
    frequency:    8.6813800451
  - # 15
    frequency:   14.0913986110
  - # 16
    frequency:   14.1303792838
  - # 17
    frequency:   14.9086053413
  - # 18
    frequency:   16.3107771415
  - # 19
    frequency:   16.3873979329
  - # 20
    frequency:   27.0242563381
  - # 21
    frequency:   57.6600706801

- q-position: [    0.0858586,    0.0000000,    0.0000000 ]
  distance:    0.0285915
  band:
  - # 1
    frequency:    0.3885356816
  - # 2
    frequency:    0.8305378146
  - # 3
    frequency:    1.0902384384
  - # 4
    frequency:    1.3997440016
  - # 5
    frequency:    1.6084609341
  - # 6
    frequency:    3.1877372871
  - # 7
    frequency:    3.3703917372
  - # 8
    frequency:    4.3210338210
  - # 9
    frequency:    5.1266497957
  - # 10
    frequency:    5.1982796430
  - # 11
    frequency:    6.3619338676
  - # 12
    frequency:    6.3734933182
  - # 13
    frequency:    6.6877218042
  - # 14
    frequency:    8.6610725061
  - # 15
    frequency:   14.0961310218
  - # 16
    frequency:   14.1396382026
  - # 17
    frequency:   14.9081548938
  - # 18
    frequency:   16.3250981187
  - # 19
    frequency:   16.4098079677
  - # 20
    frequency:   27.0213314212
  - # 21
    frequency:   57.6267845871

- q-position: [    0.0909091,    0.0000000,    0.0000000 ]
  distance:    0.0302733
  band:
  - # 1
    frequency:    0.4425853680
  - # 2
    frequency:    0.8644126205
  - # 3
    frequency:    1.1484458893
  - # 4
    frequency:    1.4705186390
  - # 5
    frequency:    1.6988367340
  - # 6
    frequency:    3.2000155149
  - # 7
    frequency:    3.3992063358
  - # 8
    frequency:    4.3188637054
  - # 9
    frequency:    5.1302239550
  - # 10
    frequency:    5.2092346853
  - # 11
    frequency:    6.3652986267
  - # 12
    frequency:    6.3736010074
  - # 13
    frequency:    6.6998789960
  - # 14
    frequency:    8.6397115643
  - # 15
    frequency:   14.1009822767
  - # 16
    frequency:   14.1491895568
  - # 17
    frequency:   14.9076058275
  - # 18
    frequency:   16.3394654669
  - # 19
    frequency:   16.4323338533
  - # 20
    frequency:   27.0182674757
  - # 21
    frequency:   57.5919816772

- q-position: [    0.0959596,    0.0000000,    0.0000000 ]
  distance:    0.0319552
  band:
  - # 1
    frequency:    0.4976306315
  - # 2
    frequency:    0.8981459715
  - # 3
    frequency:    1.2067990479
  - # 4
    frequency:    1.5410717945
  - # 5
    frequency:    1.7890114738
  - # 6
    frequency:    3.2127884342
  - # 7
    frequency:    3.4283844965
  - # 8
    frequency:    4.3172372808
  - # 9
    frequency:    5.1336159108
  - # 10
    frequency:    5.2202378789
  - # 11
    frequency:    6.3687080359
  - # 12
    frequency:    6.3730793303
  - # 13
    frequency:    6.7129028658
  - # 14
    frequency:    8.6173262392
  - # 15
    frequency:   14.1059290053
  - # 16
    frequency:   14.1589984464
  - # 17
    frequency:   14.9069484365
  - # 18
    frequency:   16.3537667223
  - # 19
    frequency:   16.4547984663
  - # 20
    frequency:   27.0150708215
  - # 21
    frequency:   57.5557411081

- q-position: [    0.1010101,    0.0000000,    0.0000000 ]
  distance:    0.0336370
  band:
  - # 1
    frequency:    0.5536607098
  - # 2
    frequency:    0.9317807367
  - # 3
    frequency:    1.2651431606
  - # 4
    frequency:    1.6113879993
  - # 5
    frequency:    1.8788339486
  - # 6
    frequency:    3.2260293012
  - # 7
    frequency:    3.4577687069
  - # 8
    frequency:    4.3162570983
  - # 9
    frequency:    5.1367851941
  - # 10
    frequency:    5.2312367540
  - # 11
    frequency:    6.3719753627
  - # 12
    frequency:    6.3721422036
  - # 13
    frequency:    6.7266935027
  - # 14
    frequency:    8.5939469407
  - # 15
    frequency:   14.1109480254
  - # 16
    frequency:   14.1690304756
  - # 17
    frequency:   14.9061732102
  - # 18
    frequency:   16.3678912292
  - # 19
    frequency:   16.4770255468
  - # 20
    frequency:   27.0117480175
  - # 21
    frequency:   57.5181441151

- q-position: [    0.1060606,    0.0000000,    0.0000000 ]
  distance:    0.0353189
  band:
  - # 1
    frequency:    0.6106317138
  - # 2
    frequency:    0.9653323091
  - # 3
    frequency:    1.3233587125
  - # 4
    frequency:    1.6814414959
  - # 5
    frequency:    1.9681666826
  - # 6
    frequency:    3.2397115516
  - # 7
    frequency:    3.4871995365
  - # 8
    frequency:    4.3160323913
  - # 9
    frequency:    5.1396945814
  - # 10
    frequency:    5.2421819800
  - # 11
    frequency:    6.3703501743
  - # 12
    frequency:    6.3755812127
  - # 13
    frequency:    6.7411399745
  - # 14
    frequency:    8.5696055237
  - # 15
    frequency:   14.1160165117
  - # 16
    frequency:   14.1792518854
  - # 17
    frequency:   14.9052709436
  - # 18
    frequency:   16.3817311355
  - # 19
    frequency:   16.4988410951
  - # 20
    frequency:   27.0083058420
  - # 21
    frequency:   57.4792736686

- q-position: [    0.1111111,    0.0000000,    0.0000000 ]
  distance:    0.0370007
  band:
  - # 1
    frequency:    0.6684809608
  - # 2
    frequency:    0.9987996262
  - # 3
    frequency:    1.3813494234
  - # 4
    frequency:    1.7512015608
  - # 5
    frequency:    2.0568784044
  - # 6
    frequency:    3.2538089271
  - # 7
    frequency:    3.5165158005
  - # 8
    frequency:    4.3166791385
  - # 9
    frequency:    5.1423106134
  - # 10
    frequency:    5.2530272416
  - # 11
    frequency:    6.3682747520
  - # 12
    frequency:    6.3790052286
  - # 13
    frequency:    6.7561250305
  - # 14
    frequency:    8.5443353538
  - # 15
    frequency:   14.1211121592
  - # 16
    frequency:   14.1896296602
  - # 17
    frequency:   14.9042328515
  - # 18
    frequency:   16.3951823553
  - # 19
    frequency:   16.5200747306
  - # 20
    frequency:   27.0047512717
  - # 21
    frequency:   57.4392141292

- q-position: [    0.1161616,    0.0000000,    0.0000000 ]
  distance:    0.0386826
  band:
  - # 1
    frequency:    0.7271353588
  - # 2
    frequency:    1.0321719559
  - # 3
    frequency:    1.4390346452
  - # 4
    frequency:    1.8206354956
  - # 5
    frequency:    2.1448392711
  - # 6
    frequency:    3.2682955900
  - # 7
    frequency:    3.5455552431
  - # 8
    frequency:    4.3183195967
  - # 9
    frequency:    5.1446040700
  - # 10
    frequency:    5.2637290782
  - # 11
    frequency:    6.3658266751
  - # 12
    frequency:    6.3823946047
  - # 13
    frequency:    6.7715290105
  - # 14
    frequency:    8.5181713824
  - # 15
    frequency:   14.1262133384
  - # 16
    frequency:   14.2001316091
  - # 17
    frequency:   14.9030506886
  - # 18
    frequency:   16.4081454920
  - # 19
    frequency:   16.5405609977
  - # 20
    frequency:   27.0010914594
  - # 21
    frequency:   57.3980509022

- q-position: [    0.1212121,    0.0000000,    0.0000000 ]
  distance:    0.0403645
  band:
  - # 1
    frequency:    0.7865165500
  - # 2
    frequency:    1.0654330911
  - # 3
    frequency:    1.4963444979
  - # 4
    frequency:    1.8897102967
  - # 5
    frequency:    2.2319177232
  - # 6
    frequency:    3.2831462254
  - # 7
    frequency:    3.5741559958
  - # 8
    frequency:    4.3210810752
  - # 9
    frequency:    5.1465503968
  - # 10
    frequency:    5.2742466981
  - # 11
    frequency:    6.3630876170
  - # 12
    frequency:    6.3857299874
  - # 13
    frequency:    6.7872328787
  - # 14
    frequency:    8.4911502273
  - # 15
    frequency:   14.1312992427
  - # 16
    frequency:   14.2107264254
  - # 17
    frequency:   14.9017168734
  - # 18
    frequency:   16.4205267120
  - # 19
    frequency:   16.5601406085
  - # 20
    frequency:   26.9973337120
  - # 21
    frequency:   57.3558700953

- q-position: [    0.1262626,    0.0000000,    0.0000000 ]
  distance:    0.0420463
  band:
  - # 1
    frequency:    0.8465441748
  - # 2
    frequency:    1.0985639567
  - # 3
    frequency:    1.5532167260
  - # 4
    frequency:    1.9583935685
  - # 5
    frequency:    2.3179783122
  - # 6
    frequency:    3.2983361328
  - # 7
    frequency:    3.6021590909
  - # 8
    frequency:    4.3250937051
  - # 9
    frequency:    5.1481300776
  - # 10
    frequency:    5.2845417827
  - # 11
    frequency:    6.3601416000
  - # 12
    frequency:    6.3889924202
  - # 13
    frequency:    6.8031204441
  - # 14
    frequency:    8.4633102569
  - # 15
    frequency:   14.1363500261
  - # 16
    frequency:   14.2213837247
  - # 17
    frequency:   14.9002246173
  - # 18
    frequency:   16.4322385634
  - # 19
    frequency:   16.5786616125
  - # 20
    frequency:   26.9934854664
  - # 21
    frequency:   57.3127581785

- q-position: [    0.1313131,    0.0000000,    0.0000000 ]
  distance:    0.0437282
  band:
  - # 1
    frequency:    0.9071379920
  - # 2
    frequency:    1.1315442331
  - # 3
    frequency:    1.6095946522
  - # 4
    frequency:    2.0266540002
  - # 5
    frequency:    2.4028801026
  - # 6
    frequency:    3.3138413064
  - # 7
    frequency:    3.6294122878
  - # 8
    frequency:    4.3304869773
  - # 9
    frequency:    5.1493289493
  - # 10
    frequency:    5.2945782926
  - # 11
    frequency:    6.3570738607
  - # 12
    frequency:    6.3921634477
  - # 13
    frequency:    6.8190799038
  - # 14
    frequency:    8.4346916730
  - # 15
    frequency:   14.1413469321
  - # 16
    frequency:   14.2320740653
  - # 17
    frequency:   14.8985680581
  - # 18
    frequency:   16.4432007322
  - # 19
    frequency:   16.5959804830
  - # 20
    frequency:   26.9895542656
  - # 21
    frequency:   57.2688016514

- q-position: [    0.1363636,    0.0000000,    0.0000000 ]
  distance:    0.0454100
  band:
  - # 1
    frequency:    0.9682192764
  - # 2
    frequency:    1.1643533647
  - # 3
    frequency:    1.6654258435
  - # 4
    frequency:    2.0944615899
  - # 5
    frequency:    2.4864753946
  - # 6
    frequency:    3.3296385065
  - # 7
    frequency:    3.6557753964
  - # 8
    frequency:    4.3373849092
  - # 9
    frequency:    5.1501384536
  - # 10
    frequency:    5.3043222841
  - # 11
    frequency:    6.3539701666
  - # 12
    frequency:    6.3952252185
  - # 13
    frequency:    6.8350048595
  - # 14
    frequency:    8.4053365889
  - # 15
    frequency:   14.1462724108
  - # 16
    frequency:   14.2427689500
  - # 17
    frequency:   14.8967423972
  - # 18
    frequency:   16.4533407317
  - # 19
    frequency:   16.6119631138
  - # 20
    frequency:   26.9855477341
  - # 21
    frequency:   57.2240867179

- q-position: [    0.1414141,    0.0000000,    0.0000000 ]
  distance:    0.0470919
  band:
  - # 1
    frequency:    1.0297117414
  - # 2
    frequency:    1.1969711811
  - # 3
    frequency:    1.7206612483
  - # 4
    frequency:    2.1617877219
  - # 5
    frequency:    2.5686085958
  - # 6
    frequency:    3.3457053223
  - # 7
    frequency:    3.6811271095
  - # 8
    frequency:    4.3458998714
  - # 9
    frequency:    5.1505558244
  - # 10
    frequency:    5.3137417459
  - # 11
    frequency:    6.3509164327
  - # 12
    frequency:    6.3981605887
  - # 13
    frequency:    6.8507949488
  - # 14
    frequency:    8.3752891000
  - # 15
    frequency:   14.1511102260
  - # 16
    frequency:   14.2534408132
  - # 17
    frequency:   14.8947440409
  - # 18
    frequency:   16.4625945178
  - # 19
    frequency:   16.6264857197
  - # 20
    frequency:   26.9814735524
  - # 21
    frequency:   57.1786989705

- q-position: [    0.1464646,    0.0000000,    0.0000000 ]
  distance:    0.0487737
  band:
  - # 1
    frequency:    1.0915421428
  - # 2
    frequency:    1.2293782712
  - # 3
    frequency:    1.7752546514
  - # 4
    frequency:    2.2286051611
  - # 5
    frequency:    2.6491151138
  - # 6
    frequency:    3.3620202283
  - # 7
    frequency:    3.7053731018
  - # 8
    frequency:    4.3561253707
  - # 9
    frequency:    5.1505842059
  - # 10
    frequency:    5.3228064610
  - # 11
    frequency:    6.3479985165
  - # 12
    frequency:    6.4009532248
  - # 13
    frequency:    6.8663562060
  - # 14
    frequency:    8.3445953404
  - # 15
    frequency:   14.1558455500
  - # 16
    frequency:   14.2640629927
  - # 17
    frequency:   14.8925707441
  - # 18
    frequency:   16.4709070282
  - # 19
    frequency:   16.6394356344
  - # 20
    frequency:   26.9773394313
  - # 21
    frequency:   57.1327230866

- q-position: [    0.1515152,    0.0000000,    0.0000000 ]
  distance:    0.0504556
  band:
  - # 1
    frequency:    1.1536406624
  - # 2
    frequency:    1.2615561987
  - # 3
    frequency:    1.8291623444
  - # 4
    frequency:    2.2948879997
  - # 5
    frequency:    2.7278201764
  - # 6
    frequency:    3.3785626347
  - # 7
    frequency:    3.7284548323
  - # 8
    frequency:    4.3681284040
  - # 9
    frequency:    5.1502327012
  - # 10
    frequency:    5.3314878997
  - # 11
    frequency:    6.3453020929
  - # 12
    frequency:    6.4035877051
  - # 13
    frequency:    6.8816012395
  - # 14
    frequency:    8.3133035240
  - # 15
    frequency:   14.1604650464
  - # 16
    frequency:   14.2746096882
  - # 17
    frequency:   14.8902217569
  - # 18
    frequency:   16.4782326398
  - # 19
    frequency:   16.6507120031
  - # 20
    frequency:   26.9731530863
  - # 21