nqpoint: 300    
npath: 3      
segment_nqpoint:
- 100
- 100
- 100
labels:
- [ 'G', 'M' ]
- [ 'M', 'K' ]
- [ 'K', 'G' ]
reciprocal_lattice:
- [   0.29800640,   0.17205407,   0.00000000 ] # a*
- [   0.00000000,   0.34410815,   0.00000000 ] # b*
- [   0.00000000,   0.00000000,   0.03604072 ] # c*
natom: 8      
lattice:
- [     3.355632656055661,     0.000000000000000,     0.000000000000000 ] # a
- [    -1.677816328027831,     2.906063125905839,     0.000000000000000 ] # b
- [     0.000000000000000,     0.000000000000000,    27.746392086565418 ] # c
points:
- symbol: C # 1
  coordinates: [  0.000000000000000,  0.000000000000000,  0.505121933083693 ]
  mass: 12.010700
- symbol: C # 2
  coordinates: [  0.666666984744047,  0.333332985985145,  0.367195883570133 ]
  mass: 12.010700
- symbol: N # 3
  coordinates: [  0.666666984744047,  0.333332985985145,  0.324366496801497 ]
  mass: 14.006700
- symbol: O # 4
  coordinates: [  0.333332985432215,  0.666666983183674,  0.675633503198503 ]
  mass: 15.999400
- symbol: O # 5
  coordinates: [  0.666666984744047,  0.333332985985145,  0.415406860844636 ]
  mass: 15.999400
- symbol: P # 6
  coordinates: [  0.333332985432215,  0.666666983183674,  0.621780834087099 ]
  mass: 30.973762
- symbol: Sc # 7
  coordinates: [  0.333332985432215,  0.666666983183674,  0.459545467355878 ]
  mass: 44.955912
- symbol: Sc # 8
  coordinates: [  0.666666984744047,  0.333332985985145,  0.548545381566795 ]
  mass: 44.955912

phonon:
- q-position: [    0.0000000,    0.0000000,    0.0000000 ]
  distance:    0.0000000
  band:
  - # 1
    frequency:   -1.3443595114
  - # 2
    frequency:   -1.3443595114
  - # 3
    frequency:   -0.0000020746
  - # 4
    frequency:    0.0000015922
  - # 5
    frequency:    0.0000020296
  - # 6
    frequency:    2.3943191060
  - # 7
    frequency:    2.3943191060
  - # 8
    frequency:    4.9116211205
  - # 9
    frequency:    5.0458891824
  - # 10
    frequency:    5.0458891824
  - # 11
    frequency:    5.3831988176
  - # 12
    frequency:    5.3831988176
  - # 13
    frequency:    6.5130820041
  - # 14
    frequency:    6.5130820041
  - # 15
    frequency:    7.8049642669
  - # 16
    frequency:   11.1867066284
  - # 17
    frequency:   12.6007267306
  - # 18
    frequency:   12.6007267306
  - # 19
    frequency:   13.7117553485
  - # 20
    frequency:   13.7117553485
  - # 21
    frequency:   17.7045406841
  - # 22
    frequency:   32.0328240010
  - # 23
    frequency:   34.1561958295
  - # 24
    frequency:   67.8273795987

- q-position: [    0.0050505,    0.0000000,    0.0000000 ]
  distance:    0.0017379
  band:
  - # 1
    frequency:   -1.3435748413
  - # 2
    frequency:   -1.3416563742
  - # 3
    frequency:   -0.0534263435
  - # 4
    frequency:    0.0733496745
  - # 5
    frequency:    0.1188711532
  - # 6
    frequency:    2.3948097429
  - # 7
    frequency:    2.3949789745
  - # 8
    frequency:    4.9109408632
  - # 9
    frequency:    5.0451014400
  - # 10
    frequency:    5.0456794981
  - # 11
    frequency:    5.3835144373
  - # 12
    frequency:    5.3845613327
  - # 13
    frequency:    6.5128553574
  - # 14
    frequency:    6.5133056506
  - # 15
    frequency:    7.8058182490
  - # 16
    frequency:   11.1859522627
  - # 17
    frequency:   12.6008537474
  - # 18
    frequency:   12.6025327197
  - # 19
    frequency:   13.7118086304
  - # 20
    frequency:   13.7119921492
  - # 21
    frequency:   17.7034849597
  - # 22
    frequency:   32.0320984574
  - # 23
    frequency:   34.1559320229
  - # 24
    frequency:   67.8270923704

- q-position: [    0.0101010,    0.0000000,    0.0000000 ]
  distance:    0.0034758
  band:
  - # 1
    frequency:   -1.3412266275
  - # 2
    frequency:   -1.3335470992
  - # 3
    frequency:   -0.0654548984
  - # 4
    frequency:    0.1467075970
  - # 5
    frequency:    0.2221318683
  - # 6
    frequency:    2.3963017975
  - # 7
    frequency:    2.3969543382
  - # 8
    frequency:    4.9089084971
  - # 9
    frequency:    5.0427646492
  - # 10
    frequency:    5.0450527136
  - # 11
    frequency:    5.3844591706
  - # 12
    frequency:    5.3886185974
  - # 13
    frequency:    6.5121829771
  - # 14
    frequency:    6.5139766636
  - # 15
    frequency:    7.8083726132
  - # 16
    frequency:   11.1836902517
  - # 17
    frequency:   12.6012345853
  - # 18
    frequency:   12.6079469296
  - # 19
    frequency:   13.7119686342
  - # 20
    frequency:   13.7127021481
  - # 21
    frequency:   17.7003205229
  - # 22
    frequency:   32.0299247736
  - # 23
    frequency:   34.1551412438
  - # 24
    frequency:   67.8262315341

- q-position: [    0.0151515,    0.0000000,    0.0000000 ]
  distance:    0.0052138
  band:
  - # 1
    frequency:   -1.3373318842
  - # 2
    frequency:   -1.3200293777
  - # 3
    frequency:   -0.0777514760
  - # 4
    frequency:    0.2200783435
  - # 5
    frequency:    0.3274763604
  - # 6
    frequency:    2.3988571716
  - # 7
    frequency:    2.4002325994
  - # 8
    frequency:    4.9055462546
  - # 9
    frequency:    5.0389571740
  - # 10
    frequency:    5.0440154574
  - # 11
    frequency:    5.3860268062
  - # 12
    frequency:    5.3952836673
  - # 13
    frequency:    6.5110872823
  - # 14
    frequency:    6.5150952517
  - # 15
    frequency:    7.8126048443
  - # 16
    frequency:   11.1799238406
  - # 17
    frequency:   12.6018686063
  - # 18
    frequency:   12.6169580905
  - # 19
    frequency:   13.7122358352
  - # 20
    frequency:   13.7138841353
  - # 21
    frequency:   17.6950555804
  - # 22
    frequency:   32.0263117714
  - # 23
    frequency:   34.1538254110
  - # 24
    frequency:   67.8247996307

- q-position: [    0.0202020,    0.0000000,    0.0000000 ]
  distance:    0.0069517
  band:
  - # 1
    frequency:   -1.3319177461
  - # 2
    frequency:   -1.3010904816
  - # 3
    frequency:   -0.0902157543
  - # 4
    frequency:    0.2934593301
  - # 5
    frequency:    0.4330453828
  - # 6
    frequency:    2.4025839279
  - # 7
    frequency:    2.4047931907
  - # 8
    frequency:    4.9008819405
  - # 9
    frequency:    5.0338069920
  - # 10
    frequency:    5.0425782048
  - # 11
    frequency:    5.3882075255
  - # 12
    frequency:    5.4044234064
  - # 13
    frequency:    6.5096047869
  - # 14
    frequency:    6.5166617247
  - # 15
    frequency:    7.8184781687
  - # 16
    frequency:   11.1746583976
  - # 17
    frequency:   12.6027547469
  - # 18
    frequency:   12.6295474250
  - # 19
    frequency:   13.7126110252
  - # 20
    frequency:   13.7155360935
  - # 21
    frequency:   17.6877038007
  - # 22
    frequency:   32.0212740905
  - # 23
    frequency:   34.1519877110
  - # 24
    frequency:   67.8228008799

- q-position: [    0.0252525,    0.0000000,    0.0000000 ]
  distance:    0.0086896
  band:
  - # 1
    frequency:   -1.3250197343
  - # 2
    frequency:   -1.2766945544
  - # 3
    frequency:   -0.1015903935
  - # 4
    frequency:    0.3668376766
  - # 5
    frequency:    0.5380056070
  - # 6
    frequency:    2.4076435721
  - # 7
    frequency:    2.4106082127
  - # 8
    frequency:    4.8949373350
  - # 9
    frequency:    5.0274890807
  - # 10
    frequency:    5.0407544823
  - # 11
    frequency:    5.3909886426
  - # 12
    frequency:    5.4158725353
  - # 13
    frequency:    6.5077848862
  - # 14
    frequency:    6.5186764363
  - # 15
    frequency:    7.8259426247
  - # 16
    frequency:   11.1679013574
  - # 17
    frequency:   12.6038915166
  - # 18
    frequency:   12.6456886523
  - # 19
    frequency:   13.7130953119
  - # 20
    frequency:   13.7176551973
  - # 21
    frequency:   17.6782843005
  - # 22
    frequency:   32.0148320942
  - # 23
    frequency:   34.1496325818
  - # 24
    frequency:   67.8202411560

- q-position: [    0.0303030,    0.0000000,    0.0000000 ]
  distance:    0.0104275
  band:
  - # 1
    frequency:   -1.3166795151
  - # 2
    frequency:   -1.2467659089
  - # 3
    frequency:   -0.1106317219
  - # 4
    frequency:    0.4401875572
  - # 5
    frequency:    0.6417541384
  - # 6
    frequency:    2.4142610291
  - # 7
    frequency:    2.4176433217
  - # 8
    frequency:    4.8877160497
  - # 9
    frequency:    5.0202230373
  - # 10
    frequency:    5.0385598657
  - # 11
    frequency:    5.3943555321
  - # 12
    frequency:    5.4294479275
  - # 13
    frequency:    6.5056882752
  - # 14
    frequency:    6.5211397072
  - # 15
    frequency:    7.8349364526
  - # 16
    frequency:   11.1596621504
  - # 17
    frequency:   12.6052769956
  - # 18
    frequency:   12.6653479891
  - # 19
    frequency:   13.7136901178
  - # 20
    frequency:   13.7202378121
  - # 21
    frequency:   17.6668216257
  - # 22
    frequency:   32.0070117385
  - # 23
    frequency:   34.1467656889
  - # 24
    frequency:   67.8171279563

- q-position: [    0.0353535,    0.0000000,    0.0000000 ]
  distance:    0.0121654
  band:
  - # 1
    frequency:   -1.3069423287
  - # 2
    frequency:   -1.2111691003
  - # 3
    frequency:   -0.1159961266
  - # 4
    frequency:    0.5134681227
  - # 5
    frequency:    0.7436980948
  - # 6
    frequency:    2.4227368042
  - # 7
    frequency:    2.4258588593
  - # 8
    frequency:    4.8791941390
  - # 9
    frequency:    5.0122700492
  - # 10
    frequency:    5.0360108635
  - # 11
    frequency:    5.3982926562
  - # 12
    frequency:    5.4449607332
  - # 13
    frequency:    6.5033850969
  - # 14
    frequency:    6.5240517272
  - # 15
    frequency:    7.8453877140
  - # 16
    frequency:   11.1499521238
  - # 17
    frequency:   12.6069088315
  - # 18
    frequency:   12.6884841408
  - # 19
    frequency:   13.7143971774
  - # 20
    frequency:   13.7232794939
  - # 21
    frequency:   17.6533457274
  - # 22
    frequency:   31.9978444054
  - # 23
    frequency:   34.1433938965
  - # 24
    frequency:   67.8134703599

- q-position: [    0.0404040,    0.0000000,    0.0000000 ]
  distance:    0.0139034
  band:
  - # 1
    frequency:   -1.2958542783
  - # 2
    frequency:   -1.1696863167
  - # 3
    frequency:   -0.1159138348
  - # 4
    frequency:    0.5866220181
  - # 5
    frequency:    0.8431805701
  - # 6
    frequency:    2.4334601815
  - # 7
    frequency:    2.4352112221
  - # 8
    frequency:    4.8693169411
  - # 9
    frequency:    5.0039268137
  - # 10
    frequency:    5.0331237753
  - # 11
    frequency:    5.4027846047
  - # 12
    frequency:    5.4622252554
  - # 13
    frequency:    6.5009529295
  - # 14
    frequency:    6.5274124409
  - # 15
    frequency:    7.8572160447
  - # 16
    frequency:   11.1387844603
  - # 17
    frequency:   12.6087842335
  - # 18
    frequency:   12.7150482794
  - # 19
    frequency:   13.7152185322
  - # 20
    frequency:   13.7267749902
  - # 21
    frequency:   17.6378919337
  - # 22
    frequency:   31.9873667027
  - # 23
    frequency:   34.1395252309
  - # 24
    frequency:   67.8092789776

- q-position: [    0.0454545,    0.0000000,    0.0000000 ]
  distance:    0.0156413
  band:
  - # 1
    frequency:   -1.2834596781
  - # 2
    frequency:   -1.1219922451
  - # 3
    frequency:   -0.1074437311
  - # 4
    frequency:    0.6595744523
  - # 5
    frequency:    0.9394508200
  - # 6
    frequency:    2.4456544647
  - # 7
    frequency:    2.4469211754
  - # 8
    frequency:    4.8580051045
  - # 9
    frequency:    4.9955134330
  - # 10
    frequency:    5.0299136091
  - # 11
    frequency:    5.4078170704
  - # 12
    frequency:    5.4810646016
  - # 13
    frequency:    6.4984747146
  - # 14
    frequency:    6.5312214175
  - # 15
    frequency:    7.8703344473
  - # 16
    frequency:   11.1261741016
  - # 17
    frequency:   12.6108999633
  - # 18
    frequency:   12.7449840044
  - # 19
    frequency:   13.7161565231
  - # 20
    frequency:   13.7307182425
  - # 21
    frequency:   17.6205009181
  - # 22
    frequency:   31.9756202303
  - # 23
    frequency:   34.1351688395
  - # 24
    frequency:   67.8045658948

- q-position: [    0.0505051,    0.0000000,    0.0000000 ]
  distance:    0.0173792
  band:
  - # 1
    frequency:   -1.2697986317
  - # 2
    frequency:   -1.0676264654
  - # 3
    frequency:   -0.0836870898
  - # 4
    frequency:    0.7322327096
  - # 5
    frequency:    1.0316549512
  - # 6
    frequency:    2.4571421365
  - # 7
    frequency:    2.4637171770
  - # 8
    frequency:    4.8451707547
  - # 9
    frequency:    4.9873537149
  - # 10
    frequency:    5.0263931226
  - # 11
    frequency:    5.4133776985
  - # 12
    frequency:    5.5013137279
  - # 13
    frequency:    6.4960367195
  - # 14
    frequency:    6.5354777095
  - # 15
    frequency:    7.8846510454
  - # 16
    frequency:   11.1121376802
  - # 17
    frequency:   12.6132523237
  - # 18
    frequency:   12.7782272845
  - # 19
    frequency:   13.7172137794
  - # 20
    frequency:   13.7351023916
  - # 21
    frequency:   17.6012186638
  - # 22
    frequency:   31.9626513171
  - # 23
    frequency:   34.1303349430
  - # 24
    frequency:   67.7993446063

- q-position: [    0.0555556,    0.0000000,    0.0000000 ]
  distance:    0.0191171
  band:
  - # 1
    frequency:   -1.2549049691
  - # 2
    frequency:   -1.0059648620
  - # 3
    frequency:    0.0341090005
  - # 4
    frequency:    0.8044859437
  - # 5
    frequency:    1.1188440816
  - # 6
    frequency:    2.4696293533
  - # 7
    frequency:    2.4845479457
  - # 8
    frequency:    4.8307409003
  - # 9
    frequency:    4.9797500045
  - # 10
    frequency:    5.0225720370
  - # 11
    frequency:    5.4194567649
  - # 12
    frequency:    5.5228206584
  - # 13
    frequency:    6.4937266110
  - # 14
    frequency:    6.5401797021
  - # 15
    frequency:    7.9000707347
  - # 16
    frequency:   11.0966934620
  - # 17
    frequency:   12.6158371425
  - # 18
    frequency:   12.8147063789
  - # 19
    frequency:   13.7183932022
  - # 20
    frequency:   13.7399197871
  - # 21
    frequency:   17.5800964280
  - # 22
    frequency:   31.9485107286
  - # 23
    frequency:   34.1250347835
  - # 24
    frequency:   67.7936299435

- q-position: [    0.0606061,    0.0000000,    0.0000000 ]
  distance:    0.0208550
  band:
  - # 1
    frequency:   -1.2388046153
  - # 2
    frequency:   -0.9361980646
  - # 3
    frequency:    0.1194212671
  - # 4
    frequency:    0.8762050652
  - # 5
    frequency:    1.2000044707
  - # 6
    frequency:    2.4830751043
  - # 7
    frequency:    2.5101905499
  - # 8
    frequency:    4.8146809670
  - # 9
    frequency:    4.9729589662
  - # 10
    frequency:    5.0184564567
  - # 11
    frequency:    5.4260476581
  - # 12
    frequency:    5.5454465816
  - # 13
    frequency:    6.4916316958
  - # 14
    frequency:    6.5453249582
  - # 15
    frequency:    7.9164966858
  - # 16
    frequency:   11.0798613015
  - # 17
    frequency:   12.6186497513
  - # 18
    frequency:   12.8543417388
  - # 19
    frequency:   13.7196979437
  - # 20
    frequency:   13.7451620026
  - # 21
    frequency:   17.5571907044
  - # 22
    frequency:   31.9332533495
  - # 23
    frequency:   34.1192805666
  - # 24
    frequency:   67.7874379961

- q-position: [    0.0656566,    0.0000000,    0.0000000 ]
  distance:    0.0225930
  band:
  - # 1
    frequency:   -1.2215143973
  - # 2
    frequency:   -0.8573466770
  - # 3
    frequency:    0.1848574157
  - # 4
    frequency:    0.9472425285
  - # 5
    frequency:    1.2741160909
  - # 6
    frequency:    2.4974447984
  - # 7
    frequency:    2.5414460035
  - # 8
    frequency:    4.7970101074
  - # 9
    frequency:    4.9671761547
  - # 10
    frequency:    5.0140485080
  - # 11
    frequency:    5.4331471530
  - # 12
    frequency:    5.5690653552
  - # 13
    frequency:    6.4898373702
  - # 14
    frequency:    6.5509100630
  - # 15
    frequency:    7.9338316728
  - # 16
    frequency:   11.0616626090
  - # 17
    frequency:   12.6216849605
  - # 18
    frequency:   12.8970458892
  - # 19
    frequency:   13.7211313792
  - # 20
    frequency:   13.7508198588
  - # 21
    frequency:   17.5325631888
  - # 22
    frequency:   31.9169378421
  - # 23
    frequency:   34.1130853999
  - # 24
    frequency:   67.7807860275

- q-position: [    0.0707071,    0.0000000,    0.0000000 ]
  distance:    0.0243309
  band:
  - # 1
    frequency:   -1.2030412462
  - # 2
    frequency:   -0.7684064090
  - # 3
    frequency:    0.2526787967
  - # 4
    frequency:    1.0174318499
  - # 5
    frequency:    1.3402418830
  - # 6
    frequency:    2.5127130453
  - # 7
    frequency:    2.5790546098
  - # 8
    frequency:    4.7778036134
  - # 9
    frequency:    4.9625337115
  - # 10
    frequency:    5.0093462037
  - # 11
    frequency:    5.4407554757
  - # 12
    frequency:    5.5935627717
  - # 13
    frequency:    6.4884257993
  - # 14
    frequency:    6.5569304720
  - # 15
    frequency:    7.9519792170
  - # 16
    frequency:   11.0421203287
  - # 17
    frequency:   12.6249370285
  - # 18
    frequency:   12.9427232916
  - # 19
    frequency:   13.7226970727
  - # 20
    frequency:   13.7568834575
  - # 21
    frequency:   17.5062807486
  - # 22
    frequency:   31.8996262849
  - # 23
    frequency:   34.1064632270
  - # 24
    frequency:   67.7736923845

- q-position: [    0.0757576,    0.0000000,    0.0000000 ]
  distance:    0.0260688
  band:
  - # 1
    frequency:   -1.1833817032
  - # 2
    frequency:   -0.6688599141
  - # 3
    frequency:    0.3289067765
  - # 4
    frequency:    1.0865867348
  - # 5
    frequency:    1.3976382768
  - # 6
    frequency:    2.5288666554
  - # 7
    frequency:    2.6235892707
  - # 8
    frequency:    4.7571839599
  - # 9
    frequency:    4.9591094708
  - # 10
    frequency:    5.0043435252
  - # 11
    frequency:    5.4488761688
  - # 12
    frequency:    5.6188358003
  - # 13
    frequency:    6.4874748370
  - # 14
    frequency:    6.5633803678
  - # 15
    frequency:    7.9708445455
  - # 16
    frequency:   11.0212589259
  - # 17
    frequency:   12.6283996251
  - # 18
    frequency:   12.9912701854
  - # 19
    frequency:   13.7243987344
  - # 20
    frequency:   13.7633422317
  - # 21
    frequency:   17.4784153990
  - # 22
    frequency:   31.8813837928
  - # 23
    frequency:   34.0994287587
  - # 24
    frequency:   67.7661764032

- q-position: [    0.0808081,    0.0000000,    0.0000000 ]
  distance:    0.0278067
  band:
  - # 1
    frequency:   -1.1625216145
  - # 2
    frequency:   -0.5598371069
  - # 3
    frequency:    0.4182808704
  - # 4
    frequency:    1.1544997562
  - # 5
    frequency:    1.4458620206
  - # 6
    frequency:    2.5459078163
  - # 7
    frequency:    2.6753519223
  - # 8
    frequency:    4.7353061067
  - # 9
    frequency:    4.9569417634
  - # 10
    frequency:    4.9990307115
  - # 11
    frequency:    5.4575157745
  - # 12
    frequency:    5.6447919162
  - # 13
    frequency:    6.4870571872
  - # 14
    frequency:    6.5702525295
  - # 15
    frequency:    7.9903353777
  - # 16
    frequency:   10.9991043804
  - # 17
    frequency:   12.6320657913
  - # 18
    frequency:   13.0425744042
  - # 19
    frequency:   13.7262401707
  - # 20
    frequency:   13.7701850191
  - # 21
    frequency:   17.4490442920
  - # 22
    frequency:   31.8622781240
  - # 23
    frequency:   34.0919973999
  - # 24
    frequency:   67.7582583108

- q-position: [    0.0858586,    0.0000000,    0.0000000 ]
  distance:    0.0295446
  band:
  - # 1
    frequency:   -1.1404358852
  - # 2
    frequency:   -0.4446961728
  - # 3
    frequency:    0.5229809348
  - # 4
    frequency:    1.2209406124
  - # 5
    frequency:    1.4848396066
  - # 6
    frequency:    2.5638573636
  - # 7
    frequency:    2.7343072727
  - # 8
    frequency:    4.7123426974
  - # 9
    frequency:    4.9560442678
  - # 10
    frequency:    4.9933947327
  - # 11
    frequency:    5.4666833550
  - # 12
    frequency:    5.6713485619
  - # 13
    frequency:    6.4872398013
  - # 14
    frequency:    6.5775382190
  - # 15
    frequency:    8.0103625560
  - # 16
    frequency:   10.9756841843
  - # 17
    frequency:   12.6359278930
  - # 18
    frequency:   13.0965151552
  - # 19
    frequency:   13.7282252253
  - # 20
    frequency:   13.7774001715
  - # 21
    frequency:   17.4182497197
  - # 22
    frequency:   31.8423792744
  - # 23
    frequency:   34.0841851754
  - # 24
    frequency:   67.7499591241

- q-position: [    0.0909091,    0.0000000,    0.0000000 ]
  distance:    0.0312826
  band:
  - # 1
    frequency:   -1.1170881613
  - # 2
    frequency:   -0.3234178111
  - # 3
    frequency:    0.6388516429
  - # 4
    frequency:    1.2856540919
  - # 5
    frequency:    1.5148746977
  - # 6
    frequency:    2.5827579923
  - # 7
    frequency:    2.8000791836
  - # 8
    frequency:    4.6884723596
  - # 9
    frequency:    4.9564177397
  - # 10
    frequency:    4.9874199258
  - # 11
    frequency:    5.4763898784
  - # 12
    frequency:    5.6984327437
  - # 13
    frequency:    6.4880835025
  - # 14
    frequency:    6.5852270889
  - # 15
    frequency:    8.0308405385
  - # 16
    frequency:   10.9510273412
  - # 17
    frequency:   12.6399775724
  - # 18
    frequency:   13.1529627426
  - # 19
    frequency:   13.7303577128
  - # 20
    frequency:   13.7849757199
  - # 21
    frequency:   17.3861191407
  - # 22
    frequency:   31.8217590641
  - # 23
    frequency:   34.0760086529
  - # 24
    frequency:   67.7413005459

- q-position: [    0.0959596,    0.0000000,    0.0000000 ]
  distance:    0.0330205
  band:
  - # 1
    frequency:   -1.0924303057
  - # 2
    frequency:   -0.1704541155
  - # 3
    frequency:    0.7575763025
  - # 4
    frequency:    1.3483579954
  - # 5
    frequency:    1.5365946436
  - # 6
    frequency:    2.6026771629
  - # 7
    frequency:    2.8720098553
  - # 8
    frequency:    4.6638718645
  - # 9
    frequency:    4.9580579234
  - # 10
    frequency:    4.9810887615
  - # 11
    frequency:    5.4866474980
  - # 12
    frequency:    5.7259807384
  - # 13
    frequency:    6.4896428306
  - # 14
    frequency:    6.5933071135
  - # 15
    frequency:    8.0516877772
  - # 16
    frequency:   10.9251643663
  - # 17
    frequency:   12.6442056962
  - # 18
    frequency:   13.2117781932
  - # 19
    frequency:   13.7326413427
  - # 20
    frequency:   13.7928996347
  - # 21
    frequency:   17.3527452333
  - # 22
    frequency:   31.8004907193
  - # 23
    frequency:   34.0674848646
  - # 24
    frequency:   67.7323048595

- q-position: [    0.1010101,    0.0000000,    0.0000000 ]
  distance:    0.0347584
  band:
  - # 1
    frequency:   -1.0664015355
  - # 2
    frequency:    0.1928614654
  - # 3
    frequency:    0.8731643923
  - # 4
    frequency:    1.4087414076
  - # 5
    frequency:    1.5508632888
  - # 6
    frequency:    2.6237093260
  - # 7
    frequency:    2.9492569465
  - # 8
    frequency:    4.6387115621
  - # 9
    frequency:    4.9609603111
  - # 10
    frequency:    4.9743827101
  - # 11
    frequency:    5.4974687595
  - # 12
    frequency:    5.7539378751
  - # 13
    frequency:    6.4919660985
  - # 14
    frequency:    6.6017645472
  - # 15
    frequency:    8.0728269994
  - # 16
    frequency:   10.8981272835
  - # 17
    frequency:   12.6486023018
  - # 18
    frequency:   13.2728127115
  - # 19
    frequency:   13.7350796374
  - # 20
    frequency:   13.8011602503
  - # 21
    frequency:   17.3182259865
  - # 22
    frequency:   31.7786484524
  - # 23
    frequency:   34.0586312286
  - # 24
    frequency:   67.7229948228

- q-position: [    0.1060606,    0.0000000,    0.0000000 ]
  distance:    0.0364963
  band:
  - # 1
    frequency:   -1.0389270720
  - # 2
    frequency:    0.3169245132
  - # 3
    frequency:    0.9833434362
  - # 4
    frequency:    1.4664638680
  - # 5
    frequency:    1.5586986198
  - # 6
    frequency:    2.6459769415
  - # 7
    frequency:    3.0308950994
  - # 8
    frequency:    4.6131531525
  - # 9
    frequency:    4.9651227799
  - # 10
    frequency:    4.9672831701
  - # 11
    frequency:    5.5088657699
  - # 12
    frequency:    5.7822583458
  - # 13
    frequency:    6.4950956561
  - # 14
    frequency:    6.6105839119
  - # 15
    frequency:    8.0941854119
  - # 16
    frequency:   10.8699496199
  - # 17
    frequency:   12.6531565448
  - # 18
    frequency:   13.3359068142
  - # 19
    frequency:   13.7376758422
  - # 20
    frequency:   13.8097469979
  - # 21
    frequency:   17.2826648362
  - # 22
    frequency:   31.7563070432
  - # 23
    frequency:   34.0494654691
  - # 24
    frequency:   67.7133935617

- q-position: [    0.1111111,    0.0000000,    0.0000000 ]
  distance:    0.0382342
  band:
  - # 1
    frequency:   -1.0099161253
  - # 2
    frequency:    0.4053770283
  - # 3
    frequency:    1.0877530582
  - # 4
    frequency:    1.5211561329
  - # 5
    frequency:    1.5612323820
  - # 6
    frequency:    2.6696296244
  - # 7
    frequency:    3.1159971320
  - # 8
    frequency:    4.5873490070
  - # 9
    frequency:    4.9597724228
  - # 10
    frequency:    4.9705470069
  - # 11
    frequency:    5.5208493629
  - # 12
    frequency:    5.8109049978
  - # 13
    frequency:    6.4990683615
  - # 14
    frequency:    6.6197480131
  - # 15
    frequency:    8.1156948435
  - # 16
    frequency:   10.8406663976
  - # 17
    frequency:   12.6578566473
  - # 18
    frequency:   13.4008888289
  - # 19
    frequency:   13.7404328294
  - # 20
    frequency:   13.8186517529
  - # 21
    frequency:   17.2461708575
  - # 22
    frequency:   31.7335414246
  - # 23
    frequency:   34.0400055377
  - # 24
    frequency:   67.7035244641

- q-position: [    0.1161616,    0.0000000,    0.0000000 ]
  distance:    0.0399722
  band:
  - # 1
    frequency:   -0.9792589786
  - # 2
    frequency:    0.4803558716
  - # 3
    frequency:    1.1865440228
  - # 4
    frequency:    1.5597568912
  - # 5
    frequency:    1.5724232962
  - # 6
    frequency:    2.6948406693
  - # 7
    frequency:    3.2036855229
  - # 8
    frequency:    4.5614425412
  - # 9
    frequency:    4.9518345743
  - # 10
    frequency:    4.9772392846
  - # 11
    frequency:    5.5334282963
  - # 12
    frequency:    5.8398490566
  - # 13
    frequency:    6.5039162587
  - # 14
    frequency:    6.6292379862
  - # 15
    frequency:    8.1372918404
  - # 16
    frequency:   10.8103141196
  - # 17
    frequency:   12.6626898511
  - # 18
    frequency:   13.4675720252
  - # 19
    frequency:   13.7433529984
  - # 20
    frequency:   13.8278715162
  - # 21
    frequency:   17.2088590276
  - # 22
    frequency:   31.7104262767
  - # 23
    frequency:   34.0302695349
  - # 24
    frequency:   67.6934110757

- q-position: [    0.1212121,    0.0000000,    0.0000000 ]
  distance:    0.0417101
  band:
  - # 1
    frequency:   -0.9468228335
  - # 2
    frequency:    0.5481280392
  - # 3
    frequency:    1.2795753282
  - # 4
    frequency:    1.5559819956
  - # 5
    frequency:    1.6198509630
  - # 6
    frequency:    2.7218002730
  - # 7
    frequency:    3.2931565609
  - # 8
    frequency:    4.5355694389
  - # 9
    frequency:    4.9434564515
  - # 10
    frequency:    4.9852111159
  - # 11
    frequency:    5.5466085116
  - # 12
    frequency:    5.8690697329
  - # 13
    frequency:    6.5096674678
  - # 14
    frequency:    6.6390333705
  - # 15
    frequency:    8.1589177254
  - # 16
    frequency:   10.7789307527
  - # 17
    frequency:   12.6676423754
  - # 18
    frequency:   13.5357484863
  - # 19
    frequency:   13.7464381724
  - # 20
    frequency:   13.8374143090
  - # 21
    frequency:   17.1708505720
  - # 22
    frequency:   31.6870356300
  - # 23
    frequency:   34.0202756336
  - # 24
    frequency:   67.6830769972

- q-position: [    0.1262626,    0.0000000,    0.0000000 ]
  distance:    0.0434480
  band:
  - # 1
    frequency:   -0.9124459096
  - # 2
    frequency:    0.6110739377
  - # 3
    frequency:    1.3652560024
  - # 4
    frequency:    1.5530403274
  - # 5
    frequency:    1.6630148405
  - # 6
    frequency:    2.7507050924
  - # 7
    frequency:    3.3836845245
  - # 8
    frequency:    4.5098597850
  - # 9
    frequency:    4.9346284201
  - # 10
    frequency:    4.9944797911
  - # 11
    frequency:    5.5603924833
  - # 12
    frequency:    5.8985536608
  - # 13
    frequency:    6.5163472942
  - # 14
    frequency:    6.6491122110
  - # 15
    frequency:    8.1805186301
  - # 16
    frequency:   10.7465557069
  - # 17
    frequency:   12.6726993833
  - # 18
    frequency:   13.6051740522
  - # 19
    frequency:   13.7496894936
  - # 20
    frequency:   13.8473139320
  - # 21
    frequency:   17.1322734104
  - # 22
    frequency:   31.6634424830
  - # 23
    frequency:   34.0100420035
  - # 24
    frequency:   67.6725457838

- q-position: [    0.1313131,    0.0000000,    0.0000000 ]
  distance:    0.0451859
  band:
  - # 1
    frequency:   -0.8759289980
  - # 2
    frequency:    0.6700008816
  - # 3
    frequency:    1.4362452802
  - # 4
    frequency:    1.5597908519
  - # 5
    frequency:    1.7014934721
  - # 6
    frequency:    2.7817444018
  - # 7
    frequency:    3.4746132679
  - # 8
    frequency:    4.4844414701
  - # 9
    frequency:    4.9253450962
  - # 10
    frequency:    5.0050690283
  - # 11
    frequency:    5.5747786773
  - # 12
    frequency:    5.9282941203
  - # 13
    frequency:    6.5239795626
  - # 14
    frequency:    6.6594511836
  - # 15
    frequency:    8.2020455082
  - # 16
    frequency:   10.7132298117
  - # 17
    frequency:   12.6778449571
  - # 18
    frequency:   13.6755236797
  - # 19
    frequency:   13.7531073202
  - # 20
    frequency:   13.8576742246
  - # 21
    frequency:   17.0932627223
  - # 22
    frequency:   31.6397184348
  - # 23
    frequency:   33.9995867395
  - # 24
    frequency:   67.6618408485

- q-position: [    0.1363636,    0.0000000,    0.0000000 ]
  distance:    0.0469238
  band:
  - # 1
    frequency:   -0.8370231632
  - # 2
    frequency:    0.7248396909
  - # 3
    frequency:    1.4733240928
  - # 4
    frequency:    1.5970159509
  - # 5
    frequency:    1.7348829325
  - # 6
    frequency:    2.8150840118
  - # 7