nqpoint: 300    
npath: 3      
segment_nqpoint:
- 100
- 100
- 100
labels:
- [ 'G', 'M' ]
- [ 'M', 'K' ]
- [ 'K', 'G' ]
reciprocal_lattice:
- [   0.30370739,   0.17534554,   0.00000000 ] # a*
- [   0.00000000,   0.35069109,   0.00000000 ] # b*
- [   0.00000000,   0.00000000,   0.03575851 ] # c*
natom: 9      
lattice:
- [     3.292642948556106,     0.000000000000000,     0.000000000000000 ] # a
- [    -1.646321474278053,     2.851512439039346,     0.000000000000000 ] # b
- [     0.000000000000000,     0.000000000000000,    27.965373353891124 ] # c
points:
- symbol: C # 1
  coordinates: [  0.333332985432215,  0.666666983183674,  0.635700082702345 ]
  mass: 12.010700
- symbol: C # 2
  coordinates: [  0.666666984744047,  0.333332985985145,  0.364299916837781 ]
  mass: 12.010700
- symbol: N # 3
  coordinates: [  0.000000000000000,  0.000000000000000,  0.500000030811547 ]
  mass: 14.006700
- symbol: N # 4
  coordinates: [  0.333332985432215,  0.666666983183674,  0.678173436624341 ]
  mass: 14.006700
- symbol: N # 5
  coordinates: [  0.666666984744047,  0.333332985985145,  0.321826563375659 ]
  mass: 14.006700
- symbol: O # 6
  coordinates: [  0.333332985432215,  0.666666983183674,  0.587841547550742 ]
  mass: 15.999400
- symbol: O # 7
  coordinates: [  0.666666984744047,  0.333332985985145,  0.412158452449258 ]
  mass: 15.999400
- symbol: Sc # 8
  coordinates: [  0.333332985432215,  0.666666983183674,  0.456886014459344 ]
  mass: 44.955912
- symbol: Sc # 9
  coordinates: [  0.666666984744047,  0.333332985985145,  0.543113985080774 ]
  mass: 44.955912

phonon:
- q-position: [    0.0000000,    0.0000000,    0.0000000 ]
  distance:    0.0000000
  band:
  - # 1
    frequency:   -0.8349249880
  - # 2
    frequency:   -0.8349249880
  - # 3
    frequency:   -0.0000099757
  - # 4
    frequency:    0.0000005653
  - # 5
    frequency:    0.0000051848
  - # 6
    frequency:    0.2059464413
  - # 7
    frequency:    0.2059464413
  - # 8
    frequency:    5.0697217391
  - # 9
    frequency:    5.0697217391
  - # 10
    frequency:    5.6212367783
  - # 11
    frequency:    7.5137915319
  - # 12
    frequency:    7.5137915319
  - # 13
    frequency:    7.6203807603
  - # 14
    frequency:    7.6203807603
  - # 15
    frequency:    9.0327795715
  - # 16
    frequency:   11.8980386017
  - # 17
    frequency:   13.5716657916
  - # 18
    frequency:   13.5716657916
  - # 19
    frequency:   13.7815534067
  - # 20
    frequency:   13.7815534067
  - # 21
    frequency:   13.9805920470
  - # 22
    frequency:   14.2478616958
  - # 23
    frequency:   14.2478616958
  - # 24
    frequency:   31.9524461076
  - # 25
    frequency:   31.9727051195
  - # 26
    frequency:   67.9716319027
  - # 27
    frequency:   67.9734970812

- q-position: [    0.0050505,    0.0000000,    0.0000000 ]
  distance:    0.0017712
  band:
  - # 1
    frequency:   -0.8435141928
  - # 2
    frequency:   -0.8427517130
  - # 3
    frequency:   -0.4107397654
  - # 4
    frequency:   -0.4076442070
  - # 5
    frequency:    0.0024238275
  - # 6
    frequency:    0.4902311244
  - # 7
    frequency:    0.4920557390
  - # 8
    frequency:    5.0688923194
  - # 9
    frequency:    5.0700233035
  - # 10
    frequency:    5.6208691716
  - # 11
    frequency:    7.5137114485
  - # 12
    frequency:    7.5140056881
  - # 13
    frequency:    7.6193209350
  - # 14
    frequency:    7.6203127814
  - # 15
    frequency:    9.0323284231
  - # 16
    frequency:   11.8957220580
  - # 17
    frequency:   13.5718531534
  - # 18
    frequency:   13.5719717039
  - # 19
    frequency:   13.7796162865
  - # 20
    frequency:   13.7811690660
  - # 21
    frequency:   13.9823790019
  - # 22
    frequency:   14.2461505616
  - # 23
    frequency:   14.2482178812
  - # 24
    frequency:   31.9518807930
  - # 25
    frequency:   31.9721489251
  - # 26
    frequency:   67.9713688607
  - # 27
    frequency:   67.9732310326

- q-position: [    0.0101010,    0.0000000,    0.0000000 ]
  distance:    0.0035423
  band:
  - # 1
    frequency:   -0.8727251756
  - # 2
    frequency:   -0.8720170348
  - # 3
    frequency:   -0.5595390880
  - # 4
    frequency:   -0.5448427322
  - # 5
    frequency:    0.0097942937
  - # 6
    frequency:    0.6921931613
  - # 7
    frequency:    0.6958026234
  - # 8
    frequency:    5.0664133695
  - # 9
    frequency:    5.0709230424
  - # 10
    frequency:    5.6197698565
  - # 11
    frequency:    7.5134683604
  - # 12
    frequency:    7.5146556197
  - # 13
    frequency:    7.6161377282
  - # 14
    frequency:    7.6201127748
  - # 15
    frequency:    9.0309778253
  - # 16
    frequency:   11.8887734788
  - # 17
    frequency:   13.5724148416
  - # 18
    frequency:   13.5728817580
  - # 19
    frequency:   13.7740201102
  - # 20
    frequency:   13.7800217683
  - # 21
    frequency:   13.9874908580
  - # 22
    frequency:   14.2410625902
  - # 23
    frequency:   14.2492777550
  - # 24
    frequency:   31.9501863723
  - # 25
    frequency:   31.9704818069
  - # 26
    frequency:   67.9705803116
  - # 27
    frequency:   67.9724334716

- q-position: [    0.0151515,    0.0000000,    0.0000000 ]
  distance:    0.0053135
  band:
  - # 1
    frequency:   -0.9281656751
  - # 2
    frequency:   -0.9256832444
  - # 3
    frequency:   -0.6332190088
  - # 4
    frequency:   -0.5952602546
  - # 5
    frequency:    0.0220810477
  - # 6
    frequency:    0.8578102935
  - # 7
    frequency:    0.8628401714
  - # 8
    frequency:    5.0623128251
  - # 9
    frequency:    5.0724060593
  - # 10
    frequency:    5.6179493387
  - # 11
    frequency:    7.5130534702
  - # 12
    frequency:    7.5157630080
  - # 13
    frequency:    7.6108205346
  - # 14
    frequency:    7.6197927887
  - # 15
    frequency:    9.0287363269
  - # 16
    frequency:   11.8771960394
  - # 17
    frequency:   13.5733496650
  - # 18
    frequency:   13.5743726731
  - # 19
    frequency:   13.7653074667
  - # 20
    frequency:   13.7781283225
  - # 21
    frequency:   13.9952741937
  - # 22
    frequency:   14.2327437049
  - # 23
    frequency:   14.2510156679
  - # 24
    frequency:   31.9473674094
  - # 25
    frequency:   31.9677081553
  - # 26
    frequency:   67.9692679837
  - # 27
    frequency:   67.9711061503

- q-position: [    0.0202020,    0.0000000,    0.0000000 ]
  distance:    0.0070847
  band:
  - # 1
    frequency:   -0.9989273836
  - # 2
    frequency:   -0.9930375266
  - # 3
    frequency:   -0.6644904116
  - # 4
    frequency:   -0.5931504655
  - # 5
    frequency:    0.0392907483
  - # 6
    frequency:    1.0040752740
  - # 7
    frequency:    1.0102313340
  - # 8
    frequency:    5.0566372691
  - # 9
    frequency:    5.0744474173
  - # 10
    frequency:    5.6154250961
  - # 11
    frequency:    7.5124512038
  - # 12
    frequency:    7.5173614370
  - # 13
    frequency:    7.6033538372
  - # 14
    frequency:    7.6193737276
  - # 15
    frequency:    9.0256182001
  - # 16
    frequency:   11.8609951036
  - # 17
    frequency:   13.5746556398
  - # 18
    frequency:   13.5764048332
  - # 19
    frequency:   13.7541346951
  - # 20
    frequency:   13.7755155763
  - # 21
    frequency:   14.0048519915
  - # 22
    frequency:   14.2214740044
  - # 23
    frequency:   14.2533901536
  - # 24
    frequency:   31.9434314897
  - # 25
    frequency:   31.9638352723
  - # 26
    frequency:   67.9674347512
  - # 27
    frequency:   67.9692519821

- q-position: [    0.0252525,    0.0000000,    0.0000000 ]
  distance:    0.0088558
  band:
  - # 1
    frequency:   -1.0699574431
  - # 2
    frequency:   -1.0620667780
  - # 3
    frequency:   -0.6748137341
  - # 4
    frequency:   -0.5594210557
  - # 5
    frequency:    0.0614405946
  - # 6
    frequency:    1.1378893370
  - # 7
    frequency:    1.1449853158
  - # 8
    frequency:    5.0494519606
  - # 9
    frequency:    5.0770119742
  - # 10
    frequency:    5.6122215245
  - # 11
    frequency:    7.5116379695
  - # 12
    frequency:    7.5194915326
  - # 13
    frequency:    7.5937215012
  - # 14
    frequency:    7.6188864654
  - # 15
    frequency:    9.0216434788
  - # 16
    frequency:   11.8401783429
  - # 17
    frequency:   13.5763299919
  - # 18
    frequency:   13.5789209118
  - # 19
    frequency:   13.7411009901
  - # 20
    frequency:   13.7722188190
  - # 21
    frequency:   14.0152209254
  - # 22
    frequency:   14.2077429131
  - # 23
    frequency:   14.2563456949
  - # 24
    frequency:   31.9383891887
  - # 25
    frequency:   31.9588733486
  - # 26
    frequency:   67.9650846245
  - # 27
    frequency:   67.9668750326

- q-position: [    0.0303030,    0.0000000,    0.0000000 ]
  distance:    0.0106270
  band:
  - # 1
    frequency:   -1.1353810684
  - # 2
    frequency:   -1.1266264959
  - # 3
    frequency:   -0.6747537125
  - # 4
    frequency:   -0.5004820445
  - # 5
    frequency:    0.0885819899
  - # 6
    frequency:    1.2628228378
  - # 7
    frequency:    1.2707838036
  - # 8
    frequency:    5.0408408599
  - # 9
    frequency:    5.0800541527
  - # 10
    frequency:    5.6083698498
  - # 11
    frequency:    7.5105806913
  - # 12
    frequency:    7.5221897028
  - # 13
    frequency:    7.5819172878
  - # 14
    frequency:    7.6183731376
  - # 15
    frequency:    9.0168380164
  - # 16
    frequency:   11.8147559306
  - # 17
    frequency:   13.5783691596
  - # 18
    frequency:   13.5818436235
  - # 19
    frequency:   13.7266725977
  - # 20
    frequency:   13.7682798194
  - # 21
    frequency:   14.0251741003
  - # 22
    frequency:   14.1924047053
  - # 23
    frequency:   14.2598149205
  - # 24
    frequency:   31.9322540293
  - # 25
    frequency:   31.9528354308
  - # 26
    frequency:   67.9622227366
  - # 27
    frequency:   67.9639805049

- q-position: [    0.0353535,    0.0000000,    0.0000000 ]
  distance:    0.0123982
  band:
  - # 1
    frequency:   -1.1937605198
  - # 2
    frequency:   -1.1849567663
  - # 3
    frequency:   -0.6686708436
  - # 4
    frequency:   -0.4122341967
  - # 5
    frequency:    0.1209006509
  - # 6
    frequency:    1.3809670014
  - # 7
    frequency:    1.3898320608
  - # 8
    frequency:    5.0309066341
  - # 9
    frequency:    5.0835176467
  - # 10
    frequency:    5.6039079953
  - # 11
    frequency:    7.5092354254
  - # 12
    frequency:    7.5254504171
  - # 13
    frequency:    7.5679816922
  - # 14
    frequency:    7.6178883111
  - # 15
    frequency:    9.0112335657
  - # 16
    frequency:   11.7847408297
  - # 17
    frequency:   13.5807687974
  - # 18
    frequency:   13.5850722072
  - # 19
    frequency:   13.7111714401
  - # 20
    frequency:   13.7637447013
  - # 21
    frequency:   14.0330209100
  - # 22
    frequency:   14.1769737673
  - # 23
    frequency:   14.2637210228
  - # 24
    frequency:   31.9250424261
  - # 25
    frequency:   31.9457373808
  - # 26
    frequency:   67.9588553259
  - # 27
    frequency:   67.9605747230

- q-position: [    0.0404040,    0.0000000,    0.0000000 ]
  distance:    0.0141693
  band:
  - # 1
    frequency:   -1.2450951465
  - # 2
    frequency:   -1.2369069039
  - # 3
    frequency:   -0.6583829254
  - # 4
    frequency:   -0.2723951745
  - # 5
    frequency:    0.1594031121
  - # 6
    frequency:    1.4936372952
  - # 7
    frequency:    1.5035650180
  - # 8
    frequency:    5.0197706219
  - # 9
    frequency:    5.0873350660
  - # 10
    frequency:    5.5988803924
  - # 11
    frequency:    7.5075464821
  - # 12
    frequency:    7.5289846900
  - # 13
    frequency:    7.5522424955
  - # 14
    frequency:    7.6174996131
  - # 15
    frequency:    9.0048678841
  - # 16
    frequency:   11.7501492025
  - # 17
    frequency:   13.5835237792
  - # 18
    frequency:   13.5884769525
  - # 19
    frequency:   13.6947875637
  - # 20
    frequency:   13.7586618461
  - # 21
    frequency:   14.0362037774
  - # 22
    frequency:   14.1640011069
  - # 23
    frequency:   14.2679802057
  - # 24
    frequency:   31.9167736191
  - # 25
    frequency:   31.9375978244
  - # 26
    frequency:   67.9549897156
  - # 27
    frequency:   67.9566651102

- q-position: [    0.0454545,    0.0000000,    0.0000000 ]
  distance:    0.0159405
  band:
  - # 1
    frequency:   -1.2897790622
  - # 2
    frequency:   -1.2828173824
  - # 3
    frequency:   -0.6446684710
  - # 4
    frequency:    0.1579312543
  - # 5
    frequency:    0.2275031520
  - # 6
    frequency:    1.6016958027
  - # 7
    frequency:    1.6129715178
  - # 8
    frequency:    5.0075727278
  - # 9
    frequency:    5.0914275263
  - # 10
    frequency:    5.5933377215
  - # 11
    frequency:    7.5054465626
  - # 12
    frequency:    7.5278610230
  - # 13
    frequency:    7.5396728377
  - # 14
    frequency:    7.6172873188
  - # 15
    frequency:    8.9977848637
  - # 16
    frequency:   11.7110009650
  - # 17
    frequency:   13.5866282017
  - # 18
    frequency:   13.5918902380
  - # 19
    frequency:   13.6775930663
  - # 20
    frequency:   13.7530799697
  - # 21
    frequency:   14.0316102920
  - # 22
    frequency:   14.1567574432
  - # 23
    frequency:   14.2725040073
  - # 24
    frequency:   31.9074695966
  - # 25
    frequency:   31.9284380917
  - # 26
    frequency:   67.9506342890
  - # 27
    frequency:   67.9522601645

- q-position: [    0.0505051,    0.0000000,    0.0000000 ]
  distance:    0.0177117
  band:
  - # 1
    frequency:   -1.3282738644
  - # 2
    frequency:   -1.3231434109
  - # 3
    frequency:   -0.6278323035
  - # 4
    frequency:    0.2371760417
  - # 5
    frequency:    0.4065111152
  - # 6
    frequency:    1.7057184548
  - # 7
    frequency:    1.7187622492
  - # 8
    frequency:    4.9944712065
  - # 9
    frequency:    5.0957041945
  - # 10
    frequency:    5.5873365680
  - # 11
    frequency:    7.5028584046
  - # 12
    frequency:    7.5099605448
  - # 13
    frequency:    7.5424351382
  - # 14
    frequency:    7.6173424093
  - # 15
    frequency:    8.9900346849
  - # 16
    frequency:   11.6673205134
  - # 17
    frequency:   13.5900753863
  - # 18
    frequency:   13.5950890669
  - # 19
    frequency:   13.6595530854
  - # 20
    frequency:   13.7470464704
  - # 21
    frequency:   14.0177775283
  - # 22
    frequency:   14.1570355010
  - # 23
    frequency:   14.2772013963
  - # 24
    frequency:   31.8971550073
  - # 25
    frequency:   31.9182821479
  - # 26
    frequency:   67.9457984616
  - # 27
    frequency:   67.9473694302

- q-position: [    0.0555556,    0.0000000,    0.0000000 ]
  distance:    0.0194828
  band:
  - # 1
    frequency:   -1.3610065503
  - # 2
    frequency:   -1.3583325369
  - # 3
    frequency:   -0.6079262594
  - # 4
    frequency:    0.2895314553
  - # 5
    frequency:    0.5499659129
  - # 6
    frequency:    1.8060898925
  - # 7
    frequency:    1.8214643261
  - # 8
    frequency:    4.9806422905
  - # 9
    frequency:    5.1000618073
  - # 10
    frequency:    5.5809389821
  - # 11
    frequency:    7.4870615590
  - # 12
    frequency:    7.4996982261
  - # 13
    frequency:    7.5487957236
  - # 14
    frequency:    7.6177628196
  - # 15
    frequency:    8.9816739878
  - # 16
    frequency:   11.6191376469
  - # 17
    frequency:   13.5938578793
  - # 18
    frequency:   13.5977429568
  - # 19
    frequency:   13.6405584917
  - # 20
    frequency:   13.7406060963
  - # 21
    frequency:   13.9964458048
  - # 22
    frequency:   14.1636157284
  - # 23
    frequency:   14.2819805882
  - # 24
    frequency:   31.8858570634
  - # 25
    frequency:   31.9071565155
  - # 26
    frequency:   67.9404926501
  - # 27
    frequency:   67.9420034662

- q-position: [    0.0606061,    0.0000000,    0.0000000 ]
  distance:    0.0212540
  band:
  - # 1
    frequency:   -1.3887878015
  - # 2
    frequency:   -1.3883388412
  - # 3
    frequency:   -0.5848350975
  - # 4
    frequency:    0.3447557129
  - # 5
    frequency:    0.6730846133
  - # 6
    frequency:    1.9030611582
  - # 7
    frequency:    1.9214778583
  - # 8
    frequency:    4.9662795973
  - # 9
    frequency:    5.1043841909
  - # 10
    frequency:    5.5742119242
  - # 11
    frequency:    7.4615303688
  - # 12
    frequency:    7.4958808252
  - # 13
    frequency:    7.5564333607
  - # 14
    frequency:    7.6186480259
  - # 15
    frequency:    8.9727660492
  - # 16
    frequency:   11.5664887086
  - # 17
    frequency:   13.5979674462
  - # 18
    frequency:   13.5990759420
  - # 19
    frequency:   13.6207366777
  - # 20
    frequency:   13.7337999384
  - # 21
    frequency:   13.9707125966
  - # 22
    frequency:   14.1741395551
  - # 23
    frequency:   14.2867505680
  - # 24
    frequency:   31.8736054334
  - # 25
    frequency:   31.8950901870
  - # 26
    frequency:   67.9347282378
  - # 27
    frequency:   67.9361738112

- q-position: [    0.0656566,    0.0000000,    0.0000000 ]
  distance:    0.0230252
  band:
  - # 1
    frequency:   -1.4148600958
  - # 2
    frequency:   -1.4105589330
  - # 3
    frequency:   -0.5583005361
  - # 4
    frequency:    0.4037714789
  - # 5
    frequency:    0.7849947262
  - # 6
    frequency:    1.9967869096
  - # 7
    frequency:    2.0191112599
  - # 8
    frequency:    4.9515932402
  - # 9
    frequency:    5.1085418254
  - # 10
    frequency:    5.5672265804
  - # 11
    frequency:    7.4336071665
  - # 12
    frequency:    7.4913256199
  - # 13
    frequency:    7.5651529745
  - # 14
    frequency:    7.6200926936
  - # 15
    frequency:    8.9633809488
  - # 16
    frequency:   11.5094179667
  - # 17
    frequency:   13.5925571332
  - # 18
    frequency:   13.6023950585
  - # 19
    frequency:   13.6057423380
  - # 20
    frequency:   13.7266647297
  - # 21
    frequency:   13.9433254812
  - # 22
    frequency:   14.1868349566
  - # 23
    frequency:   14.2914223382
  - # 24
    frequency:   31.8604321282
  - # 25
    frequency:   31.8821145296
  - # 26
    frequency:   67.9285175371
  - # 27
    frequency:   67.9298929457

- q-position: [    0.0707071,    0.0000000,    0.0000000 ]
  distance:    0.0247963
  band:
  - # 1
    frequency:   -1.4368502274
  - # 2
    frequency:   -1.4278794645
  - # 3
    frequency:   -0.5279064474
  - # 4
    frequency:    0.4665945871
  - # 5
    frequency:    0.8896992492
  - # 6
    frequency:    2.0873507755
  - # 7
    frequency:    2.1146038899
  - # 8
    frequency:    4.9368085520
  - # 9
    frequency:    5.1123915130
  - # 10
    frequency:    5.5600575262
  - # 11
    frequency:    7.4033824057
  - # 12
    frequency:    7.4859624533
  - # 13
    frequency:    7.5749091889
  - # 14
    frequency:    7.6221805710
  - # 15
    frequency:    8.9535956987
  - # 16
    frequency:   11.4479792545
  - # 17
    frequency:   13.5696437432
  - # 18
    frequency:   13.6030392261
  - # 19
    frequency:   13.6071308627
  - # 20
    frequency:   13.7192324170
  - # 21
    frequency:   13.9165174921
  - # 22
    frequency:   14.2006560452
  - # 23
    frequency:   14.2959099236
  - # 24
    frequency:   31.8463713781
  - # 25
    frequency:   31.8682631812
  - # 26
    frequency:   67.9218737494
  - # 27
    frequency:   67.9231742512

- q-position: [    0.0757576,    0.0000000,    0.0000000 ]
  distance:    0.0265675
  band:
  - # 1
    frequency:   -1.4550137460
  - # 2
    frequency:   -1.4404363645
  - # 3
    frequency:   -0.4930242951
  - # 4
    frequency:    0.5330595789
  - # 5
    frequency:    0.9893102958
  - # 6
    frequency:    2.1747836267
  - # 7
    frequency:    2.2081407091
  - # 8
    frequency:    4.9221643124
  - # 9
    frequency:    5.1157762335
  - # 10
    frequency:    5.5527817165
  - # 11
    frequency:    7.3709335691
  - # 12
    frequency:    7.4797359232
  - # 13
    frequency:    7.5856698260
  - # 14
    frequency:    7.6249798721
  - # 15
    frequency:    8.9434943023
  - # 16
    frequency:   11.3822378876
  - # 17
    frequency:   13.5410180441
  - # 18
    frequency:   13.6007820610
  - # 19
    frequency:   13.6121641149
  - # 20
    frequency:   13.7115299744
  - # 21
    frequency:   13.8921697687
  - # 22
    frequency:   14.2150011542
  - # 23
    frequency:   14.3001311747
  - # 24
    frequency:   31.8314595031
  - # 25
    frequency:   31.8535719373
  - # 26
    frequency:   67.9148109218
  - # 27
    frequency:   67.9160319661

- q-position: [    0.0808081,    0.0000000,    0.0000000 ]
  distance:    0.0283387
  band:
  - # 1
    frequency:   -1.4695660500
  - # 2
    frequency:   -1.4482870277
  - # 3
    frequency:   -0.4526945968
  - # 4
    frequency:    0.6029287716
  - # 5
    frequency:    1.0850773412
  - # 6
    frequency:    2.2590775716
  - # 7
    frequency:    2.2998616277
  - # 8
    frequency:    4.9079103615
  - # 9
    frequency:    5.1185252951
  - # 10
    frequency:    5.5454772794
  - # 11
    frequency:    7.3363507478
  - # 12
    frequency:    7.4726074398
  - # 13
    frequency:    7.5973909832
  - # 14
    frequency:    7.6285409544
  - # 15
    frequency:    8.9331676985
  - # 16
    frequency:   11.3122728723
  - # 17
    frequency:   13.5076422148
  - # 18
    frequency:   13.5970021002
  - # 19
    frequency:   13.6174830393
  - # 20
    frequency:   13.7035794518
  - # 21
    frequency:   13.8717764174
  - # 22
    frequency:   14.2295070290
  - # 23
    frequency:   14.3040084117
  - # 24
    frequency:   31.8157347774
  - # 25
    frequency:   31.8380786319
  - # 26
    frequency:   67.9073439019
  - # 27
    frequency:   67.9084811404

- q-position: [    0.0858586,    0.0000000,    0.0000000 ]
  distance:    0.0301098
  band:
  - # 1
    frequency:   -1.4806869494
  - # 2
    frequency:   -1.4514075674
  - # 3
    frequency:   -0.4053712876
  - # 4
    frequency:    0.6759232383
  - # 5
    frequency:    1.1777977744
  - # 6
    frequency:    2.3401974175
  - # 7
    frequency:    2.3898671117
  - # 8
    frequency:    4.8943044715
  - # 9
    frequency:    5.1204549123
  - # 10
    frequency:    5.5382221045
  - # 11
    frequency:    7.2997452118
  - # 12
    frequency:    7.4645549439
  - # 13
    frequency:    7.6100095202
  - # 14
    frequency:    7.6328963621
  - # 15
    frequency:    8.9227135350
  - # 16
    frequency:   11.2381794243
  - # 17
    frequency:   13.4691141466
  - # 18
    frequency:   13.5915444434
  - # 19
    frequency:   13.6230744971
  - # 20
    frequency:   13.6953983261
  - # 21
    frequency:   13.8562604283
  - # 22
    frequency:   14.2439391523
  - # 23
    frequency:   14.3074689441
  - # 24
    frequency:   31.7992372881
  - # 25
    frequency:   31.8218230085
  - # 26
    frequency:   67.8994882895
  - # 27
    frequency:   67.9005375865

- q-position: [    0.0909091,    0.0000000,    0.0000000 ]
  distance:    0.0318810
  band:
  - # 1
    frequency:   -1.4885244809
  - # 2
    frequency:   -1.4496892161
  - # 3
    frequency:   -0.3482994342
  - # 4
    frequency:    0.7517372949
  - # 5
    frequency:    1.2680084521
  - # 6
    frequency:    2.4180907243
  - # 7
    frequency:    2.4782209731
  - # 8
    frequency:    4.8816083593
  - # 9
    frequency:    5.1213693616
  - # 10
    frequency:    5.5310922396
  - # 11
    frequency:    7.2612538369
  - # 12
    frequency:    7.4555708646
  - # 13
    frequency:    7.6234400760
  - # 14
    frequency:    7.6380626624
  - # 15
    frequency:    8.9122357024
  - # 16
    frequency:   11.1600718097
  - # 17
    frequency:   13.4252872315
  - # 18
    frequency:   13.5846220384
  - # 19
    frequency:   13.6289231218
  - # 20
    frequency:   13.6870004633
  - # 21
    frequency:   13.8458549440
  - # 22
    frequency:   14.2581359302
  - # 23
    frequency:   14.3104455008
  - # 24
    frequency:   31.7820087890
  - # 25
    frequency:   31.8048465854
  - # 26
    frequency:   67.8912603869
  - # 27
    frequency:   67.8922178287

- q-position: [    0.0959596,    0.0000000,    0.0000000 ]
  distance:    0.0336522
  band:
  - # 1
    frequency:   -1.4931979910
  - # 2
    frequency:   -1.4429338086
  - # 3
    frequency:   -0.2755915368
  - # 4
    frequency:    0.8300485332
  - # 5
    frequency:    1.3560853982
  - # 6
    frequency:    2.4926971903
  - # 7
    frequency:    2.5649508701
  - # 8
    frequency:    4.8700827442
  - # 9
    frequency:    5.1210628819
  - # 10
    frequency:    5.5241601666
  - # 11
    frequency:    7.2210421553
  - # 12
    frequency:    7.4456591815
  - # 13
    frequency:    7.6375737976
  - # 14
    frequency:    7.6440432144
  - # 15
    frequency:    8.9018435456
  - # 16
    frequency:   11.0780865330
  - # 17
    frequency:   13.3764005364
  - # 18
    frequency:   13.5766171753
  - # 19
    frequency:   13.6350085797
  - # 20
    frequency:   13.6783989996
  - # 21
    frequency:   13.8401997804
  - # 22
    frequency:   14.2719796702
  - # 23
    frequency:   14.3128765918
  - # 24
    frequency:   31.7640925511
  - # 25
    frequency:   31.7871925135
  - # 26
    frequency:   67.8826771467
  - # 27
    frequency:   67.8835390513

- q-position: [    0.1010101,    0.0000000,    0.0000000 ]
  distance:    0.0354233
  band:
  - # 1
    frequency:   -1.4948005776
  - # 2
    frequency:   -1.4308478803
  - # 3
    frequency:   -0.1682258853
  - # 4
    frequency:    0.9105262646
  - # 5
    frequency:    1.4423000581
  - # 6
    frequency:    2.5639578329
  - # 7
    frequency:    2.6500467733
  - # 8
    frequency:    4.8599814079
  - # 9
    frequency:    5.1193224895
  - # 10
    frequency:    5.5174931056
  - # 11
    frequency:    7.1793067512
  - # 12
    frequency:    7.4348323796
  - # 13
    frequency:    7.6508310873
  - # 14
    frequency:    7.6522779521
  - # 15
    frequency:    8.8916506539
  - # 16
    frequency:   10.9923858946
  - # 17
    frequency:   13.3229729891
  - # 18
    frequency:   13.5679446105
  - # 19
    frequency:   13.6412937091
  - # 20
    frequency:   13.6696183652
  - # 21
    frequency:   13.8385989158
  - # 22
    frequency:   14.2853808979
  - # 23
    frequency:   14.3147068232
  - # 24
    frequency:   31.7455332097
  - # 25
    frequency:   31.7689054272
  - # 26
    frequency:   67.8737561187
  - # 27
    frequency:   67.8745190435

- q-position: [    0.1060606,    0.0000000,    0.0000000 ]
  distance:    0.0371945
  band:
  - # 1
    frequency:   -1.4934009899
  - # 2
    frequency:   -1.4130343033
  - # 3
    frequency:    0.1468952828
  - # 4
    frequency:    0.9928389527
  - # 5
    frequency:    1.5268530678
  - # 6
    frequency:    2.6318242095
  - # 7
    frequency:    2.7334574530
  - # 8
    frequency:    4.8515442992
  - # 9
    frequency:    5.1159318948
  - # 10
    frequency:    5.5111515971
  - # 11
    frequency:    7.1362771335
  - # 12
    frequency:    7.4231088099
  - # 13
    frequency:    7.6584116188
  - # 14
    frequency:    7.6673961175
  - # 15
    frequency:    8.8817731159
  - # 16
    frequency:   10.9031619611
  - # 17
    frequency:   13.2656464023
  - # 18
    frequency:   13.5589617026
  - # 19
    frequency:   13.6476270180
  - # 20
    frequency:   13.6607919530
  - # 21
    frequency:   13.8402752430
  - # 22
    frequency:   14.2982695412
  - # 23
    frequency:   14.3158871776
  - # 24
    frequency:   31.7263766094
  - # 25
    frequency:   31.7500312896
  - # 26
    frequency:   67.8645153938
  - # 27
    frequency:   67.8651761449

- q-position: [    0.1111111,    0.0000000,    0.0000000 ]
  distance:    0.0389657
  band:
  - # 1
    frequency:   -1.4890450778
  - # 2
    frequency:   -1.3889795394
  - # 3
    frequency:    0.2713294098
  - # 4
    frequency:    1.0766605871
  - # 5
    frequency:    1.6098955423
  - # 6
    frequency:    2.6962677080
  - # 7
    frequency:    2.8150848768
  - # 8
    frequency:    4.8449898410
  - # 9
    frequency:    5.1106767557
  - # 10
    frequency:    5.5051887165
  - # 11
    frequency:    7.0922169672
  - # 12
    frequency:    7.4105106805
  - # 13
    frequency:    7.6667643937
  - # 14
    frequency:    7.6827488056
  - # 15
    frequency:    8.8723271112
  - # 16
    frequency:   10.8106410058
  - # 17
    frequency:   13.2050685423
  - # 18
    frequency:   13.5499356859
  - # 19
    frequency:   13.6498961750
  - # 20
    frequency:   13.6560087840
  - # 21
    frequency:   13.8445244750
  - # 22
    frequency:   14.3105897997
  - # 23
    frequency:   14.3163752686
  - # 24
    frequency:   31.7066696482
  - # 25
    frequency:   31.7306172312
  - # 26
    frequency:   67.8549735479
  - # 27
    frequency:   67.8555291883

- q-position: [    0.1161616,    0.0000000,    0.0000000 ]
  distance:    0.0407368
  band:
  - # 1
    frequency:   -1.4817568638
  - # 2
    frequency:   -1.3580333275
  - # 3
    frequency:    0.3574313942
  - # 4
    frequency:    1.1616758427
  - # 5
    frequency:    1.6915430336
  - # 6
    frequency:    2.7572887346
  - # 7
    frequency:    2.8947762501
  - # 8
    frequency:    4.8405067496
  - # 9
    frequency:    5.1033516271
  - # 10
    frequency:    5.4996503256
  - # 11
    frequency:    7.0474243922
  - # 12
    frequency:    7.3970626965
  - # 13
    frequency:    7.6758646288
  - # 14
    frequency:    7.6981344164
  - # 15
    frequency:    8.8634256956
  - # 16
    frequency:   10.7150885063
  - # 17
    frequency:   13.1418344017
  - # 18
    frequency:   13.5410487680
  - # 19
    frequency:   13.6412256924
  - # 20
    frequency:   13.6621159634
  - # 21
    frequency:   13.8507710237
  - # 22
    frequency:   14.3161355756
  - # 23
    frequency:   14.3222970681
  - # 24
    frequency:   31.6864601200
  - # 25
    frequency:   31.7107113842
  - # 26
    frequency:   67.8451495831
  - # 27
    frequency:   67.8455974435

- q-position: [    0.1212121,    0.0000000,    0.0000000 ]
  distance:    0.0425080
  band:
  - # 1
    frequency:   -1.4715392894
  - # 2
    frequency:   -1.3193755579
  - # 3
    frequency:    0.4288598157
  - # 4
    frequency:    1.2475839263
  - # 5
    frequency:    1.7718849806
  - # 6
    frequency:    2.8149254226
  - # 7
    frequency:    2.9723132800
  - # 8
    frequency:    4.8382458319
  - # 9
    frequency:    5.0937692109
  - # 10
    frequency:    5.4945767230