nqpoint: 300    
npath: 3      
segment_nqpoint:
- 100
- 100
- 100
labels:
- [ 'G', 'M' ]
- [ 'M', 'K' ]
- [ 'K', 'G' ]
reciprocal_lattice:
- [   0.29463330,   0.17010662,   0.00000000 ] # a*
- [   0.00000000,   0.34021324,   0.00000000 ] # b*
- [   0.00000000,   0.00000000,   0.04062616 ] # c*
natom: 6      
lattice:
- [     3.394049435265155,     0.000000000000000,     0.000000000000000 ] # a
- [    -1.697024717632578,     2.939333032632306,     0.000000000000000 ] # b
- [     0.000000000000000,     0.000000000000000,    24.614681125502539 ] # c
points:
- symbol: C # 1
  coordinates: [  0.000000000000000,  0.000000000000000,  0.483077014291736 ]
  mass: 12.010700
- symbol: Cl # 2
  coordinates: [  0.666666984744047,  0.333332985985144,  0.365635449596597 ]
  mass: 35.453000
- symbol: Hf # 3
  coordinates: [  0.333332985432215,  0.666666983183674,  0.438636517314259 ]
  mass: 178.490000
- symbol: Hf # 4
  coordinates: [  0.666666984744047,  0.333332985985144,  0.541802177174468 ]
  mass: 178.490000
- symbol: N # 5
  coordinates: [  0.333332985432215,  0.666666983183674,  0.579682233963946 ]
  mass: 14.006700
- symbol: O # 6
  coordinates: [  0.333332985432215,  0.666666983183674,  0.634364550403403 ]
  mass: 15.999400

phonon:
- q-position: [    0.0000000,    0.0000000,    0.0000000 ]
  distance:    0.0000000
  band:
  - # 1
    frequency:   -5.7474300342
  - # 2
    frequency:   -5.7474300342
  - # 3
    frequency:   -0.0000138359
  - # 4
    frequency:    0.0000001012
  - # 5
    frequency:    0.0000113937
  - # 6
    frequency:    2.6479197546
  - # 7
    frequency:    2.6479197546
  - # 8
    frequency:    4.3650537544
  - # 9
    frequency:    4.5624097145
  - # 10
    frequency:    4.5624097146
  - # 11
    frequency:    8.1090813863
  - # 12
    frequency:    8.4077880359
  - # 13
    frequency:   10.7448307052
  - # 14
    frequency:   10.7448307053
  - # 15
    frequency:   15.8902456978
  - # 16
    frequency:   15.8902456979
  - # 17
    frequency:   16.1447726458
  - # 18
    frequency:   37.0164498307

- q-position: [    0.0050505,    0.0000000,    0.0000000 ]
  distance:    0.0017182
  band:
  - # 1
    frequency:   -5.7481053706
  - # 2
    frequency:   -5.7470863694
  - # 3
    frequency:    0.0015600955
  - # 4
    frequency:    0.0526709633
  - # 5
    frequency:    0.0910748163
  - # 6
    frequency:    2.6482477599
  - # 7
    frequency:    2.6491040533
  - # 8
    frequency:    4.3646376129
  - # 9
    frequency:    4.5626511345
  - # 10
    frequency:    4.5636787149
  - # 11
    frequency:    8.1083358068
  - # 12
    frequency:    8.4071592820
  - # 13
    frequency:   10.7446034004
  - # 14
    frequency:   10.7448437859
  - # 15
    frequency:   15.8897170629
  - # 16
    frequency:   15.8897947747
  - # 17
    frequency:   16.1453265784
  - # 18
    frequency:   37.0159039809

- q-position: [    0.0101010,    0.0000000,    0.0000000 ]
  distance:    0.0034365
  band:
  - # 1
    frequency:   -5.7501299149
  - # 2
    frequency:   -5.7460535641
  - # 3
    frequency:    0.0062299954
  - # 4
    frequency:    0.1053277025
  - # 5
    frequency:    0.1820712535
  - # 6
    frequency:    2.6492311931
  - # 7
    frequency:    2.6526472211
  - # 8
    frequency:    4.3634199645
  - # 9
    frequency:    4.5633750271
  - # 10
    frequency:    4.5674539625
  - # 11
    frequency:    8.1060997184
  - # 12
    frequency:    8.4052793193
  - # 13
    frequency:   10.7439236870
  - # 14
    frequency:   10.7448831899
  - # 15
    frequency:   15.8881327471
  - # 16
    frequency:   15.8884605706
  - # 17
    frequency:   16.1469706351
  - # 18
    frequency:   37.0142670821

- q-position: [    0.0151515,    0.0000000,    0.0000000 ]
  distance:    0.0051547
  band:
  - # 1
    frequency:   -5.7534992684
  - # 2
    frequency:   -5.7443261821
  - # 3
    frequency:    0.0139799557
  - # 4
    frequency:    0.1579559904
  - # 5
    frequency:    0.2729108363
  - # 6
    frequency:    2.6508683103
  - # 7
    frequency:    2.6585203960
  - # 8
    frequency:    4.3614859518
  - # 9
    frequency:    4.5645802915
  - # 10
    frequency:    4.5736473732
  - # 11
    frequency:    8.1023752471
  - # 12
    frequency:    8.4021667904
  - # 13
    frequency:   10.7427981523
  - # 14
    frequency:   10.7449494705
  - # 15
    frequency:   15.8854975142
  - # 16
    frequency:   15.8862965842
  - # 17
    frequency:   16.1496537724
  - # 18
    frequency:   37.0115410851

- q-position: [    0.0202020,    0.0000000,    0.0000000 ]
  distance:    0.0068730
  band:
  - # 1
    frequency:   -5.7582060876
  - # 2
    frequency:   -5.7418951509
  - # 3
    frequency:    0.0247612174
  - # 4
    frequency:    0.2105415879
  - # 5
    frequency:    0.3635149041
  - # 6
    frequency:    2.6531562199
  - # 7
    frequency:    2.6666765315
  - # 8
    frequency:    4.3589569636
  - # 9
    frequency:    4.5662650933
  - # 10
    frequency:    4.5821326253
  - # 11
    frequency:    8.0971665138
  - # 12
    frequency:    8.3978519295
  - # 13
    frequency:   10.7412377217
  - # 14
    frequency:   10.7450437737
  - # 15
    frequency:   15.8818192908
  - # 16
    frequency:   15.8833852537
  - # 17
    frequency:   16.1532975886
  - # 18
    frequency:   37.0077292378

- q-position: [    0.0252525,    0.0000000,    0.0000000 ]
  distance:    0.0085912
  band:
  - # 1
    frequency:   -5.7642400666
  - # 2
    frequency:   -5.7387477442
  - # 3
    frequency:    0.0385075403
  - # 4
    frequency:    0.2630702391
  - # 5
    frequency:    0.4538045208
  - # 6
    frequency:    2.6560909034
  - # 7
    frequency:    2.6770519029
  - # 8
    frequency:    4.3559692516
  - # 9
    frequency:    4.5684268661
  - # 10
    frequency:    4.5927664993
  - # 11
    frequency:    8.0904804685
  - # 12
    frequency:    8.3923753481
  - # 13
    frequency:   10.7392575774
  - # 14
    frequency:   10.7451681625
  - # 15
    frequency:   15.8771091472
  - # 16
    frequency:   15.8798296848
  - # 17
    frequency:   16.1578045140
  - # 18
    frequency:   37.0028360802

- q-position: [    0.0303030,    0.0000000,    0.0000000 ]
  distance:    0.0103095
  band:
  - # 1
    frequency:   -5.7715879138
  - # 2
    frequency:   -5.7348675599
  - # 3
    frequency:    0.0551370529
  - # 4
    frequency:    0.3155276624
  - # 5
    frequency:    0.5437003915
  - # 6
    frequency:    2.6596672457
  - # 7
    frequency:    2.6895680703
  - # 8
    frequency:    4.3526561031
  - # 9
    frequency:    4.5710623131
  - # 10
    frequency:    4.6054066454
  - # 11
    frequency:    8.0823279910
  - # 12
    frequency:    8.3857864188
  - # 13
    frequency:   10.7368770481
  - # 14
    frequency:   10.7453260489
  - # 15
    frequency:   15.8713812699
  - # 16
    frequency:   15.8757448767
  - # 17
    frequency:   16.1630664746
  - # 18
    frequency:   36.9968674368

- q-position: [    0.0353535,    0.0000000,    0.0000000 ]
  distance:    0.0120277
  band:
  - # 1
    frequency:   -5.7802333232
  - # 2
    frequency:   -5.7302344925
  - # 3
    frequency:    0.0745544099
  - # 4
    frequency:    0.3678995403
  - # 5
    frequency:    0.6331227877
  - # 6
    frequency:    2.6638790713
  - # 7
    frequency:    2.7041341721
  - # 8
    frequency:    4.3491366202
  - # 9
    frequency:    4.5741674090
  - # 10
    frequency:    4.6199227325
  - # 11
    frequency:    8.0727251894
  - # 12
    frequency:    8.3781413420
  - # 13
    frequency:   10.7341194663
  - # 14
    frequency:   10.7455227144
  - # 15
    frequency:   15.8646529270
  - # 16
    frequency:   15.8712498766
  - # 17
    frequency:   16.1689726032
  - # 18
    frequency:   36.9898304077

- q-position: [    0.0404040,    0.0000000,    0.0000000 ]
  distance:    0.0137460
  band:
  - # 1
    frequency:   -5.7901569434
  - # 2
    frequency:   -5.7248247054
  - # 3
    frequency:    0.0966531276
  - # 4
    frequency:    0.4201715066
  - # 5
    frequency:    0.7219914833
  - # 6
    frequency:    2.6687191882
  - # 7
    frequency:    2.7206494152
  - # 8
    frequency:    4.3455107809
  - # 9
    frequency:    4.5777374026
  - # 10
    frequency:    4.6362013041
  - # 11
    frequency:    8.0616948031
  - # 12
    frequency:    8.3695010068
  - # 13
    frequency:   10.7310119982
  - # 14
    frequency:   10.7457658954
  - # 15
    frequency:   15.8569444249
  - # 16
    frequency:   15.8664616411
  - # 17
    frequency:   16.1754152223
  - # 18
    frequency:   36.9817333574

- q-position: [    0.0454545,    0.0000000,    0.0000000 ]
  distance:    0.0154642
  band:
  - # 1
    frequency:   -5.8013363447
  - # 2
    frequency:   -5.7186106020
  - # 3
    frequency:    0.1213179727
  - # 4
    frequency:    0.4723291313
  - # 5
    frequency:    0.8102257056
  - # 6
    frequency:    2.6741794378
  - # 7
    frequency:    2.7390056293
  - # 8
    frequency:    4.3418589050
  - # 9
    frequency:    4.5817668202
  - # 10
    frequency:    4.6541462233
  - # 11
    frequency:    8.0492676018
  - # 12
    frequency:    8.3599287728
  - # 13
    frequency:   10.7275854448
  - # 14
    frequency:   10.7460664071
  - # 15
    frequency:   15.8482790577
  - # 16
    frequency:   15.8614907806
  - # 17
    frequency:   16.1822939309
  - # 18
    frequency:   36.9725859014

- q-position: [    0.0505051,    0.0000000,    0.0000000 ]
  distance:    0.0171825
  band:
  - # 1
    frequency:   -5.8137459872
  - # 2
    frequency:   -5.7115608003
  - # 3
    frequency:    0.1484272952
  - # 4
    frequency:    0.5243579024
  - # 5
    frequency:    0.8977441046
  - # 6
    frequency:    2.6802507489
  - # 7
    frequency:    2.7590897676
  - # 8
    frequency:    4.3382435577
  - # 9
    frequency:    4.5862494692
  - # 10
    frequency:    4.6736766773
  - # 11
    frequency:    8.0354836604
  - # 12
    frequency:    8.3494883152
  - # 13
    frequency:   10.7238740181
  - # 14
    frequency:   10.7464387813
  - # 15
    frequency:   15.8386830479
  - # 16
    frequency:   15.8564389668
  - # 17
    frequency:   16.1895180176
  - # 18
    frequency:   36.9623988910

- q-position: [    0.0555556,    0.0000000,    0.0000000 ]
  distance:    0.0189007
  band:
  - # 1
    frequency:   -5.8273571919
  - # 2
    frequency:   -5.7036401133
  - # 3
    frequency:    0.1778552147
  - # 4
    frequency:    0.5762432064
  - # 5
    frequency:    0.9844647481
  - # 6
    frequency:    2.6869231967
  - # 7
    frequency:    2.7807862539
  - # 8
    frequency:    4.3347124483
  - # 9
    frequency:    4.5911784423
  - # 10
    frequency:    4.6947241866
  - # 11
    frequency:    8.0203933927
  - # 12
    frequency:    8.3382416651
  - # 13
    frequency:   10.7199150928
  - # 14
    frequency:   10.7469018905
  - # 15
    frequency:   15.8281854795
  - # 16
    frequency:   15.8513976153
  - # 17
    frequency:   16.1970075965
  - # 18
    frequency:   36.9511843963

- q-position: [    0.0606061,    0.0000000,    0.0000000 ]
  distance:    0.0206190
  band:
  - # 1
    frequency:   -5.8421381164
  - # 2
    frequency:   -5.6948095367
  - # 3
    frequency:    0.2094735980
  - # 4
    frequency:    0.6279703051
  - # 5
    frequency:    1.0703051452
  - # 6
    frequency:    2.6941860638
  - # 7
    frequency:    2.8039791039
  - # 8
    frequency:    4.3313014732
  - # 9
    frequency:    4.5965461227
  - # 10
    frequency:    4.7172294767
  - # 11
    frequency:    8.0040582436
  - # 12
    frequency:    8.3262475657
  - # 13
    frequency:   10.7157489366
  - # 14
    frequency:   10.7474795362
  - # 15
    frequency:   15.8168182223
  - # 16
    frequency:   15.8464474475
  - # 17
    frequency:   16.2046938658
  - # 18
    frequency:   36.9389556875

- q-position: [    0.0656566,    0.0000000,    0.0000000 ]
  distance:    0.0223372
  band:
  - # 1
    frequency:   -5.8580537398
  - # 2
    frequency:   -5.6850262504
  - # 3
    frequency:    0.2431537866
  - # 4
    frequency:    0.6795243124
  - # 5
    frequency:    1.1551823096
  - # 6
    frequency:    2.7020279041
  - # 7
    frequency:    2.8285537667
  - # 8
    frequency:    4.3280374804
  - # 9
    frequency:    4.6023441899
  - # 10
    frequency:    4.7411396370
  - # 11
    frequency:    7.9865509696
  - # 12
    frequency:    8.3135602285
  - # 13
    frequency:   10.7114184211
  - # 14
    frequency:   10.7482009793
  - # 15
    frequency:   15.8046158480
  - # 16
    frequency:   15.8416586009
  - # 17
    frequency:   16.2125188265
  - # 18
    frequency:   36.9257272137

- q-position: [    0.0707071,    0.0000000,    0.0000000 ]
  distance:    0.0240555
  band:
  - # 1
    frequency:   -5.8750658574
  - # 2
    frequency:   -5.6742436330
  - # 3
    frequency:    0.2787680566
  - # 4
    frequency:    0.7308901681
  - # 5
    frequency:    1.2390128668
  - # 6
    frequency:    2.7104366067
  - # 7
    frequency:    2.8543986594
  - # 8
    frequency:    4.3249406008
  - # 9
    frequency:    4.6085636264
  - # 10
    frequency:    4.7664057270
  - # 11
    frequency:    7.9679554759
  - # 12
    frequency:    8.3002285313
  - # 13
    frequency:   10.7069687166
  - # 14
    frequency:   10.7491013946
  - # 15
    frequency:   15.7916155382
  - # 16
    frequency:   15.8370910484
  - # 17
    frequency:   16.2204347048
  - # 18
    frequency:   36.9115145805

- q-position: [    0.0757576,    0.0000000,    0.0000000 ]
  distance:    0.0257737
  band:
  - # 1
    frequency:   -5.8931330884
  - # 2
    frequency:   -5.6624112957
  - # 3
    frequency:    0.3161908111
  - # 4
    frequency:    0.7820526126
  - # 5
    frequency:    1.3217132179
  - # 6
    frequency:    2.7193994602
  - # 7
    frequency:    2.8814063811
  - # 8
    frequency:    4.3220261254
  - # 9
    frequency:    4.6151947248
  - # 10
    frequency:    4.7929808546
  - # 11
    frequency:    7.9483662207
  - # 12
    frequency:    8.2862956594
  - # 13
    frequency:   10.7024469722
  - # 14
    frequency:   10.7502222351
  - # 15
    frequency:   15.7778569830
  - # 16
    frequency:   15.8327951674
  - # 17
    frequency:   16.2284032426
  - # 18
    frequency:   36.8963345257

- q-position: [    0.0808081,    0.0000000,    0.0000000 ]
  distance:    0.0274920
  band:
  - # 1
    frequency:   -5.9122109003
  - # 2
    frequency:   -5.6494751369
  - # 3
    frequency:    0.3552995190
  - # 4
    frequency:    0.8329961609
  - # 5
    frequency:    1.4031997674
  - # 6
    frequency:    2.7289032155
  - # 7
    frequency:    2.9094746075
  - # 8
    frequency:    4.3193059723
  - # 9
    frequency:    4.6222270972
  - # 10
    frequency:    4.8208186856
  - # 11
    frequency:    7.9278872351
  - # 12
    frequency:    8.2717991451
  - # 13
    frequency:   10.6979019860
  - # 14
    frequency:   10.7516114957
  - # 15
    frequency:   15.7633822721
  - # 16
    frequency:   15.8288123607
  - # 17
    frequency:   16.2363949566
  - # 18
    frequency:   36.8802048937

- q-position: [    0.0858586,    0.0000000,    0.0000000 ]
  distance:    0.0292102
  band:
  - # 1
    frequency:   -5.9322516500
  - # 2
    frequency:   -5.6353774209
  - # 3
    frequency:    0.3959754219
  - # 4
    frequency:    0.8837050775
  - # 5
    frequency:    1.4833892266
  - # 6
    frequency:    2.7389341463
  - # 7
    frequency:    2.9385066789
  - # 8
    frequency:    4.3167898074
  - # 9
    frequency:    4.6296496845
  - # 10
    frequency:    4.8498723239
  - # 11
    frequency:    7.9066308329
  - # 12
    frequency:    8.2567712380
  - # 13
    frequency:   10.6933838674
  - # 14
    frequency:   10.7533238699
  - # 15
    frequency:   15.7482357761
  - # 16
    frequency:   15.8251756769
  - # 17
    frequency:   16.2443884219
  - # 18
    frequency:   36.8631446072

- q-position: [    0.0909091,    0.0000000,    0.0000000 ]
  distance:    0.0309285
  band:
  - # 1
    frequency:   -5.9532046467
  - # 2
    frequency:   -5.6200568837
  - # 3
    frequency:    0.4381040387
  - # 4
    frequency:    0.9341633537
  - # 5
    frequency:    1.5621990030
  - # 6
    frequency:    2.7494781080
  - # 7
    frequency:    2.9684118970
  - # 8
    frequency:    4.3144858842
  - # 9
    frequency:    4.6374507676
  - # 10
    frequency:    4.8800934996
  - # 11
    frequency:    7.8847160979
  - # 12
    frequency:    8.2412395163
  - # 13
    frequency:   10.6889436944
  - # 14
    frequency:   10.7554207955
  - # 15
    frequency:   15.7324640198
  - # 16
    frequency:   15.8219104024
  - # 17
    frequency:   16.2523696076
  - # 18
    frequency:   36.8451736390

- q-position: [    0.0959596,    0.0000000,    0.0000000 ]
  distance:    0.0326467
  band:
  - # 1
    frequency:   -5.9750162363
  - # 2
    frequency:   -5.6034488679
  - # 3
    frequency:    0.4815754956
  - # 4
    frequency:    0.9843546865
  - # 5
    frequency:    1.6395476847
  - # 6
    frequency:    2.7605205910
  - # 7
    frequency:    2.9991055526
  - # 8
    frequency:    4.3124016616
  - # 9
    frequency:    4.6456179805
  - # 10
    frequency:    4.9114320059
  - # 11
    frequency:    7.8622672405
  - # 12
    frequency:    8.2252276511
  - # 13
    frequency:   10.6846331702
  - # 14
    frequency:   10.7579703894
  - # 15
    frequency:   15.7161155467
  - # 16
    frequency:   15.8190346156
  - # 17
    frequency:   16.2603312764
  - # 18
    frequency:   36.8263129810

- q-position: [    0.1010101,    0.0000000,    0.0000000 ]
  distance:    0.0343650
  band:
  - # 1
    frequency:   -5.9976299099
  - # 2
    frequency:   -5.5854854877
  - # 3
    frequency:    0.5262847132
  - # 4
    frequency:    1.0342624615
  - # 5
    frequency:    1.7153556280
  - # 6
    frequency:    2.7720467716
  - # 7
    frequency:    3.0305087070
  - # 8
    frequency:    4.3105442477
  - # 9
    frequency:    4.6541383243
  - # 10
    frequency:    4.9438353391
  - # 11
    frequency:    7.8394118998
  - # 12
    frequency:    8.2087562429
  - # 13
    frequency:   10.6805042817
  - # 14
    frequency:   10.7610472741
  - # 15
    frequency:   15.6992407744
  - # 16
    frequency:   15.8165597036
  - # 17
    frequency:   16.2682724458
  - # 18
    frequency:   36.8065846124

- q-position: [    0.1060606,    0.0000000,    0.0000000 ]
  distance:    0.0360832
  band:
  - # 1
    frequency:   -6.0209864375
  - # 2
    frequency:   -5.5660958276
  - # 3
    frequency:    0.5721314765
  - # 4
    frequency:    1.0838697399
  - # 5
    frequency:    1.7895456524
  - # 6
    frequency:    2.7840415572
  - # 7
    frequency:    3.0625477537
  - # 8
    frequency:    4.3089207108
  - # 9
    frequency:    4.6629981835
  - # 10
    frequency:    4.9772484993
  - # 11
    frequency:    7.8162794597
  - # 12
    frequency:    8.1918436628
  - # 13
    frequency:   10.6766089623
  - # 14
    frequency:   10.7647323012
  - # 15
    frequency:   15.6818918422
  - # 16
    frequency:   15.8144908423
  - # 17
    frequency:   16.2761979086
  - # 18
    frequency:   36.7860114665

- q-position: [    0.1111111,    0.0000000,    0.0000000 ]
  distance:    0.0378015
  band:
  - # 1
    frequency:   -6.0450240275
  - # 2
    frequency:   -5.5452061722
  - # 3
    frequency:    0.6190204135
  - # 4
    frequency:    1.1331592495
  - # 5
    frequency:    1.8620438434
  - # 6
    frequency:    2.7964896269
  - # 7
    frequency:    3.0951537871
  - # 8
    frequency:    4.3075382872
  - # 9
    frequency:    4.6721833446
  - # 10
    frequency:    5.0116139207
  - # 11
    frequency:    7.7929994207
  - # 12
    frequency:    8.1745068515
  - # 13
    frequency:   10.6729987639
  - # 14
    frequency:   10.7691121768
  - # 15
    frequency:   15.6641224489
  - # 16
    frequency:   15.8128274474
  - # 17
    frequency:   16.2841178037
  - # 18
    frequency:   36.7646173964

- q-position: [    0.1161616,    0.0000000,    0.0000000 ]
  distance:    0.0395197
  band:
  - # 1
    frequency:   -6.0696785124
  - # 2
    frequency:   -5.5227402709
  - # 3
    frequency:    0.6668609039
  - # 4
    frequency:    1.1821133820
  - # 5
    frequency:    1.9327804566
  - # 6
    frequency:    2.8093754664
  - # 7
    frequency:    3.1282618103
  - # 8
    frequency:    4.3064045108
  - # 9
    frequency:    4.6816790163
  - # 10
    frequency:    5.0468715049
  - # 11
    frequency:    7.7696998605
  - # 12
    frequency:    8.1567620448
  - # 13
    frequency:   10.6697245390
  - # 14
    frequency:   10.7742789977
  - # 15
    frequency:   15.6459876839
  - # 16
    frequency:   15.8115635997
  - # 17
    frequency:   16.2920472293
  - # 18
    frequency:   36.7424271396

- q-position: [    0.1212121,    0.0000000,    0.0000000 ]
  distance:    0.0412380
  band:
  - # 1
    frequency:   -6.0948835610
  - # 2
    frequency:   -5.4986196328
  - # 3
    frequency:    0.7155669349
  - # 4
    frequency:    1.2307141960
  - # 5
    frequency:    2.0016909094
  - # 6
    frequency:    2.8226833982
  - # 7
    frequency:    3.1618098170
  - # 8
    frequency:    4.3055272832
  - # 9
    frequency:    4.6914698524
  - # 10
    frequency:    5.0829587351
  - # 11
    frequency:    7.7465059947
  - # 12
    frequency:    8.1386254104
  - # 13
    frequency:   10.6668361371
  - # 14
    frequency:   10.7803297062
  - # 15
    frequency:   15.6275438489
  - # 16
    frequency:   15.8106884509
  - # 17
    frequency:   16.3000058896
  - # 18
    frequency:   36.7194662810

- q-position: [    0.1262626,    0.0000000,    0.0000000 ]
  distance:    0.0429562
  band:
  - # 1
    frequency:   -6.1205709152
  - # 2
    frequency:   -5.4727638543
  - # 3
    frequency:    0.7650569195
  - # 4
    frequency:    1.2789434256
  - # 5
    frequency:    2.0687168359
  - # 6
    frequency:    2.8363976062
  - # 7
    frequency:    3.1957377898
  - # 8
    frequency:    4.3049148978
  - # 9
    frequency:    4.7015399775
  - # 10
    frequency:    5.1198108548
  - # 11
    frequency:    7.7235388446
  - # 12
    frequency:    8.1201135919
  - # 13
    frequency:   10.6643821169
  - # 14
    frequency:   10.7873654714
  - # 15
    frequency:   15.6088482722
  - # 16
    frequency:   15.8101866134
  - # 17
    frequency:   16.3080177680
  - # 18
    frequency:   36.6957612159

- q-position: [    0.1313131,    0.0000000,    0.0000000 ]
  distance:    0.0446745
  band:
  - # 1
    frequency:   -6.1466706515
  - # 2
    frequency:   -5.4450909734
  - # 3
    frequency:    0.8152534899
  - # 4
    frequency:    1.3267824964
  - # 5
    frequency:    2.1338071730
  - # 6
    frequency:    2.8505021545
  - # 7
    frequency:    3.2299866612
  - # 8
    frequency:    4.3045760293
  - # 9
    frequency:    4.7118730151
  - # 10
    frequency:    5.1573610955
  - # 11
    frequency:    7.7009140074
  - # 12
    frequency:    8.1012441651
  - # 13
    frequency:   10.6624094767
  - # 14
    frequency:   10.7954910072
  - # 15
    frequency:   15.5899591160
  - # 16
    frequency:   15.8100385384
  - # 17
    frequency:   16.3161108161
  - # 18
    frequency:   36.6713391112

- q-position: [    0.1363636,    0.0000000,    0.0000000 ]
  distance:    0.0463927
  band:
  - # 1
    frequency:   -6.1731114652
  - # 2
    frequency:   -5.4155178506
  - # 3
    frequency:    0.8660832730
  - # 4
    frequency:    1.3742125477
  - # 5
    frequency:    2.1969192332
  - # 6
    frequency:    2.8649810024
  - # 7
    frequency:    3.2644972933
  - # 8
    frequency:    4.3045196959
  - # 9
    frequency:    4.7224521182
  - # 10
    frequency:    5.1955409420
  - # 11
    frequency:    7.6787405242
  - # 12
    frequency:    8.0820360158
  - # 13
    frequency:   10.6609634050
  - # 14
    frequency:   10.8048138326
  - # 15
    frequency:   15.5709351761
  - # 16
    frequency:   15.8102208850
  - # 17
    frequency:   16.3243166541
  - # 18
    frequency:   36.6462278667

- q-position: [    0.1414141,    0.0000000,    0.0000000 ]
  distance:    0.0481110
  band:
  - # 1
    frequency:   -6.1998209737
  - # 2
    frequency:   -5.3839605700
  - # 3
    frequency:    0.9174766572
  - # 4
    frequency:    1.4212144622
  - # 5
    frequency:    2.2580197135
  - # 6
    frequency:    2.8798180138
  - # 7
    frequency:    3.2992095315
  - # 8
    frequency:    4.3047552008
  - # 9
    frequency:    4.7332600037
  - # 10
    frequency:    5.2342804251
  - # 11
    frequency:    7.6571198367
  - # 12
    frequency:    8.0625096529
  - # 13
    frequency:   10.6600870524
  - # 14
    frequency:   10.8154434852
  - # 15
    frequency:   15.5518356751
  - # 16
    frequency:   15.8107068851
  - # 17
    frequency:   16.3326702719
  - # 18
    frequency:   36.6204560747

- q-position: [    0.1464646,    0.0000000,    0.0000000 ]
  distance:    0.0498292
  band:
  - # 1
    frequency:   -6.2267260393
  - # 2
    frequency:   -5.3503348575
  - # 3
    frequency:    0.9693675553
  - # 4
    frequency:    1.4677689019
  - # 5
    frequency:    2.3170855835
  - # 6
    frequency:    2.8949969630
  - # 7
    frequency:    3.3340613959
  - # 8
    frequency:    4.3052920566
  - # 9
    frequency:    4.7442789887
  - # 10
    frequency:    5.2735084328
  - # 11
    frequency:    7.6361448286
  - # 12
    frequency:    8.0426874703
  - # 13
    frequency:   10.6598213263
  - # 14
    frequency:   10.8274906916
  - # 15
    frequency:   15.5327200504
  - # 16
    frequency:   15.8114667054
  - # 17
    frequency:   16.3412097262
  - # 18
    frequency:   36.5940529800

- q-position: [    0.1515152,    0.0000000,    0.0000000 ]
  distance:    0.0515475
  band:
  - # 1
    frequency:   -6.2537531055
  - # 2
    frequency:   -5.3145565089
  - # 3
    frequency:    1.0216931667
  - # 4
    frequency:    1.5138563508
  - # 5
    frequency:    2.3741047940
  - # 6
    frequency:    2.9105015363
  - # 7
    frequency:    3.3689884647
  - # 8
    frequency:    4.3061398962
  - # 9
    frequency:    4.7554910303
  - # 10
    frequency:    5.3131530349
  - # 11
    frequency:    7.6158989426
  - # 12
    frequency:    8.0225939730
  - # 13
    frequency:   10.6602047088
  - # 14
    frequency:   10.8410665050
  - # 15
    frequency:   15.5136477359
  - # 16
    frequency:   15.8124678122
  - # 17
    frequency:   16.3499758247
  - # 18
    frequency:   36.5670484388

- q-position: [    0.1565657,    0.0000000,    0.0000000 ]
  distance:    0.0532657
  band:
  - # 1
    frequency:   -6.2808285457
  - # 2
    frequency:   -5.2765418229
  - # 3
    frequency:    1.0743937427
  - # 4
    frequency:    1.5594571644
  - # 5
    frequency:    2.4290767554
  - # 6
    frequency:    2.9263153311
  - # 7
    frequency:    3.4039235017
  - # 8
    frequency:    4.3073083726
  - # 9
    frequency:    4.7668777677
  - # 10
    frequency:    5.3531418133
  - # 11
    frequency:    7.5964553712
  - # 12
    frequency:    8.0022559829
  - # 13
    frequency:   10.6612730972
  - # 14
    frequency:   10.8562814121
  - # 15
    frequency:   15.4946779402
  - # 16
    frequency:   15.8136753403
  - # 17
    frequency:   16.3590117924
  - # 18
    frequency:   36.5394728772

- q-position: [    0.1616162,    0.0000000,    0.0000000 ]
  distance:    0.0549840
  band:
  - # 1
    frequency:   -6.3078790197
  - # 2
    frequency:   -5.2362080298
  - # 3
    frequency:    1.1274123571
  - # 4
    frequency:    1.6045516258
  - # 5
    frequency:    2.4820125412
  - # 6
    frequency:    2.9424218512
  - # 7
    frequency:    3.4387963617
  - # 8
    frequency:    4.3088070491
  - # 9
    frequency:    4.7784205679
  - # 10
    frequency:    5.3934021946
  - # 11
    frequency:    7.5778763187
  - # 12
    frequency:    7.9817028375
  - # 13
    frequency:   10.6630596698
  - # 14
    frequency:   10.8732444182
  - # 15
    frequency:   15.4758694205
  - # 16
    frequency:   15.8150524705
  - # 17
    frequency:   16.3683629128
  - # 18
    frequency:   36.5113572492

- q-position: [    0.1666667,    0.0000000,    0.0000000 ]
  distance:    0.0567022
  band:
  - # 1
    frequency:   -6.3348318351
  - # 2
    frequency:   -5.1934737097
  - # 3
    frequency:    1.1806946831
  - # 4
    frequency:    1.6491200062
  - # 5
    frequency:    2.5329347914
  - # 6
    frequency:    2.9588045015
  - # 7
    frequency:    3.4735341935
  - # 8
    frequency:    4.3106452814
  - # 9
    frequency:    4.7901005729
  - # 10
    frequency:    5.4338617820
  - # 11
    frequency:    7.5602123293
  - # 12
    frequency:    7.9609665992
  - # 13
    frequency:   10.6655947723
  - # 14
    frequency:   10.8920621143
  - # 15
    frequency:   15.4572802546
  - # 16
    frequency:   15.8165608184
  - # 17
    frequency:   16.3780761410
  - # 18
    frequency:   36.4827329953

- q-position: [    0.1717172,    0.0000000,    0.0000000 ]
  distance:    0.0584205
  band:
  - # 1
    frequency:   -6.3616153097
  - # 2
    frequency:   -5.1482591904
  - # 3
    frequency:    1.2341887784
  - # 4
    frequency:    1.6931426333
  - # 5
    frequency:    2.5818773093
  - # 6
    frequency:    2.9754465794
  - # 7
    frequency:    3.5080619335
  - # 8
    frequency:    4.3128320931
  - # 9
    frequency:    4.8018987500
  - # 10
    frequency:    5.4744486823
  - # 11
    frequency:    7.5435016820
  - # 12
    frequency:    7.9400822888
  - # 13
    frequency:   10.6689058283
  - # 14
    frequency:   10.9128377313
  - # 15
    frequency:   15.4389676102
  - # 16
    frequency:   15.8181608361
  - # 17
    frequency:   16.3881996828
  - # 18
    frequency:   36.4536319994

- q-position: [    0.1767677,    0.0000000,    0.0000000 ]
  distance:    0.0601387
  band:
  - # 1
    frequency:   -6.3881591305
  - # 2
    frequency:   -5.1004869159
  - # 3
    frequency:    1.2878448797
  - # 4
    frequency:    1.7365999623
  - # 5
    frequency:    2.6288843661
  - # 6
    frequency:    2.9923312668
  - # 7
    frequency:    3.5423030654
  - # 8
    frequency:    4.3153760458
  - # 9
    frequency:    4.8137959442
  - # 10
    frequency:    5.5150918278
  - # 11
    frequency:    7.5277698443
  - # 12
    frequency:    7.9190881606
  - # 13
    frequency:   10.6730172693
  - # 14