nqpoint: 300    
npath: 3      
segment_nqpoint:
- 100
- 100
- 100
labels:
- [ 'G', 'M' ]
- [ 'M', 'K' ]
- [ 'K', 'G' ]
reciprocal_lattice:
- [   0.29730994,   0.17165197,   0.00000000 ] # a*
- [   0.00000000,   0.34330395,   0.00000000 ] # b*
- [   0.00000000,   0.00000000,   0.03893278 ] # c*
natom: 6      
lattice:
- [     3.363493341948991,     0.000000000000000,     0.000000000000000 ] # a
- [    -1.681746670974495,     2.912870679567776,     0.000000000000000 ] # b
- [     0.000000000000000,     0.000000000000000,    25.685294401385363 ] # c
points:
- symbol: Br # 1
  coordinates: [  0.666666984744048,  0.333332985985145,  0.350395049375590 ]
  mass: 79.904000
- symbol: N # 2
  coordinates: [  0.000000000000000,  0.000000000000000,  0.468691260904253 ]
  mass: 14.006700
- symbol: O # 3
  coordinates: [  0.333332985432215,  0.666666983183674,  0.649604950624410 ]
  mass: 15.999400
- symbol: P # 4
  coordinates: [  0.333332985432215,  0.666666983183674,  0.591412909268855 ]
  mass: 30.973762
- symbol: Sc # 5
  coordinates: [  0.333332985432215,  0.666666983183674,  0.423456797002493 ]
  mass: 44.955912
- symbol: Sc # 6
  coordinates: [  0.666666984744048,  0.333332985985145,  0.515370579759837 ]
  mass: 44.955912

phonon:
- q-position: [    0.0000000,    0.0000000,    0.0000000 ]
  distance:    0.0000000
  band:
  - # 1
    frequency:   -0.0000229747
  - # 2
    frequency:   -0.0000002646
  - # 3
    frequency:    0.0000223975
  - # 4
    frequency:    2.4285846291
  - # 5
    frequency:    2.4285846291
  - # 6
    frequency:    4.0329028710
  - # 7
    frequency:    4.0329028710
  - # 8
    frequency:    4.4050904181
  - # 9
    frequency:    5.0430852825
  - # 10
    frequency:    5.0430852826
  - # 11
    frequency:    6.4587050951
  - # 12
    frequency:    6.4587050951
  - # 13
    frequency:    7.8944513283
  - # 14
    frequency:   10.9171079753
  - # 15
    frequency:   13.0779460216
  - # 16
    frequency:   13.0779460217
  - # 17
    frequency:   13.8216399531
  - # 18
    frequency:   34.1534347863

- q-position: [    0.0050505,    0.0000000,    0.0000000 ]
  distance:    0.0017339
  band:
  - # 1
    frequency:    0.0013245139
  - # 2
    frequency:    0.0526248619
  - # 3
    frequency:    0.0966834369
  - # 4
    frequency:    2.4279163562
  - # 5
    frequency:    2.4283903448
  - # 6
    frequency:    4.0321951775
  - # 7
    frequency:    4.0332802894
  - # 8
    frequency:    4.4066769931
  - # 9
    frequency:    5.0421456286
  - # 10
    frequency:    5.0423629828
  - # 11
    frequency:    6.4589765479
  - # 12
    frequency:    6.4590841694
  - # 13
    frequency:    7.8945005753
  - # 14
    frequency:   10.9164023322
  - # 15
    frequency:   13.0778020216
  - # 16
    frequency:   13.0780307179
  - # 17
    frequency:   13.8213012446
  - # 18
    frequency:   34.1531727052

- q-position: [    0.0101010,    0.0000000,    0.0000000 ]
  distance:    0.0034677
  band:
  - # 1
    frequency:    0.0052647634
  - # 2
    frequency:    0.1051711758
  - # 3
    frequency:    0.1931385880
  - # 4
    frequency:    2.4259072341
  - # 5
    frequency:    2.4277913247
  - # 6
    frequency:    4.0301418697
  - # 7
    frequency:    4.0344104899
  - # 8
    frequency:    4.4113606971
  - # 9
    frequency:    5.0393333307
  - # 10
    frequency:    5.0402177870
  - # 11
    frequency:    6.4597904455
  - # 12
    frequency:    6.4602207586
  - # 13
    frequency:    7.8946497329
  - # 14
    frequency:   10.9142872629
  - # 15
    frequency:   13.0773699126
  - # 16
    frequency:   13.0782843492
  - # 17
    frequency:   13.8202859343
  - # 18
    frequency:   34.1523869628

- q-position: [    0.0151515,    0.0000000,    0.0000000 ]
  distance:    0.0052016
  band:
  - # 1
    frequency:    0.0117256310
  - # 2
    frequency:    0.1575579621
  - # 3
    frequency:    0.2891296556
  - # 4
    frequency:    2.4225444593
  - # 5
    frequency:    2.4267411302
  - # 6
    frequency:    4.0269390479
  - # 7
    frequency:    4.0362872834
  - # 8
    frequency:    4.4189252505
  - # 9
    frequency:    5.0346684493
  - # 10
    frequency:    5.0367157911
  - # 11
    frequency:    6.4611453931
  - # 12
    frequency:    6.4621128809
  - # 13
    frequency:    7.8949030551
  - # 14
    frequency:   10.9107683305
  - # 15
    frequency:   13.0766493886
  - # 16
    frequency:   13.0787055457
  - # 17
    frequency:   13.8185964595
  - # 18
    frequency:   34.1510790613

- q-position: [    0.0202020,    0.0000000,    0.0000000 ]
  distance:    0.0069354
  band:
  - # 1
    frequency:    0.0205449846
  - # 2
    frequency:    0.2096992376
  - # 3
    frequency:    0.3844052845
  - # 4
    frequency:    2.4178070633
  - # 5
    frequency:    2.4251693026
  - # 6
    frequency:    4.0228747884
  - # 7
    frequency:    4.0389002690
  - # 8
    frequency:    4.4290441323
  - # 9
    frequency:    5.0281846442
  - # 10
    frequency:    5.0319704726
  - # 11
    frequency:    6.4630390254
  - # 12
    frequency:    6.4647569729
  - # 13
    frequency:    7.8952676463
  - # 14
    frequency:   10.9058547503
  - # 15
    frequency:   13.0756400095
  - # 16
    frequency:   13.0792920311
  - # 17
    frequency:   13.8162368557
  - # 18
    frequency:   34.1492514997

- q-position: [    0.0252525,    0.0000000,    0.0000000 ]
  distance:    0.0086693
  band:
  - # 1
    frequency:    0.0314894174
  - # 2
    frequency:    0.2615012083
  - # 3
    frequency:    0.4786893765
  - # 4
    frequency:    2.4116665142
  - # 5
    frequency:    2.4229919935
  - # 6
    frequency:    4.0182858664
  - # 7
    frequency:    4.0422347022
  - # 8
    frequency:    4.4413165505
  - # 9
    frequency:    5.0199295079
  - # 10
    frequency:    5.0261477482
  - # 11
    frequency:    6.4654679496
  - # 12
    frequency:    6.4681475227
  - # 13
    frequency:    7.8957534821
  - # 14
    frequency:   10.8995593056
  - # 15
    frequency:   13.0743413045
  - # 16
    frequency:   13.0800406338
  - # 17
    frequency:   13.8132127166
  - # 18
    frequency:   34.1469077673

- q-position: [    0.0303030,    0.0000000,    0.0000000 ]
  distance:    0.0104031
  band:
  - # 1
    frequency:    0.0442457926
  - # 2
    frequency:    0.3128590541
  - # 3
    frequency:    0.5716701156
  - # 4
    frequency:    2.4040876540
  - # 5
    frequency:    2.4201273178
  - # 6
    frequency:    4.0135172596
  - # 7
    frequency:    4.0462713001
  - # 8
    frequency:    4.4552976245
  - # 9
    frequency:    5.0099650188
  - # 10
    frequency:    5.0194731514
  - # 11
    frequency:    6.4684276726
  - # 12
    frequency:    6.4722766004
  - # 13
    frequency:    7.8963734349
  - # 14
    frequency:   10.8918982339
  - # 15
    frequency:   13.0727529114
  - # 16
    frequency:   13.0809473014
  - # 17
    frequency:   13.8095311388
  - # 18
    frequency:   34.1440523346

- q-position: [    0.0353535,    0.0000000,    0.0000000 ]
  distance:    0.0121370
  band:
  - # 1
    frequency:    0.0584069734
  - # 2
    frequency:    0.3636531204
  - # 3
    frequency:    0.6629864484
  - # 4
    frequency:    2.3950300771
  - # 5
    frequency:    2.4165159444
  - # 6
    frequency:    4.0088908042
  - # 7
    frequency:    4.0509859779
  - # 8
    frequency:    4.4705165746
  - # 9
    frequency:    4.9983681044
  - # 10
    frequency:    5.0122410171
  - # 11
    frequency:    6.4719125195
  - # 12
    frequency:    6.4771333265
  - # 13
    frequency:    7.8971433030
  - # 14
    frequency:   10.8828910851
  - # 15
    frequency:   13.0708747503
  - # 16
    frequency:   13.0820071191
  - # 17
    frequency:   13.8052006522
  - # 18
    frequency:   34.1406906408

- q-position: [    0.0404040,    0.0000000,    0.0000000 ]
  distance:    0.0138709
  band:
  - # 1
    frequency:    0.0734480319
  - # 2
    frequency:    0.4137442786
  - # 3
    frequency:    0.7522112015
  - # 4
    frequency:    2.3844501020
  - # 5
    frequency:    2.4121476168
  - # 6
    frequency:    4.0046839256
  - # 7
    frequency:    4.0563495021
  - # 8
    frequency:    4.4864826764
  - # 9
    frequency:    4.9852312979
  - # 10
    frequency:    5.0048251129
  - # 11
    frequency:    6.4759155493
  - # 12
    frequency:    6.4827033196
  - # 13
    frequency:    7.8980818384
  - # 14
    frequency:   10.8725605550
  - # 15
    frequency:   13.0687072250
  - # 16
    frequency:   13.0832143329
  - # 17
    frequency:   13.8002311365
  - # 18
    frequency:   34.1368290798

- q-position: [    0.0454545,    0.0000000,    0.0000000 ]
  distance:    0.0156047
  band:
  - # 1
    frequency:    0.0886863194
  - # 2
    frequency:    0.4629681394
  - # 3
    frequency:    0.8388301017
  - # 4
    frequency:    2.3723035441
  - # 5
    frequency:    2.4070943963
  - # 6
    frequency:    4.0011163632
  - # 7
    frequency:    4.0623270514
  - # 8
    frequency:    4.5026828166
  - # 9
    frequency:    4.9706634721
  - # 10
    frequency:    4.9976891605
  - # 11
    frequency:    6.4804284757
  - # 12
    frequency:    6.4889681677
  - # 13
    frequency:    7.8992107706
  - # 14
    frequency:   10.8609322991
  - # 15
    frequency:   13.0662514468
  - # 16
    frequency:   13.0845623749
  - # 17
    frequency:   13.7946337256
  - # 18
    frequency:   34.1324749827

- q-position: [    0.0505051,    0.0000000,    0.0000000 ]
  distance:    0.0173386
  band:
  - # 1
    frequency:    0.1032126591
  - # 2
    frequency:    0.5111276989
  - # 3
    frequency:    0.9222164479
  - # 4
    frequency:    2.3585495773
  - # 5
    frequency:    2.4015512464
  - # 6
    frequency:    3.9983421714
  - # 7
    frequency:    4.0688776665
  - # 8
    frequency:    4.5185770510
  - # 9
    frequency:    4.9547906290
  - # 10
    frequency:    4.9913938559
  - # 11
    frequency:    6.4854415996
  - # 12
    frequency:    6.4959049625
  - # 13
    frequency:    7.9005548195
  - # 14
    frequency:   10.8480347294
  - # 15
    frequency:   13.0635094762
  - # 16
    frequency:   13.0860438930
  - # 17
    frequency:   13.7884206999
  - # 18
    frequency:   34.1276365984

- q-position: [    0.0555556,    0.0000000,    0.0000000 ]
  distance:    0.0190724
  band:
  - # 1
    frequency:    0.1157665748
  - # 2
    frequency:    0.5579838531
  - # 3
    frequency:    1.0016025983
  - # 4
    frequency:    2.3431560651
  - # 5
    frequency:    2.3958836670
  - # 6
    frequency:    3.9964448923
  - # 7
    frequency:    4.0759535775
  - # 8
    frequency:    4.5336008294
  - # 9
    frequency:    4.9377567209
  - # 10
    frequency:    4.9865941698
  - # 11
    frequency:    6.4909437586
  - # 12
    frequency:    6.5034859304
  - # 13
    frequency:    7.9021416939
  - # 14
    frequency:   10.8338988001
  - # 15
    frequency:   13.0604845730
  - # 16
    frequency:   13.0876507834
  - # 17
    frequency:   13.7816053697
  - # 18
    frequency:   34.1223230711

- q-position: [    0.0606061,    0.0000000,    0.0000000 ]
  distance:    0.0208063
  band:
  - # 1
    frequency:    0.1244895779
  - # 2
    frequency:    0.6032430181
  - # 3
    frequency:    1.0760527376
  - # 4
    frequency:    2.3261068649
  - # 5
    frequency:    2.3906795861
  - # 6
    frequency:    3.9954347431
  - # 7
    frequency:    4.0834993929
  - # 8
    frequency:    4.5471846555
  - # 9
    frequency:    4.9197244731
  - # 10
    frequency:    4.9840176911
  - # 11
    frequency:    6.4969222974
  - # 12
    frequency:    6.5116781865
  - # 13
    frequency:    7.9040020671
  - # 14
    frequency:   10.8185577851
  - # 15
    frequency:   13.0571814515
  - # 16
    frequency:   13.0893742255
  - # 17
    frequency:   13.7742019500
  - # 18
    frequency:   34.1165444158

- q-position: [    0.0656566,    0.0000000,    0.0000000 ]
  distance:    0.0225402
  band:
  - # 1
    frequency:    0.1263612974
  - # 2
    frequency:    0.6465408368
  - # 3
    frequency:    1.1444480252
  - # 4
    frequency:    2.3074117476
  - # 5
    frequency:    2.3867972333
  - # 6
    frequency:    3.9952474743
  - # 7
    frequency:    4.0914511462
  - # 8
    frequency:    4.5588015060
  - # 9
    frequency:    4.9008761695
  - # 10
    frequency:    4.9844143644
  - # 11
    frequency:    6.5033630627
  - # 12
    frequency:    6.5204436298
  - # 13
    frequency:    7.9061695237
  - # 14
    frequency:   10.8020470530
  - # 15
    frequency:   13.0536065310
  - # 16
    frequency:   13.0912047198
  - # 17
    frequency:   13.7662254294
  - # 18
    frequency:   34.1103114910

- q-position: [    0.0707071,    0.0000000,    0.0000000 ]
  distance:    0.0242740
  band:
  - # 1
    frequency:    0.1155283317
  - # 2
    frequency:    0.6874206190
  - # 3
    frequency:    1.2055064312
  - # 4
    frequency:    2.2871197146
  - # 5
    frequency:    2.3853909972
  - # 6
    frequency:    3.9957451478
  - # 7
    frequency:    4.0997352031
  - # 8
    frequency:    4.5680444716
  - # 9
    frequency:    4.8814143509
  - # 10
    frequency:    4.9884751422
  - # 11
    frequency:    6.5102504236
  - # 12
    frequency:    6.5297389893
  - # 13
    frequency:    7.9086804710
  - # 14
    frequency:   10.7844038424
  - # 15
    frequency:   13.0497681775
  - # 16
    frequency:   13.0931321280
  - # 17
    frequency:   13.7576914341
  - # 18
    frequency:   34.1036359695

- q-position: [    0.0757576,    0.0000000,    0.0000000 ]
  distance:    0.0260079
  band:
  - # 1
    frequency:    0.0742086246
  - # 2
    frequency:    0.7253047668
  - # 3
    frequency:    1.2578737353
  - # 4
    frequency:    2.2653365822
  - # 5
    frequency:    2.3878845023
  - # 6
    frequency:    3.9967194981
  - # 7
    frequency:    4.1082670599
  - # 8
    frequency:    4.5747190486
  - # 9
    frequency:    4.8615623513
  - # 10
    frequency:    4.9967345548
  - # 11
    frequency:    6.5175673165
  - # 12
    frequency:    6.5395160250
  - # 13
    frequency:    7.9115740041
  - # 14
    frequency:   10.7656670426
  - # 15
    frequency:   13.0456769280
  - # 16
    frequency:   13.0951457145
  - # 17
    frequency:   13.7486160908
  - # 18
    frequency:   34.0965303061

- q-position: [    0.0808081,    0.0000000,    0.0000000 ]
  distance:    0.0277417
  band:
  - # 1
    frequency:   -0.1028062985
  - # 2
    frequency:    0.7594570117
  - # 3
    frequency:    1.3003291914
  - # 4
    frequency:    2.2422476155
  - # 5
    frequency:    2.3958531002
  - # 6
    frequency:    3.9978988492
  - # 7
    frequency:    4.1169500995
  - # 8
    frequency:    4.5789146720
  - # 9
    frequency:    4.8415645670
  - # 10
    frequency:    5.0094915700
  - # 11
    frequency:    6.5252953152
  - # 12
    frequency:    6.5497218807
  - # 13
    frequency:    7.9148917213
  - # 14
    frequency:   10.7458769823
  - # 15
    frequency:   13.0413456928
  - # 16
    frequency:   13.0972341905
  - # 17
    frequency:   13.7390158880
  - # 18
    frequency:   34.0890077043

- q-position: [    0.0858586,    0.0000000,    0.0000000 ]
  distance:    0.0294756
  band:
  - # 1
    frequency:   -0.1975744717
  - # 2
    frequency:    0.7889329138
  - # 3
    frequency:    1.3321264111
  - # 4
    frequency:    2.2181454940
  - # 5
    frequency:    2.4107961123
  - # 6
    frequency:    3.9989597594
  - # 7
    frequency:    4.1256744354
  - # 8
    frequency:    4.5810182939
  - # 9
    frequency:    4.8216862977
  - # 10
    frequency:    5.0267845622
  - # 11
    frequency:    6.5334147218
  - # 12
    frequency:    6.5602995843
  - # 13
    frequency:    7.9186774779
  - # 14
    frequency:   10.7250752294
  - # 15
    frequency:   13.0367899306
  - # 16
    frequency:   13.0993857587
  - # 17
    frequency:   13.7289075403
  - # 18
    frequency:   34.0810820796

- q-position: [    0.0909091,    0.0000000,    0.0000000 ]
  distance:    0.0312094
  band:
  - # 1
    frequency:   -0.2922329158
  - # 2
    frequency:    0.8125158642
  - # 3
    frequency:    1.3534146661
  - # 4
    frequency:    2.1934625415
  - # 5
    frequency:    2.4338385171
  - # 6
    frequency:    3.9995445502
  - # 7
    frequency:    4.1343160639
  - # 8
    frequency:    4.5816588056
  - # 9
    frequency:    4.8022129227
  - # 10
    frequency:    5.0484301463
  - # 11
    frequency:    6.5419046772
  - # 12
    frequency:    6.5711886846
  - # 13
    frequency:    7.9229770752
  - # 14
    frequency:   10.7033044052
  - # 15
    frequency:   13.0320277896
  - # 16
    frequency:   13.1015881596
  - # 17
    frequency:   13.7183078569
  - # 18
    frequency:   34.0727680215

- q-position: [    0.0959596,    0.0000000,    0.0000000 ]
  distance:    0.0329433
  band:
  - # 1
    frequency:   -0.3956707836
  - # 2
    frequency:    0.8286357276
  - # 3
    frequency:    1.3655769622
  - # 4
    frequency:    2.1688033379
  - # 5
    frequency:    2.4654765193
  - # 6
    frequency:    3.9992853651
  - # 7
    frequency:    4.1427366708
  - # 8
    frequency:    4.5816052838
  - # 9
    frequency:    4.7834480692
  - # 10
    frequency:    5.0741019271
  - # 11
    frequency:    6.5507432875
  - # 12
    frequency:    6.5823260157
  - # 13
    frequency:    7.9278378773
  - # 14
    frequency:   10.6806080147
  - # 15
    frequency:   13.0270802129
  - # 16
    frequency:   13.1038287189
  - # 17
    frequency:   13.7072336156
  - # 18
    frequency:   34.0640807533

- q-position: [    0.1010101,    0.0000000,    0.0000000 ]
  distance:    0.0346772
  band:
  - # 1
    frequency:   -0.5102915220
  - # 2
    frequency:    0.8352663110
  - # 3
    frequency:    1.3712634139
  - # 4
    frequency:    2.1449689921
  - # 5
    frequency:    2.5054938942
  - # 6
    frequency:    3.9978341315
  - # 7
    frequency:    4.1507845860
  - # 8
    frequency:    4.5816560546
  - # 9
    frequency:    4.7657103041
  - # 10
    frequency:    5.1034125141
  - # 11
    frequency:    6.5599077625
  - # 12
    frequency:    6.5936465777
  - # 13
    frequency:    7.9333083541
  - # 14
    frequency:   10.6570302952
  - # 15
    frequency:   13.0219710025
  - # 16
    frequency:   13.1060943951
  - # 17
    frequency:   13.6957014457
  - # 18
    frequency:   34.0550360904

- q-position: [    0.1060606,    0.0000000,    0.0000000 ]
  distance:    0.0364110
  band:
  - # 1
    frequency:   -0.6362683497
  - # 2
    frequency:    0.8297918926
  - # 3
    frequency:    1.3739814711
  - # 4
    frequency:    2.1229578934
  - # 5
    frequency:    2.5530838221
  - # 6
    frequency:    3.9948957115
  - # 7
    frequency:    4.1582975249
  - # 8
    frequency:    4.5825457196
  - # 9
    frequency:    4.7493277649
  - # 10
    frequency:    5.1359741678
  - # 11
    frequency:    6.5693745643
  - # 12
    frequency:    6.6050845187
  - # 13
    frequency:    7.9394375480
  - # 14
    frequency:   10.6326160840
  - # 15
    frequency:   13.0167268403
  - # 16
    frequency:   13.1083718288
  - # 17
    frequency:   13.6837277197
  - # 18
    frequency:   34.0456503960

- q-position: [    0.1111111,    0.0000000,    0.0000000 ]
  distance:    0.0381449
  band:
  - # 1
    frequency:   -0.7722345727
  - # 2
    frequency:    0.8088087624
  - # 3
    frequency:    1.3773297821
  - # 4
    frequency:    2.1039227893
  - # 5
    frequency:    2.6070915025
  - # 6
    frequency:    3.9902592033
  - # 7
    frequency:    4.1651078148
  - # 8
    frequency:    4.5848808407
  - # 9
    frequency:    4.7346301110
  - # 10
    frequency:    5.1714323263
  - # 11
    frequency:    6.5791195606
  - # 12
    frequency:    6.6165742078
  - # 13
    frequency:    7.9462744697
  - # 14
    frequency:   10.6074107072
  - # 15
    frequency:   13.0113772645
  - # 16
    frequency:   13.1106473912
  - # 17
    frequency:   13.6713284572
  - # 18
    frequency:   34.0359405367

- q-position: [    0.1161616,    0.0000000,    0.0000000 ]
  distance:    0.0398787
  band:
  - # 1
    frequency:   -0.9157775593
  - # 2
    frequency:    0.7677458504
  - # 3
    frequency:    1.3842057160
  - # 4
    frequency:    2.0890678026
  - # 5
    frequency:    2.6662552979
  - # 6
    frequency:    3.9838210348
  - # 7
    frequency:    4.1710506754
  - # 8
    frequency:    4.5891048476
  - # 9
    frequency:    4.7219373334
  - # 10
    frequency:    5.2094778197
  - # 11
    frequency:    6.5891181826
  - # 12
    frequency:    6.6280513813
  - # 13
    frequency:    7.9538674285
  - # 14
    frequency:   10.5814598892
  - # 15
    frequency:   13.0059545992
  - # 16
    frequency:   13.1129072338
  - # 17
    frequency:   13.6585192412
  - # 18
    frequency:   34.0259238351

- q-position: [    0.1212121,    0.0000000,    0.0000000 ]
  distance:    0.0416126
  band:
  - # 1
    frequency:   -1.0640805351
  - # 2
    frequency:    0.6999200298
  - # 3
    frequency:    1.3963600768
  - # 4
    frequency:    2.0794895879
  - # 5
    frequency:    2.7293731846
  - # 6
    frequency:    3.9755944632
  - # 7
    frequency:    4.1759756473
  - # 8
    frequency:    4.5954891186
  - # 9
    frequency:    4.7115454559
  - # 10
    frequency:    5.2498463212
  - # 11
    frequency:    6.5993455829
  - # 12
    frequency:    6.6394543462
  - # 13
    frequency:    7.9622633099
  - # 14
    frequency:   10.5548096837
  - # 15
    frequency:   13.0004938375
  - # 16
    frequency:   13.1151373384
  - # 17
    frequency:   13.6453151469
  - # 18
    frequency:   34.0156180222

- q-position: [    0.1262626,    0.0000000,    0.0000000 ]
  distance:    0.0433465
  band:
  - # 1
    frequency:   -1.2145171527
  - # 2
    frequency:    0.5935846101
  - # 3
    frequency:    1.4144245937
  - # 4
    frequency:    2.0760016104
  - # 5
    frequency:    2.7953852647
  - # 6
    frequency:    3.9657035515
  - # 7
    frequency:    4.1797603788
  - # 8
    frequency:    4.6041455596
  - # 9
    frequency:    4.7037100511
  - # 10
    frequency:    5.2923118257
  - # 11
    frequency:    6.6097767917
  - # 12
    frequency:    6.6507252225
  - # 13
    frequency:    7.9715068161
  - # 14
    frequency:   10.5275064267
  - # 15
    frequency:   12.9950324791
  - # 16
    frequency:   13.1173235664
  - # 17
    frequency:   13.6317306863
  - # 18
    frequency:   34.0050411883

- q-position: [    0.1313131,    0.0000000,    0.0000000 ]
  distance:    0.0450803
  band:
  - # 1
    frequency:   -1.3649892125
  - # 2
    frequency:    0.4186804569
  - # 3
    frequency:    1.4382371435
  - # 4
    frequency:    2.0790059935
  - # 5
    frequency:    2.8633959872
  - # 6
    frequency:    3.9543641792
  - # 7
    frequency:    4.1823248228
  - # 8
    frequency:    4.6150542250
  - # 9
    frequency:    4.6986296566
  - # 10
    frequency:    5.3366782978
  - # 11
    frequency:    6.6203868700
  - # 12
    frequency:    6.6618112051
  - # 13
    frequency:    7.9816396917
  - # 14
    frequency:   10.4995967096
  - # 15
    frequency:   12.9896103230
  - # 16
    frequency:   13.1194517092
  - # 17
    frequency:   13.6177797659
  - # 18
    frequency:   33.9942117328

- q-position: [    0.1363636,    0.0000000,    0.0000000 ]
  distance:    0.0468142
  band:
  - # 1
    frequency:   -1.5139941738
  - # 2
    frequency:   -0.2025130715
  - # 3
    frequency:    1.4672115413
  - # 4
    frequency:    2.0884644134
  - # 5
    frequency:    2.9326634065
  - # 6
    frequency:    3.9418579739
  - # 7
    frequency:    4.1836429000
  - # 8
    frequency:    4.6280983035
  - # 9
    frequency:    4.6964321525
  - # 10
    frequency:    5.3827715806
  - # 11
    frequency:    6.6311510577
  - # 12
    frequency:    6.6726658216
  - # 13
    frequency:    7.9926999573
  - # 14
    frequency:   10.4711273735
  - # 15
    frequency:   12.9842692176
  - # 16
    frequency:   13.1215075382
  - # 17
    frequency:   13.6034756601
  - # 18
    frequency:   33.9831483139

- q-position: [    0.1414141,    0.0000000,    0.0000000 ]
  distance:    0.0485480
  band:
  - # 1
    frequency:   -1.6605359841
  - # 2
    frequency:   -0.5430048993
  - # 3
    frequency:    1.5006099419
  - # 4
    frequency:    2.1039702349
  - # 5
    frequency:    3.0025745572
  - # 6
    frequency:    3.9285058831
  - # 7
    frequency:    4.1837485105
  - # 8
    frequency:    4.6430992824
  - # 9
    frequency:    4.6971673090
  - # 10
    frequency:    5.4304324149
  - # 11
    frequency:    6.6420449153
  - # 12
    frequency:    6.6832501696
  - # 13
    frequency:    8.0047211808
  - # 14
    frequency:   10.4421455223
  - # 15
    frequency:   12.9790527714
  - # 16
    frequency:   13.1234768548
  - # 17
    frequency:   13.5888309983
  - # 18
    frequency:   33.9718697968

- q-position: [    0.1464646,    0.0000000,    0.0000000 ]
  distance:    0.0502819
  band:
  - # 1
    frequency:   -1.8039901647
  - # 2
    frequency:   -0.7638828050
  - # 3
    frequency:    1.5376972623
  - # 4
    frequency:    2.1248778307
  - # 5
    frequency:    3.0726170690
  - # 6
    frequency:    3.9146467984
  - # 7
    frequency:    4.1827338408
  - # 8
    frequency:    4.6598472222
  - # 9
    frequency:    4.7008076137
  - # 10
    frequency:    5.4795107660
  - # 11
    frequency:    6.6530444588
  - # 12
    frequency:    6.6935341131
  - # 13
    frequency:    8.0177318123
  - # 14
    frequency:   10.4126985544
  - # 15
    frequency:   12.9740060264
  - # 16
    frequency:   13.1253455403
  - # 17
    frequency:   13.5738577676
  - # 18
    frequency:   33.9603952020

- q-position: [    0.1515152,    0.0000000,    0.0000000 ]
  distance:    0.0520157
  band:
  - # 1
    frequency:   -1.9439821063
  - # 2
    frequency:   -0.9506562418
  - # 3
    frequency:    1.5778103175
  - # 4
    frequency:    2.1504346037
  - # 5
    frequency:    3.1423508728
  - # 6
    frequency:    3.9006245786
  - # 7
    frequency:    4.1807399770
  - # 8
    frequency:    4.6781237625
  - # 9
    frequency:    4.7072573785
  - # 10
    frequency:    5.5298613622
  - # 11
    frequency:    6.6641262867
  - # 12
    frequency:    6.7034974265
  - # 13
    frequency:    8.0317546111
  - # 14
    frequency:   10.3828342110
  - # 15
    frequency:   12.9691751005
  - # 16
    frequency:   13.1270996059
  - # 17
    frequency:   13.5585673281
  - # 18
    frequency:   33.9487436539

- q-position: [    0.1565657,    0.0000000,    0.0000000 ]
  distance:    0.0537496
  band:
  - # 1
    frequency:   -2.0802963113
  - # 2
    frequency:   -1.1189782910
  - # 3
    frequency:    1.6203786530
  - # 4
    frequency:    2.1798814711
  - # 5
    frequency:    3.2113799508
  - # 6
    frequency:    3.8867853888
  - # 7
    frequency:    4.1779419850
  - # 8
    frequency:    4.6977176935
  - # 9
    frequency:    4.7163679419
  - # 10
    frequency:    5.5813402319
  - # 11
    frequency:    6.6752676978
  - # 12
    frequency:    6.7131308822
  - # 13
    frequency:    8.0468061871
  - # 14
    frequency:   10.3526006394
  - # 15
    frequency:   12.9646067992
  - # 16
    frequency:   13.1287252429
  - # 17
    frequency:   13.5429704428
  - # 18
    frequency:   33.9369343284

- q-position: [    0.1616162,    0.0000000,    0.0000000 ]
  distance:    0.0554835
  band:
  - # 1
    frequency:   -2.2128149464
  - # 2
    frequency:   -1.2748395257
  - # 3
    frequency:    1.6649224556
  - # 4
    frequency:    2.2125134119
  - # 5
    frequency:    3.2793212176
  - # 6
    frequency:    3.8734873717
  - # 7
    frequency:    4.1745318390
  - # 8
    frequency:    4.7184342129
  - # 9
    frequency:    4.7279555196
  - # 10
    frequency:    5.6338020013
  - # 11
    frequency:    6.6864468009
  - # 12
    frequency:    6.7224372889
  - # 13
    frequency:    8.0628966761
  - # 14
    frequency:   10.3220464693
  - # 15
    frequency:   12.9603482060
  - # 16
    frequency:   13.1302088723
  - # 17
    frequency:   13.5270773205
  - # 18
    frequency:   33.9249864018

- q-position: [    0.1666667,    0.0000000,    0.0000000 ]
  distance:    0.0572173
  band:
  - # 1
    frequency:   -2.3414784687
  - # 2
    frequency:   -1.4211988937
  - # 3
    frequency:    1.7110416120
  - # 4
    frequency:    2.2477072348
  - # 5
    frequency:    3.3457642391
  - # 6
    frequency:    3.8611270083
  - # 7
    frequency:    4.1707024818
  - # 8
    frequency:    4.7400994480
  - # 9
    frequency:    4.7418183352
  - # 10
    frequency:    5.6870977224
  - # 11
    frequency:    6.6976426151
  - # 12
    frequency:    6.7314325005
  - # 13
    frequency:    8.0800295582
  - # 14
    frequency:   10.2912209013
  - # 15
    frequency:   12.9564462511
  - # 16
    frequency:   13.1315371942
  - # 17
    frequency:   13.5108976719
  - # 18
    frequency:   33.9129189994

- q-position: [    0.1717172,    0.0000000,    0.0000000 ]
  distance:    0.0589512
  band:
  - # 1
    frequency:   -2.4662612464
  - # 2
    frequency:   -1.5597493101
  - # 3
    frequency:    1.7584027073
  - # 4
    frequency:    2.2849280614
  - # 5
    frequency:    3.4102095382
  - # 6
    frequency:    3.8501923861
  - # 7
    frequency:    4.1666352179
  - # 8
    frequency:    4.7577507244
  - # 9
    frequency:    4.7625617482
  - # 10
    frequency:    5.7410730241
  - # 11
    frequency:    6.7088351602
  - # 12
    frequency:    6.7401464342
  - # 13
    frequency:    8.0982016229
  - # 14
    frequency:   10.2601738034
  - # 15
    frequency:   12.9529472666
  - # 16
    frequency:   13.1326972380
  - # 17
    frequency:   13.4944407786
  - # 18
    frequency:   33.9007511452

- q-position: [    0.1767677,    0.0000000,    0.0000000 ]
  distance:    0.0606850
  band:
  - # 1
    frequency:   -2.5871568217
  - # 2
    frequency:   -1.6915594697
  - # 3
    frequency:    1.8067268289
  - # 4
    frequency:    2.3237243363
  - # 5
    frequency:    3.4719616392
  - # 6
    frequency:    3.8413655028
  - # 7
    frequency:    4.1624912908
  - # 8
    frequency:    4.7755532570
  - # 9
    frequency:    4.7856909643
  - # 10
    frequency:    5.7955663998
  - # 11
    frequency:    6.7200055383
  - # 12
    frequency:    6.7486241539
  - # 13
    frequency:    8.1174030746
  - # 14