nqpoint: 300    
npath: 3      
segment_nqpoint:
- 100
- 100
- 100
labels:
- [ 'G', 'M' ]
- [ 'M', 'K' ]
- [ 'K', 'G' ]
reciprocal_lattice:
- [   0.29393335,   0.16970250,   0.00000000 ] # a*
- [   0.00000000,   0.33940499,   0.00000000 ] # b*
- [   0.00000000,   0.00000000,   0.03852170 ] # c*
natom: 7      
lattice:
- [     3.402131865964052,     0.000000000000000,     0.000000000000000 ] # a
- [    -1.701065932982026,     2.946332622932429,     0.000000000000000 ] # b
- [     0.000000000000000,     0.000000000000000,    25.959394277470707 ] # c
points:
- symbol: C # 1
  coordinates: [  0.000000000000000,  0.000000000000000,  0.442895253775388 ]
  mass: 12.010700
- symbol: C # 2
  coordinates: [  0.333332985432215,  0.666666983183674,  0.593445591373002 ]
  mass: 12.010700
- symbol: F # 3
  coordinates: [  0.666666984744047,  0.333332985985145,  0.346695300506715 ]
  mass: 18.998403
- symbol: N # 4
  coordinates: [  0.333332985432215,  0.666666983183674,  0.545194882641318 ]
  mass: 14.006700
- symbol: S # 5
  coordinates: [  0.333332985432215,  0.666666983183674,  0.653304699493285 ]
  mass: 32.065000
- symbol: Zr # 6
  coordinates: [  0.333332985432215,  0.666666983183674,  0.397126190168325 ]
  mass: 91.224000
- symbol: Zr # 7
  coordinates: [  0.666666984744047,  0.333332985985145,  0.491622413436325 ]
  mass: 91.224000

phonon:
- q-position: [    0.0000000,    0.0000000,    0.0000000 ]
  distance:    0.0000000
  band:
  - # 1
    frequency:   -0.0000037619
  - # 2
    frequency:   -0.0000008841
  - # 3
    frequency:    0.0000037798
  - # 4
    frequency:    0.6484486111
  - # 5
    frequency:    0.6484486111
  - # 6
    frequency:    4.5454679151
  - # 7
    frequency:    4.5454679151
  - # 8
    frequency:    5.0201019336
  - # 9
    frequency:    5.0201019336
  - # 10
    frequency:    5.5426010522
  - # 11
    frequency:    6.7243437918
  - # 12
    frequency:    6.7243437918
  - # 13
    frequency:    7.8411276428
  - # 14
    frequency:   11.2000288778
  - # 15
    frequency:   13.9368958001
  - # 16
    frequency:   13.9368958001
  - # 17
    frequency:   16.1104159648
  - # 18
    frequency:   16.3165431376
  - # 19
    frequency:   16.3165431376
  - # 20
    frequency:   27.0952256131
  - # 21
    frequency:   57.7889598929

- q-position: [    0.0050505,    0.0000000,    0.0000000 ]
  distance:    0.0017142
  band:
  - # 1
    frequency:   -0.1971232750
  - # 2
    frequency:    0.0685114810
  - # 3
    frequency:    0.2170482552
  - # 4
    frequency:    0.6502696516
  - # 5
    frequency:    0.6560331487
  - # 6
    frequency:    4.5457393238
  - # 7
    frequency:    4.5460158239
  - # 8
    frequency:    5.0213997228
  - # 9
    frequency:    5.0217378221
  - # 10
    frequency:    5.5426017405
  - # 11
    frequency:    6.7245674664
  - # 12
    frequency:    6.7251538010
  - # 13
    frequency:    7.8410822464
  - # 14
    frequency:   11.1996422635
  - # 15
    frequency:   13.9370771203
  - # 16
    frequency:   13.9373014566
  - # 17
    frequency:   16.1102226943
  - # 18
    frequency:   16.3181927874
  - # 19
    frequency:   16.3183893738
  - # 20
    frequency:   27.0951713566
  - # 21
    frequency:   57.7879108411

- q-position: [    0.0101010,    0.0000000,    0.0000000 ]
  distance:    0.0034283
  band:
  - # 1
    frequency:   -0.2659066177
  - # 2
    frequency:    0.1369169379
  - # 3
    frequency:    0.3222686357
  - # 4
    frequency:    0.6557224216
  - # 5
    frequency:    0.6781986081
  - # 6
    frequency:    4.5465527479
  - # 7
    frequency:    4.5476563248
  - # 8
    frequency:    5.0252814988
  - # 9
    frequency:    5.0266315216
  - # 10
    frequency:    5.5426045339
  - # 11
    frequency:    6.7252366934
  - # 12
    frequency:    6.7275786343
  - # 13
    frequency:    7.8409437220
  - # 14
    frequency:   11.1984821396
  - # 15
    frequency:   13.9376198495
  - # 16
    frequency:   13.9385160654
  - # 17
    frequency:   16.1096504711
  - # 18
    frequency:   16.3231276811
  - # 19
    frequency:   16.3239064420
  - # 20
    frequency:   27.0950084458
  - # 21
    frequency:   57.7847661719

- q-position: [    0.0151515,    0.0000000,    0.0000000 ]
  distance:    0.0051425
  band:
  - # 1
    frequency:   -0.3107069342
  - # 2
    frequency:    0.2050971846
  - # 3
    frequency:    0.4142171536
  - # 4
    frequency:    0.6647805700
  - # 5
    frequency:    0.7134175240
  - # 6
    frequency:    4.5479056119
  - # 7
    frequency:    4.5503796457
  - # 8
    frequency:    5.0317128114
  - # 9
    frequency:    5.0347414767
  - # 10
    frequency:    5.5426116456
  - # 11
    frequency:    6.7263461083
  - # 12
    frequency:    6.7316027588
  - # 13
    frequency:    7.8407051099
  - # 14
    frequency:   11.1965476678
  - # 15
    frequency:   13.9385203144
  - # 16
    frequency:   13.9405325936
  - # 17
    frequency:   16.1087199183
  - # 18
    frequency:   16.3313057996
  - # 19
    frequency:   16.3330316814
  - # 20
    frequency:   27.0947364597
  - # 21
    frequency:   57.7795333330

- q-position: [    0.0202020,    0.0000000,    0.0000000 ]
  distance:    0.0068567
  band:
  - # 1
    frequency:   -0.3421623159
  - # 2
    frequency:    0.2729040767
  - # 3
    frequency:    0.5013360610
  - # 4
    frequency:    0.6774161471
  - # 5
    frequency:    0.7597520081
  - # 6
    frequency:    4.5497930853
  - # 7
    frequency:    4.5541692089
  - # 8
    frequency:    5.0406372922
  - # 9
    frequency:    5.0459995311
  - # 10
    frequency:    5.5426268571
  - # 11
    frequency:    6.7278868580
  - # 12
    frequency:    6.7372004522
  - # 13
    frequency:    7.8403549622
  - # 14
    frequency:   11.1938374652
  - # 15
    frequency:   13.9397724619
  - # 16
    frequency:   13.9433394813
  - # 17
    frequency:   16.1074593585
  - # 18
    frequency:   16.3426576041
  - # 19
    frequency:   16.3456670980
  - # 20
    frequency:   27.0943547046
  - # 21
    frequency:   57.7722247002

- q-position: [    0.0252525,    0.0000000,    0.0000000 ]
  distance:    0.0085708
  band:
  - # 1
    frequency:   -0.3644088158
  - # 2
    frequency:    0.3401388663
  - # 3
    frequency:    0.5863417452
  - # 4
    frequency:    0.6936247705
  - # 5
    frequency:    0.8153355253
  - # 6
    frequency:    4.5522073765
  - # 7
    frequency:    4.5590012852
  - # 8
    frequency:    5.0519781138
  - # 9
    frequency:    5.0603124462
  - # 10
    frequency:    5.5426556688
  - # 11
    frequency:    6.7298467297
  - # 12
    frequency:    6.7443360476
  - # 13
    frequency:    7.8398775662
  - # 14
    frequency:   11.1903496275
  - # 15
    frequency:   13.9413679591
  - # 16
    frequency:   13.9469208757
  - # 17
    frequency:   16.1058987205
  - # 18
    frequency:   16.3570867679
  - # 19
    frequency:   16.3616860445
  - # 20
    frequency:   27.0938622255
  - # 21
    frequency:   57.7628575227

- q-position: [    0.0303030,    0.0000000,    0.0000000 ]
  distance:    0.0102850
  band:
  - # 1
    frequency:   -0.3794446545
  - # 2
    frequency:    0.4065205422
  - # 3
    frequency:    0.6701783904
  - # 4
    frequency:    0.7134637170
  - # 5
    frequency:    0.8786205365
  - # 6
    frequency:    4.5551369179
  - # 7
    frequency:    4.5648446674
  - # 8
    frequency:    5.0656398345
  - # 9
    frequency:    5.0775637839
  - # 10
    frequency:    5.5427055301
  - # 11
    frequency:    6.7322103286
  - # 12
    frequency:    6.7529642710
  - # 13
    frequency:    7.8392532512
  - # 14
    frequency:   11.1860817624
  - # 15
    frequency:   13.9432963269
  - # 16
    frequency:   13.9512569421
  - # 17
    frequency:   16.1040648163
  - # 18
    frequency:   16.3744711877
  - # 19
    frequency:   16.3809387633
  - # 20
    frequency:   27.0932578230
  - # 21
    frequency:   57.7514538466

- q-position: [    0.0353535,    0.0000000,    0.0000000 ]
  distance:    0.0119992
  band:
  - # 1
    frequency:   -0.3882741695
  - # 2
    frequency:    0.4716398710
  - # 3
    frequency:    0.7371054929
  - # 4
    frequency:    0.7530953031
  - # 5
    frequency:    0.9484066761
  - # 6
    frequency:    4.5585655704
  - # 7
    frequency:    4.5716604641
  - # 8
    frequency:    5.0815104748
  - # 9
    frequency:    5.0976159611
  - # 10
    frequency:    5.5427861792
  - # 11
    frequency:    6.7349593015
  - # 12
    frequency:    6.7630306639
  - # 13
    frequency:    7.8384587710
  - # 14
    frequency:   11.1810310338
  - # 15
    frequency:   13.9455451009
  - # 16
    frequency:   13.9563242362
  - # 17
    frequency:   16.1019788466
  - # 18
    frequency:   16.3946642610
  - # 19
    frequency:   16.4032559292
  - # 20
    frequency:   27.0925400732
  - # 21
    frequency:   57.7380404172

- q-position: [    0.0404040,    0.0000000,    0.0000000 ]
  distance:    0.0137133
  band:
  - # 1
    frequency:   -0.3913233759
  - # 2
    frequency:    0.5349004039
  - # 3
    frequency:    0.7649042912
  - # 4
    frequency:    0.8350968682
  - # 5
    frequency:    1.0237492233
  - # 6
    frequency:    4.5624719564
  - # 7
    frequency:    4.5794020964
  - # 8
    frequency:    5.0994636907
  - # 9
    frequency:    5.1203122780
  - # 10
    frequency:    5.5429101371
  - # 11
    frequency:    6.7380726003
  - # 12
    frequency:    6.7744720835
  - # 13
    frequency:    7.8374677555
  - # 14
    frequency:   11.1751942206
  - # 15
    frequency:   13.9481000144
  - # 16
    frequency:   13.9620961229
  - # 17
    frequency:   16.0996558598
  - # 18
    frequency:   16.4174964111
  - # 19
    frequency:   16.4284504635
  - # 20
    frequency:   27.0917073532
  - # 21
    frequency:   57.7226485610

- q-position: [    0.0454545,    0.0000000,    0.0000000 ]
  distance:    0.0154275
  band:
  - # 1
    frequency:   -0.3886046567
  - # 2
    frequency:    0.5954728647
  - # 3
    frequency:    0.7974480670
  - # 4
    frequency:    0.9161628918
  - # 5
    frequency:    1.1038449639
  - # 6
    frequency:    4.5668290033
  - # 7
    frequency:    4.5880155364
  - # 8
    frequency:    5.1193609272
  - # 9
    frequency:    5.1454787234
  - # 10
    frequency:    5.5430934340
  - # 11
    frequency:    6.7415267829
  - # 12
    frequency:    6.7872172727
  - # 13
    frequency:    7.8362512216
  - # 14
    frequency:   11.1685677882
  - # 15
    frequency:   13.9509451951
  - # 16
    frequency:   13.9685432225
  - # 17
    frequency:   16.0971054084
  - # 18
    frequency:   16.4427768400
  - # 19
    frequency:   16.4563183654
  - # 20
    frequency:   27.0907578697
  - # 21
    frequency:   57.7053140480

- q-position: [    0.0505051,    0.0000000,    0.0000000 ]
  distance:    0.0171417
  band:
  - # 1
    frequency:   -0.3797602833
  - # 2
    frequency:    0.6523531266
  - # 3
    frequency:    0.8355056025
  - # 4
    frequency:    0.9963382436
  - # 5
    frequency:    1.1879579607
  - # 6
    frequency:    4.5716037392
  - # 7
    frequency:    4.5974397889
  - # 8
    frequency:    5.1410534792
  - # 9
    frequency:    5.1729253361
  - # 10
    frequency:    5.5433567049
  - # 11
    frequency:    6.7452963440
  - # 12
    frequency:    6.8011874880
  - # 13
    frequency:    7.8347781345
  - # 14
    frequency:   11.1611479762
  - # 15
    frequency:   13.9540633702
  - # 16
    frequency:   13.9756338680
  - # 17
    frequency:   16.0943326864
  - # 18
    frequency:   16.4702954844
  - # 19
    frequency:   16.4866392658
  - # 20
    frequency:   27.0896896914
  - # 21
    frequency:   57.6860769352

- q-position: [    0.0555556,    0.0000000,    0.0000000 ]
  distance:    0.0188558
  band:
  - # 1
    frequency:   -0.3640111286
  - # 2
    frequency:    0.7046675283
  - # 3
    frequency:    0.8797247348
  - # 4
    frequency:    1.0757366946
  - # 5
    frequency:    1.2754011224
  - # 6
    frequency:    4.5767573525
  - # 7
    frequency:    4.6076075833
  - # 8
    frequency:    5.1643844120
  - # 9
    frequency:    5.2024468331
  - # 10
    frequency:    5.5437269010
  - # 11
    frequency:    6.7493540711
  - # 12
    frequency:    6.8162971764
  - # 13
    frequency:    7.8330160091
  - # 14
    frequency:   11.1529309005
  - # 15
    frequency:   13.9574360750
  - # 16
    frequency:   13.9833345598
  - # 17
    frequency:   16.0913396865
  - # 18
    frequency:   16.4998251480
  - # 19
    frequency:   16.5191771510
  - # 20
    frequency:   27.0885007848
  - # 21
    frequency:   57.6649813918

- q-position: [    0.0606061,    0.0000000,    0.0000000 ]
  distance:    0.0205700
  band:
  - # 1
    frequency:   -0.3399700928
  - # 2
    frequency:    0.7521770225
  - # 3
    frequency:    0.9301303865
  - # 4
    frequency:    1.1545042614
  - # 5
    frequency:    1.3655512652
  - # 6
    frequency:    4.5822454949
  - # 7
    frequency:    4.6184462173
  - # 8
    frequency:    5.1891903281
  - # 9
    frequency:    5.2338220158
  - # 10
    frequency:    5.5442400835
  - # 11
    frequency:    6.7536714173
  - # 12
    frequency:    6.8324546879
  - # 13
    frequency:    7.8309315416
  - # 14
    frequency:   11.1439126722
  - # 15
    frequency:   13.9610438581
  - # 16
    frequency:   13.9916104036
  - # 17
    frequency:   16.0881261561
  - # 18
    frequency:   16.5311237810
  - # 19
    frequency:   16.5536814546
  - # 20
    frequency:   27.0871890530
  - # 21
    frequency:   57.6420755079

- q-position: [    0.0656566,    0.0000000,    0.0000000 ]
  distance:    0.0222842
  band:
  - # 1
    frequency:   -0.3051494386
  - # 2
    frequency:    0.7954981634
  - # 3
    frequency:    0.9859046423
  - # 4
    frequency:    1.2327807337
  - # 5
    frequency:    1.4578670487
  - # 6
    frequency:    4.5880187969
  - # 7
    frequency:    4.6298784889
  - # 8
    frequency:    5.2153029804
  - # 9
    frequency:    5.2668110230
  - # 10
    frequency:    5.5449462332
  - # 11
    frequency:    6.7582188847
  - # 12
    frequency:    6.8495630150
  - # 13
    frequency:    7.8284912614
  - # 14
    frequency:   11.1340895314
  - # 15
    frequency:   13.9648664821
  - # 16
    frequency:   14.0004255224
  - # 17
    frequency:   16.0846902959
  - # 18
    frequency:   16.5639368769
  - # 19
    frequency:   16.5898885540
  - # 20
    frequency:   27.0857523774
  - # 21
    frequency:   57.6174110872

- q-position: [    0.0707071,    0.0000000,    0.0000000 ]
  distance:    0.0239983
  band:
  - # 1
    frequency:   -0.2544845993
  - # 2
    frequency:    0.8357359514
  - # 3
    frequency:    1.0457541284
  - # 4
    frequency:    1.3106772418
  - # 5
    frequency:    1.5518941738
  - # 6
    frequency:    4.5940235509
  - # 7
    frequency:    4.6418236543
  - # 8
    frequency:    5.2425507450
  - # 9
    frequency:    5.3011484602
  - # 10
    frequency:    5.5459180494
  - # 11
    frequency:    6.7629664106
  - # 12
    frequency:    6.8675205458
  - # 13
    frequency:    7.8256621939
  - # 14
    frequency:   11.1234579947
  - # 15
    frequency:   13.9688831158
  - # 16
    frequency:   14.0097434368
  - # 17
    frequency:   16.0810292228
  - # 18
    frequency:   16.5979999540
  - # 19
    frequency:   16.6275236237
  - # 20
    frequency:   27.0841886609
  - # 21
    frequency:   57.5910434254

- q-position: [    0.0757576,    0.0000000,    0.0000000 ]
  distance:    0.0257125
  band:
  - # 1
    frequency:   -0.1736546389
  - # 2
    frequency:    0.8739629267
  - # 3
    frequency:    1.1084305607
  - # 4
    frequency:    1.3882698779
  - # 5
    frequency:    1.6472579887
  - # 6
    frequency:    4.6002025202
  - # 7
    frequency:    4.6541983568
  - # 8
    frequency:    5.2707599719
  - # 9
    frequency:    5.3365279366
  - # 10
    frequency:    5.5472682171
  - # 11
    frequency:    6.7678837475
  - # 12
    frequency:    6.8862218217
  - # 13
    frequency:    7.8224125252
  - # 14
    frequency:   11.1120150161
  - # 15
    frequency:   13.9730725166
  - # 16
    frequency:   14.0195274070
  - # 17
    frequency:   16.0771392518
  - # 18
    frequency:   16.6330410912
  - # 19
    frequency:   16.6663027635
  - # 20
    frequency:   27.0824958732
  - # 21
    frequency:   57.5630310754

- q-position: [    0.0808081,    0.0000000,    0.0000000 ]
  distance:    0.0274267
  band:
  - # 1
    frequency:    0.1051976085
  - # 2
    frequency:    0.9109745887
  - # 3
    frequency:    1.1729746026
  - # 4
    frequency:    1.4656027607
  - # 5
    frequency:    1.7436496139
  - # 6
    frequency:    4.6064958311
  - # 7
    frequency:    4.6669174939
  - # 8
    frequency:    5.2997562317
  - # 9
    frequency:    5.3725670563
  - # 10
    frequency:    5.5491860990
  - # 11
    frequency:    6.7729408292
  - # 12
    frequency:    6.9055582900
  - # 13
    frequency:    7.8187122613
  - # 14
    frequency:   11.0997581580
  - # 15
    frequency:   13.9774132032
  - # 16
    frequency:   14.0297407379
  - # 17
    frequency:   16.0730160488
  - # 18
    frequency:   16.6687834880
  - # 19
    frequency:   16.7059353213
  - # 20
    frequency:   27.0806720977
  - # 21
    frequency:   57.5334356008

- q-position: [    0.0858586,    0.0000000,    0.0000000 ]
  distance:    0.0291408
  band:
  - # 1
    frequency:    0.2434342006
  - # 2
    frequency:    0.9472867946
  - # 3
    frequency:    1.2387175414
  - # 4
    frequency:    1.5426946494
  - # 5
    frequency:    1.8408108821
  - # 6
    frequency:    4.6128419148
  - # 7
    frequency:    4.6798949982
  - # 8
    frequency:    5.3293654730
  - # 9
    frequency:    5.4087240200
  - # 10
    frequency:    5.5520226940
  - # 11
    frequency:    6.7781081152
  - # 12
    frequency:    6.9254190436
  - # 13
    frequency:    7.8145338728
  - # 14
    frequency:   11.0866857707
  - # 15
    frequency:   13.9818836179
  - # 16
    frequency:   14.0403470448
  - # 17
    frequency:   16.0686547027
  - # 18
    frequency:   16.7049480178
  - # 19
    frequency:   16.7461263326
  - # 20
    frequency:   27.0787155783
  - # 21
    frequency:   57.5023213193

- q-position: [    0.0909091,    0.0000000,    0.0000000 ]
  distance:    0.0308550
  band:
  - # 1
    frequency:    0.3387693693
  - # 2
    frequency:    0.9832114148
  - # 3
    frequency:    1.3052046316
  - # 4
    frequency:    1.6195457925
  - # 5
    frequency:    1.9385208719
  - # 6
    frequency:    4.6191784685
  - # 7
    frequency:    4.6930445315
  - # 8
    frequency:    5.3594151084
  - # 9
    frequency:    5.4440872894
  - # 10
    frequency:    5.5565024056
  - # 11
    frequency:    6.7833569031
  - # 12
    frequency:    6.9456915392
  - # 13
    frequency:    7.8098529214
  - # 14
    frequency:   11.0727971766
  - # 15
    frequency:   13.9864622790
  - # 16
    frequency:   14.0513104828
  - # 17
    frequency:   16.0640497513
  - # 18
    frequency:   16.7412557494
  - # 19
    frequency:   16.7865790164
  - # 20
    frequency:   27.0766247670
  - # 21
    frequency:   57.4697550373

- q-position: [    0.0959596,    0.0000000,    0.0000000 ]
  distance:    0.0325692
  band:
  - # 1
    frequency:    0.4217792948
  - # 2
    frequency:    1.0189282659
  - # 3
    frequency:    1.3721221602
  - # 4
    frequency:    1.6961436834
  - # 5
    frequency:    2.0365849331
  - # 6
    frequency:    4.6254434134
  - # 7
    frequency:    4.7062801016
  - # 8
    frequency:    5.3897350368
  - # 9
    frequency:    5.4768625727
  - # 10
    frequency:    5.5642373506
  - # 11
    frequency:    6.7886596032
  - # 12
    frequency:    6.9662622909
  - # 13
    frequency:    7.8046486580
  - # 14
    frequency:   11.0580928576
  - # 15
    frequency:   13.9911279244
  - # 16
    frequency:   14.0625959427
  - # 17
    frequency:   16.0591951853
  - # 18
    frequency:   16.7774304097
  - # 19
    frequency:   16.8269972732
  - # 20
    frequency:   27.0743983714
  - # 21
    frequency:   57.4358057771

- q-position: [    0.1010101,    0.0000000,    0.0000000 ]
  distance:    0.0342833
  band:
  - # 1
    frequency:    0.4989494991
  - # 2
    frequency:    1.0545354458
  - # 3
    frequency:    1.4392461667
  - # 4
    frequency:    1.7724674445
  - # 5
    frequency:    2.1348261504
  - # 6
    frequency:    4.6315758319
  - # 7
    frequency:    4.7195166241
  - # 8
    frequency:    5.4201586150
  - # 9
    frequency:    5.5036912491
  - # 10
    frequency:    5.5784100760
  - # 11
    frequency:    6.7939899653
  - # 12
    frequency:    6.9870175320
  - # 13
    frequency:    7.7989045919
  - # 14
    frequency:   11.0425746413
  - # 15
    frequency:   13.9958596472
  - # 16
    frequency:   14.0741692156
  - # 17
    frequency:   16.0540844485
  - # 18
    frequency:   16.8132007666
  - # 19
    frequency:   16.8670881439
  - # 20
    frequency:   27.0720354004
  - # 21
    frequency:   57.4005444995

- q-position: [    0.1060606,    0.0000000,    0.0000000 ]
  distance:    0.0359975
  band:
  - # 1
    frequency:    0.5728733955
  - # 2
    frequency:    1.0900812354
  - # 3
    frequency:    1.5064096793
  - # 4
    frequency:    1.8484909897
  - # 5
    frequency:    2.2330788472
  - # 6
    frequency:    4.6375168694
  - # 7
    frequency:    4.7326704611
  - # 8
    frequency:    5.4505235857
  - # 9
    frequency:    5.5215143837
  - # 10
    frequency:    5.6019105178
  - # 11
    frequency:    6.7993232523
  - # 12
    frequency:    7.0078438436
  - # 13
    frequency:    7.7926090205
  - # 14
    frequency:   11.0262458831
  - # 15
    frequency:   14.0006370226
  - # 16
    frequency:   14.0859971303
  - # 17
    frequency:   16.0487104448
  - # 18
    frequency:   16.8483029120
  - # 19
    frequency:   16.9065641952
  - # 20
    frequency:   27.0695352096
  - # 21
    frequency:   57.3640438215

- q-position: [    0.1111111,    0.0000000,    0.0000000 ]
  distance:    0.0377117
  band:
  - # 1
    frequency:    0.6448453529
  - # 2
    frequency:    1.1255836861
  - # 3
    frequency:    1.5734823624
  - # 4
    frequency:    1.9241852282
  - # 5
    frequency:    2.3311836724
  - # 6
    frequency:    4.6432105914
  - # 7
    frequency:    4.7456599736
  - # 8
    frequency:    5.4806729676
  - # 9
    frequency:    5.5320024372
  - # 10
    frequency:    5.6329070805
  - # 11
    frequency:    6.8046363529
  - # 12
    frequency:    7.0286287472
  - # 13
    frequency:    7.7857555185
  - # 14
    frequency:   11.0091116414
  - # 15
    frequency:   14.0054402296
  - # 16
    frequency:   14.0980476662
  - # 17
    frequency:   16.0430655595
  - # 18
    frequency:   16.8824824279
  - # 19
    frequency:   16.9451458042
  - # 20
    frequency:   27.0668975439
  - # 21
    frequency:   57.3263777326

- q-position: [    0.1161616,    0.0000000,    0.0000000 ]
  distance:    0.0394258
  band:
  - # 1
    frequency:    0.7155896937
  - # 2
    frequency:    1.1610425886
  - # 3
    frequency:    1.6403578869
  - # 4
    frequency:    1.9995195653
  - # 5
    frequency:    2.4289838754
  - # 6
    frequency:    4.6486047881
  - # 7
    frequency:    4.7584061278
  - # 8
    frequency:    5.5104559146
  - # 9
    frequency:    5.5388384918
  - # 10
    frequency:    5.6675640053
  - # 11
    frequency:    6.8099078306
  - # 12
    frequency:    7.0492612592
  - # 13
    frequency:    7.7783433789
  - # 14
    frequency:   10.9911788434
  - # 15
    frequency:   14.0102501648
  - # 16
    frequency:   14.1102900453
  - # 17
    frequency:   16.0371416980
  - # 18
    frequency:   16.9154964216
  - # 19
    frequency:   16.9825633186
  - # 20
    frequency:   27.0641225783
  - # 21
    frequency:   57.2876213103

- q-position: [    0.1212121,    0.0000000,    0.0000000 ]
  distance:    0.0411400
  band:
  - # 1
    frequency:    0.7855387064
  - # 2
    frequency:    1.1964468269
  - # 3
    frequency:    1.7069460124
  - # 4
    frequency:    2.0744629015
  - # 5
    frequency:    2.5263224539
  - # 6
    frequency:    4.6536517199
  - # 7
    frequency:    4.7708331920
  - # 8
    frequency:    5.5397285477
  - # 9
    frequency:    5.5442038820
  - # 10
    frequency:    5.7035561277
  - # 11
    frequency:    6.8151179034
  - # 12
    frequency:    7.0696324071
  - # 13
    frequency:    7.7703779990
  - # 14
    frequency:   10.9724564368
  - # 15
    frequency:   14.0150485502
  - # 16
    frequency:   14.1226948055
  - # 17
    frequency:   16.0309303453
  - # 18
    frequency:   16.9471154182
  - # 19
    frequency:   17.0185590770
  - # 20
    frequency:   27.0612109548
  - # 21
    frequency:   57.2478504368

- q-position: [    0.1262626,    0.0000000,    0.0000000 ]
  distance:    0.0428542
  band:
  - # 1
    frequency:    0.8549593555
  - # 2
    frequency:    1.2317789378
  - # 3
    frequency:    1.7731675571
  - # 4
    frequency:    2.1489842838
  - # 5
    frequency:    2.6230399373
  - # 6
    frequency:    4.6583088004
  - # 7
    frequency:    4.7828695603
  - # 8
    frequency:    5.5490932664
  - # 9
    frequency:    5.5683547604
  - # 10
    frequency:    5.7397539872
  - # 11
    frequency:    6.8202483564
  - # 12
    frequency:    7.0896357044
  - # 13
    frequency:    7.7618712067
  - # 14
    frequency:   10.9529555275
  - # 15
    frequency:   14.0198180349
  - # 16
    frequency:   14.1352338573
  - # 17
    frequency:   16.0244226450
  - # 18
    frequency:   16.9771251015
  - # 19
    frequency:   17.0528892731
  - # 20
    frequency:   27.0581638171
  - # 21
    frequency:   57.2071415185

- q-position: [    0.1313131,    0.0000000,    0.0000000 ]
  distance:    0.0445683
  band:
  - # 1
    frequency:    0.9240183954
  - # 2
    frequency:    1.2670179612
  - # 3
    frequency:    1.8389511613
  - # 4
    frequency:    2.2230533182
  - # 5
    frequency:    2.7189726338
  - # 6
    frequency:    4.6625392120
  - # 7
    frequency:    4.7944487251
  - # 8
    frequency:    5.5539869216
  - # 9
    frequency:    5.5962069994
  - # 10
    frequency:    5.7755515192
  - # 11
    frequency:    6.8252823870
  - # 12
    frequency:    7.1091675851
  - # 13
    frequency:    7.7528415174
  - # 14
    frequency:   10.9326894986
  - # 15
    frequency:   14.0245422898
  - # 16
    frequency:   14.1478805266
  - # 17
    frequency:   16.0176094991
  - # 18
    frequency:   17.0053278954
  - # 19
    frequency:   17.0853256548
  - # 20
    frequency:   27.0549828401
  - # 21
    frequency:   57.1655712096

- q-position: [    0.1363636,    0.0000000,    0.0000000 ]
  distance:    0.0462825
  band:
  - # 1
    frequency:    0.9928188828
  - # 2
    frequency:    1.3021412315
  - # 3
    frequency:    1.9042311848
  - # 4
    frequency:    2.2966404198
  - # 5
    frequency:    2.8139512146
  - # 6
    frequency:    4.6663124520
  - # 7
    frequency:    4.8055104113
  - # 8
    frequency:    5.5591503273
  - # 9
    frequency:    5.6231670155
  - # 10
    frequency:    5.8105662800
  - # 11
    frequency:    6.8302043891
  - # 12
    frequency:    7.1281277923
  - # 13
    frequency:    7.7433143138
  - # 14
    frequency:   10.9116741103
  - # 15
    frequency:   14.0292060957
  - # 16
    frequency:   14.1606095836
  - # 17
    frequency:   16.0104816853
  - # 18
    frequency:   17.0315443815
  - # 19
    frequency:   17.1156570490
  - # 20
    frequency:   27.0516702553
  - # 21
    frequency:   57.1232161422

- q-position: [    0.1414141,    0.0000000,    0.0000000 ]
  distance:    0.0479967
  band:
  - # 1
    frequency:    1.0614220603
  - # 2
    frequency:    1.3371255045
  - # 3
    frequency:    1.9689463358
  - # 4
    frequency:    2.3697169523
  - # 5
    frequency:    2.9077995476
  - # 6
    frequency:    4.6696048065
  - # 7
    frequency:    4.8160018647
  - # 8
    frequency:    5.5647516271
  - # 9
    frequency:    5.6491265800
  - # 10
    frequency:    5.8445216628
  - # 11
    frequency:    6.8349996858
  - # 12
    frequency:    7.1464197179
  - # 13
    frequency:    7.7333219390
  - # 14
    frequency:   10.8899275775
  - # 15
    frequency:   14.0337954235
  - # 16
    frequency:   14.1733972609
  - # 17
    frequency:   16.0030299918
  - # 18
    frequency:   17.0556145474
  - # 19
    frequency:   17.1436907070
  - # 20
    frequency:   27.0482288721
  - # 21
    frequency:   57.0801526633

- q-position: [    0.1464646,    0.0000000,    0.0000000 ]
  distance:    0.0497108
  band:
  - # 1
    frequency:    1.1298611763
  - # 2
    frequency:    1.3719476628
  - # 3
    frequency:    2.0330387793
  - # 4
    frequency:    2.4422552958
  - # 5
    frequency:    3.0003337226
  - # 6
    frequency:    4.6723997492
  - # 7
    frequency:    4.8258792664
  - # 8
    frequency:    5.5709098010
  - # 9
    frequency:    5.6739881560
  - # 10
    frequency:    5.8771983231
  - # 11
    frequency:    6.8396542214
  - # 12
    frequency:    7.1639506874
  - # 13
    frequency:    7.7229036946
  - # 14
    frequency:   10.8674706249
  - # 15
    frequency:   14.0382975066
  - # 16
    frequency:   14.1862212592
  - # 17
    frequency:   15.9952453658
  - # 18
    frequency:   17.0773988652
  - # 19
    frequency:   17.1692534661
  - # 20
    frequency:   27.0446620931
  - # 21
    frequency:   57.0364565809

- q-position: [    0.1515152,    0.0000000,    0.0000000 ]
  distance:    0.0514250
  band:
  - # 1
    frequency:    1.1981505840
  - # 2
    frequency:    1.4065851499
  - # 3
    frequency:    2.0964535674
  - # 4
    frequency:    2.5142288647
  - # 5
    frequency:    3.0913612338
  - # 6
    frequency:    4.6746882624
  - # 7
    frequency:    4.8351092225
  - # 8
    frequency:    5.5777156531
  - # 9
    frequency:    5.6976655109
  - # 10
    frequency:    5.9084127865
  - # 11
    frequency:    6.8441542311
  - # 12
    frequency:    7.1806321803
  - # 13
    frequency:    7.7121057338
  - # 14
    frequency:   10.8443265168
  - # 15
    frequency:   14.0427009045
  - # 16
    frequency:   14.1990607445
  - # 17
    frequency:   15.9871190739
  - # 18
    frequency:   17.0967791968
  - # 19
    frequency:   17.1921927241
  - # 20
    frequency:   27.0409739237
  - # 21
    frequency:   56.9922029202